<event>
 7    1  0.9820686E-006  0.2121078E+03  0.7561462E-02  0.1139908E+00
          2   -1    0    0  501    0  0.00000000000E+00  0.00000000000E+00  0.53200674704E+03  0.53200674704E+03  0.00000000000E+00 0. -1.
         -2   -1    0    0    0  501 -0.00000000000E+00 -0.00000000000E+00 -0.96619823793E+02  0.96619823793E+02  0.00000000000E+00 0.  1.
         23    2    1    2    0    0 -0.12185398142E+03 -0.15543253146E+03  0.21647081789E+03  0.31861405340E+03  0.12509050884E+03 0.  0.
          5    1    3    3  502    0 -0.14035417007E+03 -0.12368390983E+03  0.14009100797E+03  0.23375193159E+03  0.41800000000E+01 0.  1.
         -5    1    3    3    0  502  0.18500188651E+02 -0.31748621638E+02  0.76379809915E+02  0.84862121813E+02  0.41800000000E+01 0.  1.
        -11    1    1    2    0    0  0.60192189416E+02  0.10240253583E+03  0.18925637397E+03  0.22344429754E+03  0.00000000000E+00 0. -1.
         11    1    1    2    0    0  0.61661792004E+02  0.53029995631E+02  0.29659731382E+02  0.86568219893E+02  0.00000000000E+00 0.  1.
</event>
<event>
 7    1  0.4966153E-006  0.2425508E+03  0.7561462E-02  0.1118105E+00
         -3   -1    0    0    0  501 -0.00000000000E+00  0.00000000000E+00  0.79217906735E+03  0.79217906735E+03  0.00000000000E+00 0.  1.
          3   -1    0    0  501    0  0.00000000000E+00 -0.00000000000E+00 -0.21686028956E+03  0.21686028956E+03  0.00000000000E+00 0. -1.
         23    2    1    2    0    0  0.14515363858E+03  0.17236572577E+03  0.69296760838E+03  0.73934519537E+03  0.12509072484E+03 0.  0.
          5    1    3    3  502    0  0.55746427929E+02 -0.77344794329E+01  0.14055281631E+03  0.15145974043E+03  0.41800000000E+01 0. -1.
         -5    1    3    3    0  502  0.89407210651E+02  0.18010020521E+03  0.55241479208E+03  0.58788545495E+03  0.41800000000E+01 0. -1.
        -11    1    1    2    0    0 -0.14994905204E+02 -0.36204201809E+02  0.12047780637E+02  0.40996834377E+02  0.00000000000E+00 0.  1.
         11    1    1    2    0    0 -0.13015873338E+03 -0.13616152397E+03 -0.12969661124E+03  0.22869732716E+03  0.00000000000E+00 0. -1.
</event>
<event>
 7    1  0.4966153E-006  0.1125161E+03  0.7561462E-02  0.1255980E+00
          1   -1    0    0  501    0  0.00000000000E+00  0.00000000000E+00  0.55829631015E+03  0.55829631015E+03  0.00000000000E+00 0. -1.
         -1   -1    0    0    0  501 -0.00000000000E+00 -0.00000000000E+00 -0.31859734565E+02  0.31859734565E+02  0.00000000000E+00 0.  1.
         23    2    1    2    0    0 -0.45822462811E+02 -0.36852768628E+02  0.17951702317E+03  0.22656533343E+03  0.12509062335E+03 0.  0.
          5    1    3    3  502    0 -0.60807681215E+02  0.18642502768E+02  0.39088453099E+02  0.74769623310E+02  0.41800000000E+01 0.  1.
         -5    1    3    3    0  502  0.14985218404E+02 -0.55495271396E+02  0.14042857007E+03  0.15179571012E+03  0.41800000000E+01 0.  1.
        -11    1    1    2    0    0  0.66699795465E+02  0.67711649628E+01  0.16645947717E+03  0.17945324998E+03  0.00000000000E+00 0.  1.
         11    1    1    2    0    0 -0.20877332655E+02  0.30081603665E+02  0.18046007525E+03  0.18413746130E+03  0.00000000000E+00 0. -1.
</event>
<event>
 7    1  0.4966153E-006  0.1479192E+03  0.7561462E-02  0.1203053E+00
         -1   -1    0    0    0  501 -0.00000000000E+00  0.00000000000E+00  0.61896796102E+02  0.61896796102E+02  0.00000000000E+00 0.  1.
          1   -1    0    0  501    0  0.00000000000E+00 -0.00000000000E+00 -0.38024926111E+03  0.38024926111E+03  0.00000000000E+00 0. -1.
         23    2    1    2    0    0 -0.78872146295E+02  0.70096261473E+02 -0.13700014936E+03  0.21342564469E+03  0.12508862280E+03 0.  0.
          5    1    3    3  502    0  0.25929452755E+02 -0.74575551833E+01 -0.48940240085E+02  0.56040798969E+02  0.41800000000E+01 0.  1.
         -5    1    3    3    0  502 -0.10480159905E+03  0.77553816656E+02 -0.88059909279E+02  0.15738484572E+03  0.41800000000E+01 0.  1.
        -11    1    1    2    0    0 -0.19983418066E+02 -0.93311007375E+01 -0.18678095745E+02  0.28901171244E+02  0.00000000000E+00 0.  1.
         11    1    1    2    0    0  0.98855564362E+02 -0.60765160735E+02 -0.16267421990E+03  0.19981924127E+03  0.00000000000E+00 0. -1.
</event>
<event>
 7    1  0.4966153E-006  0.1102841E+03  0.7561462E-02  0.1260045E+00
          1   -1    0    0  501    0  0.00000000000E+00  0.00000000000E+00  0.13132339464E+03  0.13132339464E+03  0.00000000000E+00 0. -1.
         -1   -1    0    0    0  501 -0.00000000000E+00 -0.00000000000E+00 -0.14973663261E+03  0.14973663261E+03  0.00000000000E+00 0.  1.
         23    2    1    2    0    0 -0.44454797366E+02  0.66372865456E+02 -0.31167415579E+02  0.15157100481E+03  0.12498310057E+03 0.  0.
          5    1    3    3  502    0 -0.36310698046E+02 -0.17184740327E+02 -0.51147514888E+02  0.65171487415E+02  0.41800000000E+01 0.  1.
         -5    1    3    3    0  502 -0.81440993204E+01  0.83557605783E+02  0.19980099309E+02  0.86399517397E+02  0.41800000000E+01 0.  1.
        -11    1    1    2    0    0 -0.11235188617E+02 -0.22777058725E+02  0.45068398148E+02  0.51731850721E+02  0.00000000000E+00 0. -1.
         11    1    1    2    0    0  0.55689985983E+02 -0.43595806731E+02 -0.32314220540E+02  0.77757171711E+02  0.00000000000E+00 0.  1.
</event>
<event>
 7    1  0.4966153E-006  0.8979019E+02  0.7561462E-02  0.1303361E+00
         -1   -1    0    0    0  501 -0.00000000000E+00  0.00000000000E+00  0.37343330161E+03  0.37343330161E+03  0.00000000000E+00 0.  1.
          1   -1    0    0  501    0  0.00000000000E+00 -0.00000000000E+00 -0.50237861819E+02  0.50237861819E+02  0.00000000000E+00 0. -1.
         23    2    1    2    0    0  0.19260500432E+02  0.42092993838E+02  0.27730095402E+03  0.30771462450E+03  0.12509869711E+03 0.  0.
          5    1    3    3  502    0  0.19804898483E+02  0.85951723816E+02  0.16632804294E+03  0.18831469167E+03  0.41800000000E+01 0.  1.
         -5    1    3    3    0  502 -0.54439805190E+00 -0.43858729977E+02  0.11097291108E+03  0.11939993283E+03  0.41800000000E+01 0.  1.
        -11    1    1    2    0    0 -0.15979687330E+02 -0.24030066962E+02 -0.27763584771E+02  0.40045114117E+02  0.00000000000E+00 0. -1.
         11    1    1    2    0    0 -0.32808131018E+01 -0.18062926876E+02  0.73658070533E+02  0.75911424810E+02  0.00000000000E+00 0.  1.
</event>
<event>
 7    1  0.4966153E-006  0.2694989E+03  0.7561462E-02  0.1101567E+00
          2   -1    0    0  501    0  0.00000000000E+00  0.00000000000E+00  0.52208781463E+03  0.52208781463E+03  0.00000000000E+00 0. -1.
         -2   -1    0    0    0  501 -0.00000000000E+00 -0.00000000000E+00 -0.14779666325E+03  0.14779666325E+03  0.00000000000E+00 0.  1.
         23    2    1    2    0    0 -0.23350892271E+03 -0.99291876205E+02  0.15514834982E+03  0.32266719141E+03  0.12513118036E+03 0.  0.
          5    1    3    3  502    0 -0.78239496951E+02  0.18680359962E+02  0.13640056801E+02  0.81693930503E+02  0.41800000000E+01 0. -1.
         -5    1    3    3    0  502 -0.15526942575E+03 -0.11797223617E+03  0.14150829302E+03  0.24097326091E+03  0.41800000000E+01 0. -1.
        -11    1    1    2    0    0  0.73798300693E+02 -0.27984686323E+01  0.96231154221E+02  0.12130315600E+03  0.00000000000E+00 0. -1.
         11    1    1    2    0    0  0.15971062201E+03  0.10209034484E+03  0.12291164734E+03  0.22591413047E+03  0.00000000000E+00 0.  1.
</event>
<event>
 7    1  0.4966153E-006  0.7683073E+02  0.7561462E-02  0.1338294E+00
         -1   -1    0    0    0  501 -0.00000000000E+00  0.00000000000E+00  0.40319876631E+03  0.40319876631E+03  0.00000000000E+00 0.  1.
          1   -1    0    0  501    0  0.00000000000E+00 -0.00000000000E+00 -0.32709310421E+02  0.32709310421E+02  0.00000000000E+00 0. -1.
         23    2    1    2    0    0  0.30205701052E+02  0.96263275908E+01  0.26896640039E+03  0.29832058538E+03  0.12508875476E+03 0.  0.
          5    1    3    3  502    0  0.52609830969E+02  0.36417326097E+01  0.26960749659E+03  0.27474848707E+03  0.41800000000E+01 0. -1.
         -5    1    3    3    0  502 -0.22404129917E+02  0.59845949811E+01 -0.64109620473E+00  0.23572098310E+02  0.41800000000E+01 0. -1.
        -11    1    1    2    0    0 -0.25567052595E+02  0.28788764831E+02  0.12438139883E+02  0.40462012834E+02  0.00000000000E+00 0. -1.
         11    1    1    2    0    0 -0.46386484573E+01 -0.38415092422E+02  0.89084915616E+02  0.97125478509E+02  0.00000000000E+00 0.  1.
</event>
<event>
 7    1  0.4966153E-006  0.1214612E+03  0.7561462E-02  0.1240706E+00
         -1   -1    0    0    0  501 -0.00000000000E+00  0.00000000000E+00  0.26884463763E+02  0.26884463763E+02  0.00000000000E+00 0.  1.
          1   -1    0    0  501    0  0.00000000000E+00 -0.00000000000E+00 -0.87909859201E+03  0.87909859201E+03  0.00000000000E+00 0. -1.
         23    2    1    2    0    0 -0.90962667990E+02 -0.21227948469E+02 -0.26033628659E+03  0.29876274581E+03  0.11295735215E+03 0.  0.
          5    1    3    3  502    0 -0.51999524077E+02  0.16469112048E+02 -0.23016694701E+03  0.23657869315E+03  0.41800000000E+01 0. -1.
         -5    1    3    3    0  502 -0.38963143913E+02 -0.37697060517E+02 -0.30169339588E+02  0.62184052670E+02  0.41800000000E+01 0.  1.
        -11    1    1    2    0    0  0.61875341493E+02 -0.34599012470E+02 -0.26390444522E+03  0.27326032598E+03  0.00000000000E+00 0. -1.
         11    1    1    2    0    0  0.29087326497E+02  0.55826960939E+02 -0.32797339643E+03  0.33395998397E+03  0.00000000000E+00 0.  1.
</event>
<event>
 7    1  0.4966153E-006  0.1259321E+03  0.7561462E-02  0.1233620E+00
          1   -1    0    0  501    0  0.00000000000E+00  0.00000000000E+00  0.14518281499E+03  0.14518281499E+03  0.00000000000E+00 0. -1.
         -1   -1    0    0    0  501 -0.00000000000E+00 -0.00000000000E+00 -0.13603750787E+03  0.13603750787E+03  0.00000000000E+00 0.  1.
         23    2    1    2    0    0  0.14722509112E+02  0.87043676399E+02 -0.95488282481E+00  0.15310784456E+03  0.12509095247E+03 0.  0.
          5    1    3    3  502    0 -0.18831598027E+02 -0.26823512396E+02  0.79836933424E+01  0.33990317164E+02  0.41800000000E+01 0.  1.
         -5    1    3    3    0  502  0.33554107139E+02  0.11386718880E+03 -0.89385761672E+01  0.11911752740E+03  0.41800000000E+01 0.  1.
        -11    1    1    2    0    0  0.73271986980E+01 -0.74127959835E+02 -0.30212314634E+02  0.80382997118E+02  0.00000000000E+00 0.  1.
         11    1    1    2    0    0 -0.22049707810E+02 -0.12915716564E+02  0.40312504575E+02  0.47729481183E+02  0.00000000000E+00 0. -1.
</event>
<event>
 7    1  0.4966153E-006  0.1004283E+03  0.7561462E-02  0.1279398E+00
         -2   -1    0    0    0  501 -0.00000000000E+00  0.00000000000E+00  0.24240728703E+02  0.24240728703E+02  0.00000000000E+00 0.  1.
          2   -1    0    0  501    0  0.00000000000E+00 -0.00000000000E+00 -0.54761109763E+03  0.54761109763E+03  0.00000000000E+00 0. -1.
         23    2    1    2    0    0  0.22944547486E+01 -0.31461845952E+02 -0.24096142890E+03  0.27331965972E+03  0.12508442709E+03 0.  0.
          5    1    3    3  502    0  0.58367684126E+02 -0.33832955103E+02 -0.16863041085E+03  0.18167317706E+03  0.41800000000E+01 0. -1.
         -5    1    3    3    0  502 -0.56073229377E+02  0.23711091509E+01 -0.72331018056E+02  0.91646482662E+02  0.41800000000E+01 0. -1.
        -11    1    1    2    0    0  0.33852522923E+02  0.11899212799E+02 -0.44820435253E+02  0.57414771530E+02  0.00000000000E+00 0.  1.
         11    1    1    2    0    0 -0.36146977672E+02  0.19562633153E+02 -0.23758850477E+03  0.24111739508E+03  0.00000000000E+00 0. -1.
</event>
<event>
 7    1  0.4966153E-006  0.1162577E+03  0.7561462E-02  0.1249402E+00
          1   -1    0    0  501    0  0.00000000000E+00  0.00000000000E+00  0.91902641637E+03  0.91902641637E+03  0.00000000000E+00 0.  1.
         -1   -1    0    0    0  501 -0.00000000000E+00 -0.00000000000E+00 -0.17258804830E+02  0.17258804830E+02  0.00000000000E+00 0. -1.
         23    2    1    2    0    0 -0.67266804065E+01 -0.62488264187E+02  0.50063659672E+03  0.51984090151E+03  0.12509008560E+03 0.  0.
          5    1    3    3  502    0 -0.44352756551E+02  0.74009163187E+01  0.31038687784E+03  0.31365494881E+03  0.41800000000E+01 0. -1.
         -5    1    3    3    0  502  0.37626076145E+02 -0.69889180505E+02  0.19024971888E+03  0.20618595270E+03  0.41800000000E+01 0. -1.
        -11    1    1    2    0    0 -0.35202053054E+02  0.54968108638E+02  0.29391724195E+03  0.30107810053E+03  0.00000000000E+00 0.  1.
         11    1    1    2    0    0  0.41928733460E+02  0.75201555489E+01  0.10721377287E+03  0.11536621916E+03  0.00000000000E+00 0. -1.
</event>
<event>
 7    1  0.4966153E-006  0.1064680E+03  0.7561462E-02  0.1267254E+00
         -2   -1    0    0    0  501 -0.00000000000E+00  0.00000000000E+00  0.57791092957E+02  0.57791092957E+02  0.00000000000E+00 0.  1.
          2   -1    0    0  501    0  0.00000000000E+00 -0.00000000000E+00 -0.33979888434E+03  0.33979888434E+03  0.00000000000E+00 0. -1.
         23    2    1    2    0    0  0.20870740956E+02  0.96161790033E+01 -0.32369888603E+02  0.13122477915E+03  0.12507627372E+03 0.  0.
          5    1    3    3  502    0  0.65643615143E+02  0.36022909831E+02 -0.17758579452E+02  0.77068630362E+02  0.41800000000E+01 0. -1.
         -5    1    3    3    0  502 -0.44772874187E+02 -0.26406730828E+02 -0.14611309151E+02  0.54156148784E+02  0.41800000000E+01 0. -1.
        -11    1    1    2    0    0  0.30314214033E+02 -0.15888303917E+02 -0.53097470589E+02  0.63172234065E+02  0.00000000000E+00 0.  1.
         11    1    1    2    0    0 -0.51184954990E+02  0.62721249136E+01 -0.19654043219E+03  0.20319296409E+03  0.00000000000E+00 0. -1.
</event>
<event>
 7    1  0.4966153E-006  0.1113907E+03  0.7561462E-02  0.1258016E+00
          1   -1    0    0  501    0  0.00000000000E+00  0.00000000000E+00  0.15086882152E+03  0.15086882152E+03  0.00000000000E+00 0. -1.
         -1   -1    0    0    0  501 -0.00000000000E+00 -0.00000000000E+00 -0.13017445155E+03  0.13017445155E+03  0.00000000000E+00 0.  1.
         23    2    1    2    0    0  0.51717227993E+02 -0.18224057345E+02 -0.50774973654E+02  0.14571021020E+03  0.12508628810E+03 0.  0.
          5    1    3    3  502    0  0.61476383457E+02 -0.53881597219E+02 -0.66359239302E+02  0.10537358911E+03  0.41800000000E+01 0. -1.
         -5    1    3    3    0  502 -0.97591554646E+01  0.35657539875E+02  0.15584265647E+02  0.40336621091E+02  0.41800000000E+01 0. -1.
        -11    1    1    2    0    0  0.24543148243E+02  0.11685409060E+02 -0.44294094909E+01  0.27541506477E+02  0.00000000000E+00 0.  1.
         11    1    1    2    0    0 -0.76260376236E+02  0.65386482845E+01  0.75898753115E+02  0.10779155639E+03  0.00000000000E+00 0. -1.
</event>
<event>
 7    1  0.4966153E-006  0.1211782E+03  0.7561462E-02  0.1241166E+00
         -1   -1    0    0    0  501 -0.00000000000E+00  0.00000000000E+00  0.64196584283E+02  0.64196584283E+02  0.00000000000E+00 0.  1.
          1   -1    0    0  501    0  0.00000000000E+00 -0.00000000000E+00 -0.31247691049E+03  0.31247691049E+03  0.00000000000E+00 0. -1.
         23    2    1    2    0    0  0.64561517679E+02 -0.58094229213E+02 -0.10486870412E+03  0.18490434129E+03  0.12509612821E+03 0.  0.
          5    1    3    3  502    0  0.41267487827E+02  0.23248483097E+02 -0.85760793518E+02  0.98060611984E+02  0.41800000000E+01 0.  1.
         -5    1    3    3    0  502  0.23294029852E+02 -0.81342712310E+02 -0.19107910606E+02  0.86843729310E+02  0.41800000000E+01 0.  1.
        -11    1    1    2    0    0 -0.78971783254E+02  0.46945666851E+02 -0.68297546200E+02  0.11447704138E+03  0.00000000000E+00 0.  1.
         11    1    1    2    0    0  0.14410265575E+02  0.11148562362E+02 -0.75114075886E+02  0.77292112100E+02  0.00000000000E+00 0. -1.
</event>
<event>
 7    1  0.4966153E-006  0.1256874E+03  0.7561462E-02  0.1233999E+00
         -1   -1    0    0    0  501 -0.00000000000E+00  0.00000000000E+00  0.44964913774E+02  0.44964913774E+02  0.00000000000E+00 0.  1.
          1   -1    0    0  501    0  0.00000000000E+00 -0.00000000000E+00 -0.46391265457E+03  0.46391265457E+03  0.00000000000E+00 0. -1.
         23    2    1    2    0    0 -0.86742140871E+02  0.31530645143E+02 -0.19878223859E+03  0.25235102450E+03  0.12509308775E+03 0.  0.
          5    1    3    3  502    0  0.26469926785E+02 -0.10301063140E+02 -0.70730889384E+02  0.76335444184E+02  0.41800000000E+01 0.  1.
         -5    1    3    3    0  502 -0.11321206766E+03  0.41831708283E+02 -0.12805134920E+03  0.17601558031E+03  0.41800000000E+01 0.  1.
        -11    1    1    2    0    0  0.28311060149E+02 -0.32961695710E+02 -0.18106410218E+03  0.18620472231E+03  0.00000000000E+00 0. -1.
         11    1    1    2    0    0  0.58431080722E+02  0.14310505668E+01 -0.39101400027E+02  0.70321821536E+02  0.00000000000E+00 0.  1.
</event>
<event>
 7    1  0.4966153E-006  0.8859237E+02  0.7561462E-02  0.1306297E+00
         -1   -1    0    0    0  501 -0.00000000000E+00  0.00000000000E+00  0.24653403901E+03  0.24653403901E+03  0.00000000000E+00 0.  1.
          1   -1    0    0  501    0  0.00000000000E+00 -0.00000000000E+00 -0.59668250595E+02  0.59668250595E+02  0.00000000000E+00 0. -1.
         23    2    1    2    0    0 -0.21984624118E+02 -0.13318062767E+02  0.16865484727E+03  0.21151398043E+03  0.12503204355E+03 0.  0.
          5    1    3    3  502    0 -0.32962605717E+02 -0.64383094123E+02  0.75540905704E+02  0.10466908340E+03  0.41800000000E+01 0.  1.
         -5    1    3    3    0  502  0.10977981599E+02  0.51065031356E+02  0.93113941569E+02  0.10684489703E+03  0.41800000000E+01 0.  1.
        -11    1    1    2    0    0 -0.90580112276E+01 -0.10012873220E+02 -0.29931697997E+02  0.32836134707E+02  0.00000000000E+00 0. -1.
         11    1    1    2    0    0  0.31042635345E+02  0.23330935987E+02  0.48142639136E+02  0.61852174466E+02  0.00000000000E+00 0.  1.
</event>
<event>
 7    1  0.4966153E-006  0.3929842E+03  0.7561462E-02  0.1046236E+00
         -2   -1    0    0    0  501 -0.00000000000E+00  0.00000000000E+00  0.18096442907E+03  0.18096442907E+03  0.00000000000E+00 0.  1.
          2   -1    0    0  501    0  0.00000000000E+00 -0.00000000000E+00 -0.89208942882E+03  0.89208942882E+03  0.00000000000E+00 0. -1.
         23    2    1    2    0    0  0.33415064593E+03  0.18938345777E+03 -0.40536787679E+03  0.57226957000E+03  0.12508635800E+03 0.  0.
          5    1    3    3  502    0  0.96016668490E+01  0.30118146694E+02 -0.41014275722E+01  0.32149477052E+02  0.41800000000E+01 0.  1.
         -5    1    3    3    0  502  0.32454897908E+03  0.15926531108E+03 -0.40126644922E+03  0.54012009295E+03  0.41800000000E+01 0.  1.
        -11    1    1    2    0    0 -0.17311262436E+03 -0.51710954624E+02 -0.10530425776E+03  0.20911955968E+03  0.00000000000E+00 0.  1.
         11    1    1    2    0    0 -0.16103802157E+03 -0.13767250315E+03 -0.20045286519E+03  0.29166472821E+03  0.00000000000E+00 0. -1.
</event>
<event>
 7    1  0.4966153E-006  0.1455527E+03  0.7561462E-02  0.1206047E+00
         -4   -1    0    0    0  501 -0.00000000000E+00  0.00000000000E+00  0.22151022784E+03  0.22151022784E+03  0.00000000000E+00 0.  1.
          4   -1    0    0  501    0  0.00000000000E+00 -0.00000000000E+00 -0.13616784967E+03  0.13616784967E+03  0.00000000000E+00 0. -1.
         23    2    1    2    0    0 -0.82348063012E+02  0.92446648126E+02 -0.11155343004E+02  0.17635068104E+03  0.12509010670E+03 0.  0.
          5    1    3    3  502    0 -0.36428117527E+02  0.90659884090E+02  0.41589075935E+02  0.10627015558E+03  0.41800000000E+01 0. -1.
         -5    1    3    3    0  502 -0.45919945485E+02  0.17867640358E+01 -0.52744418939E+02  0.70080525457E+02  0.41800000000E+01 0. -1.
        -11    1    1    2    0    0  0.76772627469E+02 -0.26847929418E+02  0.78594059432E+02  0.11310116631E+03  0.00000000000E+00 0.  1.
         11    1    1    2    0    0  0.55754355427E+01 -0.65598718708E+02  0.17903661745E+02  0.68226230158E+02  0.00000000000E+00 0. -1.
</event>
<event>
 7    1  0.4966153E-006  0.1248814E+03  0.7561462E-02  0.1235255E+00
          2   -1    0    0  501    0  0.00000000000E+00  0.00000000000E+00  0.35990340147E+03  0.35990340147E+03  0.00000000000E+00 0.  1.
         -2   -1    0    0    0  501 -0.00000000000E+00 -0.00000000000E+00 -0.18594240549E+03  0.18594240549E+03  0.00000000000E+00 0. -1.
         23    2    1    2    0    0 -0.74113365307E+02  0.53755094268E+02 -0.14360172704E+03  0.21130676999E+03  0.12508674573E+03 0.  0.
          5    1    3    3  502    0  0.71841610818E+01 -0.33919684989E+02 -0.25934672805E+02  0.43499848893E+02  0.41800000000E+01 0. -1.
         -5    1    3    3    0  502 -0.81297526388E+02  0.87674779257E+02 -0.11766705424E+03  0.16780692110E+03  0.41800000000E+01 0. -1.
        -11    1    1    2    0    0  0.22533911043E+02 -0.32191012661E+02  0.20643175204E+03  0.21013830373E+03  0.00000000000E+00 0.  1.
         11    1    1    2    0    0  0.51579454263E+02 -0.21564081607E+02  0.11113097098E+03  0.12440073323E+03  0.00000000000E+00 0. -1.
</event>
<event>
 7    1  0.4966153E-006  0.1574112E+03  0.7561462E-02  0.1191651E+00
          1   -1    0    0  501    0  0.00000000000E+00  0.00000000000E+00  0.97315033263E+03  0.97315033263E+03  0.00000000000E+00 0. -1.
         -1   -1    0    0    0  501 -0.00000000000E+00 -0.00000000000E+00 -0.30327132892E+02  0.30327132892E+02  0.00000000000E+00 0.  1.
         23    2    1    2    0    0  0.37537403144E+02 -0.13483564820E+03  0.65586778402E+03  0.68220181110E+03  0.12508817804E+03 0.  0.
          5    1    3    3  502    0  0.49019445320E+02 -0.16778806406E+02  0.35474060490E+03  0.35852866486E+03  0.41800000000E+01 0.  1.
         -5    1    3    3    0  502 -0.11482042176E+02 -0.11805684180E+03  0.30112717912E+03  0.32367314623E+03  0.41800000000E+01 0.  1.
        -11    1    1    2    0    0 -0.43965605233E+02  0.12390844216E+03  0.26732036911E+03  0.29790343440E+03  0.00000000000E+00 0.  1.
         11    1    1    2    0    0  0.64282020893E+01  0.10927206043E+02  0.19635046606E+02  0.23372220032E+02  0.00000000000E+00 0. -1.
</event>
<event>
 7    1  0.4966153E-006  0.1409730E+03  0.7561462E-02  0.1212026E+00
         -2   -1    0    0    0  501 -0.00000000000E+00  0.00000000000E+00  0.52677799168E+03  0.52677799168E+03  0.00000000000E+00 0. -1.
          2   -1    0    0  501    0  0.00000000000E+00 -0.00000000000E+00 -0.49941335022E+02  0.49941335022E+02  0.00000000000E+00 0.  1.
         23    2    1    2    0    0 -0.90999084751E+01  0.12019748475E+03  0.25547334178E+03  0.30894172958E+03  0.12509244677E+03 0.  0.
          5    1    3    3  502    0 -0.23478276702E+02  0.11138225468E+03  0.26548413554E+03  0.28888844691E+03  0.41800000000E+01 0.  1.
         -5    1    3    3    0  502  0.14378368227E+02  0.88152300751E+01 -0.10010793760E+02  0.20053282670E+02  0.41800000000E+01 0.  1.
        -11    1    1    2    0    0 -0.34463840018E+02 -0.93308592514E+02  0.14455076663E+03  0.17546844115E+03  0.00000000000E+00 0. -1.
         11    1    1    2    0    0  0.43563748493E+02 -0.26888892236E+02  0.76812548247E+02  0.92309155975E+02  0.00000000000E+00 0.  1.
</event>
<event>
 7    1  0.4966153E-006  0.1211892E+03  0.7561462E-02  0.1241148E+00
         -1   -1    0    0    0  501 -0.00000000000E+00  0.00000000000E+00  0.87054053383E+02  0.87054053383E+02  0.00000000000E+00 0.  1.
          1   -1    0    0  501    0  0.00000000000E+00 -0.00000000000E+00 -0.25439839143E+03  0.25439839143E+03  0.00000000000E+00 0. -1.
         23    2    1    2    0    0  0.25871873461E+02  0.98637111599E+02 -0.91055218501E+02  0.18530390191E+03  0.12509136511E+03 0.  0.
          5    1    3    3  502    0  0.35011897756E+02  0.11494328319E+03 -0.10656353599E+03  0.16065818042E+03  0.41800000000E+01 0. -1.
         -5    1    3    3    0  502 -0.91400242944E+01 -0.16306171592E+02  0.15508317487E+02  0.24645721482E+02  0.41800000000E+01 0. -1.
        -11    1    1    2    0    0 -0.25262767242E+02 -0.71185431150E+02 -0.49813425845E+00  0.75536886052E+02  0.00000000000E+00 0.  1.
         11    1    1    2    0    0 -0.60910621887E+00 -0.27451680449E+02 -0.75790985284E+02  0.80611656851E+02  0.00000000000E+00 0. -1.
</event>
<event>
 7    1  0.4966153E-006  0.1348603E+03  0.7561462E-02  0.1220417E+00
          1   -1    0    0  501    0  0.00000000000E+00  0.00000000000E+00  0.40866481264E+03  0.40866481264E+03  0.00000000000E+00 0. -1.
         -1   -1    0    0    0  501 -0.00000000000E+00 -0.00000000000E+00 -0.70627029836E+02  0.70627029836E+02  0.00000000000E+00 0.  1.
         23    2    1    2    0    0 -0.94620653408E+02 -0.41474597082E+02  0.69131795015E+02  0.17636869262E+03  0.12511394966E+03 0.  0.
          5    1    3    3  502    0 -0.44618484122E+02  0.25787893285E+02  0.76276574748E+02  0.92148862287E+02  0.41800000000E+01 0.  1.
         -5    1    3    3    0  502 -0.50002169287E+02 -0.67262490368E+02 -0.71447797330E+01  0.84219830333E+02  0.41800000000E+01 0.  1.
        -11    1    1    2    0    0 -0.16443690338E+02  0.60981830227E+01  0.13355004887E+02  0.22044022855E+02  0.00000000000E+00 0.  1.
         11    1    1    2    0    0  0.11106434375E+03  0.35376414059E+02  0.25555098290E+03  0.28087912700E+03  0.00000000000E+00 0. -1.
</event>
<event>
 7    1  0.4966153E-006  0.1158949E+03  0.7561462E-02  0.1250027E+00
         -2   -1    0    0    0  501 -0.00000000000E+00  0.00000000000E+00  0.22880016573E+02  0.22880016573E+02  0.00000000000E+00 0.  1.
          2   -1    0    0  501    0  0.00000000000E+00 -0.00000000000E+00 -0.60018593542E+03  0.60018593542E+03  0.00000000000E+00 0. -1.
         23    2    1    2    0    0 -0.10248340757E+02 -0.40485647291E+02 -0.28911495101E+03  0.31777173610E+03  0.12508918915E+03 0.  0.
          5    1    3    3  502    0 -0.61048015930E+02 -0.50679060578E+02 -0.16183695984E+03  0.18028838399E+03  0.41800000000E+01 0.  1.
         -5    1    3    3    0  502  0.50799675173E+02  0.10193413288E+02 -0.12727799116E+03  0.13748335211E+03  0.41800000000E+01 0.  1.
        -11    1    1    2    0    0 -0.17790271598E+02  0.62326275039E+02 -0.19869034533E+03  0.20899500389E+03  0.00000000000E+00 0. -1.
         11    1    1    2    0    0  0.28038612355E+02 -0.21840627748E+02 -0.89500622511E+02  0.96299212006E+02  0.00000000000E+00 0.  1.
</event>
<event>
 7    1  0.4966153E-006  0.7958125E+02  0.7561462E-02  0.1330244E+00
          2   -1    0    0  501    0  0.00000000000E+00  0.00000000000E+00  0.27452157522E+03  0.27452157522E+03  0.00000000000E+00 0. -1.
         -2   -1    0    0    0  501 -0.00000000000E+00 -0.00000000000E+00 -0.53009761018E+02  0.53009761018E+02  0.00000000000E+00 0.  1.
         23    2    1    2    0    0  0.13440878201E+02  0.23929091298E+02  0.62220013354E+02  0.14238028796E+03  0.12509019834E+03 0.  0.
          5    1    3    3  502    0 -0.45160027789E+01 -0.34710905794E+02 -0.19372129628E+02  0.40224284562E+02  0.41800000000E+01 0. -1.
         -5    1    3    3    0  502  0.17956880980E+02  0.58639997092E+02  0.81592142982E+02  0.10215600340E+03  0.41800000000E+01 0. -1.
        -11    1    1    2    0    0  0.21743311143E+02 -0.43460987418E+01  0.14132861951E+01  0.22218405245E+02  0.00000000000E+00 0.  1.
         11    1    1    2    0    0 -0.35184189344E+02 -0.19582992556E+02  0.15787851465E+03  0.16293264303E+03  0.00000000000E+00 0. -1.
</event>
<event>
 7    1  0.4966153E-006  0.1563572E+03  0.7561462E-02  0.1192872E+00
          1   -1    0    0  501    0  0.00000000000E+00  0.00000000000E+00  0.93327980639E+03  0.93327980639E+03  0.00000000000E+00 0. -1.
         -1   -1    0    0    0  501 -0.00000000000E+00 -0.00000000000E+00 -0.31971553182E+02  0.31971553182E+02  0.00000000000E+00 0.  1.
         23    2    1    2    0    0 -0.13485050806E+02 -0.11253320615E+03  0.27903542345E+03  0.32612505048E+03  0.12510480379E+03 0.  0.
          5    1    3    3  502    0 -0.67340133235E+02 -0.82599059212E+02  0.16571255158E+03  0.19706704513E+03  0.41800000000E+01 0.  1.
         -5    1    3    3    0  502  0.53855082429E+02 -0.29934146936E+02  0.11332287187E+03  0.12905800535E+03  0.41800000000E+01 0.  1.
        -11    1    1    2    0    0 -0.34736607862E+02  0.76788520816E+02  0.31728597322E+03  0.32828874129E+03  0.00000000000E+00 0.  1.
         11    1    1    2    0    0  0.48221658667E+02  0.35744685332E+02  0.30498685654E+03  0.31083756780E+03  0.00000000000E+00 0. -1.
</event>
<event>
 7    1  0.4966153E-006  0.1043919E+03  0.7561462E-02  0.1271322E+00
         -2   -1    0    0    0  501 -0.00000000000E+00  0.00000000000E+00  0.26383981064E+02  0.26383981064E+02  0.00000000000E+00 0.  1.
          2   -1    0    0  501    0  0.00000000000E+00 -0.00000000000E+00 -0.51732128331E+03  0.51732128331E+03  0.00000000000E+00 0. -1.
         23    2    1    2    0    0 -0.36044655180E+02 -0.15345606568E+02 -0.26853259379E+03  0.29881229663E+03  0.12507729564E+03 0.  0.
          5    1    3    3  502    0 -0.34595773881E+02 -0.55916723278E+02 -0.70007413706E+02  0.96135622359E+02  0.41800000000E+01 0. -1.
         -5    1    3    3    0  502 -0.14488812987E+01  0.40571116710E+02 -0.19852518008E+03  0.20267667428E+03  0.41800000000E+01 0. -1.
        -11    1    1    2    0    0  0.49849164111E+02  0.46399563745E+02 -0.15857635977E+03  0.17258134475E+03  0.00000000000E+00 0. -1.
         11    1    1    2    0    0 -0.13804508931E+02 -0.31053957177E+02 -0.63828348690E+02  0.72311622992E+02  0.00000000000E+00 0.  1.
</event>
<event>
 7    1  0.4966153E-006  0.1182141E+03  0.7561462E-02  0.1246073E+00
          1   -1    0    0  501    0  0.00000000000E+00  0.00000000000E+00  0.21643032530E+02  0.21643032530E+02  0.00000000000E+00 0. -1.
         -1   -1    0    0    0  501 -0.00000000000E+00 -0.00000000000E+00 -0.13618972443E+04  0.13618972443E+04  0.00000000000E+00 0.  1.
         23    2    1    2    0    0 -0.34276494387E+02  0.71892084117E+02 -0.11358402314E+04  0.11454799447E+04  0.12509165670E+03 0.  0.
          5    1    3    3  502    0 -0.42865761807E+02 -0.11196621502E+02 -0.71649908276E+03  0.71787968759E+03  0.41800000000E+01 0. -1.
         -5    1    3    3    0  502  0.85892674193E+01  0.83088705619E+02 -0.41934114861E+03  0.42760025706E+03  0.41800000000E+01 0. -1.
        -11    1    1    2    0    0  0.57169434233E+02 -0.58370687087E+02 -0.19211228205E+03  0.20876448509E+03  0.00000000000E+00 0.  1.
         11    1    1    2    0    0 -0.22892939846E+02 -0.13521397030E+02 -0.12301698300E+02  0.29295847035E+02  0.00000000000E+00 0. -1.
</event>
<event>
 7    1  0.4966153E-006  0.1433431E+03  0.7561462E-02  0.1208900E+00
          1   -1    0    0  501    0  0.00000000000E+00  0.00000000000E+00  0.28130738365E+03  0.28130738365E+03  0.00000000000E+00 0. -1.
         -1   -1    0    0    0  501 -0.00000000000E+00 -0.00000000000E+00 -0.15813151007E+03  0.15813151007E+03  0.00000000000E+00 0.  1.
         23    2    1    2    0    0  0.80208174482E+02  0.68054042511E+02 -0.89625590508E+02  0.18639998572E+03  0.12508998459E+03 0.  0.
          5    1    3    3  502    0  0.71465787602E+02 -0.19386271080E+02 -0.52731237674E+02  0.91001330378E+02  0.41800000000E+01 0.  1.
         -5    1    3    3    0  502  0.87423868805E+01  0.87440313591E+02 -0.36894352833E+02  0.95398655338E+02  0.41800000000E+01 0.  1.
        -11    1    1    2    0    0 -0.92046476594E+02 -0.63663701820E+02  0.21277368974E+03  0.24041269481E+03  0.00000000000E+00 0. -1.
         11    1    1    2    0    0  0.11838302112E+02 -0.43903406913E+01  0.27774346846E-01  0.12626213197E+02  0.00000000000E+00 0.  1.
</event>
<event>
 7    1  0.4966153E-006  0.8600073E+02  0.7561462E-02  0.1312836E+00
          1   -1    0    0  501    0  0.00000000000E+00  0.00000000000E+00  0.16677603646E+03  0.16677603646E+03  0.00000000000E+00 0. -1.
         -1   -1    0    0    0  501 -0.00000000000E+00 -0.00000000000E+00 -0.16553371624E+03  0.16553371624E+03  0.00000000000E+00 0.  1.
         23    2    1    2    0    0 -0.96038166327E+01 -0.62317834409E+02 -0.10816219749E+03  0.17698266324E+03  0.12509219138E+03 0.  0.
          5    1    3    3  502    0  0.29486721424E+02 -0.34768756813E+02  0.12219171678E+02  0.47382631281E+02  0.41800000000E+01 0. -1.
         -5    1    3    3    0  502 -0.39090538057E+02 -0.27549077596E+02 -0.12038136917E+03  0.12960003196E+03  0.41800000000E+01 0. -1.
        -11    1    1    2    0    0  0.27346897982E+02  0.25707620062E+02 -0.11230318579E+01  0.37549910240E+02  0.00000000000E+00 0.  1.
         11    1    1    2    0    0 -0.17743081349E+02  0.36610214347E+02  0.11052754957E+03  0.11777717922E+03  0.00000000000E+00 0. -1.
</event>
<event>
 7    1  0.4966153E-006  0.1603786E+03  0.7561462E-02  0.1188270E+00
         -1   -1    0    0    0  501 -0.00000000000E+00  0.00000000000E+00  0.37506409087E+03  0.37506409087E+03  0.00000000000E+00 0.  1.
          1   -1    0    0  501    0  0.00000000000E+00 -0.00000000000E+00 -0.74456639720E+02  0.74456639720E+02  0.00000000000E+00 0. -1.
         23    2    1    2    0    0  0.54929595911E+02  0.11500320657E+03  0.15830563037E+03  0.23864418415E+03  0.12508947196E+03 0.  0.
          5    1    3    3  502    0  0.66949081766E+02  0.20216212830E+02  0.11267187698E+03  0.13267742488E+03  0.41800000000E+01 0. -1.
         -5    1    3    3    0  502 -0.12019485854E+02  0.94786993741E+02  0.45633753388E+02  0.10596675927E+03  0.41800000000E+01 0. -1.
        -11    1    1    2    0    0 -0.40744154265E+02 -0.12890960774E+03  0.11766287079E+03  0.17922701871E+03  0.00000000000E+00 0. -1.
         11    1    1    2    0    0 -0.14185441647E+02  0.13906401172E+02  0.24638949990E+02  0.31649527720E+02  0.00000000000E+00 0.  1.
</event>
<event>
 7    1  0.4966153E-006  0.8598135E+02  0.7561462E-02  0.1312886E+00
          1   -1    0    0  501    0  0.00000000000E+00  0.00000000000E+00  0.21768300932E+03  0.21768300932E+03  0.00000000000E+00 0. -1.
         -1   -1    0    0    0  501 -0.00000000000E+00 -0.00000000000E+00 -0.59203594210E+02  0.59203594210E+02  0.00000000000E+00 0.  1.
         23    2    1    2    0    0  0.15913847762E+02 -0.31937545543E+02  0.10662951214E+03  0.16819817205E+03  0.12509002701E+03 0.  0.
          5    1    3    3  502    0  0.36964915799E+02 -0.39078918233E+02 -0.51070339928E+01  0.54195212395E+02  0.41800000000E+01 0.  1.
         -5    1    3    3    0  502 -0.21051068037E+02  0.71413726899E+01  0.11173654613E+03  0.11400295965E+03  0.41800000000E+01 0.  1.
        -11    1    1    2    0    0  0.21757889833E+02 -0.21117247241E+02  0.19187594319E+02  0.35881857209E+02  0.00000000000E+00 0.  1.
         11    1    1    2    0    0 -0.37671737595E+02  0.53054792785E+02  0.32662308661E+02  0.72806574276E+02  0.00000000000E+00 0. -1.
</event>
<event>
 7    1  0.4966153E-006  0.8696111E+02  0.7561462E-02  0.1310382E+00
          2   -1    0    0  501    0  0.00000000000E+00  0.00000000000E+00  0.80517391315E+03  0.80517391315E+03  0.00000000000E+00 0. -1.
         -2   -1    0    0    0  501 -0.00000000000E+00 -0.00000000000E+00 -0.18184157319E+02  0.18184157319E+02  0.00000000000E+00 0.  1.
         23    2    1    2    0    0 -0.14009876634E+02  0.47954203918E+02  0.51494032022E+03  0.53229255854E+03  0.12520364282E+03 0.  0.
          5    1    3    3  502    0  0.24839640803E+02  0.50291603311E+02  0.94051627301E+02  0.10958756370E+03  0.41800000000E+01 0. -1.
         -5    1    3    3    0  502 -0.38849517437E+02 -0.23373993932E+01  0.42088869292E+03  0.42270499485E+03  0.41800000000E+01 0. -1.
        -11    1    1    2    0    0 -0.21617190331E+02 -0.40542485515E+01  0.12229717502E+02  0.25165568528E+02  0.00000000000E+00 0.  1.
         11    1    1    2    0    0  0.35627066965E+02 -0.43899955366E+02  0.25981971811E+03  0.26589994340E+03  0.00000000000E+00 0. -1.
</event>
<event>
 7    1  0.4966153E-006  0.1055554E+03  0.7561462E-02  0.1269029E+00
         -4   -1    0    0    0  501 -0.00000000000E+00  0.00000000000E+00  0.12645407460E+04  0.12645407460E+04  0.00000000000E+00 0.  1.
          4   -1    0    0  501    0  0.00000000000E+00 -0.00000000000E+00 -0.10301524499E+02  0.10301524499E+02  0.00000000000E+00 0. -1.
         23    2    1    2    0    0 -0.17532857184E+02 -0.19784386126E+02  0.88787652238E+03  0.89703297947E+03  0.12507847236E+03 0.  0.
          5    1    3    3  502    0 -0.64807687144E+02  0.56254879269E+01  0.64372151970E+03  0.64701356226E+03  0.41800000000E+01 0.  1.
         -5    1    3    3    0  502  0.47274829960E+02 -0.25409874053E+02  0.24415500268E+03  0.25001941721E+03  0.41800000000E+01 0.  1.
        -11    1    1    2    0    0  0.21637278802E+02  0.53717448894E+02  0.21809405745E+03  0.22565184255E+03  0.00000000000E+00 0.  1.
         11    1    1    2    0    0 -0.41044216173E+01 -0.33933062768E+02  0.14826864164E+03  0.15215744845E+03  0.00000000000E+00 0. -1.
</event>
<event>
 7    1  0.4966153E-006  0.9546653E+02  0.7561462E-02  0.1290129E+00
         -1   -1    0    0    0  501 -0.00000000000E+00  0.00000000000E+00  0.67326503161E+02  0.67326503161E+02  0.00000000000E+00 0.  1.
          1   -1    0    0  501    0  0.00000000000E+00 -0.00000000000E+00 -0.20955509791E+03  0.20955509791E+03  0.00000000000E+00 0. -1.
         23    2    1    2    0    0 -0.37086558488E+01  0.41522528968E+01 -0.24414737483E+02  0.12756761522E+03  0.12508565751E+03 0.  0.
          5    1    3    3  502    0 -0.33264217733E+01  0.56165385518E+02  0.19160745362E+02  0.59583740861E+02  0.41800000000E+01 0. -1.
         -5    1    3    3    0  502 -0.38223407555E+00 -0.52013132621E+02 -0.43575482844E+02  0.67983874361E+02  0.41800000000E+01 0. -1.
        -11    1    1    2    0    0 -0.39203953807E+02 -0.41151851977E+01 -0.23998312282E+02  0.46149796703E+02  0.00000000000E+00 0.  1.
         11    1    1    2    0    0  0.42912609656E+02 -0.37067699059E-01 -0.93815544984E+02  0.10316418915E+03  0.00000000000E+00 0. -1.
</event>
<event>
 7    1  0.4966153E-006  0.6875576E+02  0.7561462E-02  0.1364376E+00
         -3   -1    0    0    0  501 -0.00000000000E+00  0.00000000000E+00  0.16839637178E+03  0.16839637178E+03  0.00000000000E+00 0.  1.
          3   -1    0    0  501    0  0.00000000000E+00 -0.00000000000E+00 -0.77108364061E+02  0.77108364061E+02  0.00000000000E+00 0. -1.
         23    2    1    2    0    0  0.94574441211E+01  0.34255332760E+02  0.64805928877E+02  0.14529369985E+03  0.12509028630E+03 0.  0.
          5    1    3    3  502    0 -0.82815754137E+01  0.32160260119E+02  0.10008305431E+03  0.10553178186E+03  0.41800000000E+01 0.  1.
         -5    1    3    3    0  502  0.17739019535E+02  0.20950726409E+01 -0.35277125435E+02  0.39761917992E+02  0.41800000000E+01 0.  1.
        -11    1    1    2    0    0 -0.43967281659E+02 -0.21030384094E+02 -0.83242592850E+01  0.49443828778E+02  0.00000000000E+00 0.  1.
         11    1    1    2    0    0  0.34509837538E+02 -0.13224948667E+02  0.34806338129E+02  0.50767207211E+02  0.00000000000E+00 0. -1.
</event>
<event>
 7    1  0.4966153E-006  0.1109605E+03  0.7561462E-02  0.1258801E+00
          1   -1    0    0  501    0  0.00000000000E+00  0.00000000000E+00  0.59983701564E+03  0.59983701564E+03  0.00000000000E+00 0. -1.
         -1   -1    0    0    0  501 -0.00000000000E+00 -0.00000000000E+00 -0.26119849465E+02  0.26119849465E+02  0.00000000000E+00 0.  1.
         23    2    1    2    0    0 -0.57213414352E+02 -0.13155243966E+02  0.26122106592E+03  0.29560547907E+03  0.12529851854E+03 0.  0.
          5    1    3    3  502    0 -0.35036037655E+02  0.49671148850E+02  0.68631637274E+02  0.91774293773E+02  0.41800000000E+01 0. -1.
         -5    1    3    3    0  502 -0.22177376697E+02 -0.62826392816E+02  0.19258942865E+03  0.20383118530E+03  0.41800000000E+01 0. -1.
        -11    1    1    2    0    0  0.82969944292E+01 -0.28688745459E+02  0.37590396922E+02  0.48009605011E+02  0.00000000000E+00 0.  1.
         11    1    1    2    0    0  0.48916419923E+02  0.41843989426E+02  0.27490570333E+03  0.28234178103E+03  0.00000000000E+00 0. -1.
</event>
<event>
 7    1  0.4966153E-006  0.1638695E+03  0.7561462E-02  0.1184396E+00
          2   -1    0    0  501    0  0.00000000000E+00  0.00000000000E+00  0.23647416478E+03  0.23647416478E+03  0.00000000000E+00 0. -1.
         -2   -1    0    0    0  501 -0.00000000000E+00 -0.00000000000E+00 -0.14882694344E+03  0.14882694344E+03  0.00000000000E+00 0.  1.
         23    2    1    2    0    0 -0.10950888159E+02 -0.12185640718E+03 -0.46567674084E+02  0.18106505028E+03  0.12508836173E+03 0.  0.
          5    1    3    3  502    0  0.53392740380E+02 -0.82296412812E+02 -0.16040007469E+02  0.99489891580E+02  0.41800000000E+01 0.  1.
         -5    1    3    3    0  502 -0.64343628539E+02 -0.39559994368E+02 -0.30527666614E+02  0.81575158700E+02  0.41800000000E+01 0.  1.
        -11    1    1    2    0    0  0.49019149061E+02  0.96281260347E+02  0.96359412714E+02  0.14476910750E+03  0.00000000000E+00 0. -1.
         11    1    1    2    0    0 -0.38068260902E+02  0.25575146833E+02  0.37855482707E+02  0.59466950440E+02  0.00000000000E+00 0.  1.
</event>
<event>
 7    1  0.4966153E-006  0.1217357E+03  0.7561462E-02  0.1240261E+00
         -2   -1    0    0    0  501 -0.00000000000E+00  0.00000000000E+00  0.36044030488E+02  0.36044030488E+02  0.00000000000E+00 0. -1.
          2   -1    0    0  501    0  0.00000000000E+00 -0.00000000000E+00 -0.50790741429E+03  0.50790741429E+03  0.00000000000E+00 0.  1.
         23    2    1    2    0    0 -0.53778158409E+02 -0.59448345102E+02 -0.24339499551E+03  0.28515720569E+03  0.12508921638E+03 0.  0.
          5    1    3    3  502    0  0.22916002645E+02 -0.53783519574E+02 -0.16569131160E+03  0.17575236355E+03  0.41800000000E+01 0. -1.
         -5    1    3    3    0  502 -0.76694161055E+02 -0.56648255277E+01 -0.77703683918E+02  0.10940484213E+03  0.41800000000E+01 0. -1.
        -11    1    1    2    0    0  0.24230359453E+02  0.71829691408E+02 -0.95020092687E+02  0.12155423852E+03  0.00000000000E+00 0. -1.
         11    1    1    2    0    0  0.29547798956E+02 -0.12381346306E+02 -0.13344829560E+03  0.13724000058E+03  0.00000000000E+00 0.  1.
</event>
<event>
 7    1  0.4966153E-006  0.1132167E+03  0.7561462E-02  0.1254726E+00
          2   -1    0    0  501    0  0.00000000000E+00  0.00000000000E+00  0.40415557277E+03  0.40415557277E+03  0.00000000000E+00 0. -1.
         -2   -1    0    0    0  501 -0.00000000000E+00 -0.00000000000E+00 -0.61854582080E+02  0.61854582080E+02  0.00000000000E+00 0.  1.
         23    2    1    2    0    0  0.63991405279E+02  0.34406433160E+02  0.50285879854E+02  0.15315197331E+03  0.12509258421E+03 0.  0.
          5    1    3    3  502    0  0.47975046384E+02  0.68841790139E+02 -0.69880585906E+01  0.84303632828E+02  0.41800000000E+01 0. -1.
         -5    1    3    3    0  502  0.16016358895E+02 -0.34435356979E+02  0.57273938445E+02  0.68848340485E+02  0.41800000000E+01 0. -1.
        -11    1    1    2    0    0 -0.36412740728E+02  0.21205864741E+02  0.17925274201E+03  0.18413886581E+03  0.00000000000E+00 0. -1.
         11    1    1    2    0    0 -0.27578664551E+02 -0.55612297901E+02  0.11276236883E+03  0.12871931572E+03  0.00000000000E+00 0.  1.
</event>
<event>
 7    1  0.4966153E-006  0.1327566E+03  0.7561462E-02  0.1223422E+00
         -2   -1    0    0    0  501 -0.00000000000E+00  0.00000000000E+00  0.32324024997E+02  0.32324024997E+02  0.00000000000E+00 0.  1.
          2   -1    0    0  501    0  0.00000000000E+00 -0.00000000000E+00 -0.72580091880E+03  0.72580091880E+03  0.00000000000E+00 0. -1.
         23    2    1    2    0    0 -0.81415604937E+02  0.61419769044E+02 -0.31359785995E+03  0.35269265429E+03  0.12509037480E+03 0.  0.
          5    1    3    3  502    0 -0.10056107242E+03  0.11488360175E+02 -0.15408082811E+03  0.18439871392E+03  0.41800000000E+01 0. -1.
         -5    1    3    3    0  502  0.19145467482E+02  0.49931408869E+02 -0.15951703184E+03  0.16829394036E+03  0.41800000000E+01 0. -1.
        -11    1    1    2    0    0  0.31447426022E+02 -0.50395884151E+02 -0.72054779671E+02  0.93384029771E+02  0.00000000000E+00 0.  1.
         11    1    1    2    0    0  0.49968178915E+02 -0.11023884893E+02 -0.30782425418E+03  0.31204825973E+03  0.00000000000E+00 0. -1.
</event>
<event>
 7    1  0.4966153E-006  0.1408675E+03  0.7561462E-02  0.1212166E+00
         -2   -1    0    0    0  501 -0.00000000000E+00  0.00000000000E+00  0.46089873969E+02  0.46089873969E+02  0.00000000000E+00 0.  1.
          2   -1    0    0  501    0  0.00000000000E+00 -0.00000000000E+00 -0.58368082001E+03  0.58368082001E+03  0.00000000000E+00 0. -1.
         23    2    1    2    0    0  0.87491820107E+02  0.53351222231E+02 -0.15506390406E+03  0.22403749178E+03  0.12508721709E+03 0.  0.
          5    1    3    3  502    0  0.33701596994E+02  0.85292848258E+02 -0.12337972200E+03  0.15378782723E+03  0.41800000000E+01 0.  1.
         -5    1    3    3    0  502  0.53790223113E+02 -0.31941626026E+02 -0.31684182061E+02  0.70249664545E+02  0.41800000000E+01 0.  1.
        -11    1    1    2    0    0 -0.27654057301E+02 -0.60933455547E+02 -0.26877255362E+03  0.27697710820E+03  0.00000000000E+00 0. -1.
         11    1    1    2    0    0 -0.59837762806E+02  0.75822333156E+01 -0.11375448837E+03  0.12875609400E+03  0.00000000000E+00 0.  1.
</event>
<event>
 7    1  0.4966153E-006  0.2387555E+03  0.7561462E-02  0.1120625E+00
          1   -1    0    0  501    0  0.00000000000E+00  0.00000000000E+00  0.17902014604E+03  0.17902014604E+03  0.00000000000E+00 0. -1.
         -1   -1    0    0    0  501 -0.00000000000E+00 -0.00000000000E+00 -0.35913947483E+03  0.35913947483E+03  0.00000000000E+00 0.  1.
         23    2    1    2    0    0  0.18908152141E+02 -0.22765073856E+03 -0.75727372378E+02  0.27122782717E+03  0.12509005683E+03 0.  0.
          5    1    3    3  502    0  0.36204966709E+02 -0.26716616254E+02 -0.50772099408E+02  0.67969520204E+02  0.41800000000E+01 0. -1.
         -5    1    3    3    0  502 -0.17296814568E+02 -0.20093412230E+03 -0.24955272969E+02  0.20325830696E+03  0.41800000000E+01 0. -1.
        -11    1    1    2    0    0 -0.27016775283E+02  0.14048059484E+03 -0.18429126803E+02  0.14423708396E+03  0.00000000000E+00 0. -1.
         11    1    1    2    0    0  0.81086231417E+01  0.87170143716E+02 -0.85962829613E+02  0.12269470975E+03  0.00000000000E+00 0.  1.
</event>
<event>
 7    1  0.4966153E-006  0.1311626E+03  0.7561462E-02  0.1225741E+00
          3   -1    0    0  501    0  0.00000000000E+00  0.00000000000E+00  0.26861961845E+03  0.26861961845E+03  0.00000000000E+00 0. -1.
         -3   -1    0    0    0  501 -0.00000000000E+00 -0.00000000000E+00 -0.79433743390E+02  0.79433743390E+02  0.00000000000E+00 0.  1.
         23    2    1    2    0    0  0.88071279712E+02  0.34677047890E+02  0.74884001641E+02  0.17382186727E+03  0.12508948749E+03 0.  0.
          5    1    3    3  502    0  0.91611037899E+02  0.64541986777E+02  0.24175241653E+02  0.11471776249E+03  0.41800000000E+01 0. -1.
         -5    1    3    3    0  502 -0.35397581870E+01 -0.29864938887E+02  0.50708759988E+02  0.59104104783E+02  0.41800000000E+01 0. -1.
        -11    1    1    2    0    0 -0.95809882679E+02 -0.45861059155E+02  0.68354448699E+02  0.12631350293E+03  0.00000000000E+00 0.  1.
         11    1    1    2    0    0  0.77386029674E+01  0.11184011266E+02  0.45947424720E+02  0.47917991634E+02  0.00000000000E+00 0. -1.
</event>
<event>
 7    1  0.4966153E-006  0.9648469E+02  0.7561462E-02  0.1287867E+00
         -2   -1    0    0    0  501 -0.00000000000E+00  0.00000000000E+00  0.92918909408E+02  0.92918909408E+02  0.00000000000E+00 0.  1.
          2   -1    0    0  501    0  0.00000000000E+00 -0.00000000000E+00 -0.34185708069E+03  0.34185708069E+03  0.00000000000E+00 0. -1.
         23    2    1    2    0    0 -0.41222067034E+02  0.79384444110E+02  0.22151909736E+01  0.15379592544E+03  0.12508849202E+03 0.  0.
          5    1    3    3  502    0 -0.16694997152E+02  0.28773299273E+02  0.62697973516E+02  0.71099465286E+02  0.41800000000E+01 0. -1.
         -5    1    3    3    0  502 -0.24527069882E+02  0.50611144836E+02 -0.60482782542E+02  0.82696460158E+02  0.41800000000E+01 0. -1.
        -11    1    1    2    0    0 -0.10050909196E+02 -0.30844206489E+02 -0.17148992737E+03  0.17453131822E+03  0.00000000000E+00 0. -1.
         11    1    1    2    0    0  0.51272976230E+02 -0.48540237620E+02 -0.79663434878E+02  0.10644874643E+03  0.00000000000E+00 0.  1.
</event>
<event>
 7    1  0.4966153E-006  0.1142034E+03  0.7561462E-02  0.1252978E+00
         -1   -1    0    0    0  501 -0.00000000000E+00  0.00000000000E+00  0.85996325921E+02  0.85996325921E+02  0.00000000000E+00 0.  1.
          1   -1    0    0  501    0  0.00000000000E+00 -0.00000000000E+00 -0.24065973911E+03  0.24065973911E+03  0.00000000000E+00 0. -1.
         23    2    1    2    0    0 -0.61552371473E+02 -0.63638709824E+02 -0.12212024402E+03  0.19595449707E+03  0.12508489558E+03 0.  0.
          5    1    3    3  502    0 -0.91119374209E+02 -0.46253370520E+02 -0.45566133504E+02  0.11196365287E+03  0.41800000000E+01 0. -1.
         -5    1    3    3    0  502  0.29567002737E+02 -0.17385339304E+02 -0.76554110516E+02  0.83990844206E+02  0.41800000000E+01 0. -1.
        -11    1    1    2    0    0  0.11475547086E+02  0.27582704303E+02  0.30353888907E+02  0.42589345256E+02  0.00000000000E+00 0.  1.
         11    1    1    2    0    0  0.50076824387E+02  0.36056005521E+02 -0.62897058076E+02  0.88112222701E+02  0.00000000000E+00 0. -1.
</event>
<event>
 6    1  0.4966153E-006  0.1489666E+03  0.7561462E-02  0.1201749E+00
          1   -1    0    0  501    0  0.00000000000E+00  0.00000000000E+00  0.44663262060E+03  0.44663262060E+03  0.00000000000E+00 0. -1.
         -1   -1    0    0    0  501 -0.00000000000E+00 -0.00000000000E+00 -0.75183583884E+02  0.75183583884E+02  0.00000000000E+00 0.  1.
          5    1    1    2  502    0  0.31297918400E+02 -0.33354722188E+02  0.29851746998E+02  0.54778612499E+02  0.41800000000E+01 0. -1.
         -5    1    1    2    0  502 -0.11705101241E+03  0.66650977572E+02  0.43681523576E+02  0.14166453409E+03  0.41800000000E+01 0.  1.
        -11    1    1    2    0    0  0.21956278839E+02  0.23259206940E+02  0.16051718158E+03  0.16367294972E+03  0.00000000000E+00 0.  1.
         11    1    1    2    0    0  0.63796815169E+02 -0.56555462324E+02  0.13739858457E+03  0.16170010818E+03  0.00000000000E+00 0. -1.
</event>
<event>
 7    1  0.4966153E-006  0.9316675E+02  0.7561462E-02  0.1295359E+00
          2   -1    0    0  501    0  0.00000000000E+00  0.00000000000E+00  0.39833844710E+03  0.39833844710E+03  0.00000000000E+00 0. -1.
         -2   -1    0    0    0  501 -0.00000000000E+00 -0.00000000000E+00 -0.35458676262E+02  0.35458676262E+02  0.00000000000E+00 0.  1.
         23    2    1    2    0    0  0.38897784374E+02  0.28622683291E+02  0.19851865988E+03  0.23956023445E+03  0.12508857654E+03 0.  0.
          5    1    3    3  502    0  0.52874100535E+02  0.53718878633E+02  0.55684681674E+02  0.93806420900E+02  0.41800000000E+01 0.  1.
         -5    1    3    3    0  502 -0.13976316161E+02 -0.25096195342E+02  0.14283397820E+03  0.14575381355E+03  0.41800000000E+01 0.  1.
        -11    1    1    2    0    0 -0.76860291705E+01  0.21464168798E+02  0.37226370051E+01  0.23100727540E+02  0.00000000000E+00 0.  1.
         11    1    1    2    0    0 -0.31211755204E+02 -0.50086852089E+02  0.16063847395E+03  0.17113616137E+03  0.00000000000E+00 0. -1.
</event>
<event>
 7    1  0.4966153E-006  0.1227913E+03  0.7561462E-02  0.1238562E+00
          2   -1    0    0  501    0  0.00000000000E+00  0.00000000000E+00  0.25270647729E+03  0.25270647729E+03  0.00000000000E+00 0. -1.
         -2   -1    0    0    0  501 -0.00000000000E+00 -0.00000000000E+00 -0.10722329072E+03  0.10722329072E+03  0.00000000000E+00 0.  1.
         23    2    1    2    0    0  0.64845083218E+02 -0.21545450308E+02 -0.34618820899E+02  0.14668109063E+03  0.12509112016E+03 0.  0.
          5    1    3    3  502    0  0.23288982238E+02  0.52102306503E+02 -0.20845538132E+02  0.60901854624E+02  0.41800000000E+01 0.  1.
         -5    1    3    3    0  502  0.41556100980E+02 -0.73647756811E+02 -0.13773282768E+02  0.85779236008E+02  0.41800000000E+01 0.  1.
        -11    1    1    2    0    0 -0.71492025628E+02 -0.93409199446E+01  0.77317955269E+02  0.10571862996E+03  0.00000000000E+00 0.  1.
         11    1    1    2    0    0  0.66469424102E+01  0.30886370253E+02  0.10278405220E+03  0.10753004742E+03  0.00000000000E+00 0. -1.
</event>
<event>
 7    1  0.4966153E-006  0.1249131E+03  0.7561462E-02  0.1235205E+00
          2   -1    0    0  501    0  0.00000000000E+00  0.00000000000E+00  0.13942102738E+04  0.13942102738E+04  0.00000000000E+00 0. -1.
         -2   -1    0    0    0  501 -0.00000000000E+00 -0.00000000000E+00 -0.15815359596E+02  0.15815359596E+02  0.00000000000E+00 0.  1.
         23    2    1    2    0    0  0.46459767124E+02  0.68009891171E+02  0.10398255984E+04  0.10505560082E+04  0.12508715434E+03 0.  0.
          5    1    3    3  502    0 -0.28517620565E+02 -0.34523049128E+01  0.79177310278E+02  0.84330848180E+02  0.41800000000E+01 0. -1.
         -5    1    3    3    0  502  0.74977387689E+02  0.71462196083E+02  0.96064828808E+03  0.96622516005E+03  0.41800000000E+01 0. -1.
        -11    1    1    2    0    0 -0.24477940707E+02 -0.85569055818E+02  0.21413469428E+03  0.23189415730E+03  0.00000000000E+00 0. -1.
         11    1    1    2    0    0 -0.21981826417E+02  0.17559164648E+02  0.12443462159E+03  0.12757546789E+03  0.00000000000E+00 0.  1.
</event>
<event>
 7    1  0.4966153E-006  0.1224653E+03  0.7561462E-02  0.1239085E+00
          4   -1    0    0  501    0  0.00000000000E+00  0.00000000000E+00  0.16914807438E+03  0.16914807438E+03  0.00000000000E+00 0. -1.
         -4   -1    0    0    0  501 -0.00000000000E+00 -0.00000000000E+00 -0.18200155428E+03  0.18200155428E+03  0.00000000000E+00 0.  1.
         23    2    1    2    0    0  0.90711382761E+02  0.20853948886E+01 -0.11169078827E+03  0.19066808794E+03  0.12508630517E+03 0.  0.
          5    1    3    3  502    0 -0.31180863389E+02  0.42979032274E+01 -0.15569039941E+02  0.35363619987E+02  0.41800000000E+01 0.  1.
         -5    1    3    3    0  502  0.12189224615E+03 -0.22125083388E+01 -0.96121748332E+02  0.15530446796E+03  0.41800000000E+01 0.  1.
        -11    1    1    2    0    0 -0.39813397740E+02  0.36210636964E+01 -0.91078966130E+01  0.41002103880E+02  0.00000000000E+00 0.  1.
         11    1    1    2    0    0 -0.50897985021E+02 -0.57064585850E+01  0.10794520499E+03  0.11947943684E+03  0.00000000000E+00 0. -1.
</event>
<event>
 7    1  0.4966153E-006  0.1264567E+03  0.7561462E-02  0.1232810E+00
          2   -1    0    0  501    0  0.00000000000E+00  0.00000000000E+00  0.22459259297E+03  0.22459259297E+03  0.00000000000E+00 0. -1.
         -2   -1    0    0    0  501 -0.00000000000E+00 -0.00000000000E+00 -0.13098213941E+03  0.13098213941E+03  0.00000000000E+00 0.  1.
         23    2    1    2    0    0 -0.10486151900E+03  0.47961482361E+02 -0.18352043489E+02  0.17111775997E+03  0.12509295872E+03 0.  0.
          5    1    3    3  502    0 -0.62556757995E+02 -0.91202309977E+01  0.43477635565E+02  0.76839467584E+02  0.41800000000E+01 0. -1.
         -5    1    3    3    0  502 -0.42304761006E+02  0.57081713359E+02 -0.61829679054E+02  0.94278292388E+02  0.41800000000E+01 0. -1.
        -11    1    1    2    0    0  0.16947376565E+02  0.23233644355E+01  0.74552086613E+02  0.76489379740E+02  0.00000000000E+00 0. -1.
         11    1    1    2    0    0  0.87914142437E+02 -0.50284846797E+02  0.37410410431E+02  0.10796759267E+03  0.00000000000E+00 0.  1.
</event>
<event>
 7    1  0.4966153E-006  0.1777869E+03  0.7561462E-02  0.1169962E+00
         -2   -1    0    0    0  501 -0.00000000000E+00  0.00000000000E+00  0.17997512461E+03  0.17997512461E+03  0.00000000000E+00 0. -1.
          2   -1    0    0  501    0  0.00000000000E+00 -0.00000000000E+00 -0.21015874193E+03  0.21015874193E+03  0.00000000000E+00 0.  1.
         23    2    1    2    0    0  0.68435615052E+02 -0.13314577169E+03  0.36731489659E+02  0.19851283632E+03  0.12508762498E+03 0.  0.
          5    1    3    3  502    0 -0.27310666586E+02 -0.49235042091E+02 -0.18867957317E+02  0.59526751065E+02  0.41800000000E+01 0.  1.
         -5    1    3    3    0  502  0.95746281637E+02 -0.83910729598E+02  0.55599446976E+02  0.13898608525E+03  0.41800000000E+01 0.  1.
        -11    1    1    2    0    0  0.10043802435E+02  0.70792137330E+02 -0.72658457799E+00  0.71504773269E+02  0.00000000000E+00 0.  1.
         11    1    1    2    0    0 -0.78479417487E+02  0.62353634359E+02 -0.66188522405E+02  0.12011625696E+03  0.00000000000E+00 0. -1.
</event>
<event>
 7    1  0.4966153E-006  0.1325548E+03  0.7561462E-02  0.1223713E+00
          1   -1    0    0  501    0  0.00000000000E+00  0.00000000000E+00  0.25235176277E+02  0.25235176277E+02  0.00000000000E+00 0. -1.
         -1   -1    0    0    0  501 -0.00000000000E+00 -0.00000000000E+00 -0.89299655972E+03  0.89299655972E+03  0.00000000000E+00 0.  1.
         23    2    1    2    0    0  0.75596246896E+02  0.28896229215E+01 -0.62476707656E+03  0.64164246213E+03  0.12509199332E+03 0.  0.
          5    1    3    3  502    0  0.87284934548E+02 -0.35690630672E+02 -0.53343452440E+03  0.54172164914E+03  0.41800000000E+01 0. -1.
         -5    1    3    3    0  502 -0.11688687651E+02  0.38580253594E+02 -0.91332552155E+02  0.99920812995E+02  0.41800000000E+01 0. -1.
        -11    1    1    2    0    0 -0.67577094139E+02  0.45287572067E+02 -0.12812778797E+03  0.15177074121E+03  0.00000000000E+00 0.  1.
         11    1    1    2    0    0 -0.80191527573E+01 -0.48177194989E+02 -0.11486651891E+03  0.12481853266E+03  0.00000000000E+00 0. -1.
</event>
<event>
 7    1  0.4966153E-006  0.1890381E+03  0.7561462E-02  0.1159332E+00
          1   -1    0    0  501    0  0.00000000000E+00  0.00000000000E+00  0.94752143013E+02  0.94752143013E+02  0.00000000000E+00 0. -1.
         -1   -1    0    0    0  501 -0.00000000000E+00 -0.00000000000E+00 -0.50078476550E+03  0.50078476550E+03  0.00000000000E+00 0.  1.
         23    2    1    2    0    0 -0.13290124054E+03  0.80766439522E+02 -0.35752264834E+03  0.40946271880E+03  0.12510522180E+03 0.  0.
          5    1    3    3  502    0 -0.14562892916E+03  0.33705382219E+02 -0.28710775720E+03  0.32371619429E+03  0.41800000000E+01 0.  1.
         -5    1    3    3    0  502  0.12727688618E+02  0.47061057303E+02 -0.70414891138E+02  0.85746524513E+02  0.41800000000E+01 0.  1.
        -11    1    1    2    0    0  0.48134483774E+02 -0.81713095373E+02 -0.23885899566E+02  0.97798234553E+02  0.00000000000E+00 0. -1.
         11    1    1    2    0    0  0.84766756770E+02  0.94665585090E+00 -0.24624074586E+02  0.88275955162E+02  0.00000000000E+00 0.  1.
</event>
<event>
 7    1  0.4966153E-006  0.7698367E+02  0.7561462E-02  0.1337836E+00
         -3   -1    0    0    0  501 -0.00000000000E+00  0.00000000000E+00  0.15722879719E+03  0.15722879719E+03  0.00000000000E+00 0.  1.
          3   -1    0    0  501    0  0.00000000000E+00 -0.00000000000E+00 -0.99284521190E+02  0.99284521190E+02  0.00000000000E+00 0. -1.
         23    2    1    2    0    0  0.90147369811E+01 -0.61740614319E+02  0.37323009567E+02  0.14468623700E+03  0.12509169115E+03 0.  0.
          5    1    3    3  502    0  0.60985325508E+01  0.13325278870E+02  0.63285225316E+02  0.65094141822E+02  0.41800000000E+01 0. -1.
         -5    1    3    3    0  502  0.29162044303E+01 -0.75065893189E+02 -0.25962215749E+02  0.79592095180E+02  0.41800000000E+01 0. -1.
        -11    1    1    2    0    0  0.79007594411E+00  0.34986913133E+02 -0.34898271120E+02  0.49422642966E+02  0.00000000000E+00 0. -1.
         11    1    1    2    0    0 -0.98048129252E+01  0.26753701186E+02  0.55519537549E+02  0.62404438410E+02  0.00000000000E+00 0.  1.
</event>
<event>
 7    1  0.4966153E-006  0.1563725E+03  0.7561462E-02  0.1192854E+00
          1   -1    0    0  501    0  0.00000000000E+00  0.00000000000E+00  0.38013303012E+03  0.38013303012E+03  0.00000000000E+00 0. -1.
         -1   -1    0    0    0  501 -0.00000000000E+00 -0.00000000000E+00 -0.88418195251E+02  0.88418195251E+02  0.00000000000E+00 0.  1.
         23    2    1    2    0    0  0.46158384962E+02 -0.13057165992E+03  0.86665377451E+02  0.20576237920E+03  0.12509082368E+03 0.  0.
          5    1    3    3  502    0  0.74389486731E+02 -0.10691209506E+03  0.10215949891E+03  0.16558389844E+03  0.41800000000E+01 0.  1.
         -5    1    3    3    0  502 -0.28231101769E+02 -0.23659564865E+02 -0.15494121456E+02  0.40178480763E+02  0.41800000000E+01 0.  1.
        -11    1    1    2    0    0 -0.55018310379E+02  0.11301827481E+03  0.20787503513E+03  0.24292421688E+03  0.00000000000E+00 0. -1.
         11    1    1    2    0    0  0.88599254167E+01  0.17553385111E+02 -0.28255777114E+01  0.19864629285E+02  0.00000000000E+00 0.  1.
</event>
<event>
 6    1  0.4966153E-006  0.9597693E+02  0.7561462E-02  0.1288991E+00
          2   -1    0    0  501    0  0.00000000000E+00  0.00000000000E+00  0.12748647940E+03  0.12748647940E+03  0.00000000000E+00 0. -1.
         -2   -1    0    0    0  501 -0.00000000000E+00 -0.00000000000E+00 -0.23147465684E+03  0.23147465684E+03  0.00000000000E+00 0.  1.
          5    1    1    2  502    0  0.81985359054E+02  0.23968714519E+02 -0.42404126733E+02  0.95455124215E+02  0.41800000000E+01 0. -1.
         -5    1    1    2    0  502 -0.48945600964E+02 -0.30590166802E+02 -0.13120795265E+03  0.14340303134E+03  0.41800000000E+01 0.  1.
        -11    1    1    2    0    0  0.54299383679E+00  0.14140190850E+02  0.82240513388E+02  0.83449037633E+02  0.00000000000E+00 0. -1.
         11    1    1    2    0    0 -0.33582751927E+02 -0.75187385666E+01 -0.12616611446E+02  0.36653943048E+02  0.00000000000E+00 0.  1.
</event>
<event>
 7    1  0.4966153E-006  0.1374147E+03  0.7561462E-02  0.1216851E+00
         -1   -1    0    0    0  501 -0.00000000000E+00  0.00000000000E+00  0.29424525679E+02  0.29424525679E+02  0.00000000000E+00 0.  1.
          1   -1    0    0  501    0  0.00000000000E+00 -0.00000000000E+00 -0.85191743262E+03  0.85191743262E+03  0.00000000000E+00 0. -1.
         23    2    1    2    0    0  0.62847062095E+02  0.96474421610E+02 -0.42917775441E+03  0.46162493505E+03  0.12508784328E+03 0.  0.
          5    1    3    3  502    0  0.33913473926E+02  0.92768032614E+02 -0.41891309775E+03  0.43042036134E+03  0.41800000000E+01 0.  1.
         -5    1    3    3    0  502  0.28933588169E+02  0.37063889959E+01 -0.10264656658E+02  0.31204573703E+02  0.41800000000E+01 0.  1.
        -11    1    1    2    0    0 -0.68065609870E+02 -0.21551788705E+02 -0.18910418724E+03  0.20213312563E+03  0.00000000000E+00 0. -1.
         11    1    1    2    0    0  0.52185477757E+01 -0.74922632905E+02 -0.20421096529E+03  0.21758389763E+03  0.00000000000E+00 0.  1.
</event>
<event>
 7    1  0.4966153E-006  0.1141019E+03  0.7561462E-02  0.1253157E+00
         -2   -1    0    0    0  501 -0.00000000000E+00  0.00000000000E+00  0.51728567420E+02  0.51728567420E+02  0.00000000000E+00 0.  1.
          2   -1    0    0  501    0  0.00000000000E+00 -0.00000000000E+00 -0.33621504612E+03  0.33621504612E+03  0.00000000000E+00 0. -1.
         23    2    1    2    0    0  0.74422634870E+02  0.72547725661E+01 -0.16432251395E+03  0.21963792808E+03  0.12509024965E+03 0.  0.
          5    1    3    3  502    0  0.30609042384E+02 -0.58749553961E+02 -0.76933368721E+02  0.10161023171E+03  0.41800000000E+01 0. -1.
         -5    1    3    3    0  502  0.43813592486E+02  0.66004326528E+02 -0.87389145225E+02  0.11802769637E+03  0.41800000000E+01 0. -1.
        -11    1    1    2    0    0 -0.54083135057E+02 -0.20922480439E+02 -0.14414080743E+02  0.59753672766E+02  0.00000000000E+00 0.  1.
         11    1    1    2    0    0 -0.20339499813E+02  0.13667707873E+02 -0.10574988401E+03  0.10855201269E+03  0.00000000000E+00 0. -1.
</event>
<event>
 7    1  0.4966153E-006  0.1121376E+03  0.7561462E-02  0.1256662E+00
         -2   -1    0    0    0  501 -0.00000000000E+00  0.00000000000E+00  0.32445150595E+02  0.32445150595E+02  0.00000000000E+00 0.  1.
          2   -1    0    0  501    0  0.00000000000E+00 -0.00000000000E+00 -0.43849375302E+03  0.43849375302E+03  0.00000000000E+00 0. -1.
         23    2    1    2    0    0  0.60908800586E+01 -0.45090252577E+02 -0.19684974810E+03  0.23762996853E+03  0.12509176198E+03 0.  0.
          5    1    3    3  502    0 -0.18949386502E+02  0.39920442039E+02 -0.66318270568E+02  0.79801668858E+02  0.41800000000E+01 0.  1.
         -5    1    3    3    0  502  0.25040266561E+02 -0.85010694615E+02 -0.13053147754E+03  0.15782829967E+03  0.41800000000E+01 0.  1.
        -11    1    1    2    0    0 -0.21950299959E+02 -0.16569001476E+02 -0.20911713687E+02  0.34549200389E+02  0.00000000000E+00 0.  1.
         11    1    1    2    0    0  0.15859419901E+02  0.61659254053E+02 -0.18828714063E+03  0.19875973470E+03  0.00000000000E+00 0. -1.
</event>
<event>
 7    1  0.4966153E-006  0.1654802E+03  0.7561462E-02  0.1182645E+00
          1   -1    0    0  501    0  0.00000000000E+00  0.00000000000E+00  0.41571062145E+03  0.41571062145E+03  0.00000000000E+00 0. -1.
         -1   -1    0    0    0  501 -0.00000000000E+00 -0.00000000000E+00 -0.81368871239E+02  0.81368871239E+02  0.00000000000E+00 0.  1.
         23    2    1    2    0    0 -0.10400381196E+03  0.90331152681E+02  0.96156104071E+02  0.20944831904E+03  0.12508433935E+03 0.  0.
          5    1    3    3  502    0 -0.52490088928E+02  0.10591270891E+03  0.10061268429E+03  0.15528392056E+03  0.41800000000E+01 0.  1.
         -5    1    3    3    0  502 -0.51513723033E+02 -0.15581556233E+02 -0.44565802152E+01  0.54164398479E+02  0.41800000000E+01 0.  1.
        -11    1    1    2    0    0  0.10370130539E+03 -0.44464554201E+02  0.14462710002E+03  0.18343406276E+03  0.00000000000E+00 0.  1.
         11    1    1    2    0    0  0.30250657263E+00 -0.45866598480E+02  0.93558546115E+02  0.10419711089E+03  0.00000000000E+00 0. -1.
</event>
<event>
 6    1  0.4966153E-006  0.1411947E+03  0.7561462E-02  0.1211730E+00
          1   -1    0    0  501    0  0.00000000000E+00  0.00000000000E+00  0.11042836488E+03  0.11042836488E+03  0.00000000000E+00 0. -1.
         -1   -1    0    0    0  501 -0.00000000000E+00 -0.00000000000E+00 -0.85877320371E+03  0.85877320371E+03  0.00000000000E+00 0.  1.
          5    1    1    2  502    0 -0.90506576468E+02 -0.43179740055E+02 -0.13067501965E+03  0.16477063906E+03  0.41800000000E+01 0. -1.
         -5    1    1    2    0  502  0.13108167057E+03  0.46961174424E+02 -0.69881026526E+03  0.71255948207E+03  0.41800000000E+01 0.  1.
        -11    1    1    2    0    0 -0.19766370351E+02 -0.82806477503E+01  0.46691292442E+02  0.51374656339E+02  0.00000000000E+00 0.  1.
         11    1    1    2    0    0 -0.20808723746E+02  0.44992133809E+01  0.34449153637E+02  0.40496791124E+02  0.00000000000E+00 0. -1.
</event>
<event>
 7    1  0.4966153E-006  0.1468955E+03  0.7561462E-02  0.1204341E+00
         -1   -1    0    0    0  501 -0.00000000000E+00  0.00000000000E+00  0.77816406503E+02  0.77816406503E+02  0.00000000000E+00 0.  1.
          1   -1    0    0  501    0  0.00000000000E+00 -0.00000000000E+00 -0.29664414944E+03  0.29664414944E+03  0.00000000000E+00 0. -1.
         23    2    1    2    0    0 -0.97620616024E+02 -0.28126985023E+02 -0.78238856190E+02  0.17913797452E+03  0.12509269898E+03 0.  0.
          5    1    3    3  502    0 -0.12760538079E+03 -0.28531889640E+02 -0.65242331476E+02  0.14618904251E+03  0.41800000000E+01 0. -1.
         -5    1    3    3    0  502  0.29984764767E+02  0.40490461739E+00 -0.12996524714E+02  0.32948932009E+02  0.41800000000E+01 0. -1.
        -11    1    1    2    0    0  0.91330931168E+02  0.53975230228E+02 -0.12690441032E+03  0.16540675266E+03  0.00000000000E+00 0. -1.
         11    1    1    2    0    0  0.62896848564E+01 -0.25848245205E+02 -0.13684476429E+02  0.29915828769E+02  0.00000000000E+00 0.  1.
</event>
<event>
 7    1  0.4966153E-006  0.3051839E+03  0.7561462E-02  0.1082678E+00
         -1   -1    0    0    0  501 -0.00000000000E+00  0.00000000000E+00  0.18865096411E+04  0.18865096411E+04  0.00000000000E+00 0.  1.
          1   -1    0    0  501    0  0.00000000000E+00 -0.00000000000E+00 -0.56802542955E+02  0.56802542955E+02  0.00000000000E+00 0. -1.
         23    2    1    2    0    0  0.17413731684E+03 -0.24351501277E+03  0.11539960745E+04  0.11987400985E+04  0.12509003640E+03 0.  0.
          5    1    3    3  502    0  0.15739837383E+03 -0.21804825370E+03  0.81242789128E+03  0.85578960029E+03  0.41800000000E+01 0. -1.
         -5    1    3    3    0  502  0.16738943009E+02 -0.25466759063E+02  0.34156818322E+03  0.34295049821E+03  0.41800000000E+01 0. -1.
        -11    1    1    2    0    0 -0.14114677167E+03  0.23870470307E+03  0.62649933664E+03  0.68513047314E+03  0.00000000000E+00 0.  1.
         11    1    1    2    0    0 -0.32990545165E+02  0.48103097003E+01  0.49211687015E+02  0.59441612433E+02  0.00000000000E+00 0. -1.
</event>
<event>
 6    1  0.4966153E-006  0.1025375E+03  0.7561462E-02  0.1275049E+00
         -2   -1    0    0    0  501 -0.00000000000E+00  0.00000000000E+00  0.11330777882E+03  0.11330777882E+03  0.00000000000E+00 0.  1.
          2   -1    0    0  501    0  0.00000000000E+00 -0.00000000000E+00 -0.17203964270E+03  0.17203964270E+03  0.00000000000E+00 0. -1.
          5    1    1    2  502    0 -0.54264208190E+02  0.69737304117E+01  0.32272617946E+02  0.63657140019E+02  0.41800000000E+01 0. -1.
         -5    1    1    2    0  502  0.78463742672E+02  0.69587055412E+01  0.14314258632E+02  0.80170773335E+02  0.41800000000E+01 0.  1.
        -11    1    1    2    0    0  0.11452714216E+02  0.19391678956E+02  0.29950639674E+01  0.22719425253E+02  0.00000000000E+00 0.  1.
         11    1    1    2    0    0 -0.35652248698E+02 -0.33324114909E+02 -0.10831380442E+03  0.11880008291E+03  0.00000000000E+00 0. -1.
</event>
<event>
 7    1  0.4966153E-006  0.1265600E+03  0.7561462E-02  0.1232651E+00
          1   -1    0    0  501    0  0.00000000000E+00  0.00000000000E+00  0.35611905293E+02  0.35611905293E+02  0.00000000000E+00 0. -1.
         -1   -1    0    0    0  501 -0.00000000000E+00 -0.00000000000E+00 -0.97498013490E+03  0.97498013490E+03  0.00000000000E+00 0.  1.
         23    2    1    2    0    0  0.86400412559E+02  0.10967582014E+02 -0.83941426385E+03  0.85314051783E+03  0.12508843935E+03 0.  0.
          5    1    3    3  502    0 -0.14876678293E+02  0.35403510013E+02 -0.11629491832E+03  0.12254266402E+03  0.41800000000E+01 0.  1.
         -5    1    3    3    0  502  0.10127709085E+03 -0.24435927999E+02 -0.72311934553E+03  0.73059785381E+03  0.41800000000E+01 0.  1.
        -11    1    1    2    0    0 -0.77987679670E+02  0.18018019771E+02 -0.98926291122E+02  0.12725226242E+03  0.00000000000E+00 0.  1.
         11    1    1    2    0    0 -0.84127328886E+01 -0.28985601784E+02 -0.10276746283E+01  0.30199259934E+02  0.00000000000E+00 0. -1.
</event>
<event>
 7    1  0.4966153E-006  0.1018751E+03  0.7561462E-02  0.1276402E+00
         -1   -1    0    0    0  501 -0.00000000000E+00  0.00000000000E+00  0.19162033130E+03  0.19162033130E+03  0.00000000000E+00 0.  1.
          1   -1    0    0  501    0  0.00000000000E+00 -0.00000000000E+00 -0.37319020294E+03  0.37319020294E+03  0.00000000000E+00 0. -1.
         23    2    1    2    0    0 -0.23561446294E+02 -0.34891152781E+02  0.16080169843E+03  0.20803446060E+03  0.12509442947E+03 0.  0.
          5    1    3    3  502    0  0.49162666445E+02 -0.54273652414E+01  0.87372433503E+02  0.10048800228E+03  0.41800000000E+01 0.  1.
         -5    1    3    3    0  502 -0.72724112739E+02 -0.29463787540E+02  0.73429264929E+02  0.10754645832E+03  0.41800000000E+01 0.  1.
        -11    1    1    2    0    0 -0.13122102227E+02 -0.10761340674E+02 -0.10897339237E+02  0.20167995002E+02  0.00000000000E+00 0.  1.
         11    1    1    2    0    0  0.36683548520E+02  0.45652493456E+02 -0.33147423083E+03  0.33660807863E+03  0.00000000000E+00 0. -1.
</event>
<event>
 7    1  0.4966153E-006  0.1221791E+03  0.7561462E-02  0.1239545E+00
          2   -1    0    0  501    0  0.00000000000E+00  0.00000000000E+00  0.14940619606E+03  0.14940619606E+03  0.00000000000E+00 0.  1.
         -2   -1    0    0    0  501 -0.00000000000E+00 -0.00000000000E+00 -0.12364146317E+03  0.12364146317E+03  0.00000000000E+00 0. -1.
         23    2    1    2    0    0 -0.68971856326E+02  0.40325859207E+02  0.28358871524E+02  0.15111403479E+03  0.12509170249E+03 0.  0.
          5    1    3    3  502    0 -0.72746046503E+02  0.65862662507E+02  0.55999652334E+02  0.11306330552E+03  0.41800000000E+01 0. -1.
         -5    1    3    3    0  502  0.37741901766E+01 -0.25536803300E+02 -0.27640780810E+02  0.38050729271E+02  0.41800000000E+01 0. -1.
        -11    1    1    2    0    0  0.11940839357E+02  0.28324021873E+02  0.87687152726E+01  0.31964421271E+02  0.00000000000E+00 0.  1.
         11    1    1    2    0    0  0.57031016969E+02 -0.68649881080E+02 -0.11362853908E+02  0.89969203163E+02  0.00000000000E+00 0. -1.
</event>
<event>
 6    1  0.4966153E-006  0.1247706E+03  0.7561462E-02  0.1235428E+00
          4   -1    0    0  501    0  0.00000000000E+00  0.00000000000E+00  0.99973035165E+02  0.99973035165E+02  0.00000000000E+00 0. -1.
         -4   -1    0    0    0  501 -0.00000000000E+00 -0.00000000000E+00 -0.21738166399E+03  0.21738166399E+03  0.00000000000E+00 0.  1.
          5    1    1    2  502    0 -0.36930739347E+02  0.26785951449E+01 -0.11971530256E+00  0.37263133422E+02  0.41800000000E+01 0. -1.
         -5    1    1    2    0  502  0.81982454773E+02 -0.60044487122E+02 -0.13252108739E+03  0.16705021499E+03  0.41800000000E+01 0.  1.
        -11    1    1    2    0    0 -0.68290738181E+02  0.54063907537E+02  0.19314696545E+02  0.89216526059E+02  0.00000000000E+00 0. -1.
         11    1    1    2    0    0  0.23239022755E+02  0.33019844403E+01 -0.40825226753E+01  0.23824824685E+02  0.00000000000E+00 0.  1.
</event>
<event>
 7    1  0.4966153E-006  0.8793758E+02  0.7561462E-02  0.1307924E+00
          1   -1    0    0  501    0  0.00000000000E+00  0.00000000000E+00  0.26423275945E+03  0.26423275945E+03  0.00000000000E+00 0. -1.
         -1   -1    0    0    0  501 -0.00000000000E+00 -0.00000000000E+00 -0.63274387235E+02  0.63274387235E+02  0.00000000000E+00 0.  1.
         23    2    1    2    0    0 -0.35366137426E+02  0.41136350314E+02  0.52722974010E+02  0.14617786661E+03  0.12508114848E+03 0.  0.
          5    1    3    3  502    0 -0.14770213980E+02 -0.92917581059E+01 -0.37005409610E+02  0.41126253539E+02  0.41800000000E+01 0. -1.
         -5    1    3    3    0  502 -0.20595923445E+02  0.50428108420E+02  0.89728383620E+02  0.10505161307E+03  0.41800000000E+01 0. -1.
        -11    1    1    2    0    0  0.75235673414E+01 -0.65724779664E+02  0.10728667857E+03  0.12604277895E+03  0.00000000000E+00 0. -1.
         11    1    1    2    0    0  0.27842570084E+02  0.24588429350E+02  0.40948719632E+02  0.55286501122E+02  0.00000000000E+00 0.  1.
</event>
<event>
 7    1  0.4966153E-006  0.2976846E+03  0.7561462E-02  0.1086404E+00
          1   -1    0    0  501    0  0.00000000000E+00  0.00000000000E+00  0.42395290367E+03  0.42395290367E+03  0.00000000000E+00 0. -1.
         -1   -1    0    0    0  501 -0.00000000000E+00 -0.00000000000E+00 -0.23140381552E+03  0.23140381552E+03  0.00000000000E+00 0.  1.
         23    2    1    2    0    0 -0.64872193845E+02  0.28345062044E+03  0.14003241448E+03  0.34613486870E+03  0.12509042514E+03 0.  0.
          5    1    3    3  502    0 -0.12133640007E+02  0.44280835976E+02 -0.23365969570E+02  0.51686154708E+02  0.41800000000E+01 0.  1.
         -5    1    3    3    0  502 -0.52738553838E+02  0.23916978447E+03  0.16339838405E+03  0.29444871399E+03  0.41800000000E+01 0.  1.
        -11    1    1    2    0    0  0.85876585208E+02 -0.25412779346E+03  0.51458495810E+02  0.27313677908E+03  0.00000000000E+00 0.  1.
         11    1    1    2    0    0 -0.21004391363E+02 -0.29322826982E+02  0.10581778619E+01  0.36085071417E+02  0.00000000000E+00 0. -1.
</event>
<event>
 7    1  0.4966153E-006  0.1060235E+03  0.7561462E-02  0.1268116E+00
         -2   -1    0    0    0  501 -0.00000000000E+00  0.00000000000E+00  0.10689152384E+03  0.10689152384E+03  0.00000000000E+00 0.  1.
          2   -1    0    0  501    0  0.00000000000E+00 -0.00000000000E+00 -0.12368104281E+03  0.12368104281E+03  0.00000000000E+00 0. -1.
         23    2    1    2    0    0 -0.38705837810E+01  0.25543701828E+02  0.16762214863E+02  0.12882148361E+03  0.12508613300E+03 0.  0.
          5    1    3    3  502    0  0.28167053906E+02 -0.39029299920E+02  0.27857543499E+02  0.55769026420E+02  0.41800000000E+01 0.  1.
         -5    1    3    3    0  502 -0.32037637687E+02  0.64573001748E+02 -0.11095328636E+02  0.73052457186E+02  0.41800000000E+01 0.  1.
        -11    1    1    2    0    0 -0.12546534870E+02  0.30579854318E+02 -0.27436051527E+02  0.42956721834E+02  0.00000000000E+00 0. -1.
         11    1    1    2    0    0  0.16417118651E+02 -0.56123556146E+02 -0.61156823069E+01  0.58794361204E+02  0.00000000000E+00 0.  1.
</event>
<event>
 6    1  0.4966153E-006  0.2707089E+03  0.7561462E-02  0.1100875E+00
          1   -1    0    0  501    0  0.00000000000E+00  0.00000000000E+00  0.52602406788E+03  0.52602406788E+03  0.00000000000E+00 0. -1.
         -1   -1    0    0    0  501 -0.00000000000E+00 -0.00000000000E+00 -0.26941343791E+03  0.26941343791E+03  0.00000000000E+00 0.  1.
          5    1    1    2  502    0 -0.64685079534E+02  0.15832103274E+02 -0.98604654908E+02  0.11905950352E+03  0.41800000000E+01 0. -1.
         -5    1    1    2    0  502  0.18833617152E+03  0.15297660011E+03 -0.80363261104E+01  0.24280528952E+03  0.41800000000E+01 0.  1.
        -11    1    1    2    0    0 -0.15035773612E+02 -0.10495320495E+03  0.12380174025E+03  0.16299730246E+03  0.00000000000E+00 0.  1.
         11    1    1    2    0    0 -0.10861531837E+03 -0.63855498430E+02  0.23944987073E+03  0.27057541030E+03  0.00000000000E+00 0. -1.
</event>
<event>
 7    1  0.4966153E-006  0.2261787E+03  0.7561462E-02  0.1129359E+00
         -2   -1    0    0    0  501 -0.00000000000E+00  0.00000000000E+00  0.56212061508E+02  0.56212061508E+02  0.00000000000E+00 0.  1.
          2   -1    0    0  501    0  0.00000000000E+00 -0.00000000000E+00 -0.10582829842E+04  0.10582829842E+04  0.00000000000E+00 0. -1.
         23    2    1    2    0    0 -0.15011087516E+03 -0.15666119725E+03 -0.46343560206E+03  0.52678008537E+03  0.12509474617E+03 0.  0.
          5    1    3    3  502    0 -0.14422324588E+03 -0.14526686020E+03 -0.30247523880E+03  0.36525545555E+03  0.41800000000E+01 0.  1.
         -5    1    3    3    0  502 -0.58876292776E+01 -0.11394337050E+02 -0.16096036327E+03  0.16152462982E+03  0.41800000000E+01 0.  1.
        -11    1    1    2    0    0  0.60179879028E+02  0.12508738706E+03 -0.29238799032E+03  0.32366527327E+03  0.00000000000E+00 0.  1.
         11    1    1    2    0    0  0.89930996131E+02  0.31573810192E+02 -0.24624733033E+03  0.26404968708E+03  0.00000000000E+00 0. -1.
</event>
<event>
 7    1  0.4966153E-006  0.2295450E+03  0.7561462E-02  0.1126960E+00
         -2   -1    0    0    0  501 -0.00000000000E+00  0.00000000000E+00  0.17935061579E+03  0.17935061579E+03  0.00000000000E+00 0.  1.
          2   -1    0    0  501    0  0.00000000000E+00 -0.00000000000E+00 -0.53662654531E+03  0.53662654531E+03  0.00000000000E+00 0. -1.
         23    2    1    2    0    0  0.21574282696E+03  0.58694493715E+02  0.31312516338E+02  0.25810575787E+03  0.12509235622E+03 0.  0.
          5    1    3    3  502    0  0.27579295666E+02 -0.77274385668E+00  0.52636631528E+02  0.59576019179E+02  0.41800000000E+01 0. -1.
         -5    1    3    3    0  502  0.18816353130E+03  0.59467237571E+02 -0.21324115191E+02  0.19852973869E+03  0.41800000000E+01 0. -1.
        -11    1    1    2    0    0 -0.15255932467E+03 -0.72839908641E+02 -0.22126076386E+03  0.27845345295E+03  0.00000000000E+00 0.  1.
         11    1    1    2    0    0 -0.63183502288E+02  0.14145414927E+02 -0.16732768199E+03  0.17941795029E+03  0.00000000000E+00 0. -1.
</event>
<event>
 7    1  0.4966153E-006  0.1014654E+03  0.7561462E-02  0.1277244E+00
          1   -1    0    0  501    0  0.00000000000E+00  0.00000000000E+00  0.10859762080E+03  0.10859762080E+03  0.00000000000E+00 0. -1.
         -1   -1    0    0    0  501 -0.00000000000E+00 -0.00000000000E+00 -0.21040487870E+03  0.21040487870E+03  0.00000000000E+00 0.  1.
         23    2    1    2    0    0  0.35101794736E+02 -0.59920149794E+02 -0.13154135207E+03  0.19435813590E+03  0.12509755130E+03 0.  0.
          5    1    3    3  502    0  0.25854469506E+02  0.15772394524E+02  0.11127580117E+02  0.32534865325E+02  0.41800000000E+01 0.  1.
         -5    1    3    3    0  502  0.92473252303E+01 -0.75692544318E+02 -0.14266893219E+03  0.16182327058E+03  0.41800000000E+01 0.  1.
        -11    1    1    2    0    0 -0.52767519944E+02  0.28575484047E+02  0.54420549651E+02  0.81009664077E+02  0.00000000000E+00 0. -1.
         11    1    1    2    0    0  0.17665725208E+02  0.31344665747E+02 -0.24686455473E+02  0.43634699515E+02  0.00000000000E+00 0.  1.
</event>
<event>
 7    1  0.4966153E-006  0.7173197E+02  0.7561462E-02  0.1354301E+00
          1   -1    0    0  501    0  0.00000000000E+00  0.00000000000E+00  0.41116046915E+03  0.41116046915E+03  0.00000000000E+00 0.  1.
         -1   -1    0    0    0  501 -0.00000000000E+00 -0.00000000000E+00 -0.37205139745E+02  0.37205139745E+02  0.00000000000E+00 0. -1.
         23    2    1    2    0    0 -0.51031190145E+02  0.28245405194E+02  0.20729804010E+03  0.24904282423E+03  0.12509142892E+03 0.  0.
          5    1    3    3  502    0 -0.43470020420E+02 -0.12627146528E+01  0.21328916236E+03  0.21771765271E+03  0.41800000000E+01 0.  1.
         -5    1    3    3    0  502 -0.75611697241E+01  0.29508119847E+02 -0.59911222589E+01  0.31325171515E+02  0.41800000000E+01 0.  1.
        -11    1    1    2    0    0  0.37325994013E+02 -0.37167331190E+02  0.17370452874E+03  0.18151557410E+03  0.00000000000E+00 0.  1.
         11    1    1    2    0    0  0.13705196132E+02  0.89219259956E+01 -0.70472394332E+01  0.17807210565E+02  0.00000000000E+00 0. -1.
</event>
<event>
 7    1  0.4966153E-006  0.1445272E+03  0.7561462E-02  0.1207364E+00
          4   -1    0    0  501    0  0.00000000000E+00  0.00000000000E+00  0.16511251757E+03  0.16511251757E+03  0.00000000000E+00 0. -1.
         -4   -1    0    0    0  501 -0.00000000000E+00 -0.00000000000E+00 -0.13184121513E+03  0.13184121513E+03  0.00000000000E+00 0.  1.
         23    2    1    2    0    0 -0.95662544484E+02  0.23728609426E+02  0.27776848814E+01  0.15928438620E+03  0.12509768515E+03 0.  0.
          5    1    3    3  502    0 -0.10886908189E+01 -0.42589816931E+02  0.81401929408E+01  0.43575370280E+02  0.41800000000E+01 0. -1.
         -5    1    3    3    0  502 -0.94573853665E+02  0.66318426358E+02 -0.53625080594E+01  0.11570901592E+03  0.41800000000E+01 0. -1.
        -11    1    1    2    0    0  0.78449536112E+02  0.22268750300E+02  0.34172066148E+02  0.88419212058E+02  0.00000000000E+00 0.  1.
         11    1    1    2    0    0  0.17213008372E+02 -0.45997359726E+02 -0.36784485844E+01  0.49250134446E+02  0.00000000000E+00 0. -1.
</event>
<event>
 7    1  0.4966153E-006  0.1241493E+03  0.7561462E-02  0.1236405E+00
          4   -1    0    0  501    0  0.00000000000E+00  0.00000000000E+00  0.33984429644E+03  0.33984429644E+03  0.00000000000E+00 0. -1.
         -4   -1    0    0    0  501 -0.00000000000E+00 -0.00000000000E+00 -0.68523977040E+02  0.68523977040E+02  0.00000000000E+00 0.  1.
         23    2    1    2    0    0  0.92983403188E+02  0.17826891580E+02  0.79596587726E+02  0.17591570806E+03  0.12508800195E+03 0.  0.
          5    1    3    3  502    0 -0.15932783430E+02  0.31089970445E+02  0.51855744851E+02  0.62665225797E+02  0.41800000000E+01 0. -1.
         -5    1    3    3    0  502  0.10891618662E+03 -0.13263078865E+02  0.27740842875E+02  0.11325048226E+03  0.41800000000E+01 0. -1.
        -11    1    1    2    0    0 -0.70181260727E+02  0.58725117685E+01  0.48523707238E+02  0.85524534000E+02  0.00000000000E+00 0.  1.
         11    1    1    2    0    0 -0.22802142461E+02 -0.23699403349E+02  0.14320002444E+03  0.14692803143E+03  0.00000000000E+00 0. -1.
</event>
<event>
 7    1  0.4966153E-006  0.1172512E+03  0.7561462E-02  0.1247702E+00
         -4   -1    0    0    0  501 -0.00000000000E+00  0.00000000000E+00  0.84374023731E+03  0.84374023731E+03  0.00000000000E+00 0.  1.
          4   -1    0    0  501    0  0.00000000000E+00 -0.00000000000E+00 -0.27221388629E+02  0.27221388629E+02  0.00000000000E+00 0. -1.
         23    2    1    2    0    0  0.57087805421E+02  0.87109898558E+02  0.49865130446E+03  0.52454519948E+03  0.12508953155E+03 0.  0.
          5    1    3    3  502    0  0.18689605997E+02 -0.81916080372E+00  0.32930086706E+03  0.32985831177E+03  0.41800000000E+01 0. -1.
         -5    1    3    3    0  502  0.38398199425E+02  0.87929059362E+02  0.16935043740E+03  0.19468688771E+03  0.41800000000E+01 0. -1.
        -11    1    1    2    0    0  0.75317589386E+01 -0.36351887353E+02  0.19566958092E+03  0.19916016671E+03  0.00000000000E+00 0.  1.
         11    1    1    2    0    0 -0.64619564360E+02 -0.50758011205E+02  0.12219796330E+03  0.14725625975E+03  0.00000000000E+00 0. -1.
</event>
<event>
 7    1  0.4966153E-006  0.1051799E+03  0.7561462E-02  0.1269766E+00
          4   -1    0    0  501    0  0.00000000000E+00  0.00000000000E+00  0.32212778102E+02  0.32212778102E+02  0.00000000000E+00 0. -1.
         -4   -1    0    0    0  501 -0.00000000000E+00 -0.00000000000E+00 -0.38140869478E+03  0.38140869478E+03  0.00000000000E+00 0.  1.
         23    2    1    2    0    0 -0.22958577812E+02  0.14028449382E-01 -0.21595314639E+03  0.25061886295E+03  0.12508779533E+03 0.  0.
          5    1    3    3  502    0 -0.67424065249E+01 -0.59929325499E+02 -0.73526265050E+02  0.95187016723E+02  0.41800000000E+01 0.  1.
         -5    1    3    3    0  502 -0.16216171287E+02  0.59943353948E+02 -0.14242688134E+03  0.15543184623E+03  0.41800000000E+01 0.  1.
        -11    1    1    2    0    0  0.50438293914E+02 -0.19398890119E+02 -0.10862854487E+03  0.12132806432E+03  0.00000000000E+00 0. -1.
         11    1    1    2    0    0 -0.27479716103E+02  0.19384861670E+02 -0.24614225420E+02  0.41674545613E+02  0.00000000000E+00 0.  1.
</event>
<event>
 7    1  0.4966153E-006  0.1102572E+03  0.7561462E-02  0.1260094E+00
          2   -1    0    0  501    0  0.00000000000E+00  0.00000000000E+00  0.15634934412E+03  0.15634934412E+03  0.00000000000E+00 0. -1.
         -2   -1    0    0    0  501 -0.00000000000E+00 -0.00000000000E+00 -0.12821661965E+03  0.12821661965E+03  0.00000000000E+00 0.  1.
         23    2    1    2    0    0  0.38164780205E+02 -0.36663733628E+02 -0.58893725672E+02  0.14804271952E+03  0.12508955219E+03 0.  0.
          5    1    3    3  502    0 -0.41394289419E+02  0.43424108875E+01 -0.19489059906E+01  0.41876178949E+02  0.41800000000E+01 0. -1.
         -5    1    3    3    0  502  0.79559069624E+02 -0.41006144515E+02 -0.56944819682E+02  0.10616654057E+03  0.41800000000E+01 0. -1.
        -11    1    1    2    0    0  0.11386183504E+02  0.37840093418E+02  0.38559203678E+01  0.39703727364E+02  0.00000000000E+00 0.  1.
         11    1    1    2    0    0 -0.49550963709E+02 -0.11763597906E+01  0.83170529779E+02  0.96819516888E+02  0.00000000000E+00 0. -1.
</event>
<event>
 7    1  0.4966153E-006  0.1019057E+03  0.7561462E-02  0.1276339E+00
         -1   -1    0    0    0  501 -0.00000000000E+00  0.00000000000E+00  0.29790839103E+03  0.29790839103E+03  0.00000000000E+00 0.  1.
          1   -1    0    0  501    0  0.00000000000E+00 -0.00000000000E+00 -0.49123043810E+02  0.49123043810E+02  0.00000000000E+00 0. -1.
         23    2    1    2    0    0  0.60497135015E+01  0.56872139044E+02  0.14527973532E+03  0.20005899606E+03  0.12508541552E+03 0.  0.
          5    1    3    3  502    0 -0.36175098639E+02  0.46543510724E+02  0.14479013689E+03  0.15638603612E+03  0.41800000000E+01 0. -1.
         -5    1    3    3    0  502  0.42224812140E+02  0.10328628320E+02  0.48959843356E+00  0.43672959939E+02  0.41800000000E+01 0. -1.
        -11    1    1    2    0    0 -0.42711997157E+02 -0.46071785712E+02  0.45756305954E+02  0.77721063260E+02  0.00000000000E+00 0. -1.
         11    1    1    2    0    0  0.36662283655E+02 -0.10800353332E+02  0.57749305943E+02  0.69251375523E+02  0.00000000000E+00 0.  1.
</event>
<event>
 7    1  0.4966153E-006  0.1318689E+03  0.7561462E-02  0.1224709E+00
         -2   -1    0    0    0  501 -0.00000000000E+00  0.00000000000E+00  0.53898307662E+03  0.53898307662E+03  0.00000000000E+00 0.  1.
          2   -1    0    0  501    0  0.00000000000E+00 -0.00000000000E+00 -0.43553064236E+02  0.43553064236E+02  0.00000000000E+00 0. -1.
         23    2    1    2    0    0 -0.75857258884E+02 -0.75717584529E+02  0.24324427270E+03  0.29377405924E+03  0.12509174772E+03 0.  0.
          5    1    3    3  502    0 -0.10023471283E+03 -0.34875970701E+02  0.21080507885E+03  0.23604996221E+03  0.41800000000E+01 0. -1.
         -5    1    3    3    0  502  0.24377453942E+02 -0.40841613828E+02  0.32439193852E+02  0.57724097035E+02  0.41800000000E+01 0. -1.
        -11    1    1    2    0    0  0.41104985179E+02  0.24397544759E+02  0.26362794098E+02  0.54588065633E+02  0.00000000000E+00 0. -1.
         11    1    1    2    0    0  0.34752273705E+02  0.51320039770E+02  0.22582294558E+03  0.23417401598E+03  0.00000000000E+00 0.  1.
</event>
<event>
 7    1  0.4966153E-006  0.7737095E+02  0.7561462E-02  0.1336682E+00
          1   -1    0    0  501    0  0.00000000000E+00  0.00000000000E+00  0.43336905045E+03  0.43336905045E+03  0.00000000000E+00 0. -1.
         -1   -1    0    0    0  501 -0.00000000000E+00 -0.00000000000E+00 -0.28230892139E+02  0.28230892139E+02  0.00000000000E+00 0.  1.
         23    2    1    2    0    0 -0.21454618625E+02  0.37044332476E+01  0.29198036430E+03  0.31833261834E+03  0.12493638090E+03 0.  0.
          5    1    3    3  502    0 -0.11289672663E+02 -0.43247691365E+02  0.25119858389E+03  0.25517840909E+03  0.41800000000E+01 0.  1.
         -5    1    3    3    0  502 -0.10164945962E+02  0.46952124613E+02  0.40781780418E+02  0.63154209251E+02  0.41800000000E+01 0.  1.
        -11    1    1    2    0    0 -0.19693349409E+02  0.30555150155E+01 -0.27210929628E+01  0.20113888980E+02  0.00000000000E+00 0.  1.
         11    1    1    2    0    0  0.41147968035E+02 -0.67599482631E+01  0.11587888697E+03  0.12315343528E+03  0.00000000000E+00 0. -1.
</event>
<event>
 7    1  0.4966153E-006  0.6657212E+02  0.7561462E-02  0.1372154E+00
         -1   -1    0    0    0  501 -0.00000000000E+00  0.00000000000E+00  0.16316272824E+03  0.16316272824E+03  0.00000000000E+00 0.  1.
          1   -1    0    0  501    0  0.00000000000E+00 -0.00000000000E+00 -0.94944970866E+02  0.94944970866E+02  0.00000000000E+00 0. -1.
         23    2    1    2    0    0  0.46532767331E+02 -0.36038404995E+02  0.46064520798E+02  0.14571763622E+03  0.12509046471E+03 0.  0.
          5    1    3    3  502    0  0.12862908743E+02 -0.35331824070E+02  0.85616415505E+02  0.93602538520E+02  0.41800000000E+01 0. -1.
         -5    1    3    3    0  502  0.33669858588E+02 -0.70658092439E+00 -0.39551894706E+02  0.52115097705E+02  0.41800000000E+01 0. -1.
        -11    1    1    2    0    0 -0.23287559944E+02  0.28785867875E+02 -0.34573240660E+02  0.50658124789E+02  0.00000000000E+00 0. -1.
         11    1    1    2    0    0 -0.23245207387E+02  0.72525371202E+01  0.56726477239E+02  0.61731938097E+02  0.00000000000E+00 0.  1.
</event>
<event>
 7    1  0.4966153E-006  0.1004598E+03  0.7561462E-02  0.1279332E+00
          1   -1    0    0  501    0  0.00000000000E+00  0.00000000000E+00  0.20017975069E+03  0.20017975069E+03  0.00000000000E+00 0. -1.
         -1   -1    0    0    0  501 -0.00000000000E+00 -0.00000000000E+00 -0.69033837293E+02  0.69033837293E+02  0.00000000000E+00 0.  1.
         23    2    1    2    0    0  0.39219287571E+02  0.20886801461E+02  0.80950368470E+02  0.15548336012E+03  0.12509077554E+03 0.  0.
          5    1    3    3  502    0  0.70513538997E+02  0.74742574587E+01  0.94826348898E+02  0.11848009348E+03  0.41800000000E+01 0. -1.
         -5    1    3    3    0  502 -0.31294251426E+02  0.13412544003E+02 -0.13875980429E+02  0.37003266637E+02  0.41800000000E+01 0. -1.
        -11    1    1    2    0    0 -0.47156237772E+02 -0.48027256161E+02  0.52496893028E+02  0.85359544708E+02  0.00000000000E+00 0. -1.
         11    1    1    2    0    0  0.79369502003E+01  0.27140454700E+02 -0.23013480986E+01  0.28370683158E+02  0.00000000000E+00 0.  1.
</event>
<event>
 7    1  0.4966153E-006  0.1128351E+03  0.7561462E-02  0.1255408E+00
          3   -1    0    0  501    0  0.00000000000E+00  0.00000000000E+00  0.23724132200E+03  0.23724132200E+03  0.00000000000E+00 0. -1.
         -3   -1    0    0    0  501 -0.00000000000E+00 -0.00000000000E+00 -0.60115670264E+02  0.60115670264E+02  0.00000000000E+00 0.  1.
         23    2    1    2    0    0 -0.33172424278E+02 -0.40838540039E+02  0.76270634065E+02  0.15567607760E+03  0.12509850291E+03 0.  0.
          5    1    3    3  502    0  0.24703255845E+02 -0.66854162902E+02  0.32288450251E+02  0.78356533654E+02  0.41800000000E+01 0. -1.
         -5    1    3    3    0  502 -0.57875680123E+02  0.26015622863E+02  0.43982183814E+02  0.77319543944E+02  0.41800000000E+01 0. -1.
        -11    1    1    2    0    0  0.54684756398E+02  0.14303870534E+02  0.89173963933E+02  0.10557944468E+03  0.00000000000E+00 0. -1.
         11    1    1    2    0    0 -0.21512332120E+02  0.26534669505E+02  0.11681053738E+02  0.36101469990E+02  0.00000000000E+00 0.  1.
</event>
<event>
 7    1  0.4966153E-006  0.1312257E+03  0.7561462E-02  0.1225648E+00
         -2   -1    0    0    0  501 -0.00000000000E+00  0.00000000000E+00  0.68467287722E+03  0.68467287722E+03  0.00000000000E+00 0.  1.
          2   -1    0    0  501    0  0.00000000000E+00 -0.00000000000E+00 -0.34172346795E+02  0.34172346795E+02  0.00000000000E+00 0. -1.
         23    2    1    2    0    0 -0.99773152676E+02  0.42559561847E+02  0.34006225959E+03  0.37822234157E+03  0.12507518125E+03 0.  0.
          5    1    3    3  502    0 -0.60615752716E+02  0.78152439637E+02  0.28516739038E+03  0.30186087231E+03  0.41800000000E+01 0. -1.
         -5    1    3    3    0  502 -0.39157399959E+02 -0.35592877790E+02  0.54894869216E+02  0.76361469257E+02  0.41800000000E+01 0. -1.
        -11    1    1    2    0    0  0.16728340172E+02  0.69551699680E+00  0.39330995593E+00  0.16747411786E+02  0.00000000000E+00 0. -1.
         11    1    1    2    0    0  0.83044812504E+02 -0.43255078844E+02  0.31004496087E+03  0.32387547065E+03  0.00000000000E+00 0.  1.
</event>
<event>
 7    1  0.4966153E-006  0.1060544E+03  0.7561462E-02  0.1268056E+00
         -1   -1    0    0    0  501 -0.00000000000E+00  0.00000000000E+00  0.56631146090E+03  0.56631146090E+03  0.00000000000E+00 0.  1.
          1   -1    0    0  501    0  0.00000000000E+00 -0.00000000000E+00 -0.35457254547E+02  0.35457254547E+02  0.00000000000E+00 0. -1.
         23    2    1    2    0    0 -0.30921141435E+02 -0.23591315219E+02  0.46488293088E+03  0.48298675134E+03  0.12508954954E+03 0.  0.
          5    1    3    3  502    0  0.17436791419E+01 -0.67656814073E+02  0.33731460083E+03  0.34406263564E+03  0.41800000000E+01 0. -1.
         -5    1    3    3    0  502 -0.32664820577E+02  0.44065498855E+02  0.12756833005E+03  0.13892411571E+03  0.41800000000E+01 0. -1.
        -11    1    1    2    0    0  0.57928301023E+02  0.22849906347E+02  0.19902251248E+02  0.65375116705E+02  0.00000000000E+00 0.  1.
         11    1    1    2    0    0 -0.27007159588E+02  0.74140887132E+00  0.46069024219E+02  0.53406847394E+02  0.00000000000E+00 0. -1.
</event>
<event>
 7    1  0.4966153E-006  0.1099181E+03  0.7561462E-02  0.1260722E+00
          2   -1    0    0  501    0  0.00000000000E+00  0.00000000000E+00  0.17613389701E+03  0.17613389701E+03  0.00000000000E+00 0. -1.
         -2   -1    0    0    0  501 -0.00000000000E+00 -0.00000000000E+00 -0.76333205531E+02  0.76333205531E+02  0.00000000000E+00 0.  1.
         23    2    1    2    0    0 -0.43160990876E+01 -0.25727456633E+02  0.22685083747E+02  0.12977300974E+03  0.12508353327E+03 0.  0.
          5    1    3    3  502    0 -0.57251040109E+02  0.16612660351E+02  0.80292067478E+01  0.60295958725E+02  0.41800000000E+01 0.  1.
         -5    1    3    3    0  502  0.52934941022E+02 -0.42340116984E+02  0.14655877000E+02  0.69477051016E+02  0.41800000000E+01 0.  1.
        -11    1    1    2    0    0  0.43827076742E+02  0.28943658200E+02  0.59352959828E+02  0.79254790683E+02  0.00000000000E+00 0. -1.
         11    1    1    2    0    0 -0.39510977654E+02 -0.32162015669E+01  0.17762647899E+02  0.43439302114E+02  0.00000000000E+00 0.  1.
</event>
<event>
 7    1  0.4966153E-006  0.9696851E+02  0.7561462E-02  0.1286803E+00
          2   -1    0    0  501    0  0.00000000000E+00  0.00000000000E+00  0.13989026476E+02  0.13989026476E+02  0.00000000000E+00 0. -1.
         -2   -1    0    0    0  501 -0.00000000000E+00 -0.00000000000E+00 -0.13801084896E+04  0.13801084896E+04  0.00000000000E+00 0.  1.
         23    2    1    2    0    0  0.62620179204E+01 -0.69299302291E+02 -0.10108099538E+04  0.10208948236E+04  0.12509145478E+03 0.  0.
          5    1    3    3  502    0  0.33178770320E+02 -0.67202314486E+01 -0.76572150498E+03  0.76648084641E+03  0.41800000000E+01 0.  1.
         -5    1    3    3    0  502 -0.26916752400E+02 -0.62579070843E+02 -0.24508844879E+03  0.25441397721E+03  0.41800000000E+01 0.  1.
        -11    1    1    2    0    0 -0.31226367391E+02  0.53761342588E+02 -0.32530093389E+03  0.33118886691E+03  0.00000000000E+00 0.  1.
         11    1    1    2    0    0  0.24964349471E+02  0.15537959704E+02 -0.30008575452E+02  0.42013825545E+02  0.00000000000E+00 0. -1.
</event>
<event>
 7    1  0.4966153E-006  0.1283971E+03  0.7561462E-02  0.1229854E+00
         -4   -1    0    0    0  501 -0.00000000000E+00  0.00000000000E+00  0.16930761088E+03  0.16930761088E+03  0.00000000000E+00 0.  1.
          4   -1    0    0  501    0  0.00000000000E+00 -0.00000000000E+00 -0.17321025843E+03  0.17321025843E+03  0.00000000000E+00 0. -1.
         23    2    1    2    0    0  0.11607504459E+03  0.28780673929E+02  0.54346804432E+02  0.18139191849E+03  0.12509080611E+03 0.  0.
          5    1    3    3  502    0  0.35567403428E+02  0.18513902527E+02 -0.40053745780E+02  0.56829391378E+02  0.41800000000E+01 0. -1.
         -5    1    3    3    0  502  0.80507641164E+02  0.10266771402E+02  0.94400550213E+02  0.12456252711E+03  0.41800000000E+01 0. -1.
        -11    1    1    2    0    0 -0.11038135745E+03 -0.44103151859E+02 -0.72676805030E+02  0.13932354455E+03  0.00000000000E+00 0. -1.
         11    1    1    2    0    0 -0.56936871386E+01  0.15322477930E+02  0.14427353040E+02  0.21802406264E+02  0.00000000000E+00 0.  1.
</event>
<event>
 7    1  0.4966153E-006  0.7673322E+02  0.7561462E-02  0.1338586E+00
         -1   -1    0    0    0  501 -0.00000000000E+00  0.00000000000E+00  0.71831583590E+03  0.71831583590E+03  0.00000000000E+00 0.  1.
          1   -1    0    0  501    0  0.00000000000E+00 -0.00000000000E+00 -0.30969819650E+02  0.30969819650E+02  0.00000000000E+00 0. -1.
         23    2    1    2    0    0 -0.32827878263E+02 -0.34847819380E+02  0.60090067833E+03  0.61564668297E+03  0.12508866027E+03 0.  0.
          5    1    3    3  502    0 -0.59388720454E+02 -0.45351320530E+02  0.56326563246E+03  0.56821598667E+03  0.41800000000E+01 0. -1.
         -5    1    3    3    0  502  0.26560842192E+02  0.10503501150E+02  0.37635045870E+02  0.47430696305E+02  0.41800000000E+01 0. -1.
        -11    1    1    2    0    0  0.21077089610E+02  0.30817533069E+02  0.10492622186E+03  0.11137089424E+03  0.00000000000E+00 0.  1.
         11    1    1    2    0    0  0.11750788653E+02  0.40302863118E+01 -0.18480883939E+02  0.22268078338E+02  0.00000000000E+00 0. -1.
</event>
<event>
 7    1  0.4966153E-006  0.8442477E+02  0.7561462E-02  0.1316944E+00
          1   -1    0    0  501    0  0.00000000000E+00  0.00000000000E+00  0.17403649905E+03  0.17403649905E+03  0.00000000000E+00 0. -1.
         -1   -1    0    0    0  501 -0.00000000000E+00 -0.00000000000E+00 -0.83661444416E+02  0.83661444416E+02  0.00000000000E+00 0.  1.
         23    2    1    2    0    0  0.30360270162E+02  0.41952370756E+02  0.47218073598E+02  0.14338179310E+03  0.12508814773E+03 0.  0.
          5    1    3    3  502    0  0.19806809592E+02 -0.14050603210E+02  0.75646637616E+02  0.79558879701E+02  0.41800000000E+01 0. -1.
         -5    1    3    3    0  502  0.10553460570E+02  0.56002973966E+02 -0.28428564017E+02  0.63822913402E+02  0.41800000000E+01 0. -1.
        -11    1    1    2    0    0 -0.16796741093E+02 -0.61231766420E+02  0.58381487655E+02  0.86254610491E+02  0.00000000000E+00 0. -1.
         11    1    1    2    0    0 -0.13563529070E+02  0.19279395663E+02 -0.15224506621E+02  0.28061539869E+02  0.00000000000E+00 0.  1.
</event>
<event>
 7    1  0.4966153E-006  0.1125792E+03  0.7561462E-02  0.1255867E+00
         -1   -1    0    0    0  501 -0.00000000000E+00  0.00000000000E+00  0.82415792859E+02  0.82415792859E+02  0.00000000000E+00 0.  1.
          1   -1    0    0  501    0  0.00000000000E+00 -0.00000000000E+00 -0.29631438204E+03  0.29631438204E+03  0.00000000000E+00 0. -1.
         23    2    1    2    0    0 -0.35007563385E+02  0.74852199538E+02 -0.16768956692E+02  0.15085309631E+03  0.12508827877E+03 0.  0.
          5    1    3    3  502    0 -0.58584875996E+02  0.40387639899E+02 -0.58094322687E+02  0.91955271086E+02  0.41800000000E+01 0. -1.
         -5    1    3    3    0  502  0.23577312611E+02  0.34464559640E+02  0.41325365994E+02  0.58897825220E+02  0.41800000000E+01 0. -1.
        -11    1    1    2    0    0 -0.23835209200E+02 -0.16122412153E+02 -0.73120365376E+02  0.78578859778E+02  0.00000000000E+00 0.  1.
         11    1    1    2    0    0  0.58842772584E+02 -0.58729787385E+02 -0.12400926712E+03  0.14929821882E+03  0.00000000000E+00 0. -1.
</event>
<event>
 6    1  0.4966153E-006  0.8676220E+02  0.7561462E-02  0.1310887E+00
         -1   -1    0    0    0  501 -0.00000000000E+00  0.00000000000E+00  0.36639175090E+03  0.36639175090E+03  0.00000000000E+00 0.  1.
          1   -1    0    0  501    0  0.00000000000E+00 -0.00000000000E+00 -0.11893420648E+03  0.11893420648E+03  0.00000000000E+00 0. -1.
          5    1    1    2  502    0  0.13204802305E+02 -0.58713003856E+02  0.24798519238E+03  0.25521698938E+03  0.41800000000E+01 0. -1.
         -5    1    1    2    0  502 -0.31832556462E+02  0.49426355923E+02  0.84913876643E+02  0.10336399352E+03  0.41800000000E+01 0.  1.
        -11    1    1    2    0    0  0.89751296028E+01 -0.20805557023E+02  0.11050329882E+02  0.25209798589E+02  0.00000000000E+00 0.  1.
         11    1    1    2    0    0  0.96526245547E+01  0.30092204956E+02 -0.96491854491E+02  0.10153517589E+03  0.00000000000E+00 0. -1.
</event>
<event>
 7    1  0.4966153E-006  0.1043928E+03  0.7561462E-02  0.1271321E+00
         -1   -1    0    0    0  501 -0.00000000000E+00  0.00000000000E+00  0.70572668954E+02  0.70572668954E+02  0.00000000000E+00 0.  1.
          1   -1    0    0  501    0  0.00000000000E+00 -0.00000000000E+00 -0.23528474399E+03  0.23528474399E+03  0.00000000000E+00 0. -1.
         23    2    1    2    0    0  0.63924498450E+02  0.12890432662E+02 -0.62863552341E+02  0.15444134524E+03  0.12509115937E+03 0.  0.
          5    1    3    3  502    0 -0.10762648530E+02  0.38083781843E+02 -0.64158346567E+02  0.75498177972E+02  0.41800000000E+01 0.  1.
         -5    1    3    3    0  502  0.74687146979E+02 -0.25193349181E+02  0.12947942260E+01  0.78943167272E+02  0.41800000000E+01 0.  1.
        -11    1    1    2    0    0 -0.15353349598E+02  0.24395893524E+02 -0.82201152696E+02  0.87108636020E+02  0.00000000000E+00 0. -1.
         11    1    1    2    0    0 -0.48571148851E+02 -0.37286326186E+02 -0.19647369996E+02  0.64307431678E+02  0.00000000000E+00 0.  1.
</event>
<event>
 7    1  0.4966153E-006  0.7857109E+02  0.7561462E-02  0.1333156E+00
          3   -1    0    0  501    0  0.00000000000E+00  0.00000000000E+00  0.16962695692E+03  0.16962695692E+03  0.00000000000E+00 0. -1.
         -3   -1    0    0    0  501 -0.00000000000E+00 -0.00000000000E+00 -0.87981007515E+02  0.87981007515E+02  0.00000000000E+00 0.  1.
         23    2    1    2    0    0  0.22561504002E+02 -0.50203801845E+02  0.40034106496E+02  0.14240472675E+03  0.12508770258E+03 0.  0.
          5    1    3    3  502    0 -0.65199817055E+01  0.80295757916E+01 -0.38634721607E+02  0.40213161558E+02  0.41800000000E+01 0.  1.
         -5    1    3    3    0  502  0.29081485708E+02 -0.58233377637E+02  0.78668828103E+02  0.10219156520E+03  0.41800000000E+01 0.  1.
        -11    1    1    2    0    0  0.61596253868E+01  0.51637937369E+02  0.61273723400E+02  0.80367199403E+02  0.00000000000E+00 0. -1.
         11    1    1    2    0    0 -0.28721129389E+02 -0.14341355242E+01 -0.19661880494E+02  0.34836038274E+02  0.00000000000E+00 0.  1.
</event>
<event>
 7    1  0.4966153E-006  0.9861548E+02  0.7561462E-02  0.1283235E+00
         -3   -1    0    0    0  501 -0.00000000000E+00  0.00000000000E+00  0.70580777027E+02  0.70580777027E+02  0.00000000000E+00 0.  1.
          3   -1    0    0  501    0  0.00000000000E+00 -0.00000000000E+00 -0.19128951531E+03  0.19128951531E+03  0.00000000000E+00 0. -1.
         23    2    1    2    0    0 -0.12628540007E+02  0.46139226261E+02 -0.79714998299E+02  0.15585465786E+03  0.12509150731E+03 0.  0.
          5    1    3    3  502    0  0.37691086614E+02  0.48376350409E+02 -0.15892920024E-02  0.61468379607E+02  0.41800000000E+01 0. -1.
         -5    1    3    3    0  502 -0.50319626621E+02 -0.22371241480E+01 -0.79713409007E+02  0.94386278257E+02  0.41800000000E+01 0. -1.
        -11    1    1    2    0    0  0.17151619712E+02  0.15678122853E+02 -0.37270637206E+02  0.43921315926E+02  0.00000000000E+00 0. -1.
         11    1    1    2    0    0 -0.45230797050E+01 -0.61817349114E+02 -0.37231027786E+01  0.62094318547E+02  0.00000000000E+00 0.  1.
</event>
<event>
 7    1  0.4966153E-006  0.9655694E+02  0.7561462E-02  0.1287707E+00
          2   -1    0    0  501    0  0.00000000000E+00  0.00000000000E+00  0.42939333609E+03  0.42939333609E+03  0.00000000000E+00 0. -1.
         -2   -1    0    0    0  501 -0.00000000000E+00 -0.00000000000E+00 -0.41214751018E+02  0.41214751018E+02  0.00000000000E+00 0.  1.
         23    2    1    2    0    0  0.67091899895E+02 -0.36258768143E+02  0.19885656428E+03  0.24700087777E+03  0.12509787834E+03 0.  0.
          5    1    3    3  502    0  0.74485010228E+01 -0.25042082651E+01 -0.17704627293E+02  0.19816090788E+02  0.41800000000E+01 0. -1.
         -5    1    3    3    0  502  0.59643398872E+02 -0.33754559878E+02  0.21656119158E+03  0.22718478699E+03  0.41800000000E+01 0. -1.
        -11    1    1    2    0    0 -0.87580817971E+02  0.36941376331E+02  0.13148719198E+03  0.16224656119E+03  0.00000000000E+00 0.  1.
         11    1    1    2    0    0  0.20488918076E+02 -0.68260818812E+00  0.57834828807E+02  0.61360648147E+02  0.00000000000E+00 0. -1.
</event>
<event>
 7    1  0.4966153E-006  0.1702540E+03  0.7561462E-02  0.1177583E+00
         -2   -1    0    0    0  501 -0.00000000000E+00  0.00000000000E+00  0.98943011428E+02  0.98943011428E+02  0.00000000000E+00 0. -1.
          2   -1    0    0  501    0  0.00000000000E+00 -0.00000000000E+00 -0.39899304090E+03  0.39899304090E+03  0.00000000000E+00 0.  1.
         23    2    1    2    0    0  0.64904121867E+02 -0.15189016926E+03 -0.15502813790E+03  0.25877187353E+03  0.12508393356E+03 0.  0.
          5    1    3    3  502    0  0.36694801319E+02 -0.13521271433E+03 -0.17179830726E+03  0.22172306452E+03  0.41800000000E+01 0. -1.
         -5    1    3    3    0  502  0.28209320548E+02 -0.16677454935E+02  0.16770169362E+02  0.37048809014E+02  0.41800000000E+01 0. -1.
        -11    1    1    2    0    0 -0.26444625798E+02  0.32643491352E+02  0.65406588890E+01  0.42517008126E+02  0.00000000000E+00 0. -1.
         11    1    1    2    0    0 -0.38459496070E+02  0.11924667791E+03 -0.15156255046E+03  0.19664717067E+03  0.00000000000E+00 0.  1.
</event>
<event>
 7    1  0.4966153E-006  0.1940502E+03  0.7561462E-02  0.1154858E+00
          2   -1    0    0  501    0  0.00000000000E+00  0.00000000000E+00  0.56116811329E+03  0.56116811329E+03  0.00000000000E+00 0.  1.
         -2   -1    0    0    0  501 -0.00000000000E+00 -0.00000000000E+00 -0.76162719216E+02  0.76162719216E+02  0.00000000000E+00 0. -1.
         23    2    1    2    0    0 -0.16397234073E+03 -0.30904157880E+02  0.16989483891E+03  0.26898772414E+03  0.12509254155E+03 0.  0.
          5    1    3    3  502    0 -0.17284186774E+03 -0.54379154803E+02  0.15975860145E+03  0.24160233206E+03  0.41800000000E+01 0.  1.
         -5    1    3    3    0  502  0.88695270027E+01  0.23474996923E+02  0.10136237460E+02  0.27385392085E+02  0.41800000000E+01 0.  1.
        -11    1    1    2    0    0 -0.46120337461E+01  0.10668629790E+02  0.15021696516E+01  0.11719514945E+02  0.00000000000E+00 0. -1.
         11    1    1    2    0    0  0.16858437448E+03  0.20235528089E+02  0.31360838552E+03  0.35662359342E+03  0.00000000000E+00 0.  1.
</event>
<event>
 7    1  0.4966153E-006  0.1200175E+03  0.7561462E-02  0.1243068E+00
         -2   -1    0    0    0  501 -0.00000000000E+00  0.00000000000E+00  0.31851192338E+02  0.31851192338E+02  0.00000000000E+00 0.  1.
          2   -1    0    0  501    0  0.00000000000E+00 -0.00000000000E+00 -0.54610129224E+03  0.54610129224E+03  0.00000000000E+00 0. -1.
         23    2    1    2    0    0  0.48551893207E+02 -0.56624703522E+02 -0.27242137212E+03  0.30890967467E+03  0.12509252468E+03 0.  0.
          5    1    3    3  502    0  0.36692740814E+02 -0.93386380962E+02 -0.15034373186E+03  0.18079846096E+03  0.41800000000E+01 0.  1.
         -5    1    3    3    0  502  0.11859152393E+02  0.36761677441E+02 -0.12207764027E+03  0.12811121370E+03  0.41800000000E+01 0.  1.
        -11    1    1    2    0    0 -0.56063251882E+02  0.14415807346E+02 -0.20337224070E+03  0.21145016434E+03  0.00000000000E+00 0. -1.
         11    1    1    2    0    0  0.75113586751E+01  0.42208896176E+02 -0.38456487086E+02  0.57592645577E+02  0.00000000000E+00 0.  1.
</event>
<event>
 7    1  0.4966153E-006  0.1307956E+03  0.7561462E-02  0.1226280E+00
          4   -1    0    0  501    0  0.00000000000E+00  0.00000000000E+00  0.94051651615E+02  0.94051651615E+02  0.00000000000E+00 0. -1.
         -4   -1    0    0    0  501 -0.00000000000E+00 -0.00000000000E+00 -0.26294885677E+03  0.26294885677E+03  0.00000000000E+00 0.  1.
         23    2    1    2    0    0  0.10325367534E+03  0.38761214034E+02 -0.12128339044E+03  0.20620491166E+03  0.12508817535E+03 0.  0.
          5    1    3    3  502    0  0.71255251818E+02 -0.28362838018E+02 -0.10478750704E+03  0.12992172845E+03  0.41800000000E+01 0. -1.
         -5    1    3    3    0  502  0.31998423520E+02  0.67124052052E+02 -0.16495883401E+02  0.76283183211E+02  0.41800000000E+01 0. -1.
        -11    1    1    2    0    0 -0.78900073134E+02 -0.30496524624E+02  0.12410027724E+02  0.85494259122E+02  0.00000000000E+00 0. -1.
         11    1    1    2    0    0 -0.24353602205E+02 -0.82646894100E+01 -0.60023842435E+02  0.65301337598E+02  0.00000000000E+00 0.  1.
</event>
<event>
 7    1  0.4966153E-006  0.4079719E+03  0.7561462E-02  0.1041054E+00
         -2   -1    0    0    0  501 -0.00000000000E+00  0.00000000000E+00  0.95067665514E+03  0.95067665514E+03  0.00000000000E+00 0.  1.
          2   -1    0    0  501    0  0.00000000000E+00 -0.00000000000E+00 -0.26269351476E+03  0.26269351476E+03  0.00000000000E+00 0. -1.
         23    2    1    2    0    0 -0.32689274524E+03  0.23242171873E+03  0.68253873996E+03  0.80148946214E+03  0.12508998419E+03 0.  0.
          5    1    3    3  502    0 -0.53698207159E+02  0.62404807651E+02  0.24397951736E+03  0.25752928913E+03  0.41800000000E+01 0.  1.
         -5    1    3    3    0  502 -0.27319453808E+03  0.17001691107E+03  0.43855922261E+03  0.54396017301E+03  0.41800000000E+01 0.  1.
        -11    1    1    2    0    0  0.31577061188E+03 -0.19150552196E+03  0.16185620290E+01  0.36930754665E+03  0.00000000000E+00 0.  1.
         11    1    1    2    0    0  0.11122133360E+02 -0.40916196763E+02  0.38258383876E+01  0.42573161116E+02  0.00000000000E+00 0. -1.
</event>
<event>
 7    1  0.4966153E-006  0.1043847E+03  0.7561462E-02  0.1271337E+00
         -3   -1    0    0    0  501 -0.00000000000E+00  0.00000000000E+00  0.14085202024E+03  0.14085202024E+03  0.00000000000E+00 0.  1.
          3   -1    0    0  501    0  0.00000000000E+00 -0.00000000000E+00 -0.10293955899E+03  0.10293955899E+03  0.00000000000E+00 0. -1.
         23    2    1    2    0    0  0.21532583817E+02  0.35796523562E+01  0.74146004586E+02  0.14400369885E+03  0.12150295968E+03 0.  0.
          5    1    3    3  502    0 -0.33759759366E+02 -0.35087784030E+02  0.81800594788E+01  0.49550577329E+02  0.41800000000E+01 0. -1.
         -5    1    3    3    0  502  0.55292343184E+02  0.38667436386E+02  0.65965945107E+02  0.94453121522E+02  0.41800000000E+01 0.  1.
        -11    1    1    2    0    0 -0.52691008752E+02  0.16518640269E+02 -0.15721020508E+02  0.57413921356E+02  0.00000000000E+00 0.  1.
         11    1    1    2    0    0  0.31158424935E+02 -0.20098292626E+02 -0.20512522831E+02  0.42373959029E+02  0.00000000000E+00 0. -1.
</event>
<event>
 7    1  0.4966153E-006  0.9716939E+02  0.7561462E-02  0.1286363E+00
          2   -1    0    0  501    0  0.00000000000E+00  0.00000000000E+00  0.37953939994E+03  0.37953939994E+03  0.00000000000E+00 0.  1.
         -2   -1    0    0    0  501 -0.00000000000E+00 -0.00000000000E+00 -0.40849824497E+02  0.40849824497E+02  0.00000000000E+00 0. -1.
         23    2    1    2    0    0 -0.35976468008E+02 -0.38395174920E+02  0.19061342458E+03  0.23398533652E+03  0.12508862605E+03 0.  0.
          5    1    3    3  502    0  0.33702387417E+02 -0.54355360587E+02  0.88887027930E+02  0.10958436146E+03  0.41800000000E+01 0.  1.
         -5    1    3    3    0  502 -0.69678855426E+02  0.15960185667E+02  0.10172639665E+03  0.12440097506E+03  0.41800000000E+01 0.  1.
        -11    1    1    2    0    0  0.17667971683E+02  0.36096833006E+02  0.15964441922E+03  0.16462526891E+03  0.00000000000E+00 0.  1.
         11    1    1    2    0    0  0.18308496326E+02  0.22983419142E+01 -0.11568268355E+02  0.21778619010E+02  0.00000000000E+00 0. -1.
</event>
<event>
 7    1  0.4966153E-006  0.9638816E+02  0.7561462E-02  0.1288080E+00
         -2   -1    0    0    0  501 -0.00000000000E+00  0.00000000000E+00  0.90242219035E+02  0.90242219035E+02  0.00000000000E+00 0.  1.
          2   -1    0    0  501    0  0.00000000000E+00 -0.00000000000E+00 -0.25120937024E+03  0.25120937024E+03  0.00000000000E+00 0. -1.
         23    2    1    2    0    0 -0.17982237194E+02  0.89454426655E+02 -0.29637521492E+02  0.15764345247E+03  0.12509044777E+03 0.  0.
          5    1    3    3  502    0 -0.23204693390E+02  0.23553118827E+02  0.46190160118E+02  0.56957971290E+02  0.41800000000E+01 0.  1.
         -5    1    3    3    0  502  0.52224561955E+01  0.65901307828E+02 -0.75827681610E+02  0.10068548118E+03  0.41800000000E+01 0.  1.
        -11    1    1    2    0    0  0.30831772460E+01 -0.61110908286E+02 -0.14791742660E+02  0.62951129810E+02  0.00000000000E+00 0.  1.
         11    1    1    2    0    0  0.14899059948E+02 -0.28343518369E+02 -0.11653788705E+03  0.12085700699E+03  0.00000000000E+00 0. -1.
</event>
<event>
 7    1  0.4966153E-006  0.1534165E+03  0.7561462E-02  0.1196337E+00
          1   -1    0    0  501    0  0.00000000000E+00  0.00000000000E+00  0.95211890936E+03  0.95211890936E+03  0.00000000000E+00 0. -1.
         -1   -1    0    0    0  501 -0.00000000000E+00 -0.00000000000E+00 -0.33010495468E+02  0.33010495468E+02  0.00000000000E+00 0.  1.
         23    2    1    2    0    0  0.47183514513E+01 -0.13379566860E+03  0.38336287763E+03  0.42489770602E+03  0.12508965129E+03 0.  0.
          5    1    3    3  502    0 -0.40510375350E+02 -0.11475206905E+03  0.19246410809E+03  0.22774774020E+03  0.41800000000E+01 0.  1.
         -5    1    3    3    0  502  0.45228726802E+02 -0.19043599550E+02  0.19089876954E+03  0.19714996582E+03  0.41800000000E+01 0.  1.
        -11    1    1    2    0    0 -0.11303712826E+02  0.11998178300E+03  0.53055845401E+03  0.54407322605E+03  0.00000000000E+00 0. -1.
         11    1    1    2    0    0  0.65853613747E+01  0.13813885597E+02  0.51870822482E+01  0.16158472762E+02  0.00000000000E+00 0.  1.
</event>
<event>
 7    1  0.4966153E-006  0.1545271E+03  0.7561462E-02  0.1195018E+00
         -2   -1    0    0    0  501 -0.00000000000E+00  0.00000000000E+00  0.91143871440E+02  0.91143871440E+02  0.00000000000E+00 0.  1.
          2   -1    0    0  501    0  0.00000000000E+00 -0.00000000000E+00 -0.42389357322E+03  0.42389357322E+03  0.00000000000E+00 0. -1.
         23    2    1    2    0    0  0.13844948219E+03  0.16401281792E+02 -0.59803684006E+02  0.19662508153E+03  0.12509069070E+03 0.  0.
          5    1    3    3  502    0  0.14780739378E+03  0.47389222586E+01 -0.14401599769E+02  0.14864172199E+03  0.41800000000E+01 0.  1.
         -5    1    3    3    0  502 -0.93579115886E+01  0.11662359534E+02 -0.45402084238E+02  0.47983359535E+02  0.41800000000E+01 0.  1.
        -11    1    1    2    0    0 -0.38761333622E+02  0.14240784756E+02 -0.15754919234E+03  0.16287108074E+03  0.00000000000E+00 0. -1.
         11    1    1    2    0    0 -0.99688148572E+02 -0.30642066549E+02 -0.11539682543E+03  0.15554128239E+03  0.00000000000E+00 0.  1.
</event>
<event>
 7    1  0.4966153E-006  0.1339418E+03  0.7561462E-02  0.1221721E+00
         -2   -1    0    0    0  501 -0.00000000000E+00  0.00000000000E+00  0.89251440524E+02  0.89251440524E+02  0.00000000000E+00 0.  1.
          2   -1    0    0  501    0  0.00000000000E+00 -0.00000000000E+00 -0.24602718046E+03  0.24602718046E+03  0.00000000000E+00 0. -1.
         23    2    1    2    0    0  0.78626024432E+02  0.45269709590E+02 -0.40372034128E+02  0.15971485890E+03  0.12509011428E+03 0.  0.
          5    1    3    3  502    0  0.69478941521E+02  0.77173958398E+02 -0.60911273127E+02  0.12046077687E+03  0.41800000000E+01 0. -1.
         -5    1    3    3    0  502  0.91470829117E+01 -0.31904248808E+02  0.20539238998E+02  0.39254082035E+02  0.41800000000E+01 0. -1.
        -11    1    1    2    0    0 -0.26380414919E+02 -0.68443378070E+02 -0.55033225680E+02  0.91701026284E+02  0.00000000000E+00 0.  1.
         11    1    1    2    0    0 -0.52245609514E+02  0.23173668480E+02 -0.61370480130E+02  0.83862735798E+02  0.00000000000E+00 0. -1.
</event>
<event>
 7    1  0.4966153E-006  0.1059695E+03  0.7561462E-02  0.1268221E+00
          3   -1    0    0  501    0  0.00000000000E+00  0.00000000000E+00  0.35527127930E+03  0.35527127930E+03  0.00000000000E+00 0. -1.
         -3   -1    0    0    0  501 -0.00000000000E+00 -0.00000000000E+00 -0.40398203643E+02  0.40398203643E+02  0.00000000000E+00 0.  1.
         23    2    1    2    0    0  0.45303352254E+02 -0.26183358597E+02  0.14478893234E+03  0.19836734978E+03  0.12509120088E+03 0.  0.
          5    1    3    3  502    0 -0.20462385421E+02  0.30458303868E+02  0.85604116652E+02  0.93230653110E+02  0.41800000000E+01 0. -1.
         -5    1    3    3    0  502  0.65765737675E+02 -0.56641662465E+02  0.59184815690E+02  0.10513669667E+03  0.41800000000E+01 0. -1.
        -11    1    1    2    0    0 -0.53635638357E+02 -0.68253826962E+01  0.54345244811E+02  0.76660114691E+02  0.00000000000E+00 0.  1.
         11    1    1    2    0    0  0.83322861032E+01  0.33008741294E+02  0.11573889850E+03  0.12064201847E+03  0.00000000000E+00 0. -1.
</event>
<event>
 7    1  0.4966153E-006  0.1297063E+03  0.7561462E-02  0.1227892E+00
          2   -1    0    0  501    0  0.00000000000E+00  0.00000000000E+00  0.41113583843E+03  0.41113583843E+03  0.00000000000E+00 0. -1.
         -2   -1    0    0    0  501 -0.00000000000E+00 -0.00000000000E+00 -0.44227090499E+02  0.44227090499E+02  0.00000000000E+00 0.  1.
         23    2    1    2    0    0  0.69545069892E+02  0.29915859159E+02  0.15850495518E+03  0.21564567236E+03  0.12509100613E+03 0.  0.
          5    1    3    3  502    0 -0.34516895756E+02  0.20074414213E+02  0.58296390453E+02  0.70783753351E+02  0.41800000000E+01 0.  1.
         -5    1    3    3    0  502  0.10406196565E+03  0.98414449458E+01  0.10020856473E+03  0.14486191901E+03  0.41800000000E+01 0.  1.
        -11    1    1    2    0    0  0.11313924190E+02  0.17559363916E+02  0.18402536600E+02  0.27838633139E+02  0.00000000000E+00 0. -1.
         11    1    1    2    0    0 -0.80858994082E+02 -0.47475223075E+02  0.19000125615E+03  0.21187862343E+03  0.00000000000E+00 0.  1.
</event>
<event>
 7    1  0.4966153E-006  0.1027393E+03  0.7561462E-02  0.1274639E+00
         -1   -1    0    0    0  501 -0.00000000000E+00  0.00000000000E+00  0.88423611111E+02  0.88423611111E+02  0.00000000000E+00 0.  1.
          1   -1    0    0  501    0  0.00000000000E+00 -0.00000000000E+00 -0.19682074558E+03  0.19682074558E+03  0.00000000000E+00 0. -1.
         23    2    1    2    0    0  0.18997083770E+01  0.15723895024E+02  0.19078841784E+02  0.12752379479E+03  0.12508983278E+03 0.  0.
          5    1    3    3  502    0 -0.60438301858E+02  0.13091064520E+02 -0.54562082659E+00  0.61983339728E+02  0.41800000000E+01 0. -1.
         -5    1    3    3    0  502  0.62338010235E+02  0.26328305040E+01  0.19624462611E+02  0.65540455058E+02  0.41800000000E+01 0. -1.
        -11    1    1    2    0    0 -0.34320910244E+02 -0.29957338769E+02 -0.31404475156E+02  0.55331799952E+02  0.00000000000E+00 0.  1.
         11    1    1    2    0    0  0.32421201867E+02  0.14233443745E+02 -0.96071501093E+02  0.10238876195E+03  0.00000000000E+00 0. -1.
</event>
<event>
 7    1  0.4966153E-006  0.1199578E+03  0.7561462E-02  0.1243167E+00
         -1   -1    0    0    0  501 -0.00000000000E+00  0.00000000000E+00  0.52953210217E+03  0.52953210217E+03  0.00000000000E+00 0. -1.
          1   -1    0    0  501    0  0.00000000000E+00 -0.00000000000E+00 -0.31017302830E+02  0.31017302830E+02  0.00000000000E+00 0.  1.
         23    2    1    2    0    0  0.13268907193E+02  0.54276588769E+02  0.35976067034E+03  0.38496407530E+03  0.12509031684E+03 0.  0.
          5    1    3    3  502    0 -0.53750527253E+02  0.25268618585E+02  0.21026339506E+03  0.21853098171E+03  0.41800000000E+01 0. -1.
         -5    1    3    3    0  502  0.67019434446E+02  0.29007970184E+02  0.14949727527E+03  0.16643309359E+03  0.41800000000E+01 0. -1.
        -11    1    1    2    0    0 -0.30581541703E+02 -0.74543492712E+02  0.11032862660E+03  0.13661760080E+03  0.00000000000E+00 0. -1.
         11    1    1    2    0    0  0.17312634509E+02  0.20266903942E+02  0.28425502399E+02  0.38967728901E+02  0.00000000000E+00 0.  1.
</event>
<event>
 7    1  0.4966153E-006  0.9168185E+02  0.7561462E-02  0.1298829E+00
          2   -1    0    0  501    0  0.00000000000E+00  0.00000000000E+00  0.36954277044E+03  0.36954277044E+03  0.00000000000E+00 0. -1.
         -2   -1    0    0    0  501 -0.00000000000E+00 -0.00000000000E+00 -0.41070936700E+02  0.41070936700E+02  0.00000000000E+00 0.  1.
         23    2    1    2    0    0 -0.27739965548E+02 -0.22155703795E+02  0.10354745900E+03  0.16622163835E+03  0.12508867212E+03 0.  0.
          5    1    3    3  502    0  0.28236584766E+02 -0.11010736584E+02 -0.15379048171E+02  0.34242204398E+02  0.41800000000E+01 0. -1.
         -5    1    3    3    0  502 -0.55976550314E+02 -0.11144967211E+02  0.11892650717E+03  0.13197943395E+03  0.41800000000E+01 0. -1.
        -11    1    1    2    0    0  0.58932018141E+02  0.31522516596E+01  0.13531643648E+03  0.14762607301E+03  0.00000000000E+00 0.  1.
         11    1    1    2    0    0 -0.31192052594E+02  0.19003452135E+02  0.89607938258E+02  0.96765995768E+02  0.00000000000E+00 0. -1.
</event>
<event>
 7    1  0.4966153E-006  0.9621960E+02  0.7561462E-02  0.1288453E+00
          1   -1    0    0  501    0  0.00000000000E+00  0.00000000000E+00  0.57364939898E+03  0.57364939898E+03  0.00000000000E+00 0. -1.
         -1   -1    0    0    0  501 -0.00000000000E+00 -0.00000000000E+00 -0.27216677959E+02  0.27216677959E+02  0.00000000000E+00 0.  1.
         23    2    1    2    0    0  0.17528701828E+01 -0.61539905999E+02  0.28032667362E+03  0.31307416074E+03  0.12506859557E+03 0.  0.
          5    1    3    3  502    0 -0.92529103851E+01 -0.84277083472E+02  0.10102537138E+03  0.13195393594E+03  0.41800000000E+01 0.  1.
         -5    1    3    3    0  502  0.11005780568E+02  0.22737177473E+02  0.17930130224E+03  0.18112022480E+03  0.41800000000E+01 0.  1.
        -11    1    1    2    0    0 -0.27899592396E+02  0.33821534667E+02  0.23368106511E+03  0.23775854065E+03  0.00000000000E+00 0. -1.
         11    1    1    2    0    0  0.26146722213E+02  0.27718371333E+02  0.32424982295E+02  0.50033375547E+02  0.00000000000E+00 0.  1.
</event>
<event>
 7    1  0.4966153E-006  0.1290480E+03  0.7561462E-02  0.1228875E+00
          2   -1    0    0  501    0  0.00000000000E+00  0.00000000000E+00  0.10907429664E+04  0.10907429664E+04  0.00000000000E+00 0. -1.
         -2   -1    0    0    0  501 -0.00000000000E+00 -0.00000000000E+00 -0.18925410743E+02  0.18925410743E+02  0.00000000000E+00 0.  1.
         23    2    1    2    0    0 -0.72860276058E+02  0.50379174518E+02  0.52239898342E+03  0.54442218575E+03  0.12509251537E+03 0.  0.
          5    1    3    3  502    0 -0.28140241872E+02  0.74057926640E+02  0.16112096834E+03  0.17959367625E+03  0.41800000000E+01 0.  1.
         -5    1    3    3    0  502 -0.44720034186E+02 -0.23678752122E+02  0.36127801508E+03  0.36482850950E+03  0.41800000000E+01 0.  1.
        -11    1    1    2    0    0  0.66165309789E+02  0.10280674789E+02  0.36203375748E+03  0.36817384759E+03  0.00000000000E+00 0. -1.
         11    1    1    2    0    0  0.66949662692E+01 -0.60659849307E+02  0.18738481472E+03  0.19707234377E+03  0.00000000000E+00 0.  1.
</event>
<event>
 7    1  0.4966153E-006  0.1367021E+03  0.7561462E-02  0.1217837E+00
         -3   -1    0    0    0  501 -0.00000000000E+00  0.00000000000E+00  0.14604301687E+03  0.14604301687E+03  0.00000000000E+00 0.  1.
          3   -1    0    0  501    0  0.00000000000E+00 -0.00000000000E+00 -0.17782154187E+03  0.17782154187E+03  0.00000000000E+00 0. -1.
         23    2    1    2    0    0 -0.10808603700E+03 -0.38925515847E+02  0.13711258984E+02  0.17039054621E+03  0.12508857836E+03 0.  0.
          5    1    3    3  502    0 -0.11164923581E+03 -0.66650860241E+02 -0.13949647194E+02  0.13084324241E+03  0.41800000000E+01 0.  1.
         -5    1    3    3    0  502  0.35631988057E+01  0.27725344394E+02  0.27660906178E+02  0.39547303803E+02  0.41800000000E+01 0.  1.
        -11    1    1    2    0    0  0.45807910106E+02  0.19700570852E+02 -0.68171711415E+02  0.84462177082E+02  0.00000000000E+00 0. -1.
         11    1    1    2    0    0  0.62278126897E+02  0.19224944995E+02  0.22681927433E+02  0.69011835448E+02  0.00000000000E+00 0.  1.
</event>
<event>
 7    1  0.4966153E-006  0.1102168E+03  0.7561462E-02  0.1260169E+00
         -2   -1    0    0    0  501 -0.00000000000E+00  0.00000000000E+00  0.66079839532E+02  0.66079839532E+02  0.00000000000E+00 0.  1.
          2   -1    0    0  501    0  0.00000000000E+00 -0.00000000000E+00 -0.27426011693E+03  0.27426011693E+03  0.00000000000E+00 0. -1.
         23    2    1    2    0    0  0.74575138245E+02 -0.10757694637E+02 -0.12327108464E+03  0.19110192627E+03  0.12508799575E+03 0.  0.
          5    1    3    3  502    0  0.47857901013E+02 -0.37308021722E+02  0.13556099026E+01  0.60840588856E+02  0.41800000000E+01 0. -1.
         -5    1    3    3    0  502  0.26717237232E+02  0.26550327085E+02 -0.12462669454E+03  0.13026133742E+03  0.41800000000E+01 0. -1.
        -11    1    1    2    0    0  0.42079286433E+01  0.38089640912E+02 -0.18072201089E+02  0.42368996453E+02  0.00000000000E+00 0.  1.
         11    1    1    2    0    0 -0.78783066888E+02 -0.27331946275E+02 -0.66836991669E+02  0.10686903373E+03  0.00000000000E+00 0. -1.
</event>
<event>
 7    1  0.4966153E-006  0.8934650E+02  0.7561462E-02  0.1304442E+00
          2   -1    0    0  501    0  0.00000000000E+00  0.00000000000E+00  0.73679925712E+03  0.73679925712E+03  0.00000000000E+00 0.  1.
         -2   -1    0    0    0  501 -0.00000000000E+00 -0.00000000000E+00 -0.23613220009E+02  0.23613220009E+02  0.00000000000E+00 0. -1.
         23    2    1    2    0    0 -0.64952885207E+02 -0.38261949266E+02  0.40369700819E+03  0.42930391076E+03  0.12509084423E+03 0.  0.
          5    1    3    3  502    0 -0.38970000343E+02 -0.38067989071E+02  0.48276580665E+02  0.72910447532E+02  0.41800000000E+01 0. -1.
         -5    1    3    3    0  502 -0.25982884864E+02 -0.19396019576E+00  0.35542042753E+03  0.35639346323E+03  0.41800000000E+01 0. -1.
        -11    1    1    2    0    0  0.52153415059E+02 -0.52168917047E+01  0.25453406879E+03  0.25987455981E+03  0.00000000000E+00 0. -1.
         11    1    1    2    0    0  0.12799470149E+02  0.43478840971E+02  0.54954960130E+02  0.71234006564E+02  0.00000000000E+00 0.  1.
</event>
<event>
 6    1  0.4966153E-006  0.2726363E+03  0.7561462E-02  0.1099780E+00
          2   -1    0    0  501    0  0.00000000000E+00  0.00000000000E+00  0.57410772123E+03  0.57410772123E+03  0.00000000000E+00 0. -1.
         -2   -1    0    0    0  501 -0.00000000000E+00 -0.00000000000E+00 -0.13925601015E+03  0.13925601015E+03  0.00000000000E+00 0.  1.
          5    1    1    2  502    0 -0.13778891012E+00  0.46805017383E+02  0.35050129872E+01  0.47122034698E+02  0.41800000000E+01 0. -1.
         -5    1    1    2    0  502  0.22130370303E+03 -0.12490101816E+03  0.23909170766E+03  0.34893826157E+03  0.41800000000E+01 0.  1.
        -11    1    1    2    0    0 -0.16655456468E+03  0.25844808527E+02  0.92858816554E+02  0.19243476026E+03  0.00000000000E+00 0.  1.
         11    1    1    2    0    0 -0.54611349441E+02  0.52251192255E+02  0.99396173871E+02  0.12486867486E+03  0.00000000000E+00 0. -1.
</event>
<event>
 7    1  0.4966153E-006  0.1066288E+03  0.7561462E-02  0.1266943E+00
          1   -1    0    0  501    0  0.00000000000E+00  0.00000000000E+00  0.15614852589E+03  0.15614852589E+03  0.00000000000E+00 0. -1.
         -1   -1    0    0    0  501 -0.00000000000E+00 -0.00000000000E+00 -0.15395176038E+03  0.15395176038E+03  0.00000000000E+00 0.  1.
         23    2    1    2    0    0 -0.12432345094E+02  0.35307107245E+02 -0.10353364636E+03  0.16664188744E+03  0.12509655348E+03 0.  0.
          5    1    3    3  502    0 -0.62813146744E+02  0.19786622079E+02 -0.22190217718E+02  0.69619537341E+02  0.41800000000E+01 0.  1.
         -5    1    3    3    0  502  0.50380801651E+02  0.15520485166E+02 -0.81343428643E+02  0.97022350096E+02  0.41800000000E+01 0.  1.
        -11    1    1    2    0    0  0.15703113411E+02  0.27407079232E+02  0.20754187998E+02  0.37795133050E+02  0.00000000000E+00 0.  1.
         11    1    1    2    0    0 -0.32707683176E+01 -0.62714186477E+02  0.84976223880E+02  0.10566326578E+03  0.00000000000E+00 0. -1.
</event>
<event>
 7    1  0.4966153E-006  0.8482399E+02  0.7561462E-02  0.1315893E+00
          1   -1    0    0  501    0  0.00000000000E+00  0.00000000000E+00  0.85957573906E+02  0.85957573906E+02  0.00000000000E+00 0. -1.
         -1   -1    0    0    0  501 -0.00000000000E+00 -0.00000000000E+00 -0.19321465050E+03  0.19321465050E+03  0.00000000000E+00 0.  1.
         23    2    1    2    0    0  0.56371636592E+01  0.30481411861E+02 -0.12803365015E+03  0.18166490221E+03  0.12509447246E+03 0.  0.
          5    1    3    3  502    0 -0.55548411868E+02  0.46965198165E+00 -0.82681925912E+02  0.99697642432E+02  0.41800000000E+01 0. -1.
         -5    1    3    3    0  502  0.61185575527E+02  0.30011759880E+02 -0.45351724242E+02  0.81967259777E+02  0.41800000000E+01 0. -1.
        -11    1    1    2    0    0 -0.19805728863E+02 -0.16897337496E+02  0.53414742505E+02  0.59421558605E+02  0.00000000000E+00 0. -1.
         11    1    1    2    0    0  0.14168565204E+02 -0.13584074366E+02 -0.32638168943E+02  0.38085763591E+02  0.00000000000E+00 0.  1.
</event>
<event>
 7    1  0.4966153E-006  0.8761175E+02  0.7561462E-02  0.1308740E+00
         -2   -1    0    0    0  501 -0.00000000000E+00  0.00000000000E+00  0.96724761233E+02  0.96724761233E+02  0.00000000000E+00 0.  1.
          2   -1    0    0  501    0  0.00000000000E+00 -0.00000000000E+00 -0.15038675649E+03  0.15038675649E+03  0.00000000000E+00 0. -1.
         23    2    1    2    0    0 -0.44095111567E+02 -0.23682913523E+02 -0.83973781358E+01  0.13499453892E+03  0.12509096818E+03 0.  0.
          5    1    3    3  502    0 -0.47601662703E+02 -0.49799032290E+02  0.39970863618E+02  0.79755904154E+02  0.41800000000E+01 0. -1.
         -5    1    3    3    0  502  0.35065511354E+01  0.26116118766E+02 -0.48368241754E+02  0.55238634765E+02  0.41800000000E+01 0. -1.
        -11    1    1    2    0    0  0.60269964075E+01  0.38283201267E+02  0.13111160341E+02  0.40912476220E+02  0.00000000000E+00 0.  1.
         11    1    1    2    0    0  0.38068115160E+02 -0.14600287744E+02 -0.58375777456E+02  0.71204502580E+02  0.00000000000E+00 0. -1.
</event>
<event>
 7    1  0.4966153E-006  0.2770401E+03  0.7561462E-02  0.1097317E+00
         -1   -1    0    0    0  501 -0.00000000000E+00  0.00000000000E+00  0.13630237540E+04  0.13630237540E+04  0.00000000000E+00 0.  1.
          1   -1    0    0  501    0  0.00000000000E+00 -0.00000000000E+00 -0.59071841101E+02  0.59071841101E+02  0.00000000000E+00 0. -1.
         23    2    1    2    0    0  0.25087570207E+03  0.72944271353E+02  0.70837214030E+03  0.76530929325E+03  0.12509092919E+03 0.  0.
          5    1    3    3  502    0 -0.11750983378E+02 -0.79672114825E+01  0.38593641388E+02  0.41334049217E+02  0.41800000000E+01 0. -1.
         -5    1    3    3    0  502  0.26262668545E+03  0.80911482835E+02  0.66977849891E+03  0.72397524403E+03  0.41800000000E+01 0. -1.
        -11    1    1    2    0    0 -0.31659425213E+02  0.44347487898E+01  0.15887864356E+03  0.16206298029E+03  0.00000000000E+00 0.  1.
         11    1    1    2    0    0 -0.21921627686E+03 -0.77379020143E+02  0.43670112908E+03  0.49472332160E+03  0.00000000000E+00 0. -1.
</event>
<event>
 7    1  0.4966153E-006  0.9716002E+02  0.7561462E-02  0.1286384E+00
          2   -1    0    0  501    0  0.00000000000E+00  0.00000000000E+00  0.33314899484E+03  0.33314899484E+03  0.00000000000E+00 0. -1.
         -2   -1    0    0    0  501 -0.00000000000E+00 -0.00000000000E+00 -0.52960359577E+02  0.52960359577E+02  0.00000000000E+00 0.  1.
         23    2    1    2    0    0  0.24438851433E+02  0.52056295221E+02  0.81963793262E+02  0.16022548925E+03  0.12508808363E+03 0.  0.
          5    1    3    3  502    0  0.18633162973E+02 -0.12931972340E+02  0.91312177447E+02  0.94179704932E+02  0.41800000000E+01 0. -1.
         -5    1    3    3    0  502  0.58056884602E+01  0.64988267561E+02 -0.93483841847E+01  0.66045784316E+02  0.41800000000E+01 0. -1.
        -11    1    1    2    0    0 -0.56132165444E+02 -0.17072631297E+02  0.85708634328E+02  0.10386657179E+03  0.00000000000E+00 0.  1.
         11    1    1    2    0    0  0.31693314011E+02 -0.34983663924E+02  0.11251620767E+03  0.12201729338E+03  0.00000000000E+00 0. -1.
</event>
<event>
 7    1  0.4966153E-006  0.1126658E+03  0.7561462E-02  0.1255711E+00
          2   -1    0    0  501    0  0.00000000000E+00  0.00000000000E+00  0.17769624131E+03  0.17769624131E+03  0.00000000000E+00 0. -1.
         -2   -1    0    0    0  501 -0.00000000000E+00 -0.00000000000E+00 -0.90177528766E+02  0.90177528766E+02  0.00000000000E+00 0.  1.
         23    2    1    2    0    0 -0.37530347799E+02 -0.55545448871E+02  0.54938658704E+02  0.15217512651E+03  0.12508072998E+03 0.  0.
          5    1    3    3  502    0  0.39716476501E+02 -0.10243916773E+02 -0.88259617339E+01  0.42162854944E+02  0.41800000000E+01 0. -1.
         -5    1    3    3    0  502 -0.77246824301E+02 -0.45301532097E+02  0.63764620438E+02  0.11001227156E+03  0.41800000000E+01 0. -1.
        -11    1    1    2    0    0 -0.59408389180E+01 -0.12424809852E+02  0.32192870028E+02  0.35015001750E+02  0.00000000000E+00 0. -1.
         11    1    1    2    0    0  0.43471186717E+02  0.67970258722E+02  0.38718380871E+00  0.80683641816E+02  0.00000000000E+00 0.  1.
</event>
<event>
 6    1  0.4966153E-006  0.2611182E+03  0.7561462E-02  0.1106473E+00
          2   -1    0    0  501    0  0.00000000000E+00  0.00000000000E+00  0.16097227144E+03  0.16097227144E+03  0.00000000000E+00 0. -1.
         -2   -1    0    0    0  501 -0.00000000000E+00 -0.00000000000E+00 -0.47181883784E+03  0.47181883784E+03  0.00000000000E+00 0.  1.
          5    1    1    2  502    0  0.16251858399E+03  0.14155154760E+03 -0.82801742813E+02  0.23091715351E+03  0.41800000000E+01 0. -1.
         -5    1    1    2    0  502 -0.17814883738E+03 -0.10156173422E+03 -0.21873418852E+03  0.29985648525E+03  0.41800000000E+01 0.  1.
        -11    1    1    2    0    0  0.30532539677E+02 -0.65362438284E+02 -0.56000482137E+01  0.72359138038E+02  0.00000000000E+00 0. -1.
         11    1    1    2    0    0 -0.14902286286E+02  0.25372624897E+02 -0.37105868460E+01  0.29658332479E+02  0.00000000000E+00 0.  1.
</event>
<event>
 7    1  0.4966153E-006  0.1524071E+03  0.7561462E-02  0.1197546E+00
         -2   -1    0    0    0  501 -0.00000000000E+00  0.00000000000E+00  0.10683478410E+03  0.10683478410E+03  0.00000000000E+00 0.  1.
          2   -1    0    0  501    0  0.00000000000E+00 -0.00000000000E+00 -0.30538629437E+03  0.30538629437E+03  0.00000000000E+00 0. -1.
         23    2    1    2    0    0  0.27467172924E+02 -0.14131824530E+03 -0.11640927782E+03  0.22343718806E+03  0.12509102688E+03 0.  0.
          5    1    3    3  502    0  0.44720237311E+02 -0.63503615125E+02 -0.12060640446E+03  0.14351301668E+03  0.41800000000E+01 0. -1.
         -5    1    3    3    0  502 -0.17253064387E+02 -0.77814630173E+02  0.41971266442E+01  0.79924171386E+02  0.41800000000E+01 0. -1.
        -11    1    1    2    0    0  0.68423866480E+01  0.27697368717E+02  0.17795153016E+02  0.33624841409E+02  0.00000000000E+00 0.  1.
         11    1    1    2    0    0 -0.34309559572E+02  0.11362087658E+03 -0.99937385469E+02  0.15515904900E+03  0.00000000000E+00 0. -1.
</event>
<event>
 7    1  0.4966153E-006  0.1061074E+03  0.7561462E-02  0.1267953E+00
         -2   -1    0    0    0  501 -0.00000000000E+00  0.00000000000E+00  0.48223291591E+02  0.48223291591E+02  0.00000000000E+00 0.  1.
          2   -1    0    0  501    0  0.00000000000E+00 -0.00000000000E+00 -0.41896057492E+03  0.41896057492E+03  0.00000000000E+00 0. -1.
         23    2    1    2    0    0 -0.58285960227E+02 -0.18555633932E+02 -0.91216988343E+02  0.16646056740E+03  0.12508803630E+03 0.  0.
          5    1    3    3  502    0 -0.82997172594E+02 -0.28455486626E+02 -0.10442066106E+03  0.13645289383E+03  0.41800000000E+01 0.  1.
         -5    1    3    3    0  502  0.24711212366E+02  0.98998526935E+01  0.13203672717E+02  0.30007673571E+02  0.41800000000E+01 0.  1.
        -11    1    1    2    0    0 -0.11101813628E+02  0.25384503448E+02 -0.26745983713E+02  0.38509361536E+02  0.00000000000E+00 0.  1.
         11    1    1    2    0    0  0.69387773855E+02 -0.68288695161E+01 -0.25277431127E+03  0.26221393757E+03  0.00000000000E+00 0. -1.
</event>
<event>
 7    1  0.4966153E-006  0.1049428E+03  0.7561462E-02  0.1270232E+00
          2   -1    0    0  501    0  0.00000000000E+00  0.00000000000E+00  0.45406842974E+03  0.45406842974E+03  0.00000000000E+00 0. -1.
         -2   -1    0    0    0  501 -0.00000000000E+00 -0.00000000000E+00 -0.46951553821E+02  0.46951553821E+02  0.00000000000E+00 0.  1.
         23    2    1    2    0    0  0.45800534035E+02  0.54719000446E+02  0.82924711264E+02  0.15710741553E+03  0.11275803451E+03 0.  0.
          5    1    3    3  502    0 -0.32413406867E+02  0.21846635947E+02  0.55172225638E+02  0.67744751300E+02  0.41800000000E+01 0. -1.
         -5    1    3    3    0  502  0.78213940902E+02  0.32872364500E+02  0.27752485627E+02  0.89362664226E+02  0.41800000000E+01 0.  1.
        -11    1    1    2    0    0  0.33331523564E+01 -0.30807060248E+02  0.25121115091E+02  0.39890541350E+02  0.00000000000E+00 0.  1.
         11    1    1    2    0    0 -0.49133686391E+02 -0.23911940198E+02  0.29907104957E+03  0.30402202669E+03  0.00000000000E+00 0. -1.
</event>
<event>
 7    1  0.4966153E-006  0.1606287E+03  0.7561462E-02  0.1187989E+00
         -2   -1    0    0    0  501 -0.00000000000E+00  0.00000000000E+00  0.15247264283E+03  0.15247264283E+03  0.00000000000E+00 0.  1.
          2   -1    0    0  501    0  0.00000000000E+00 -0.00000000000E+00 -0.22045032402E+03  0.22045032402E+03  0.00000000000E+00 0. -1.
         23    2    1    2    0    0  0.98650094882E+02 -0.60569511035E+02  0.34031247232E+02  0.17379914097E+03  0.12509000250E+03 0.  0.
          5    1    3    3  502    0  0.47197306941E+02 -0.93102956867E+02  0.11236368621E+01  0.10447239501E+03  0.41800000000E+01 0. -1.
         -5    1    3    3    0  502  0.51452787941E+02  0.32533445832E+02  0.32907610370E+02  0.69326745956E+02  0.41800000000E+01 0. -1.
        -11    1    1    2    0    0  0.22364062237E+02  0.11949272725E+02  0.99539790949E+01  0.27240009145E+02  0.00000000000E+00 0.  1.
         11    1    1    2    0    0 -0.12101415712E+03  0.48620238310E+02 -0.11196290751E+03  0.17188381673E+03  0.00000000000E+00 0. -1.
</event>
<event>
 7    1  0.4966153E-006  0.8634667E+02  0.7561462E-02  0.1311948E+00
          2   -1    0    0  501    0  0.00000000000E+00  0.00000000000E+00  0.24424897424E+02  0.24424897424E+02  0.00000000000E+00 0. -1.
         -2   -1    0    0    0  501 -0.00000000000E+00 -0.00000000000E+00 -0.67204120000E+03  0.67204120000E+03  0.00000000000E+00 0.  1.
         23    2    1    2    0    0 -0.64784726529E+02 -0.10287664801E+01 -0.42354544090E+03  0.44635933591E+03  0.12509115514E+03 0.  0.
          5    1    3    3  502    0 -0.37161225703E+02 -0.69495235229E+01 -0.22283986310E+02  0.44082888050E+02  0.41800000000E+01 0. -1.
         -5    1    3    3    0  502 -0.27623500826E+02  0.59207570429E+01 -0.40126145459E+03  0.40227644786E+03  0.41800000000E+01 0. -1.
        -11    1    1    2    0    0  0.52741685567E+02 -0.38161701421E+02 -0.17149117005E+03  0.18343179184E+03  0.00000000000E+00 0. -1.
         11    1    1    2    0    0  0.12043040962E+02  0.39190467901E+02 -0.52579691618E+02  0.66674969670E+02  0.00000000000E+00 0.  1.
</event>
<event>
 7    1  0.4966153E-006  0.1304259E+03  0.7561462E-02  0.1226825E+00
         -1   -1    0    0    0  501 -0.00000000000E+00  0.00000000000E+00  0.20461618936E+03  0.20461618936E+03  0.00000000000E+00 0.  1.
          1   -1    0    0  501    0  0.00000000000E+00 -0.00000000000E+00 -0.85418637825E+02  0.85418637825E+02  0.00000000000E+00 0. -1.
         23    2    1    2    0    0  0.61281998180E+02  0.43250457320E+02  0.78123585923E+02  0.16545536000E+03  0.12508435600E+03 0.  0.
          5    1    3    3  502    0  0.16921900311E+02  0.82382956831E+02  0.31076553903E+02  0.89758157784E+02  0.41800000000E+01 0.  1.
         -5    1    3    3    0  502  0.44360097869E+02 -0.39132499511E+02  0.47047032021E+02  0.75697202213E+02  0.41800000000E+01 0.  1.
        -11    1    1    2    0    0 -0.13941543029E+02 -0.64112163016E+02  0.27142767487E+02  0.71003280878E+02  0.00000000000E+00 0.  1.
         11    1    1    2    0    0 -0.47340455151E+02  0.20861705695E+02  0.13931198126E+02  0.53576186311E+02  0.00000000000E+00 0. -1.
</event>
<event>
 7    1  0.4966153E-006  0.1129547E+03  0.7561462E-02  0.1255194E+00
         -1   -1    0    0    0  501 -0.00000000000E+00  0.00000000000E+00  0.14201927426E+03  0.14201927426E+03  0.00000000000E+00 0.  1.
          1   -1    0    0  501    0  0.00000000000E+00 -0.00000000000E+00 -0.20920973965E+03  0.20920973965E+03  0.00000000000E+00 0. -1.
         23    2    1    2    0    0  0.51802900785E+02 -0.59412478935E+02  0.74873837647E+02  0.16573138168E+03  0.12508963237E+03 0.  0.
          5    1    3    3  502    0  0.59191024354E+02  0.17289173200E+02  0.56510578591E+01  0.62063674794E+02  0.41800000000E+01 0. -1.
         -5    1    3    3    0  502 -0.73881235686E+01 -0.76701652135E+02  0.69222779788E+02  0.10366770689E+03  0.41800000000E+01 0. -1.
        -11    1    1    2    0    0 -0.24216915421E+02  0.53493327921E+02 -0.22880606450E+02  0.63019975215E+02  0.00000000000E+00 0.  1.
         11    1    1    2    0    0 -0.27585985364E+02  0.59191510140E+01 -0.11918369658E+03  0.12247765701E+03  0.00000000000E+00 0. -1.
</event>
<event>
 6    1  0.4966153E-006  0.1020024E+03  0.7561462E-02  0.1276141E+00
         -2   -1    0    0    0  501 -0.00000000000E+00  0.00000000000E+00  0.49231049427E+02  0.49231049427E+02  0.00000000000E+00 0.  1.
          2   -1    0    0  501    0  0.00000000000E+00 -0.00000000000E+00 -0.33051066026E+03  0.33051066026E+03  0.00000000000E+00 0. -1.
          5    1    1    2  502    0 -0.40064150573E+02  0.32476470492E+02 -0.64307179300E+02  0.82539342172E+02  0.41800000000E+01 0. -1.
         -5    1    1    2    0  502  0.45072230874E+02 -0.86699664420E+02 -0.64347172106E+02  0.11707420196E+03  0.41800000000E+01 0.  1.
        -11    1    1    2    0    0 -0.37619348689E+01  0.37864845911E+02 -0.15826891714E+03  0.16277883414E+03  0.00000000000E+00 0. -1.
         11    1    1    2    0    0 -0.12461454316E+01  0.16358348016E+02  0.56436577143E+01  0.17349331418E+02  0.00000000000E+00 0.  1.
</event>
<event>
 7    1  0.4966153E-006  0.1199391E+03  0.7561462E-02  0.1243197E+00
          3   -1    0    0  501    0  0.00000000000E+00  0.00000000000E+00  0.12992465497E+03  0.12992465497E+03  0.00000000000E+00 0. -1.
         -3   -1    0    0    0  501 -0.00000000000E+00 -0.00000000000E+00 -0.12171962788E+03  0.12171962788E+03  0.00000000000E+00 0.  1.
         23    2    1    2    0    0 -0.31580125127E+02  0.53102169227E+02 -0.10391212116E+02  0.13990141758E+03  0.12508910693E+03 0.  0.
          5    1    3    3  502    0  0.45114691446E+02  0.67346642200E+01  0.12158583091E+02  0.47391925781E+02  0.41800000000E+01 0. -1.
         -5    1    3    3    0  502 -0.76694816573E+02  0.46367505007E+02 -0.22549795207E+02  0.92509491803E+02  0.41800000000E+01 0. -1.
        -11    1    1    2    0    0  0.55931397615E+02 -0.12976794434E+02 -0.77177398370E+01  0.57933426803E+02  0.00000000000E+00 0. -1.
         11    1    1    2    0    0 -0.24351272488E+02 -0.40125374793E+02  0.26313979045E+02  0.53809438459E+02  0.00000000000E+00 0.  1.
</event>
<event>
 7    1  0.4966153E-006  0.9740361E+02  0.7561462E-02  0.1285853E+00
         -1   -1    0    0    0  501 -0.00000000000E+00  0.00000000000E+00  0.10838332962E+03  0.10838332962E+03  0.00000000000E+00 0.  1.
          1   -1    0    0  501    0  0.00000000000E+00 -0.00000000000E+00 -0.31944391264E+03  0.31944391264E+03  0.00000000000E+00 0. -1.
         23    2    1    2    0    0 -0.66296975689E+02 -0.15724775449E+02  0.43496503818E+02  0.14893653270E+03  0.12509031689E+03 0.  0.
          5    1    3    3  502    0 -0.77501935154E+01  0.30684673322E+02  0.63854687628E+02  0.71389832669E+02  0.41800000000E+01 0. -1.
         -5    1    3    3    0  502 -0.58546782174E+02 -0.46409448772E+02 -0.20358183810E+02  0.77546700035E+02  0.41800000000E+01 0. -1.
        -11    1    1    2    0    0  0.49455917735E+02 -0.16134129141E+02 -0.53471366351E+02  0.74601507636E+02  0.00000000000E+00 0.  1.
         11    1    1    2    0    0  0.16841057954E+02  0.31858904590E+02 -0.20108572049E+03  0.20428920192E+03  0.00000000000E+00 0. -1.
</event>
<event>
 6    1  0.4966153E-006  0.1187080E+03  0.7561462E-02  0.1245244E+00
          1   -1    0    0  501    0  0.00000000000E+00  0.00000000000E+00  0.26452648187E+03  0.26452648187E+03  0.00000000000E+00 0. -1.
         -1   -1    0    0    0  501 -0.00000000000E+00 -0.00000000000E+00 -0.26108675247E+03  0.26108675247E+03  0.00000000000E+00 0.  1.
          5    1    1    2  502    0  0.36476056025E+02  0.21640174625E+02  0.88114629810E+02  0.97879825335E+02  0.41800000000E+01 0. -1.
         -5    1    1    2    0  502 -0.87291753216E+02 -0.43863262713E+02 -0.22810477894E+03  0.24817956921E+03  0.41800000000E+01 0.  1.
        -11    1    1    2    0    0 -0.21141867564E+02  0.12073532826E+02  0.78199628184E+02  0.81901957285E+02  0.00000000000E+00 0.  1.
         11    1    1    2    0    0  0.71957564755E+02  0.10149555262E+02  0.65230250350E+02  0.97651882513E+02  0.00000000000E+00 0. -1.
</event>
<event>
 7    1  0.4966153E-006  0.9946400E+02  0.7561462E-02  0.1281427E+00
         -2   -1    0    0    0  501 -0.00000000000E+00  0.00000000000E+00  0.81119462893E+02  0.81119462893E+02  0.00000000000E+00 0.  1.
          2   -1    0    0  501    0  0.00000000000E+00 -0.00000000000E+00 -0.21977622394E+03  0.21977622394E+03  0.00000000000E+00 0. -1.
         23    2    1    2    0    0  0.14084152097E+02  0.33496320498E+02  0.47873529699E+01  0.13034706015E+03  0.12508825090E+03 0.  0.
          5    1    3    3  502    0  0.71730307294E+01  0.80781448292E+02 -0.51067183094E+01  0.81367350516E+02  0.41800000000E+01 0.  1.
         -5    1    3    3    0  502  0.69111213681E+01 -0.47285127795E+02  0.98940712793E+01  0.48979709632E+02  0.41800000000E+01 0.  1.
        -11    1    1    2    0    0  0.11155188535E+02  0.12826381295E+02  0.74256503728E+00  0.17014866770E+02  0.00000000000E+00 0.  1.
         11    1    1    2    0    0 -0.25239340633E+02 -0.46322701793E+02 -0.14418667906E+03  0.15353375992E+03  0.00000000000E+00 0. -1.
</event>
<event>
 7    1  0.4966153E-006  0.1135941E+03  0.7561462E-02  0.1254055E+00
         -3   -1    0    0    0  501 -0.00000000000E+00  0.00000000000E+00  0.14598084374E+03  0.14598084374E+03  0.00000000000E+00 0.  1.
          3   -1    0    0  501    0  0.00000000000E+00 -0.00000000000E+00 -0.11098672044E+03  0.11098672044E+03  0.00000000000E+00 0. -1.
         23    2    1    2    0    0 -0.20174172818E+02 -0.27496374164E+02  0.76007588481E+02  0.15029161861E+03  0.12508944511E+03 0.  0.
          5    1    3    3  502    0 -0.54889138048E+02 -0.59743665668E+02  0.56111761649E+02  0.98732594711E+02  0.41800000000E+01 0. -1.
         -5    1    3    3    0  502  0.34714965230E+02  0.32247291504E+02  0.19895826832E+02  0.51559023900E+02  0.41800000000E+01 0. -1.
        -11    1    1    2    0    0  0.45044233403E+02  0.48239016095E+02 -0.29666093161E+02  0.72360643447E+02  0.00000000000E+00 0. -1.
         11    1    1    2    0    0 -0.24870060585E+02 -0.20742641931E+02 -0.11347372023E+02  0.34315302120E+02  0.00000000000E+00 0.  1.
</event>
<event>
 7    1  0.4966153E-006  0.1083670E+03  0.7561462E-02  0.1263624E+00
         -2   -1    0    0    0  501 -0.00000000000E+00  0.00000000000E+00  0.26630377210E+02  0.26630377210E+02  0.00000000000E+00 0.  1.
          2   -1    0    0  501    0  0.00000000000E+00 -0.00000000000E+00 -0.46072379532E+03  0.46072379532E+03  0.00000000000E+00 0. -1.
         23    2    1    2    0    0 -0.90292969455E+01  0.12433432926E+02 -0.24035409109E+03  0.27138961156E+03  0.12508442630E+03 0.  0.
          5    1    3    3  502    0  0.72117167370E+01  0.66970963901E+02 -0.10934751854E+03  0.12849696913E+03  0.41800000000E+01 0. -1.
         -5    1    3    3    0  502 -0.16241013682E+02 -0.54537530975E+02 -0.13100657255E+03  0.14289264244E+03  0.41800000000E+01 0. -1.
        -11    1    1    2    0    0  0.22161190236E+02  0.35852486650E+02 -0.11691594488E+03  0.12428136352E+03  0.00000000000E+00 0. -1.
         11    1    1    2    0    0 -0.13131893290E+02 -0.48285919577E+02 -0.76823382142E+02  0.91683197449E+02  0.00000000000E+00 0.  1.
</event>
<event>
 7    1  0.4966153E-006  0.3799950E+03  0.7561462E-02  0.1050936E+00
         -2   -1    0    0    0  501 -0.00000000000E+00  0.00000000000E+00  0.16937967770E+03  0.16937967770E+03  0.00000000000E+00 0. -1.
          2   -1    0    0  501    0  0.00000000000E+00 -0.00000000000E+00 -0.10839247051E+04  0.10839247051E+04  0.00000000000E+00 0.  1.
         23    2    1    2    0    0  0.34921264093E+03  0.11028451602E+03 -0.17762616924E+03  0.42580719370E+03  0.12509423307E+03 0.  0.
          5    1    3    3  502    0  0.12831549248E+02  0.39437608174E+02 -0.79706121605E+01  0.42437915274E+02  0.41800000000E+01 0.  1.
         -5    1    3    3    0  502  0.33638109168E+03  0.70846907845E+02 -0.16965555708E+03  0.38336927843E+03  0.41800000000E+01 0.  1.
        -11    1    1    2    0    0 -0.11488829673E+03  0.15016407895E+01 -0.26597275290E+03  0.28972932357E+03  0.00000000000E+00 0.  1.
         11    1    1    2    0    0 -0.23432434420E+03 -0.11178615681E+03 -0.47094610525E+03  0.53776786552E+03  0.00000000000E+00 0. -1.
</event>
<event>
 7    1  0.4966153E-006  0.9358987E+02  0.7561462E-02  0.1294384E+00
          2   -1    0    0  501    0  0.00000000000E+00  0.00000000000E+00  0.47337446186E+02  0.47337446186E+02  0.00000000000E+00 0.  1.
         -2   -1    0    0    0  501 -0.00000000000E+00 -0.00000000000E+00 -0.33046785716E+03  0.33046785716E+03  0.00000000000E+00 0. -1.
         23    2    1    2    0    0 -0.37444700867E+02 -0.80103396141E+01 -0.23085185790E+03  0.26534209196E+03  0.12509026465E+03 0.  0.
          5    1    3    3  502    0 -0.82448366770E+02  0.51344945815E+01 -0.16266017001E+03  0.18248260061E+03  0.41800000000E+01 0. -1.
         -5    1    3    3    0  502  0.45003665902E+02 -0.13144834196E+02 -0.68191687889E+02  0.82859491356E+02  0.41800000000E+01 0. -1.
        -11    1    1    2    0    0  0.35987153128E+02  0.22756071633E+02 -0.74468027431E+02  0.85781123191E+02  0.00000000000E+00 0. -1.
         11    1    1    2    0    0  0.14575477393E+01 -0.14745732019E+02  0.22189474353E+02  0.26682088191E+02  0.00000000000E+00 0.  1.
</event>
<event>
 7    1  0.4966153E-006  0.1633409E+03  0.7561462E-02  0.1184976E+00
          2   -1    0    0  501    0  0.00000000000E+00  0.00000000000E+00  0.13336493471E+03  0.13336493471E+03  0.00000000000E+00 0. -1.
         -2   -1    0    0    0  501 -0.00000000000E+00 -0.00000000000E+00 -0.25278773325E+03  0.25278773325E+03  0.00000000000E+00 0.  1.
         23    2    1    2    0    0 -0.13191727604E+03 -0.49607619031E+02 -0.11384105606E+03  0.22015948679E+03  0.12508928809E+03 0.  0.
          5    1    3    3  502    0 -0.42565517703E+02 -0.59730602390E+02 -0.10711630372E+03  0.12988819454E+03  0.41800000000E+01 0. -1.
         -5    1    3    3    0  502 -0.89351758335E+02  0.10122983358E+02 -0.67247523400E+01  0.90271292245E+02  0.41800000000E+01 0. -1.
        -11    1    1    2    0    0  0.13487894529E+03  0.63438160499E+02 -0.13706437453E+02  0.14968165057E+03  0.00000000000E+00 0.  1.
         11    1    1    2    0    0 -0.29616692538E+01 -0.13830541468E+02  0.81246949681E+01  0.16311530596E+02  0.00000000000E+00 0. -1.
</event>
<event>
 7    1  0.4966153E-006  0.7128666E+02  0.7561462E-02  0.1355772E+00
          1   -1    0    0  501    0  0.00000000000E+00  0.00000000000E+00  0.51201358533E+02  0.51201358533E+02  0.00000000000E+00 0. -1.
         -1   -1    0    0    0  501 -0.00000000000E+00 -0.00000000000E+00 -0.14253151625E+03  0.14253151625E+03  0.00000000000E+00 0.  1.
         23    2    1    2    0    0  0.37371215327E+02  0.10691928472E+02 -0.79205442313E+02  0.14840440309E+03  0.11932912342E+03 0.  0.
          5    1    3    3  502    0 -0.19010692271E+02  0.36068388812E+02  0.76642696213E+01  0.41695905326E+02  0.41800000000E+01 0. -1.
         -5    1    3    3    0  502  0.56381907598E+02 -0.25376460340E+02 -0.86869711934E+02  0.10670849776E+03  0.41800000000E+01 0.  1.
        -11    1    1    2    0    0 -0.21804498715E+02 -0.10123947996E+02 -0.16488922923E+02  0.29151587716E+02  0.00000000000E+00 0.  1.
         11    1    1    2    0    0 -0.15566716612E+02 -0.56798047607E+00  0.43642075186E+01  0.16176883976E+02  0.00000000000E+00 0. -1.
</event>
<event>
 7    1  0.4966153E-006  0.1324690E+03  0.7561462E-02  0.1223838E+00
         -1   -1    0    0    0  501 -0.00000000000E+00  0.00000000000E+00  0.37105003843E+02  0.37105003843E+02  0.00000000000E+00 0.  1.
          1   -1    0    0  501    0  0.00000000000E+00 -0.00000000000E+00 -0.59935339541E+03  0.59935339541E+03  0.00000000000E+00 0. -1.
         23    2    1    2    0    0 -0.86221436984E+01 -0.95286720762E+02 -0.22466092340E+03  0.27435865718E+03  0.12508493815E+03 0.  0.
          5    1    3    3  502    0 -0.20008828677E+02  0.24479943736E+02 -0.22355318784E+02  0.38946804083E+02  0.41800000000E+01 0. -1.
         -5    1    3    3    0  502  0.11386684979E+02 -0.11976666450E+03 -0.20230560462E+03  0.23541185310E+03  0.41800000000E+01 0. -1.
        -11    1    1    2    0    0  0.27184522414E+02  0.89015022757E+02 -0.32666950453E+03  0.33966989523E+03  0.00000000000E+00 0. -1.
         11    1    1    2    0    0 -0.18562378715E+02  0.62716980044E+01 -0.10917963637E+02  0.22429846843E+02  0.00000000000E+00 0.  1.
</event>
<event>
 7    1  0.4966153E-006  0.1112505E+03  0.7561462E-02  0.1258271E+00
         -3   -1    0    0    0  501 -0.00000000000E+00  0.00000000000E+00  0.38297678997E+03  0.38297678997E+03  0.00000000000E+00 0.  1.
          3   -1    0    0  501    0  0.00000000000E+00 -0.00000000000E+00 -0.38024731717E+02  0.38024731717E+02  0.00000000000E+00 0. -1.
         23    2    1    2    0    0  0.34945858123E+02 -0.14292355018E+02  0.14225060899E+03  0.19315054107E+03  0.12508561605E+03 0.  0.
          5    1    3    3  502    0 -0.26233501165E+02 -0.48400640092E+02  0.36317230298E+02  0.66085037347E+02  0.41800000000E+01 0.  1.
         -5    1    3    3    0  502  0.61179359288E+02  0.34108285074E+02  0.10593337870E+03  0.12706550372E+03  0.41800000000E+01 0.  1.
        -11    1    1    2    0    0 -0.65357138021E+02  0.61992080765E+01  0.17105627787E+03  0.18322182149E+03  0.00000000000E+00 0.  1.
         11    1    1    2    0    0  0.30411279898E+02  0.80931469414E+01  0.31645171391E+02  0.44629159132E+02  0.00000000000E+00 0. -1.
</event>
<event>
 7    1  0.4966153E-006  0.1858730E+03  0.7561462E-02  0.1162237E+00
          3   -1    0    0  501    0  0.00000000000E+00  0.00000000000E+00  0.89718354241E+02  0.89718354241E+02  0.00000000000E+00 0. -1.
         -3   -1    0    0    0  501 -0.00000000000E+00 -0.00000000000E+00 -0.70952119919E+03  0.70952119919E+03  0.00000000000E+00 0.  1.
         23    2    1    2    0    0  0.18038454691E+02  0.16165960813E+03 -0.57032432312E+03  0.60611443938E+03  0.12508263400E+03 0.  0.
          5    1    3    3  502    0 -0.45386133457E+02  0.89397248555E+02 -0.20378069566E+03  0.22714711858E+03  0.41800000000E+01 0.  1.
         -5    1    3    3    0  502  0.63424588148E+02  0.72262359576E+02 -0.36654362746E+03  0.37896732079E+03  0.41800000000E+01 0.  1.
        -11    1    1    2    0    0 -0.42278590567E+02 -0.11602529079E+03 -0.64493112713E+02  0.13931514243E+03  0.00000000000E+00 0.  1.
         11    1    1    2    0    0  0.24240135876E+02 -0.45634317340E+02  0.15014590885E+02  0.53809971621E+02  0.00000000000E+00 0. -1.
</event>
<event>
 7    1  0.4966153E-006  0.1156553E+03  0.7561462E-02  0.1250442E+00
          2   -1    0    0  501    0  0.00000000000E+00  0.00000000000E+00  0.27643940066E+03  0.27643940066E+03  0.00000000000E+00 0. -1.
         -2   -1    0    0    0  501 -0.00000000000E+00 -0.00000000000E+00 -0.83084936778E+02  0.83084936778E+02  0.00000000000E+00 0.  1.
         23    2    1    2    0    0  0.73798817575E+02  0.76705144267E+01  0.30998712152E+02  0.14868863162E+03  0.12506912789E+03 0.  0.
          5    1    3    3  502    0  0.30968298761E+02 -0.31899040497E+02  0.66641267473E+02  0.80219170048E+02  0.41800000000E+01 0. -1.
         -5    1    3    3    0  502  0.42830518814E+02  0.39569554924E+02 -0.35642555320E+02  0.68469461576E+02  0.41800000000E+01 0. -1.
        -11    1    1    2    0    0  0.20919172601E+02 -0.24261323860E+02  0.16237557542E+02  0.35914925765E+02  0.00000000000E+00 0.  1.
         11    1    1    2    0    0 -0.94717990176E+02  0.16590809433E+02  0.14611819419E+03  0.17492078005E+03  0.00000000000E+00 0. -1.
</event>
<event>
 7    1  0.4966153E-006  0.1173933E+03  0.7561462E-02  0.1247460E+00
         -2   -1    0    0    0  501 -0.00000000000E+00  0.00000000000E+00  0.67617908904E+02  0.67617908904E+02  0.00000000000E+00 0.  1.
          2   -1    0    0  501    0  0.00000000000E+00 -0.00000000000E+00 -0.24224725522E+03  0.24224725522E+03  0.00000000000E+00 0. -1.
         23    2    1    2    0    0 -0.50352683100E+02 -0.51604507583E+02 -0.62509812085E+02  0.15732936778E+03  0.12508651191E+03 0.  0.
          5    1    3    3  502    0 -0.12924433417E+02 -0.88633618698E+02 -0.51407379001E+02  0.10335932642E+03  0.41800000000E+01 0.  1.
         -5    1    3    3    0  502 -0.37428249683E+02  0.37029111115E+02 -0.11102433084E+02  0.53970041363E+02  0.41800000000E+01 0.  1.
        -11    1    1    2    0    0 -0.22201439307E+01  0.37910303236E+02 -0.14177456677E+02  0.40535421650E+02  0.00000000000E+00 0. -1.
         11    1    1    2    0    0  0.52572827031E+02  0.13694204347E+02 -0.97942077555E+02  0.11200037469E+03  0.00000000000E+00 0.  1.
</event>
<event>
 7    1  0.4966153E-006  0.1198084E+03  0.7561462E-02  0.1243413E+00
         -1   -1    0    0    0  501 -0.00000000000E+00  0.00000000000E+00  0.30697919182E+02  0.30697919182E+02  0.00000000000E+00 0.  1.
          1   -1    0    0  501    0  0.00000000000E+00 -0.00000000000E+00 -0.59326451747E+03  0.59326451747E+03  0.00000000000E+00 0. -1.
         23    2    1    2    0    0  0.80971163390E+02  0.33859632933E+01 -0.29337673442E+03  0.32906527313E+03  0.12508497765E+03 0.  0.
          5    1    3    3  502    0  0.14699884367E+02 -0.56036329873E+02 -0.14182356602E+03  0.15325649462E+03  0.41800000000E+01 0.  1.
         -5    1    3    3    0  502  0.66271279023E+02  0.59422293166E+02 -0.15155316840E+03  0.17580877851E+03  0.41800000000E+01 0.  1.
        -11    1    1    2    0    0 -0.51567612461E+02 -0.23632721986E+02 -0.24569804239E+03  0.25216116323E+03  0.00000000000E+00 0. -1.
         11    1    1    2    0    0 -0.29403550929E+02  0.20246758692E+02 -0.23491821470E+02  0.42736000290E+02  0.00000000000E+00 0.  1.
</event>
<event>
 7    1  0.4966153E-006  0.9712586E+02  0.7561462E-02  0.1286459E+00
         -1   -1    0    0    0  501 -0.00000000000E+00  0.00000000000E+00  0.11901237753E+03  0.11901237753E+03  0.00000000000E+00 0.  1.
          1   -1    0    0  501    0  0.00000000000E+00 -0.00000000000E+00 -0.11358915177E+03  0.11358915177E+03  0.00000000000E+00 0. -1.
         23    2    1    2    0    0  0.60829198677E+01 -0.18140206540E+02  0.38836145966E+02  0.13237414888E+03  0.12509436459E+03 0.  0.
          5    1    3    3  502    0  0.33237207494E+02  0.39442125563E+02  0.44597045298E+02  0.68313703458E+02  0.41800000000E+01 0.  1.
         -5    1    3    3    0  502 -0.27154287626E+02 -0.57582332103E+02 -0.57608993321E+01  0.64060445425E+02  0.41800000000E+01 0.  1.
        -11    1    1    2    0    0 -0.39806553168E+02 -0.12043643776E+01 -0.44579599052E+02  0.59777527719E+02  0.00000000000E+00 0. -1.
         11    1    1    2    0    0  0.33723633300E+02  0.19344570918E+02  0.11166678846E+02  0.40449852699E+02  0.00000000000E+00 0.  1.
</event>
<event>
 7    1  0.4966153E-006  0.1255938E+03  0.7561462E-02  0.1234144E+00
         -3   -1    0    0    0  501 -0.00000000000E+00  0.00000000000E+00  0.31189668406E+02  0.31189668406E+02  0.00000000000E+00 0. -1.
          3   -1    0    0  501    0  0.00000000000E+00 -0.00000000000E+00 -0.52245112488E+03  0.52245112488E+03  0.00000000000E+00 0.  1.
         23    2    1    2    0    0 -0.63279255703E+02  0.17347887812E+02 -0.24666505452E+03  0.28424774151E+03  0.12509163050E+03 0.  0.
          5    1    3    3  502    0 -0.61786132140E+02  0.65938796964E+02 -0.13640918169E+03  0.16367769646E+03  0.41800000000E+01 0. -1.
         -5    1    3    3    0  502 -0.14931235635E+01 -0.48590909152E+02 -0.11025587283E+03  0.12057004505E+03  0.41800000000E+01 0. -1.
        -11    1    1    2    0    0 -0.22875927440E+02 -0.11441003471E+02 -0.42245151254E+02  0.49384789370E+02  0.00000000000E+00 0. -1.
         11    1    1    2    0    0  0.86155183143E+02 -0.59068843406E+01 -0.20235125070E+03  0.22000826240E+03  0.00000000000E+00 0.  1.
</event>
<event>
 7    1  0.4966153E-006  0.6983144E+02  0.7561462E-02  0.1360667E+00
         -1   -1    0    0    0  501 -0.00000000000E+00  0.00000000000E+00  0.38344780646E+02  0.38344780646E+02  0.00000000000E+00 0. -1.
          1   -1    0    0  501    0  0.00000000000E+00 -0.00000000000E+00 -0.34971237195E+03  0.34971237195E+03  0.00000000000E+00 0.  1.
         23    2    1    2    0    0 -0.30064388559E+02  0.31310905933E+02 -0.17350593763E+03  0.21825771589E+03  0.12509148596E+03 0.  0.
          5    1    3    3  502    0 -0.19735978126E+02  0.39080025524E+02  0.24108234271E+00  0.43980538289E+02  0.41800000000E+01 0. -1.
         -5    1    3    3    0  502 -0.10328410433E+02 -0.77691195905E+01 -0.17374701998E+03  0.17427717760E+03  0.41800000000E+01 0. -1.
        -11    1    1    2    0    0  0.35156764694E+02 -0.50899025159E+02 -0.13608151538E+03  0.14948206479E+03  0.00000000000E+00 0.  1.
         11    1    1    2    0    0 -0.50923761348E+01  0.19588119226E+02 -0.17801382957E+01  0.20317371923E+02  0.00000000000E+00 0. -1.
</event>
<event>
 7    1  0.4966153E-006  0.1115317E+03  0.7561462E-02  0.1257760E+00
          4   -1    0    0  501    0  0.00000000000E+00  0.00000000000E+00  0.84995383817E+02  0.84995383817E+02  0.00000000000E+00 0. -1.
         -4   -1    0    0    0  501 -0.00000000000E+00 -0.00000000000E+00 -0.16863483075E+03  0.16863483075E+03  0.00000000000E+00 0.  1.
         23    2    1    2    0    0  0.12031937393E+02  0.49938066081E+02 -0.38112022966E+02  0.14049478317E+03  0.12509068647E+03 0.  0.
          5    1    3    3  502    0 -0.56141540333E+02  0.13865901078E+02 -0.15714140523E+02  0.60071144288E+02  0.41800000000E+01 0.  1.
         -5    1    3    3    0  502  0.68173477726E+02  0.36072165002E+02 -0.22397882443E+02  0.80423638883E+02  0.41800000000E+01 0.  1.
        -11    1    1    2    0    0 -0.40327902584E+02 -0.15340651038E+02  0.74897243904E+01  0.43792365459E+02  0.00000000000E+00 0. -1.
         11    1    1    2    0    0  0.28295965191E+02 -0.34597415043E+02 -0.53017148354E+02  0.69343065935E+02  0.00000000000E+00 0.  1.
</event>
<event>
 7    1  0.4966153E-006  0.1343890E+03  0.7561462E-02  0.1221085E+00
          2   -1    0    0  501    0  0.00000000000E+00  0.00000000000E+00  0.95357077208E+03  0.95357077208E+03  0.00000000000E+00 0. -1.
         -2   -1    0    0    0  501 -0.00000000000E+00 -0.00000000000E+00 -0.23357402287E+02  0.23357402287E+02  0.00000000000E+00 0.  1.
         23    2    1    2    0    0 -0.63883492549E+02  0.61002829609E+02  0.33709241591E+03  0.37025089233E+03  0.12510787571E+03 0.  0.
          5    1    3    3  502    0 -0.92590696358E+02  0.19197038218E+02  0.26955071962E+03  0.28568623729E+03  0.41800000000E+01 0. -1.
         -5    1    3    3    0  502  0.28707203810E+02  0.41805791391E+02  0.67541696292E+02  0.84564655042E+02  0.41800000000E+01 0. -1.
        -11    1    1    2    0    0  0.64950766506E+02 -0.27822481715E+01  0.38972709120E+03  0.39511207092E+03  0.00000000000E+00 0. -1.
         11    1    1    2    0    0 -0.10672739569E+01 -0.58220581438E+02  0.20339386268E+03  0.21156521111E+03  0.00000000000E+00 0.  1.
</event>
<event>
 7    1  0.4966153E-006  0.1154774E+03  0.7561462E-02  0.1250750E+00
          3   -1    0    0  501    0  0.00000000000E+00  0.00000000000E+00  0.39691303775E+02  0.39691303775E+02  0.00000000000E+00 0. -1.
         -3   -1    0    0    0  501 -0.00000000000E+00 -0.00000000000E+00 -0.42421961050E+03  0.42421961050E+03  0.00000000000E+00 0.  1.
         23    2    1    2    0    0 -0.54838078152E+02 -0.18788049264E+02 -0.29433929610E+03  0.32502782296E+03  0.12508900374E+03 0.  0.
          5    1    3    3  502    0 -0.35933691847E+02 -0.72360771450E+02 -0.17391325666E+03  0.19180877117E+03  0.41800000000E+01 0. -1.
         -5    1    3    3    0  502 -0.18904386304E+02  0.53572722187E+02 -0.12042603944E+03  0.13321905179E+03  0.41800000000E+01 0. -1.
        -11    1    1    2    0    0  0.57162372042E+02  0.41260983468E+02 -0.92354494494E+02  0.11618673843E+03  0.00000000000E+00 0.  1.
         11    1    1    2    0    0 -0.23242938902E+01 -0.22472934205E+02  0.21654838730E+01  0.22696352885E+02  0.00000000000E+00 0. -1.
</event>
<event>
 7    1  0.4966153E-006  0.1157937E+03  0.7561462E-02  0.1250202E+00
         -2   -1    0    0    0  501 -0.00000000000E+00  0.00000000000E+00  0.26032505944E+03  0.26032505944E+03  0.00000000000E+00 0. -1.
          2   -1    0    0  501    0  0.00000000000E+00 -0.00000000000E+00 -0.55600401637E+02  0.55600401637E+02  0.00000000000E+00 0.  1.
         23    2    1    2    0    0 -0.46037757353E+02  0.65025774290E+01  0.13467894836E+03  0.18959575153E+03  0.12508545580E+03 0.  0.
          5    1    3    3  502    0  0.24366796159E+01 -0.54894864448E+02  0.56000995209E+02  0.78568234132E+02  0.41800000000E+01 0. -1.
         -5    1    3    3    0  502 -0.48474436969E+02  0.61397441877E+02  0.78677953151E+02  0.11102751740E+03  0.41800000000E+01 0. -1.
        -11    1    1    2    0    0  0.71328311522E+01  0.38211431319E+02  0.50897583803E+02  0.64043382177E+02  0.00000000000E+00 0. -1.
         11    1    1    2    0    0  0.38904926201E+02 -0.44714008748E+02  0.19148125639E+02  0.62286327364E+02  0.00000000000E+00 0.  1.
</event>
<event>
 7    1  0.4966153E-006  0.1695451E+03  0.7561462E-02  0.1178323E+00
         -1   -1    0    0    0  501 -0.00000000000E+00  0.00000000000E+00  0.31310922303E+03  0.31310922303E+03  0.00000000000E+00 0.  1.
          1   -1    0    0  501    0  0.00000000000E+00 -0.00000000000E+00 -0.13185695160E+03  0.13185695160E+03  0.00000000000E+00 0. -1.
         23    2    1    2    0    0  0.64156894982E+02 -0.14476587445E+03  0.16885721512E+03  0.26312086910E+03  0.12508623856E+03 0.  0.
          5    1    3    3  502    0  0.23263264503E+02 -0.48670335152E+02 -0.10893756467E+02  0.55191732434E+02  0.41800000000E+01 0. -1.
         -5    1    3    3    0  502  0.40893630479E+02 -0.96095539302E+02  0.17975097159E+03  0.20792913667E+03  0.41800000000E+01 0. -1.
        -11    1    1    2    0    0 -0.77787261776E+02  0.70570488854E+02  0.16402638247E+02  0.10630192159E+03  0.00000000000E+00 0.  1.
         11    1    1    2    0    0  0.13630366795E+02  0.74195385600E+02 -0.40075819363E+01  0.75543383934E+02  0.00000000000E+00 0. -1.
</event>
<event>
 7    1  0.4966153E-006  0.7093633E+02  0.7561462E-02  0.1356938E+00
          2   -1    0    0  501    0  0.00000000000E+00  0.00000000000E+00  0.16632774641E+03  0.16632774641E+03  0.00000000000E+00 0. -1.
         -2   -1    0    0    0  501 -0.00000000000E+00 -0.00000000000E+00 -0.72195099679E+02  0.72195099679E+02  0.00000000000E+00 0.  1.
         23    2    1    2    0    0 -0.90994808246E+01  0.31336360519E+02  0.48300623349E+02  0.13526129950E+03  0.12205695755E+03 0.  0.
          5    1    3    3  502    0  0.14174262663E+02  0.10149011565E+02  0.84921693372E+02  0.86793309436E+02  0.41800000000E+01 0. -1.
         -5    1    3    3    0  502 -0.23273743487E+02  0.21187348954E+02 -0.36621070023E+02  0.48467990067E+02  0.41800000000E+01 0.  1.
        -11    1    1    2    0    0  0.30351257332E+02 -0.53487380841E+02  0.26362970198E+02  0.66911171927E+02  0.00000000000E+00 0. -1.
         11    1    1    2    0    0 -0.21251776508E+02  0.22151020323E+02  0.19469053186E+02  0.36350374661E+02  0.00000000000E+00 0.  1.
</event>
<event>
 7    1  0.1126652E-005  0.1843056E+03  0.7561462E-02  0.1163700E+00
         -1   -1    0    0    0  501 -0.00000000000E+00  0.00000000000E+00  0.43220936740E+02  0.43220936740E+02  0.00000000000E+00 0.  1.
          1   -1    0    0  501    0  0.00000000000E+00 -0.00000000000E+00 -0.91190237498E+03  0.91190237498E+03  0.00000000000E+00 0. -1.
         23    2    1    2    0    0 -0.29893969557E+02 -0.16084785280E+03 -0.41619847227E+03  0.46436459549E+03  0.12509047949E+03 0.  0.
          5    1    3    3  502    0 -0.58839051143E+02 -0.85984498752E+02 -0.33188663570E+03  0.34788155933E+03  0.41800000000E+01 0.  1.
         -5    1    3    3    0  502  0.28945081587E+02 -0.74863354047E+02 -0.84311836567E+02  0.11648303616E+03  0.41800000000E+01 0.  1.
        -11    1    1    2    0    0 -0.23078579676E+02  0.10288953485E+03 -0.19650898923E+03  0.22301269038E+03  0.00000000000E+00 0.  1.
         11    1    1    2    0    0  0.52972549232E+02  0.57958317949E+02 -0.25597397674E+03  0.26774602585E+03  0.00000000000E+00 0. -1.
</event>
<event>
 7    1  0.4966153E-006  0.1027846E+03  0.7561462E-02  0.1274547E+00
          2   -1    0    0  501    0  0.00000000000E+00  0.00000000000E+00  0.47640847571E+03  0.47640847571E+03  0.00000000000E+00 0. -1.
         -2   -1    0    0    0  501 -0.00000000000E+00 -0.00000000000E+00 -0.40131401975E+02  0.40131401975E+02  0.00000000000E+00 0.  1.
         23    2    1    2    0    0 -0.54657627255E+02  0.71473728066E+02  0.25335039017E+03  0.29652906373E+03  0.12508843039E+03 0.  0.
          5    1    3    3  502    0 -0.36564815256E+02  0.50136434461E+01  0.21378059787E+03  0.21698326839E+03  0.41800000000E+01 0.  1.
         -5    1    3    3    0  502 -0.18092811999E+02  0.66460084619E+02  0.39569792300E+02  0.79545795340E+02  0.41800000000E+01 0.  1.
        -11    1    1    2    0    0  0.17348787225E+02  0.15503405636E+01 -0.21797348942E+01  0.17553780739E+02  0.00000000000E+00 0.  1.
         11    1    1    2    0    0  0.37308840030E+02 -0.73024068629E+02  0.18510641846E+03  0.20245703322E+03  0.00000000000E+00 0. -1.
</event>
<event>
 7    1  0.4966153E-006  0.7540296E+02  0.7561462E-02  0.1342628E+00
          1   -1    0    0  501    0  0.00000000000E+00  0.00000000000E+00  0.55298073257E+02  0.55298073257E+02  0.00000000000E+00 0.  1.
         -1   -1    0    0    0  501 -0.00000000000E+00 -0.00000000000E+00 -0.26329391721E+03  0.26329391721E+03  0.00000000000E+00 0. -1.
         23    2    1    2    0    0  0.10952741126E+02 -0.38945976194E+02 -0.16740539854E+03  0.21286185288E+03  0.12509536102E+03 0.  0.
          5    1    3    3  502    0  0.14336557204E+02 -0.45831660241E+02 -0.18609197042E+03  0.19223363859E+03  0.41800000000E+01 0.  1.
         -5    1    3    3    0  502 -0.33838160786E+01  0.68856840473E+01  0.18686571876E+02  0.20628214283E+02  0.41800000000E+01 0.  1.
        -11    1    1    2    0    0  0.29143844276E+02  0.44696751157E+02 -0.84555190344E+01  0.54024614995E+02  0.00000000000E+00 0.  1.
         11    1    1    2    0    0 -0.40096585402E+02 -0.57507749635E+01 -0.32134926374E+02  0.51705522593E+02  0.00000000000E+00 0. -1.
</event>
<event>
 7    1  0.4966153E-006  0.9861058E+02  0.7561462E-02  0.1283245E+00
         -1   -1    0    0    0  501 -0.00000000000E+00  0.00000000000E+00  0.14685052047E+03  0.14685052047E+03  0.00000000000E+00 0.  1.
          1   -1    0    0  501    0  0.00000000000E+00 -0.00000000000E+00 -0.11117178015E+03  0.11117178015E+03  0.00000000000E+00 0. -1.
         23    2    1    2    0    0  0.30515866183E+02  0.48509405731E+02  0.39301168182E+02  0.14309637190E+03  0.12509040449E+03 0.  0.
          5    1    3    3  502    0 -0.20843228995E+02  0.14864296036E+02  0.69763036534E+02  0.74429437443E+02  0.41800000000E+01 0.  1.
         -5    1    3    3    0  502  0.51359095178E+02  0.33645109694E+02 -0.30461868352E+02  0.68666934454E+02  0.41800000000E+01 0.  1.
        -11    1    1    2    0    0  0.24589815452E+02  0.12453789796E+02 -0.15923864638E+02  0.31832771938E+02  0.00000000000E+00 0. -1.
         11    1    1    2    0    0 -0.55105681635E+02 -0.60963195526E+02  0.12301436783E+02  0.83093156783E+02  0.00000000000E+00 0.  1.
</event>
<event>
 7    1  0.4966153E-006  0.8905330E+02  0.7561462E-02  0.1305161E+00
         -3   -1    0    0    0  501 -0.00000000000E+00  0.00000000000E+00  0.32880201164E+02  0.32880201164E+02  0.00000000000E+00 0.  1.
          3   -1    0    0  501    0  0.00000000000E+00 -0.00000000000E+00 -0.39994598618E+03  0.39994598618E+03  0.00000000000E+00 0. -1.
         23    2    1    2    0    0  0.38725024398E+01  0.35316288985E+02 -0.18706155635E+03  0.22781847412E+03  0.12508794804E+03 0.  0.
          5    1    3    3  502    0 -0.38369007778E+02 -0.22748043707E+02 -0.12511394812E+03  0.13289329052E+03  0.41800000000E+01 0. -1.
         -5    1    3    3    0  502  0.42241510218E+02  0.58064332692E+02 -0.61947608225E+02  0.94925183599E+02  0.41800000000E+01 0. -1.
        -11    1    1    2    0    0 -0.26908904978E+02 -0.15920991325E+02 -0.17062628184E+03  0.17346727410E+03  0.00000000000E+00 0. -1.
         11    1    1    2    0    0  0.23036402538E+02 -0.19395297659E+02 -0.93779468318E+01  0.31540439121E+02  0.00000000000E+00 0.  1.
</event>
<event>
 7    1  0.4966153E-006  0.1861688E+03  0.7561462E-02  0.1161963E+00
          2   -1    0    0  501    0  0.00000000000E+00  0.00000000000E+00  0.20099292075E+03  0.20099292075E+03  0.00000000000E+00 0. -1.
         -2   -1    0    0    0  501 -0.00000000000E+00 -0.00000000000E+00 -0.18925531400E+03  0.18925531400E+03  0.00000000000E+00 0.  1.
         23    2    1    2    0    0  0.83672145433E+02  0.13876828854E+03  0.21219102986E+01  0.20471997050E+03  0.12509235785E+03 0.  0.
          5    1    3    3  502    0 -0.95508256264E+01  0.10365560626E+03  0.10269898381E+02  0.10468355263E+03  0.41800000000E+01 0. -1.
         -5    1    3    3    0  502  0.93222971059E+02  0.35112682279E+02 -0.81479880825E+01  0.10003641787E+03  0.41800000000E+01 0. -1.
        -11    1    1    2    0    0  0.22984478895E+01 -0.28696290507E+02 -0.28752371303E+02  0.40687329811E+02  0.00000000000E+00 0. -1.
         11    1    1    2    0    0 -0.85970593322E+02 -0.11007199803E+03  0.38368067761E+02  0.14484093444E+03  0.00000000000E+00 0.  1.
</event>
<event>
 7    1  0.4966153E-006  0.5241229E+02  0.7561462E-02  0.1432748E+00
         -2   -1    0    0    0  501 -0.00000000000E+00  0.00000000000E+00  0.19428952917E+03  0.19428952917E+03  0.00000000000E+00 0.  1.
          2   -1    0    0  501    0  0.00000000000E+00 -0.00000000000E+00 -0.64619095851E+02  0.64619095851E+02  0.00000000000E+00 0. -1.
         23    2    1    2    0    0  0.21823502858E+02 -0.14829166544E+02  0.87662423318E+02  0.15500959230E+03  0.12508838390E+03 0.  0.
          5    1    3    3  502    0  0.16441296873E+02  0.14341158524E+02 -0.27879721369E+02  0.35647388885E+02  0.41800000000E+01 0. -1.
         -5    1    3    3    0  502  0.53822059848E+01 -0.29170325069E+02  0.11554214469E+03  0.11936220342E+03  0.41800000000E+01 0. -1.
        -11    1    1    2    0    0  0.17476567101E+01  0.26357648758E+02  0.64270936811E+02  0.69487648332E+02  0.00000000000E+00 0.  1.
         11    1    1    2    0    0 -0.23571159568E+02 -0.11528482214E+02 -0.22262926808E+02  0.34411384389E+02  0.00000000000E+00 0. -1.
</event>
<event>
 7    1  0.4966153E-006  0.9548362E+02  0.7561462E-02  0.1290091E+00
         -1   -1    0    0    0  501 -0.00000000000E+00  0.00000000000E+00  0.24231890003E+02  0.24231890003E+02  0.00000000000E+00 0. -1.
          1   -1    0    0  501    0  0.00000000000E+00 -0.00000000000E+00 -0.47152446980E+03  0.47152446980E+03  0.00000000000E+00 0.  1.
         23    2    1    2    0    0 -0.14567896610E+02  0.15307628314E+02 -0.25352132965E+03  0.28349144100E+03  0.12509110855E+03 0.  0.
          5    1    3    3  502    0 -0.21372483470E+02  0.68710427583E+02 -0.16032781720E+03  0.17578505988E+03  0.41800000000E+01 0. -1.
         -5    1    3    3    0  502  0.68045868599E+01 -0.53402799268E+02 -0.93193512447E+02  0.10770638112E+03  0.41800000000E+01 0. -1.
        -11    1    1    2    0    0 -0.13966708127E+02  0.16858888732E+02 -0.10994356599E+02  0.24498304884E+02  0.00000000000E+00 0. -1.
         11    1    1    2    0    0  0.28534604737E+02 -0.32166517047E+02 -0.18277689355E+03  0.18776661391E+03  0.00000000000E+00 0.  1.
</event>
<event>
 7    1  0.4966153E-006  0.1657131E+03  0.7561462E-02  0.1182394E+00
         -1   -1    0    0    0  501 -0.00000000000E+00  0.00000000000E+00  0.35760599022E+02  0.35760599022E+02  0.00000000000E+00 0.  1.
          1   -1    0    0  501    0  0.00000000000E+00 -0.00000000000E+00 -0.84979620057E+03  0.84979620057E+03  0.00000000000E+00 0. -1.
         23    2    1    2    0    0  0.83571569704E+02  0.10322504326E+03 -0.34219640606E+03  0.38779986107E+03  0.12510289809E+03 0.  0.
          5    1    3    3  502    0  0.18074525768E+02  0.11195523488E+03 -0.18226964740E+03  0.21470994356E+03  0.41800000000E+01 0. -1.
         -5    1    3    3    0  502  0.65497043936E+02 -0.87301916222E+01 -0.15992675866E+03  0.17308991752E+03  0.41800000000E+01 0. -1.
        -11    1    1    2    0    0 -0.44726354700E+02 -0.36769595711E+01 -0.81314657595E+02  0.92876479133E+02  0.00000000000E+00 0.  1.
         11    1    1    2    0    0 -0.38845215004E+02 -0.99548083691E+02 -0.39052453790E+03  0.40488045939E+03  0.00000000000E+00 0. -1.
</event>
<event>
 7    1  0.4966153E-006  0.8117793E+02  0.7561462E-02  0.1325742E+00
         -1   -1    0    0    0  501 -0.00000000000E+00  0.00000000000E+00  0.17980840248E+03  0.17980840248E+03  0.00000000000E+00 0.  1.
          1   -1    0    0  501    0  0.00000000000E+00 -0.00000000000E+00 -0.98543311444E+02  0.98543311444E+02  0.00000000000E+00 0. -1.
         23    2    1    2    0    0 -0.28090755188E+02 -0.36260182961E+02  0.90651536577E+02  0.15431546731E+03  0.11615365243E+03 0.  0.
          5    1    3    3  502    0 -0.20737009180E+02  0.23833550443E+02 -0.12829016081E+02  0.34352841659E+02  0.41800000000E+01 0. -1.
         -5    1    3    3    0  502 -0.73537460079E+01 -0.60093733404E+02  0.10348055266E+03  0.11996262565E+03  0.41800000000E+01 0.  1.
        -11    1    1    2    0    0  0.13797342059E+02  0.48846138258E+02  0.44113150673E+02  0.67247913967E+02  0.00000000000E+00 0.  1.
         11    1    1    2    0    0  0.14293413129E+02 -0.12585955297E+02 -0.53499596214E+02  0.56788332646E+02  0.00000000000E+00 0. -1.
</event>
<event>
 7    1  0.4966153E-006  0.1026235E+03  0.7561462E-02  0.1274874E+00
         -1   -1    0    0    0  501 -0.00000000000E+00  0.00000000000E+00  0.38328429039E+03  0.38328429039E+03  0.00000000000E+00 0.  1.
          1   -1    0    0  501    0  0.00000000000E+00 -0.00000000000E+00 -0.45896021963E+02  0.45896021963E+02  0.00000000000E+00 0. -1.
         23    2    1    2    0    0 -0.72068314455E+02 -0.32034393866E+02  0.17410333697E+03  0.22842997680E+03  0.12509291754E+03 0.  0.
          5    1    3    3  502    0 -0.43709227372E+02 -0.47585240690E+02  0.18342044991E+03  0.19451320144E+03  0.41800000000E+01 0.  1.
         -5    1    3    3    0  502 -0.28359087083E+02  0.15550846824E+02 -0.93171129412E+01  0.33916775358E+02  0.41800000000E+01 0.  1.
        -11    1    1    2    0    0  0.56422512289E+02  0.55851392513E+02  0.14909891828E+03  0.16891822096E+03  0.00000000000E+00 0. -1.
         11    1    1    2    0    0  0.15645802166E+02 -0.23816998647E+02  0.14186013175E+02  0.31832114598E+02  0.00000000000E+00 0.  1.
</event>
<event>
 7    1  0.4966153E-006  0.1256209E+03  0.7561462E-02  0.1234102E+00
         -1   -1    0    0    0  501 -0.00000000000E+00  0.00000000000E+00  0.74584756068E+02  0.74584756068E+02  0.00000000000E+00 0. -1.
          1   -1    0    0  501    0  0.00000000000E+00 -0.00000000000E+00 -0.23784526388E+03  0.23784526388E+03  0.00000000000E+00 0.  1.
         23    2    1    2    0    0 -0.56964867958E+02 -0.51499657813E+02 -0.75594927521E+02  0.16510409563E+03  0.12509020102E+03 0.  0.
          5    1    3    3  502    0 -0.17816928510E+01  0.32199030815E+02 -0.53111961862E+02  0.62276037990E+02  0.41800000000E+01 0. -1.
         -5    1    3    3    0  502 -0.55183175107E+02 -0.83698688628E+02 -0.22482965659E+02  0.10282805764E+03  0.41800000000E+01 0. -1.
        -11    1    1    2    0    0  0.65763172250E+01  0.65703259265E+02 -0.50273698861E+02  0.82991632249E+02  0.00000000000E+00 0.  1.
         11    1    1    2    0    0  0.50388550733E+02 -0.14203601452E+02 -0.37391881425E+02  0.64334292066E+02  0.00000000000E+00 0. -1.
</event>
<event>
 7    1  0.4966153E-006  0.1156153E+03  0.7561462E-02  0.1250511E+00
          2   -1    0    0  501    0  0.00000000000E+00  0.00000000000E+00  0.29540814226E+02  0.29540814226E+02  0.00000000000E+00 0. -1.
         -2   -1    0    0    0  501 -0.00000000000E+00 -0.00000000000E+00 -0.62392941096E+03  0.62392941096E+03  0.00000000000E+00 0.  1.
         23    2    1    2    0    0 -0.13123248758E+01 -0.81586489067E+02 -0.31660509551E+03  0.35006023040E+03  0.12508117769E+03 0.  0.
          5    1    3    3  502    0 -0.62813479260E+02 -0.38713572710E+02 -0.16908275903E+03  0.18452838722E+03  0.41800000000E+01 0.  1.
         -5    1    3    3    0  502  0.61501154384E+02 -0.42872916357E+02 -0.14752233648E+03  0.16553184318E+03  0.41800000000E+01 0.  1.
        -11    1    1    2    0    0  0.46754166793E+01  0.70513201625E+02 -0.28228229686E+03  0.29099358454E+03  0.00000000000E+00 0.  1.
         11    1    1    2    0    0 -0.33630918035E+01  0.11073287442E+02  0.44987956298E+01  0.12416410245E+02  0.00000000000E+00 0. -1.
</event>
<event>
 7    1  0.4966153E-006  0.1474945E+03  0.7561462E-02  0.1203586E+00
         -2   -1    0    0    0  501 -0.00000000000E+00  0.00000000000E+00  0.56130630834E+03  0.56130630834E+03  0.00000000000E+00 0.  1.
          2   -1    0    0  501    0  0.00000000000E+00 -0.00000000000E+00 -0.41760711181E+02  0.41760711181E+02  0.00000000000E+00 0. -1.
         23    2    1    2    0    0 -0.89436496766E+02 -0.55174070165E+02  0.24348241171E+03  0.29321428160E+03  0.12509142716E+03 0.  0.
          5    1    3    3  502    0  0.17673478614E+01  0.30183388000E+02  0.91404875421E+02  0.96366405352E+02  0.41800000000E+01 0.  1.
         -5    1    3    3    0  502 -0.91203844627E+02 -0.85357458165E+02  0.15207753629E+03  0.19684787625E+03  0.41800000000E+01 0.  1.
        -11    1    1    2    0    0  0.98772988310E+02  0.70626842085E+02  0.22472014027E+03  0.25542786748E+03  0.00000000000E+00 0. -1.
         11    1    1    2    0    0 -0.93364915443E+01 -0.15452771920E+02  0.51343045186E+02  0.54424870449E+02  0.00000000000E+00 0.  1.
</event>
<event>
 7    1  0.4966153E-006  0.2692940E+03  0.7561462E-02  0.1101684E+00
         -1   -1    0    0    0  501 -0.00000000000E+00  0.00000000000E+00  0.12262796061E+03  0.12262796061E+03  0.00000000000E+00 0.  1.
          1   -1    0    0  501    0  0.00000000000E+00 -0.00000000000E+00 -0.64417810832E+03  0.64417810832E+03  0.00000000000E+00 0. -1.
         23    2    1    2    0    0  0.47244843338E+01 -0.25694095829E+03 -0.23391700802E+03  0.36933082695E+03  0.12508843387E+03 0.  0.
          5    1    3    3  502    0 -0.71037741687E+01  0.87484454493E+01  0.37927350077E+01  0.12603814663E+02  0.41800000000E+01 0. -1.
         -5    1    3    3    0  502  0.11828258503E+02 -0.26568940374E+03 -0.23770974303E+03  0.35672701228E+03  0.41800000000E+01 0. -1.
        -11    1    1    2    0    0 -0.23784953094E+02  0.16317747438E+03 -0.23838911241E+03  0.28986545337E+03  0.00000000000E+00 0. -1.
         11    1    1    2    0    0  0.19060468760E+02  0.93763483917E+02 -0.49244027266E+02  0.10760978862E+03  0.00000000000E+00 0.  1.
</event>
<event>
 7    1  0.4966153E-006  0.1020493E+03  0.7561462E-02  0.1276045E+00
          2   -1    0    0  501    0  0.00000000000E+00  0.00000000000E+00  0.52291827033E+02  0.52291827033E+02  0.00000000000E+00 0.  1.
         -2   -1    0    0    0  501 -0.00000000000E+00 -0.00000000000E+00 -0.35224125323E+03  0.35224125323E+03  0.00000000000E+00 0. -1.
         23    2    1    2    0    0 -0.68110631990E+02 -0.38551300127E+02 -0.18628064193E+03  0.23764336103E+03  0.12509447850E+03 0.  0.
          5    1    3    3  502    0 -0.39975502947E+01  0.68010023851E+01 -0.15131336492E+03  0.15157651812E+03  0.41800000000E+01 0.  1.
         -5    1    3    3    0  502 -0.64113081695E+02 -0.45352302512E+02 -0.34967277016E+02  0.86066842916E+02  0.41800000000E+01 0.  1.
        -11    1    1    2    0    0  0.10062359016E+02  0.55223093945E+02 -0.29840700128E+02  0.63571287213E+02  0.00000000000E+00 0.  1.
         11    1    1    2    0    0  0.58048272974E+02 -0.16671793818E+02 -0.83828084134E+02  0.10331843201E+03  0.00000000000E+00 0. -1.
</event>
<event>
 7    1  0.4966153E-006  0.1489046E+03  0.7561462E-02  0.1201826E+00
          1   -1    0    0  501    0  0.00000000000E+00  0.00000000000E+00  0.15846182826E+03  0.15846182826E+03  0.00000000000E+00 0. -1.
         -1   -1    0    0    0  501 -0.00000000000E+00 -0.00000000000E+00 -0.15406355141E+03  0.15406355141E+03  0.00000000000E+00 0.  1.
         23    2    1    2    0    0  0.44305458400E+02  0.93107037381E+02 -0.43353832250E+02  0.16776759228E+03  0.12503805898E+03 0.  0.
          5    1    3    3  502    0 -0.61219044313E+01  0.10871140909E+03 -0.32587188817E+02  0.11373234129E+03  0.41800000000E+01 0.  1.
         -5    1    3    3    0  502  0.50427362832E+02 -0.15604371707E+02 -0.10766643433E+02  0.54035250988E+02  0.41800000000E+01 0.  1.
        -11    1    1    2    0    0 -0.52231208974E+02 -0.10964604958E+02  0.11357063854E+02  0.54564683195E+02  0.00000000000E+00 0.  1.
         11    1    1    2    0    0  0.79257505735E+01 -0.82142432423E+02  0.36395045241E+02  0.90193104197E+02  0.00000000000E+00 0. -1.
</event>
<event>
 7    1  0.4966153E-006  0.1083473E+03  0.7561462E-02  0.1263661E+00
         -2   -1    0    0    0  501 -0.00000000000E+00  0.00000000000E+00  0.77952692276E+02  0.77952692276E+02  0.00000000000E+00 0.  1.
          2   -1    0    0  501    0  0.00000000000E+00 -0.00000000000E+00 -0.27975447802E+03  0.27975447802E+03  0.00000000000E+00 0. -1.
         23    2    1    2    0    0 -0.34461741183E+02  0.80950380839E+02 -0.53643681872E+02  0.16203889172E+03  0.12505351679E+03 0.  0.
          5    1    3    3  502    0 -0.57177258015E+02  0.57256619248E+02 -0.84304482613E+02  0.11692851436E+03  0.41800000000E+01 0. -1.
         -5    1    3    3    0  502  0.22715516832E+02  0.23693761591E+02  0.30660800741E+02  0.45110377358E+02  0.41800000000E+01 0. -1.
        -11    1    1    2    0    0  0.28415768995E+02 -0.81937421373E+01  0.10117265524E+01  0.29590825071E+02  0.00000000000E+00 0.  1.
         11    1    1    2    0    0  0.60459721886E+01 -0.72756638702E+02 -0.14916983043E+03  0.16607745351E+03  0.00000000000E+00 0. -1.
</event>
<event>
 7    1  0.4966153E-006  0.1172426E+03  0.7561462E-02  0.1247717E+00
          2   -1    0    0  501    0  0.00000000000E+00  0.00000000000E+00  0.49751265481E+02  0.49751265481E+02  0.00000000000E+00 0.  1.
         -2   -1    0    0    0  501 -0.00000000000E+00 -0.00000000000E+00 -0.37723720957E+03  0.37723720957E+03  0.00000000000E+00 0. -1.
         23    2    1    2    0    0  0.21964348960E+02 -0.54864713576E+02 -0.27530670923E+03  0.30811199906E+03  0.12508657161E+03 0.  0.
          5    1    3    3  502    0 -0.26251267025E+02  0.27384419977E+02 -0.46199954159E+02  0.59924482828E+02  0.41800000000E+01 0.  1.
         -5    1    3    3    0  502  0.48215615985E+02 -0.82249133553E+02 -0.22910675507E+03  0.24818751623E+03  0.41800000000E+01 0.  1.
        -11    1    1    2    0    0 -0.43585123288E+02  0.18373066890E+01 -0.35839930062E+01  0.43770808466E+02  0.00000000000E+00 0.  1.
         11    1    1    2    0    0  0.21620774328E+02  0.53027406887E+02 -0.48595241857E+02  0.75105667529E+02  0.00000000000E+00 0. -1.
</event>
<event>
 7    1  0.4966153E-006  0.1160316E+03  0.7561462E-02  0.1249791E+00
         -1   -1    0    0    0  501 -0.00000000000E+00  0.00000000000E+00  0.10777580627E+03  0.10777580627E+03  0.00000000000E+00 0.  1.
          1   -1    0    0  501    0  0.00000000000E+00 -0.00000000000E+00 -0.15977379432E+03  0.15977379432E+03  0.00000000000E+00 0. -1.
         23    2    1    2    0    0  0.54954991634E+01 -0.57072477729E+02 -0.16859166139E+01  0.13761747740E+03  0.12509300359E+03 0.  0.
          5    1    3    3  502    0 -0.10744909587E+02  0.25830264697E+02  0.35357051146E+02  0.45279676701E+02  0.41800000000E+01 0.  1.
         -5    1    3    3    0  502  0.16240408751E+02 -0.82902742426E+02 -0.37042967760E+02  0.92337800703E+02  0.41800000000E+01 0.  1.
        -11    1    1    2    0    0 -0.29183311411E+02 -0.22066504662E+02 -0.95398843036E+01  0.37810126758E+02  0.00000000000E+00 0.  1.
         11    1    1    2    0    0  0.23687812248E+02  0.79138982391E+02 -0.40772187132E+02  0.92121996432E+02  0.00000000000E+00 0. -1.
</event>
<event>
 7    1  0.4966153E-006  0.1173787E+03  0.7561462E-02  0.1247485E+00
          2   -1    0    0  501    0  0.00000000000E+00  0.00000000000E+00  0.56029091376E+02  0.56029091376E+02  0.00000000000E+00 0. -1.
         -2   -1    0    0    0  501 -0.00000000000E+00 -0.00000000000E+00 -0.28893395369E+03  0.28893395369E+03  0.00000000000E+00 0.  1.
         23    2    1    2    0    0  0.64003717833E+02  0.29076343186E+01 -0.10162372353E+03  0.17343765101E+03  0.12509319474E+03 0.  0.
          5    1    3    3  502    0  0.48115047993E+02  0.53795271567E+02 -0.95259678207E+02  0.11958623574E+03  0.41800000000E+01 0. -1.
         -5    1    3    3    0  502  0.15888669840E+02 -0.50887637249E+02 -0.63640453256E+01  0.53851415274E+02  0.41800000000E+01 0. -1.
        -11    1    1    2    0    0 -0.32788801965E+02  0.42629199235E+02 -0.51177703816E+02  0.74239555020E+02  0.00000000000E+00 0. -1.
         11    1    1    2    0    0 -0.31214915868E+02 -0.45536833553E+02 -0.80103434962E+02  0.97285839028E+02  0.00000000000E+00 0.  1.
</event>
<event>
 7    1  0.7512195E-006  0.2554919E+03  0.7561462E-02  0.1109882E+00
          2   -1    0    0  501    0  0.00000000000E+00  0.00000000000E+00  0.49212823945E+03  0.49212823945E+03  0.00000000000E+00 0. -1.
         -2   -1    0    0    0  501 -0.00000000000E+00 -0.00000000000E+00 -0.16257789406E+03  0.16257789406E+03  0.00000000000E+00 0.  1.
         23    2    1    2    0    0 -0.82132315823E+02 -0.23288585522E+03  0.70308136802E+02  0.28560701866E+03  0.12508635474E+03 0.  0.
          5    1    3    3  502    0 -0.62816480580E+02 -0.50851352471E+02  0.62648110853E+02  0.10234270113E+03  0.41800000000E+01 0. -1.
         -5    1    3    3    0  502 -0.19315835243E+02 -0.18203450275E+03  0.76600259485E+01  0.18326431753E+03  0.41800000000E+01 0. -1.
        -11    1    1    2    0    0  0.25543310171E+02  0.75204221107E+02  0.29419239385E+02  0.84697268036E+02  0.00000000000E+00 0.  1.
         11    1    1    2    0    0  0.56589005652E+02  0.15768163411E+03  0.22982296920E+03  0.28440184681E+03  0.00000000000E+00 0. -1.
</event>
<event>
 7    1  0.4966153E-006  0.1589661E+03  0.7561462E-02  0.1189869E+00
         -1   -1    0    0    0  501 -0.00000000000E+00  0.00000000000E+00  0.14170629967E+03  0.14170629967E+03  0.00000000000E+00 0.  1.
          1   -1    0    0  501    0  0.00000000000E+00 -0.00000000000E+00 -0.22460692236E+03  0.22460692236E+03  0.00000000000E+00 0. -1.
         23    2    1    2    0    0  0.90598905602E+02 -0.10759260190E+03 -0.32788944115E+02  0.19106884546E+03  0.12509140326E+03 0.  0.
          5    1    3    3  502    0  0.65649611390E+02 -0.27914873845E+02 -0.69574996589E+02  0.99735972486E+02  0.41800000000E+01 0. -1.
         -5    1    3    3    0  502  0.24949294212E+02 -0.79677728055E+02  0.36786052473E+02  0.91332872977E+02  0.41800000000E+01 0. -1.
        -11    1    1    2    0    0 -0.10643510801E+03  0.93070525626E+02 -0.57342540255E+02  0.15257366051E+03  0.00000000000E+00 0. -1.
         11    1    1    2    0    0  0.15836202410E+02  0.14522076274E+02  0.72308616773E+01  0.22670716060E+02  0.00000000000E+00 0.  1.
</event>
<event>
 7    1  0.4966153E-006  0.1533594E+03  0.7561462E-02  0.1196405E+00
         -2   -1    0    0    0  501 -0.00000000000E+00  0.00000000000E+00  0.10373864686E+03  0.10373864686E+03  0.00000000000E+00 0.  1.
          2   -1    0    0  501    0  0.00000000000E+00 -0.00000000000E+00 -0.53767497092E+03  0.53767497092E+03  0.00000000000E+00 0. -1.
         23    2    1    2    0    0 -0.98334558215E+01  0.14398627793E+03 -0.18035605027E+02  0.19183715015E+03  0.12508982391E+03 0.  0.
          5    1    3    3  502    0  0.83579758449E+01  0.83098294130E+02 -0.70460868867E+02  0.10934984540E+03  0.41800000000E+01 0.  1.
         -5    1    3    3    0  502 -0.18191431666E+02  0.60887983795E+02  0.52425263840E+02  0.82487304753E+02  0.41800000000E+01 0.  1.
        -11    1    1    2    0    0 -0.25834378073E+02 -0.97233653111E+02 -0.33349947090E+03  0.34834421982E+03  0.00000000000E+00 0.  1.
         11    1    1    2    0    0  0.35667833895E+02 -0.46752624814E+02 -0.82401248129E+02  0.10123224780E+03  0.00000000000E+00 0. -1.
</event>
<event>
 7    1  0.4966153E-006  0.9638299E+02  0.7561462E-02  0.1288091E+00
         -1   -1    0    0    0  501 -0.00000000000E+00  0.00000000000E+00  0.95701328862E+02  0.95701328862E+02  0.00000000000E+00 0.  1.
          1   -1    0    0  501    0  0.00000000000E+00 -0.00000000000E+00 -0.16606169999E+03  0.16606169999E+03  0.00000000000E+00 0. -1.
         23    2    1    2    0    0  0.50388146419E+02 -0.29189523689E+02 -0.80392449939E+01  0.13821202739E+03  0.12508773506E+03 0.  0.
          5    1    3    3  502    0 -0.37862916728E+02 -0.25778194339E+02  0.12039194823E+02  0.47545035267E+02  0.41800000000E+01 0.  1.
         -5    1    3    3    0  502  0.88251063147E+02 -0.34113293499E+01 -0.20078439817E+02  0.90666992120E+02  0.41800000000E+01 0.  1.
        -11    1    1    2    0    0 -0.25556346389E+02  0.16984366429E+02 -0.83336133713E+02  0.88806006137E+02  0.00000000000E+00 0. -1.
         11    1    1    2    0    0 -0.24831800030E+02  0.12205157260E+02  0.21015007582E+02  0.34744995325E+02  0.00000000000E+00 0.  1.
</event>
<event>
 7    1  0.4966153E-006  0.1113737E+03  0.7561462E-02  0.1258047E+00
         -1   -1    0    0    0  501 -0.00000000000E+00  0.00000000000E+00  0.16426147722E+02  0.16426147722E+02  0.00000000000E+00 0.  1.
          1   -1    0    0  501    0  0.00000000000E+00 -0.00000000000E+00 -0.84614082265E+03  0.84614082265E+03  0.00000000000E+00 0. -1.
         23    2    1    2    0    0 -0.48968699791E+01 -0.41392385416E+02 -0.39285449294E+03  0.41439046604E+03  0.12508995487E+03 0.  0.
          5    1    3    3  502    0 -0.48501726052E+02 -0.59397069427E+02 -0.30570123856E+03  0.31520017281E+03  0.41800000000E+01 0.  1.
         -5    1    3    3    0  502  0.43604856073E+02  0.18004684011E+02 -0.87153254387E+02  0.99190293224E+02  0.41800000000E+01 0.  1.
        -11    1    1    2    0    0  0.30236006823E+02  0.59975485623E+02 -0.25932704183E+03  0.26788391070E+03  0.00000000000E+00 0.  1.
         11    1    1    2    0    0 -0.25339136844E+02 -0.18583100207E+02 -0.17753314015E+03  0.18029259364E+03  0.00000000000E+00 0. -1.
</event>
<event>
 7    1  0.4966153E-006  0.1130411E+03  0.7561462E-02  0.1255040E+00
         -3   -1    0    0    0  501 -0.00000000000E+00  0.00000000000E+00  0.25682425979E+03  0.25682425979E+03  0.00000000000E+00 0.  1.
          3   -1    0    0  501    0  0.00000000000E+00 -0.00000000000E+00 -0.12256424802E+03  0.12256424802E+03  0.00000000000E+00 0. -1.
         23    2    1    2    0    0 -0.79723695287E+02 -0.50165145190E+02  0.18153249338E+03  0.23974501349E+03  0.12510481988E+03 0.  0.
          5    1    3    3  502    0 -0.40859506556E+02  0.19852947069E+02  0.50493004307E+01  0.45897784458E+02  0.41800000000E+01 0. -1.
         -5    1    3    3    0  502 -0.38864188731E+02 -0.70018092259E+02  0.17648319295E+03  0.19384722903E+03  0.41800000000E+01 0. -1.
        -11    1    1    2    0    0  0.62900048372E+02  0.20476768337E+02  0.15729632629E+02  0.67993642860E+02  0.00000000000E+00 0.  1.
         11    1    1    2    0    0  0.16823646915E+02  0.29688376853E+02 -0.63002114243E+02  0.71649851463E+02  0.00000000000E+00 0. -1.
</event>
<event>
 7    1  0.4966153E-006  0.2364528E+03  0.7561462E-02  0.1122179E+00
         -2   -1    0    0    0  501 -0.00000000000E+00  0.00000000000E+00  0.25541708393E+03  0.25541708393E+03  0.00000000000E+00 0.  1.
          2   -1    0    0  501    0  0.00000000000E+00 -0.00000000000E+00 -0.24961570795E+03  0.24961570795E+03  0.00000000000E+00 0. -1.
         23    2    1    2    0    0 -0.11183863822E+03 -0.19940091565E+03  0.14099522465E+02  0.26098414970E+03  0.12508126839E+03 0.  0.
          5    1    3    3  502    0 -0.14289487250E+02 -0.37151346202E+02 -0.47257927162E+02  0.61928959704E+02  0.41800000000E+01 0. -1.
         -5    1    3    3    0  502 -0.97549150969E+02 -0.16224956945E+03  0.61357449627E+02  0.19905519000E+03  0.41800000000E+01 0. -1.
        -11    1    1    2    0    0  0.94499853168E+02  0.20464048206E+03 -0.11296109264E+02  0.22568905873E+03  0.00000000000E+00 0.  1.
         11    1    1    2    0    0  0.17338785052E+02 -0.52395664114E+01  0.29979627785E+01  0.18359583439E+02  0.00000000000E+00 0. -1.
</event>
<event>
 6    1  0.4966153E-006  0.1990098E+03  0.7561462E-02  0.1150577E+00
         -2   -1    0    0    0  501 -0.00000000000E+00  0.00000000000E+00  0.10617182108E+03  0.10617182108E+03  0.00000000000E+00 0.  1.
          2   -1    0    0  501    0  0.00000000000E+00 -0.00000000000E+00 -0.39857710168E+03  0.39857710168E+03  0.00000000000E+00 0. -1.
          5    1    1    2  502    0 -0.29974913234E+02 -0.11779089765E+03 -0.85600331603E+02  0.14872148521E+03  0.41800000000E+01 0. -1.
         -5    1    1    2    0  502  0.12535147421E+03  0.84585484244E+02 -0.74807370568E+02  0.16876407000E+03  0.41800000000E+01 0.  1.
        -11    1    1    2    0    0 -0.76159763803E+02 -0.10974105648E+02 -0.48779415242E+02  0.91105279587E+02  0.00000000000E+00 0.  1.
         11    1    1    2    0    0 -0.19216797177E+02  0.44179519053E+02 -0.83218163184E+02  0.96158087965E+02  0.00000000000E+00 0. -1.
</event>
<event>
 7    1  0.4966153E-006  0.8063924E+02  0.7561462E-02  0.1327247E+00
         -1   -1    0    0    0  501 -0.00000000000E+00  0.00000000000E+00  0.33916777841E+03  0.33916777841E+03  0.00000000000E+00 0.  1.
          1   -1    0    0  501    0  0.00000000000E+00 -0.00000000000E+00 -0.45123916792E+02  0.45123916792E+02  0.00000000000E+00 0. -1.
         23    2    1    2    0    0 -0.28914424441E+01 -0.15265601716E+02  0.25123102575E+03  0.28107979950E+03  0.12508967325E+03 0.  0.
          5    1    3    3  502    0 -0.15812197768E+02 -0.61499811479E+02  0.20364471558E+03  0.21335626307E+03  0.41800000000E+01 0. -1.
         -5    1    3    3    0  502  0.12920755324E+02  0.46234209763E+02  0.47586310169E+02  0.67723536426E+02  0.41800000000E+01 0. -1.
        -11    1    1    2    0    0  0.21814591895E+02 -0.42998629410E+01 -0.23001387039E+02  0.31991077609E+02  0.00000000000E+00 0. -1.
         11    1    1    2    0    0 -0.18923149450E+02  0.19565464657E+02  0.65814222909E+02  0.71220818091E+02  0.00000000000E+00 0.  1.
</event>
<event>
 7    1  0.4966153E-006  0.1017992E+03  0.7561462E-02  0.1276557E+00
          1   -1    0    0  501    0  0.00000000000E+00  0.00000000000E+00  0.33153064872E+03  0.33153064872E+03  0.00000000000E+00 0. -1.
         -1   -1    0    0    0  501 -0.00000000000E+00 -0.00000000000E+00 -0.58660883074E+02  0.58660883074E+02  0.00000000000E+00 0.  1.
         23    2    1    2    0    0  0.65744923667E+02 -0.15718837164E+02  0.71791502029E+02  0.15928177900E+03  0.12508872262E+03 0.  0.
          5    1    3    3  502    0  0.50131730252E+02  0.23106546009E+02  0.95955091062E+02  0.11077885514E+03  0.41800000000E+01 0. -1.
         -5    1    3    3    0  502  0.15613193415E+02 -0.38825383173E+02 -0.24163589033E+02  0.48502923850E+02  0.41800000000E+01 0. -1.
        -11    1    1    2    0    0 -0.24365616385E+01  0.38742746316E+02  0.37372743371E+02  0.53885611918E+02  0.00000000000E+00 0.  1.
         11    1    1    2    0    0 -0.63308362029E+02 -0.23023909152E+02  0.16370552025E+03  0.17702414088E+03  0.00000000000E+00 0. -1.
</event>
<event>
 7    1  0.4966153E-006  0.1287818E+03  0.7561462E-02  0.1229275E+00
          1   -1    0    0  501    0  0.00000000000E+00  0.00000000000E+00  0.17058050208E+03  0.17058050208E+03  0.00000000000E+00 0. -1.
         -1   -1    0    0    0  501 -0.00000000000E+00 -0.00000000000E+00 -0.11659352189E+03  0.11659352189E+03  0.00000000000E+00 0.  1.
         23    2    1    2    0    0 -0.18554068194E+01  0.89729965106E+02  0.22988998147E+02  0.15566247765E+03  0.12508958287E+03 0.  0.
          5    1    3    3  502    0 -0.39575048769E+02  0.10329519052E+03  0.30151962637E+02  0.11472878506E+03  0.41800000000E+01 0.  1.
         -5    1    3    3    0  502  0.37719641950E+02 -0.13565225415E+02 -0.71629644906E+01  0.40933692598E+02  0.41800000000E+01 0.  1.
        -11    1    1    2    0    0  0.27754922887E+02 -0.27096192041E+02 -0.22786907262E+02  0.44986470301E+02  0.00000000000E+00 0.  1.
         11    1    1    2    0    0 -0.25899516068E+02 -0.62633773065E+02  0.53784889313E+02  0.86525076015E+02  0.00000000000E+00 0. -1.
</event>
<event>
 6    1  0.4966153E-006  0.1143367E+03  0.7561462E-02  0.1252743E+00
          2   -1    0    0  501    0  0.00000000000E+00  0.00000000000E+00  0.10029608563E+03  0.10029608563E+03  0.00000000000E+00 0. -1.
         -2   -1    0    0    0  501 -0.00000000000E+00 -0.00000000000E+00 -0.26455197365E+03  0.26455197365E+03  0.00000000000E+00 0.  1.
          5    1    1    2  502    0 -0.34951683850E+01  0.13834455309E+02  0.18683488658E+02  0.23877887347E+02  0.41800000000E+01 0. -1.
         -5    1    1    2    0  502  0.88279148193E+02 -0.24095205578E+02 -0.19608672358E+03  0.21642842350E+03  0.41800000000E+01 0.  1.
        -11    1    1    2    0    0  0.18487498736E+02  0.98681034471E+00 -0.52307822555E+01  0.19238567701E+02  0.00000000000E+00 0.  1.
         11    1    1    2    0    0 -0.10327147854E+03  0.92739399245E+01  0.18378129153E+02  0.10530318074E+03  0.00000000000E+00 0. -1.
</event>
<event>
 7    1  0.4966153E-006  0.8662672E+02  0.7561462E-02  0.1311232E+00
         -1   -1    0    0    0  501 -0.00000000000E+00  0.00000000000E+00  0.43989282511E+02  0.43989282511E+02  0.00000000000E+00 0.  1.
          1   -1    0    0  501    0  0.00000000000E+00 -0.00000000000E+00 -0.27567043159E+03  0.27567043159E+03  0.00000000000E+00 0. -1.
         23    2    1    2    0    0 -0.74815667423E+01 -0.51343364960E+01 -0.11859667218E+03  0.17261233508E+03  0.12509001686E+03 0.  0.
          5    1    3    3  502    0  0.20094544974E+01  0.48037690314E+02 -0.72717615860E+01  0.48805824598E+02  0.41800000000E+01 0.  1.
         -5    1    3    3    0  502 -0.94910212397E+01 -0.53172026810E+02 -0.11132491059E+03  0.12380651048E+03  0.41800000000E+01 0.  1.
        -11    1    1    2    0    0 -0.80606220487E+01  0.35662244523E+02 -0.10591580331E+03  0.11204876931E+03  0.00000000000E+00 0.  1.
         11    1    1    2    0    0  0.15542188791E+02 -0.30527908027E+02 -0.71686735902E+01  0.34998609715E+02  0.00000000000E+00 0. -1.
</event>
<event>
 7    1  0.4966153E-006  0.1091042E+03  0.7561462E-02  0.1262238E+00
          3   -1    0    0  501    0  0.00000000000E+00  0.00000000000E+00  0.87804586320E+02  0.87804586320E+02  0.00000000000E+00 0. -1.
         -3   -1    0    0    0  501 -0.00000000000E+00 -0.00000000000E+00 -0.24273524580E+03  0.24273524580E+03  0.00000000000E+00 0.  1.
         23    2    1    2    0    0  0.56189000776E+02 -0.59514435641E+02 -0.14262336307E+03  0.20661016241E+03  0.12508862323E+03 0.  0.
          5    1    3    3  502    0  0.88183181428E+01  0.15882661222E+02 -0.11018406778E+03  0.11174982261E+03  0.41800000000E+01 0. -1.
         -5    1    3    3    0  502  0.47370682633E+02 -0.75397096862E+02 -0.32439295291E+02  0.94860339802E+02  0.41800000000E+01 0. -1.
        -11    1    1    2    0    0  0.10213384518E+02 -0.99994307293E+01  0.18136420987E+02  0.23091808168E+02  0.00000000000E+00 0.  1.
         11    1    1    2    0    0 -0.66402385294E+02  0.69513866370E+02 -0.30443717401E+02  0.10083786154E+03  0.00000000000E+00 0. -1.
</event>
<event>
 7    1  0.4966153E-006  0.6722550E+02  0.7561462E-02  0.1369790E+00
          4   -1    0    0  501    0  0.00000000000E+00  0.00000000000E+00  0.44438760785E+02  0.44438760785E+02  0.00000000000E+00 0. -1.
         -4   -1    0    0    0  501 -0.00000000000E+00 -0.00000000000E+00 -0.32774075850E+03  0.32774075850E+03  0.00000000000E+00 0.  1.
         23    2    1    2    0    0  0.41227139967E+02 -0.27374044288E+02 -0.18129180319E+03  0.22574984612E+03  0.12508900731E+03 0.  0.
          5    1    3    3  502    0  0.50331474537E+02 -0.23052804421E+02 -0.19808826312E+03  0.20572097975E+03  0.41800000000E+01 0.  1.
         -5    1    3    3    0  502 -0.91043345701E+01 -0.43212398666E+01  0.16796459934E+02  0.20028866375E+02  0.41800000000E+01 0.  1.
        -11    1    1    2    0    0 -0.39016718684E+02 -0.15187533305E+01 -0.10970636598E+03  0.11644783247E+03  0.00000000000E+00 0.  1.
         11    1    1    2    0    0 -0.22104212832E+01  0.28892797618E+02  0.76961714600E+01  0.29981840697E+02  0.00000000000E+00 0. -1.
</event>
<event>
 7    1  0.4966153E-006  0.1000235E+03  0.7561462E-02  0.1280246E+00
          4   -1    0    0  501    0  0.00000000000E+00  0.00000000000E+00  0.66250805172E+02  0.66250805172E+02  0.00000000000E+00 0. -1.
         -4   -1    0    0    0  501 -0.00000000000E+00 -0.00000000000E+00 -0.28070571601E+03  0.28070571601E+03  0.00000000000E+00 0.  1.
         23    2    1    2    0    0  0.47200042789E+02 -0.44795257565E+02 -0.19479514589E+03  0.23315520379E+03  0.11037092486E+03 0.  0.
          5    1    3    3  502    0  0.22851323380E+02 -0.56162979554E+02 -0.33134327141E+02  0.69222967921E+02  0.41800000000E+01 0. -1.
         -5    1    3    3    0  502  0.24348719409E+02  0.11367721989E+02 -0.16166081875E+03  0.16393223587E+03  0.41800000000E+01 0.  1.
        -11    1    1    2    0    0  0.24920117477E+02 -0.36610614741E+01 -0.36225427618E+01  0.25446776658E+02  0.00000000000E+00 0.  1.
         11    1    1    2    0    0 -0.72120160267E+02  0.48456319039E+02 -0.16037222185E+02  0.88354540727E+02  0.00000000000E+00 0. -1.
</event>
<event>
 7    1  0.4966153E-006  0.1027049E+03  0.7561462E-02  0.1274709E+00
          4   -1    0    0  501    0  0.00000000000E+00  0.00000000000E+00  0.81866446355E+03  0.81866446355E+03  0.00000000000E+00 0. -1.
         -4   -1    0    0    0  501 -0.00000000000E+00 -0.00000000000E+00 -0.19383969417E+02  0.19383969417E+02  0.00000000000E+00 0.  1.
         23    2    1    2    0    0  0.60292144837E+02  0.18686087038E+02  0.42300388093E+03  0.44560529853E+03  0.12508991252E+03 0.  0.
          5    1    3    3  502    0 -0.16275189892E+02  0.19632332986E+01  0.16428049958E+01  0.16997273289E+02  0.41800000000E+01 0. -1.
         -5    1    3    3    0  502  0.76567334730E+02  0.16722853740E+02  0.42136107593E+03  0.42860802524E+03  0.41800000000E+01 0. -1.
        -11    1    1    2    0    0 -0.67204108342E+02 -0.46256614407E+02  0.24875273753E+03  0.26178997494E+03  0.00000000000E+00 0.  1.
         11    1    1    2    0    0  0.69119635052E+01  0.27570527369E+02  0.12752387567E+03  0.13065315949E+03  0.00000000000E+00 0. -1.
</event>
<event>
 7    1  0.4966153E-006  0.1161893E+03  0.7561462E-02  0.1249519E+00
          1   -1    0    0  501    0  0.00000000000E+00  0.00000000000E+00  0.22819741199E+03  0.22819741199E+03  0.00000000000E+00 0. -1.
         -1   -1    0    0    0  501 -0.00000000000E+00 -0.00000000000E+00 -0.67703387562E+02  0.67703387562E+02  0.00000000000E+00 0.  1.
         23    2    1    2    0    0  0.51618403256E+02 -0.35112425868E+02  0.80236489912E+02  0.16119303323E+03  0.12509179686E+03 0.  0.
          5    1    3    3  502    0  0.49277230517E+02 -0.79948210057E+02  0.46507081517E+02  0.10488251890E+03  0.41800000000E+01 0.  1.
         -5    1    3    3    0  502  0.23411727392E+01  0.44835784189E+02  0.33729408395E+02  0.56310514332E+02  0.41800000000E+01 0.  1.
        -11    1    1    2    0    0  0.11597880055E+02  0.27201109424E+02  0.61588272175E+02  0.68319297751E+02  0.00000000000E+00 0. -1.
         11    1    1    2    0    0 -0.63216283311E+02  0.79113164436E+01  0.18669262344E+02  0.66388468577E+02  0.00000000000E+00 0.  1.
</event>
<event>
 7    1  0.4966153E-006  0.1486158E+03  0.7561462E-02  0.1202184E+00
         -1   -1    0    0    0  501 -0.00000000000E+00  0.00000000000E+00  0.51951517513E+02  0.51951517513E+02  0.00000000000E+00 0.  1.
          1   -1    0    0  501    0  0.00000000000E+00 -0.00000000000E+00 -0.65815618470E+03  0.65815618470E+03  0.00000000000E+00 0. -1.
         23    2    1    2    0    0  0.19887024861E+02  0.13531122452E+03 -0.20526808552E+03  0.27656369931E+03  0.12509145296E+03 0.  0.
          5    1    3    3  502    0  0.25747764498E+01  0.60688204148E+02 -0.38254881982E+01  0.61006510771E+02  0.41800000000E+01 0.  1.
         -5    1    3    3    0  502  0.17312248412E+02  0.74623020368E+02 -0.20144259732E+03  0.21555718854E+03  0.41800000000E+01 0.  1.
        -11    1    1    2    0    0  0.24755195307E+02 -0.99097678362E+02 -0.20037630672E+03  0.22490850105E+03  0.00000000000E+00 0.  1.
         11    1    1    2    0    0 -0.44642220168E+02 -0.36213546154E+02 -0.20056027495E+03  0.20863550186E+03  0.00000000000E+00 0. -1.
</event>
<event>
 6    1  0.4966153E-006  0.1767727E+03  0.7561462E-02  0.1170963E+00
          1   -1    0    0  501    0  0.00000000000E+00  0.00000000000E+00  0.72408626386E+03  0.72408626386E+03  0.00000000000E+00 0. -1.
         -1   -1    0    0    0  501 -0.00000000000E+00 -0.00000000000E+00 -0.56504715275E+02  0.56504715275E+02  0.00000000000E+00 0.  1.
          5    1    1    2  502    0  0.69407291781E+02 -0.11932833512E+03  0.29028856016E+03  0.32146779663E+03  0.41800000000E+01 0. -1.
         -5    1    1    2    0  502  0.28645448940E+02 -0.41572528191E+01 -0.82203300615E+01  0.30379116549E+02  0.41800000000E+01 0.  1.
        -11    1    1    2    0    0 -0.11794582638E+03  0.11443036653E+03  0.35519890025E+03  0.39137167179E+03  0.00000000000E+00 0. -1.
         11    1    1    2    0    0  0.19893085660E+02  0.90552214119E+01  0.30314418244E+02  0.37372394161E+02  0.00000000000E+00 0.  1.
</event>
<event>
 7    1  0.4966153E-006  0.9976385E+02  0.7561462E-02  0.1280793E+00
          1   -1    0    0  501    0  0.00000000000E+00  0.00000000000E+00  0.46110506097E+03  0.46110506097E+03  0.00000000000E+00 0.  1.
         -1   -1    0    0    0  501 -0.00000000000E+00 -0.00000000000E+00 -0.28447210792E+02  0.28447210792E+02  0.00000000000E+00 0. -1.
         23    2    1    2    0    0  0.10866104454E+02 -0.22152412977E+02  0.18012657456E+03  0.22068508053E+03  0.12509004869E+03 0.  0.
          5    1    3    3  502    0 -0.45909166235E+02 -0.35052191821E+02  0.13502069800E+03  0.14691619715E+03  0.41800000000E+01 0. -1.
         -5    1    3    3    0  502  0.56775270689E+02  0.12899778844E+02  0.45105876562E+02  0.73768883389E+02  0.41800000000E+01 0. -1.
        -11    1    1    2    0    0 -0.10152508318E+01 -0.30076661360E+02  0.15401988225E+03  0.15693234345E+03  0.00000000000E+00 0.  1.
         11    1    1    2    0    0 -0.98508536220E+01  0.52229074337E+02  0.98511393369E+02  0.11193484778E+03  0.00000000000E+00 0. -1.
</event>
<event>
 6    1  0.4966153E-006  0.1346879E+03  0.7561462E-02  0.1220661E+00
          3   -1    0    0  501    0  0.00000000000E+00  0.00000000000E+00  0.28227105823E+03  0.28227105823E+03  0.00000000000E+00 0. -1.
         -3   -1    0    0    0  501 -0.00000000000E+00 -0.00000000000E+00 -0.17908472743E+03  0.17908472743E+03  0.00000000000E+00 0.  1.
          5    1    1    2  502    0  0.30377910688E+02  0.12630050532E+02 -0.16011130491E+01  0.33201981826E+02  0.41800000000E+01 0. -1.
         -5    1    1    2    0  502 -0.79078295363E+02 -0.91088951823E+02 -0.11923608835E+03  0.16966228546E+03  0.41800000000E+01 0.  1.
        -11    1    1    2    0    0  0.30413545525E+02 -0.43386283210E+01  0.12211468248E+03  0.12591982817E+03  0.00000000000E+00 0.  1.
         11    1    1    2    0    0  0.18286839149E+02  0.82797529612E+02  0.10190884971E+03  0.13257169021E+03  0.00000000000E+00 0. -1.
</event>
<event>
 7    1  0.4966153E-006  0.1548849E+03  0.7561462E-02  0.1194596E+00
          1   -1    0    0  501    0  0.00000000000E+00  0.00000000000E+00  0.13800809327E+03  0.13800809327E+03  0.00000000000E+00 0. -1.
         -1   -1    0    0    0  501 -0.00000000000E+00 -0.00000000000E+00 -0.22050947117E+03  0.22050947117E+03  0.00000000000E+00 0.  1.
         23    2    1    2    0    0  0.11525851919E+03 -0.39906185752E+02 -0.10219389241E+03  0.20240775463E+03  0.12509307568E+03 0.  0.
          5    1    3    3  502    0  0.10571520774E+03  0.11406910483E+02 -0.10562791321E+03  0.14993515666E+03  0.41800000000E+01 0.  1.
         -5    1    3    3    0  502  0.95433114472E+01 -0.51313096235E+02  0.34340208008E+01  0.52472597968E+02  0.41800000000E+01 0.  1.
        -11    1    1    2    0    0 -0.11589627376E+03  0.49135984600E+01  0.29636010886E+02  0.11972628309E+03  0.00000000000E+00 0.  1.
         11    1    1    2    0    0  0.63775457617E+00  0.34992587292E+02 -0.99434963650E+01  0.36383526715E+02  0.00000000000E+00 0. -1.
</event>
<event>
 7    1  0.4966153E-006  0.1135320E+03  0.7561462E-02  0.1254165E+00
          2   -1    0    0  501    0  0.00000000000E+00  0.00000000000E+00  0.90677377637E+03  0.90677377637E+03  0.00000000000E+00 0.  1.
         -2   -1    0    0    0  501 -0.00000000000E+00 -0.00000000000E+00 -0.21167417604E+02  0.21167417604E+02  0.00000000000E+00 0. -1.
         23    2    1    2    0    0 -0.33982694216E+00 -0.80928842300E+02  0.42809671268E+03  0.45328133672E+03  0.12509029463E+03 0.  0.
          5    1    3    3  502    0 -0.52732718555E+01 -0.94837934545E+02  0.42748521981E+03  0.43793050451E+03  0.41800000000E+01 0. -1.
         -5    1    3    3    0  502  0.49334449133E+01  0.13909092246E+02  0.61149286775E+00  0.15350832203E+02  0.41800000000E+01 0. -1.
        -11    1    1    2    0    0  0.40788399058E+02  0.25763681095E+02  0.28550059877E+03  0.28954801443E+03  0.00000000000E+00 0. -1.
         11    1    1    2    0    0 -0.40448572116E+02  0.55165161204E+02  0.17200904731E+03  0.18511184282E+03  0.00000000000E+00 0.  1.
</event>
<event>
 7    1  0.4966153E-006  0.1459964E+03  0.7561462E-02  0.1205481E+00
         -2   -1    0    0    0  501 -0.00000000000E+00  0.00000000000E+00  0.63189482765E+03  0.63189482765E+03  0.00000000000E+00 0. -1.
          2   -1    0    0  501    0  0.00000000000E+00 -0.00000000000E+00 -0.37054930442E+02  0.37054930442E+02  0.00000000000E+00 0.  1.
         23    2    1    2    0    0 -0.92993800394E+02  0.53928336189E+02  0.35161437399E+03  0.38837572476E+03  0.12508766218E+03 0.  0.
          5    1    3    3  502    0 -0.87447917602E+02  0.88707677919E+02  0.30732717628E+03  0.33163783875E+03  0.41800000000E+01 0. -1.
         -5    1    3    3    0  502 -0.55458827924E+01 -0.34779341730E+02  0.44287197711E+02  0.56737886004E+02  0.41800000000E+01 0. -1.
        -11    1    1    2    0    0  0.10622977162E+03 -0.52746207231E+02  0.17723258566E+03  0.21325645635E+03  0.00000000000E+00 0.  1.
         11    1    1    2    0    0 -0.13235971225E+02 -0.11821289581E+01  0.65992937563E+02  0.67317576986E+02  0.00000000000E+00 0. -1.
</event>
<event>
 7    1  0.4966153E-006  0.1053993E+03  0.7561462E-02  0.1269335E+00
          2   -1    0    0  501    0  0.00000000000E+00  0.00000000000E+00  0.39521345950E+03  0.39521345950E+03  0.00000000000E+00 0. -1.
         -2   -1    0    0    0  501 -0.00000000000E+00 -0.00000000000E+00 -0.80144994474E+02  0.80144994474E+02  0.00000000000E+00 0.  1.
         23    2    1    2    0    0 -0.33528546838E+02 -0.16223454882E+02 -0.15237584197E+02  0.13140523733E+03  0.12509112072E+03 0.  0.
          5    1    3    3  502    0 -0.80559442246E+00 -0.63869560894E+02  0.15422018629E+02  0.65842849648E+02  0.41800000000E+01 0. -1.
         -5    1    3    3    0  502 -0.32722952415E+02  0.47646106012E+02 -0.30659602827E+02  0.65562387680E+02  0.41800000000E+01 0. -1.
        -11    1    1    2    0    0  0.99352180382E+01 -0.32885223125E+02  0.19650310299E+03  0.19948337259E+03  0.00000000000E+00 0. -1.
         11    1    1    2    0    0  0.23593328799E+02  0.49108678007E+02  0.13380294623E+03  0.14446984405E+03  0.00000000000E+00 0.  1.
</event>
<event>
 7    1  0.4966153E-006  0.1950599E+03  0.7561462E-02  0.1153975E+00
          1   -1    0    0  501    0  0.00000000000E+00  0.00000000000E+00  0.11073005563E+04  0.11073005563E+04  0.00000000000E+00 0. -1.
         -1   -1    0    0    0  501 -0.00000000000E+00 -0.00000000000E+00 -0.44389703224E+02  0.44389703224E+02  0.00000000000E+00 0.  1.
         23    2    1    2    0    0 -0.16798625115E+03  0.11314887449E+02  0.31039760204E+03  0.37462204871E+03  0.12509037040E+03 0.  0.
          5    1    3    3  502    0 -0.11451591551E+03  0.60611371438E+02  0.14870472987E+03  0.19727696860E+03  0.41800000000E+01 0. -1.
         -5    1    3    3    0  502 -0.53470335641E+02 -0.49296483988E+02  0.16169287217E+03  0.17734508011E+03  0.41800000000E+01 0. -1.
        -11    1    1    2    0    0  0.68462354749E+02 -0.45731539170E+02  0.42958557116E+03  0.43740396733E+03  0.00000000000E+00 0. -1.
         11    1    1    2    0    0  0.99523896406E+02  0.34416651721E+02  0.32292767986E+03  0.33966424347E+03  0.00000000000E+00 0.  1.
</event>
<event>
 7    1  0.4966153E-006  0.8537672E+02  0.7561462E-02  0.1314450E+00
          1   -1    0    0  501    0  0.00000000000E+00  0.00000000000E+00  0.59885686447E+02  0.59885686447E+02  0.00000000000E+00 0. -1.
         -1   -1    0    0    0  501 -0.00000000000E+00 -0.00000000000E+00 -0.16903814440E+03  0.16903814440E+03  0.00000000000E+00 0.  1.
         23    2    1    2    0    0  0.26361734685E+02  0.25307061566E+02 -0.11306111020E+03  0.17252835776E+03  0.12509129134E+03 0.  0.
          5    1    3    3  502    0  0.68506249236E+02  0.30113897705E+02 -0.10522829824E+03  0.12919140904E+03  0.41800000000E+01 0.  1.
         -5    1    3    3    0  502 -0.42144514551E+02 -0.48068361398E+01 -0.78328119602E+01  0.43336948712E+02  0.41800000000E+01 0.  1.
        -11    1    1    2    0    0 -0.34825317006E+02 -0.10934971187E+02 -0.60053917934E+01  0.36992445581E+02  0.00000000000E+00 0.  1.
         11    1    1    2    0    0  0.84635823210E+01 -0.14372090378E+02  0.99140440397E+01  0.19403027515E+02  0.00000000000E+00 0. -1.
</event>
<event>
 7    1  0.4966153E-006  0.7522718E+02  0.7561462E-02  0.1343169E+00
         -1   -1    0    0    0  501 -0.00000000000E+00  0.00000000000E+00  0.26054416350E+03  0.26054416350E+03  0.00000000000E+00 0.  1.
          1   -1    0    0  501    0  0.00000000000E+00 -0.00000000000E+00 -0.55656650806E+02  0.55656650806E+02  0.00000000000E+00 0. -1.
         23    2    1    2    0    0  0.11532644353E+02  0.19327491773E+02  0.17559887989E+03  0.21677009973E+03  0.12509098966E+03 0.  0.
          5    1    3    3  502    0 -0.53936611160E+01  0.32737631449E+02 -0.58876188248E+01  0.33955567269E+02  0.41800000000E+01 0.  1.
         -5    1    3    3    0  502  0.16926305470E+02 -0.13410139676E+02  0.18148649872E+03  0.18281453246E+03  0.41800000000E+01 0.  1.
        -11    1    1    2    0    0 -0.52199049543E+02 -0.13671676355E+02  0.16347663950E+02  0.56381749035E+02  0.00000000000E+00 0. -1.
         11    1    1    2    0    0  0.40666405190E+02 -0.56558154176E+01  0.12940968851E+02  0.43048965538E+02  0.00000000000E+00 0.  1.
</event>
<event>
 7    1  0.4966153E-006  0.2596779E+03  0.7561462E-02  0.1107337E+00
          2   -1    0    0  501    0  0.00000000000E+00  0.00000000000E+00  0.12003342114E+04  0.12003342114E+04  0.00000000000E+00 0. -1.
         -2   -1    0    0    0  501 -0.00000000000E+00 -0.00000000000E+00 -0.63697501908E+02  0.63697501908E+02  0.00000000000E+00 0.  1.
         23    2    1    2    0    0 -0.21747844333E+03 -0.11747445875E+03  0.44006703225E+03  0.52000376290E+03  0.12509116193E+03 0.  0.
          5    1    3    3  502    0 -0.20126520045E+03 -0.13916313409E+03  0.35939822062E+03  0.43480870758E+03  0.41800000000E+01 0.  1.
         -5    1    3    3    0  502 -0.16213242876E+02  0.21688675337E+02  0.80668811627E+02  0.85195055324E+02  0.41800000000E+01 0.  1.
        -11    1    1    2    0    0  0.14752697164E+03  0.82329908522E+02  0.34886894948E+03  0.38762348370E+03  0.00000000000E+00 0.  1.
         11    1    1    2    0    0  0.69951471687E+02  0.35144550230E+02  0.34770072776E+03  0.35640446671E+03  0.00000000000E+00 0. -1.
</event>
<event>
 7    1  0.4966153E-006  0.1066345E+03  0.7561462E-02  0.1266932E+00
         -1   -1    0    0    0  501 -0.00000000000E+00  0.00000000000E+00  0.28415474223E+02  0.28415474223E+02  0.00000000000E+00 0.  1.
          1   -1    0    0  501    0  0.00000000000E+00 -0.00000000000E+00 -0.64556510042E+03  0.64556510042E+03  0.00000000000E+00 0. -1.
         23    2    1    2    0    0 -0.84556911395E+02  0.21475553107E+02 -0.29139858622E+03  0.32889572571E+03  0.12509273237E+03 0.  0.
          5    1    3    3  502    0 -0.34483056751E+02 -0.16376465759E+02 -0.25146801893E+03  0.25438338542E+03  0.41800000000E+01 0. -1.
         -5    1    3    3    0  502 -0.50073854644E+02  0.37852018866E+02 -0.39930567293E+02  0.74512340290E+02  0.41800000000E+01 0. -1.
        -11    1    1    2    0    0  0.17507082801E+02 -0.38918881668E+02 -0.15620881583E+03  0.16193323143E+03  0.00000000000E+00 0.  1.
         11    1    1    2    0    0  0.67049828593E+02  0.17443328561E+02 -0.16954222414E+03  0.18315161750E+03  0.00000000000E+00 0. -1.
</event>
<event>
 7    1  0.4966153E-006  0.1437335E+03  0.7561462E-02  0.1208392E+00
         -2   -1    0    0    0  501 -0.00000000000E+00  0.00000000000E+00  0.35487160246E+02  0.35487160246E+02  0.00000000000E+00 0.  1.
          2   -1    0    0  501    0  0.00000000000E+00 -0.00000000000E+00 -0.74639065289E+03  0.74639065289E+03  0.00000000000E+00 0. -1.
         23    2    1    2    0    0 -0.15231127238E+02 -0.11568381409E+03 -0.30352991527E+03  0.34841515769E+03  0.12509188850E+03 0.  0.
          5    1    3    3  502    0 -0.45976351212E+02 -0.42844057683E+01 -0.42411926329E+02  0.62836493366E+02  0.41800000000E+01 0. -1.
         -5    1    3    3    0  502  0.30745223973E+02 -0.11139940832E+03 -0.26111798894E+03  0.28557866433E+03  0.41800000000E+01 0. -1.
        -11    1    1    2    0    0 -0.15238830031E+02  0.60879088843E+02 -0.88565779153E+02  0.10854668413E+03  0.00000000000E+00 0.  1.
         11    1    1    2    0    0  0.30469957269E+02  0.54804725248E+02 -0.31880779823E+03  0.32491597132E+03  0.00000000000E+00 0. -1.
</event>
<event>
 7    1  0.4966153E-006  0.1087620E+03  0.7561462E-02  0.1262880E+00
          1   -1    0    0  501    0  0.00000000000E+00  0.00000000000E+00  0.60364547487E+02  0.60364547487E+02  0.00000000000E+00 0. -1.
         -1   -1    0    0    0  501 -0.00000000000E+00 -0.00000000000E+00 -0.33085882228E+03  0.33085882228E+03  0.00000000000E+00 0.  1.
         23    2    1    2    0    0  0.60895869927E+02 -0.50234460609E+02 -0.22115887753E+03  0.26606384846E+03  0.12508762665E+03 0.  0.
          5    1    3    3  502    0  0.77883905126E+02 -0.38203538394E+02 -0.65029963718E+02  0.10849784148E+03  0.41800000000E+01 0.  1.
         -5    1    3    3    0  502 -0.16988035200E+02 -0.12030922215E+02 -0.15612891382E+03  0.15756600699E+03  0.41800000000E+01 0.  1.
        -11    1    1    2    0    0 -0.26678765316E+02  0.66428882980E+02 -0.49964543390E+02  0.87298388352E+02  0.00000000000E+00 0.  1.
         11    1    1    2    0    0 -0.34217104611E+02 -0.16194422371E+02  0.62914612577E+00  0.37861132956E+02  0.00000000000E+00 0. -1.
</event>
<event>
 7    1  0.4966153E-006  0.1277194E+03  0.7561462E-02  0.1230880E+00
          1   -1    0    0  501    0  0.00000000000E+00  0.00000000000E+00  0.29212490206E+03  0.29212490206E+03  0.00000000000E+00 0.  1.
         -1   -1    0    0    0  501 -0.00000000000E+00 -0.00000000000E+00 -0.56987591711E+02  0.56987591711E+02  0.00000000000E+00 0. -1.
         23    2    1    2    0    0 -0.61588765201E+02  0.34810319514E+02  0.13576947356E+03  0.19770022263E+03  0.12508834371E+03 0.  0.
          5    1    3    3  502    0 -0.91552196850E+02 -0.50206850846E+01  0.10270351170E+03  0.13774068296E+03  0.41800000000E+01 0. -1.
         -5    1    3    3    0  502  0.29963431649E+02  0.39831004598E+02  0.33065961855E+02  0.59959539666E+02  0.41800000000E+01 0. -1.
        -11    1    1    2    0    0  0.44151697263E+02  0.25410208359E+02  0.36839822007E+02  0.62866712540E+02  0.00000000000E+00 0. -1.
         11    1    1    2    0    0  0.17437067938E+02 -0.60220527873E+02  0.62528014783E+02  0.88545558603E+02  0.00000000000E+00 0.  1.
</event>
<event>
 6    1  0.4966153E-006  0.1437112E+03  0.7561462E-02  0.1208421E+00
          2   -1    0    0  501    0  0.00000000000E+00  0.00000000000E+00  0.19122230882E+03  0.19122230882E+03  0.00000000000E+00 0. -1.
         -2   -1    0    0    0  501 -0.00000000000E+00 -0.00000000000E+00 -0.11316721521E+03  0.11316721521E+03  0.00000000000E+00 0.  1.
          5    1    1    2  502    0 -0.58437263977E+02  0.80966574993E+02  0.24399519342E+02  0.10287521097E+03  0.41800000000E+01 0. -1.
         -5    1    1    2    0  502  0.79443150527E+02 -0.31889820405E+02  0.58935380893E+01  0.85909143881E+02  0.41800000000E+01 0.  1.
        -11    1    1    2    0    0 -0.10573783637E+01 -0.71646215908E+02  0.46573596564E+02  0.85459921600E+02  0.00000000000E+00 0. -1.
         11    1    1    2    0    0 -0.19948508187E+02  0.22569461320E+02  0.11884396165E+01  0.30145247584E+02  0.00000000000E+00 0.  1.
</event>
<event>
 7    1  0.4966153E-006  0.1149975E+03  0.7561462E-02  0.1251585E+00
          1   -1    0    0  501    0  0.00000000000E+00  0.00000000000E+00  0.31321269071E+02  0.31321269071E+02  0.00000000000E+00 0. -1.
         -1   -1    0    0    0  501 -0.00000000000E+00 -0.00000000000E+00 -0.47061692032E+03  0.47061692032E+03  0.00000000000E+00 0.  1.
         23    2    1    2    0    0  0.47976680577E+02 -0.27639731437E+02 -0.24247921130E+03  0.27840367111E+03  0.12508684800E+03 0.  0.
          5    1    3    3  502    0  0.36525262262E+02 -0.70972721888E+02 -0.94710371999E+02  0.12393041999E+03  0.41800000000E+01 0.  1.
         -5    1    3    3    0  502  0.11451418315E+02  0.43332990451E+02 -0.14776883930E+03  0.15447325112E+03  0.41800000000E+01 0.  1.
        -11    1    1    2    0    0  0.36754379512E+01 -0.28516339789E+02 -0.41469832770E+02  0.50462238447E+02  0.00000000000E+00 0.  1.
         11    1    1    2    0    0 -0.51652118528E+02  0.56156071227E+02 -0.15534660718E+03  0.17307227983E+03  0.00000000000E+00 0. -1.
</event>
<event>
 7    1  0.4966153E-006  0.1057602E+03  0.7561462E-02  0.1268629E+00
         -1   -1    0    0    0  501 -0.00000000000E+00  0.00000000000E+00  0.25116420866E+02  0.25116420866E+02  0.00000000000E+00 0. -1.
          1   -1    0    0  501    0  0.00000000000E+00 -0.00000000000E+00 -0.56356200024E+03  0.56356200024E+03  0.00000000000E+00 0.  1.
         23    2    1    2    0    0  0.47500804251E+02  0.46246261024E+00 -0.28103590104E+03  0.31126354551E+03  0.12508907552E+03 0.  0.
          5    1    3    3  502    0 -0.68392613682E+01  0.51842284638E+02 -0.71038912502E+02  0.88308535612E+02  0.41800000000E+01 0. -1.
         -5    1    3    3    0  502  0.54340065619E+02 -0.51379822027E+02 -0.20999698853E+03  0.22295500989E+03  0.41800000000E+01 0. -1.
        -11    1    1    2    0    0 -0.38948612269E+02 -0.32670609840E+02 -0.22591011109E+03  0.23155936915E+03  0.00000000000E+00 0.  1.
         11    1    1    2    0    0 -0.85521919817E+01  0.32208147229E+02 -0.31499567244E+02  0.45855506455E+02  0.00000000000E+00 0. -1.
</event>
<event>
 7    1  0.4966153E-006  0.7762758E+02  0.7561462E-02  0.1335922E+00
          3   -1    0    0  501    0  0.00000000000E+00  0.00000000000E+00  0.15032038190E+03  0.15032038190E+03  0.00000000000E+00 0. -1.
         -3   -1    0    0    0  501 -0.00000000000E+00 -0.00000000000E+00 -0.11166527701E+03  0.11166527701E+03  0.00000000000E+00 0.  1.
         23    2    1    2    0    0  0.43419824472E+01 -0.38383591694E+01 -0.50436289536E+02  0.13499921594E+03  0.12508950072E+03 0.  0.
          5    1    3    3  502    0 -0.51290282132E+01 -0.56746620139E+02 -0.56983866354E+02  0.80691506692E+02  0.41800000000E+01 0. -1.
         -5    1    3    3    0  502  0.94710106604E+01  0.52908260969E+02  0.65475768181E+01  0.54307709249E+02  0.41800000000E+01 0. -1.
        -11    1    1    2    0    0 -0.19040923235E+02  0.16205141301E+02  0.10122412532E+03  0.10426642273E+03  0.00000000000E+00 0. -1.
         11    1    1    2    0    0  0.14698940787E+02 -0.12366782131E+02 -0.12132730893E+02  0.22720020235E+02  0.00000000000E+00 0.  1.
</event>
<event>
 7    1  0.4966153E-006  0.1242856E+03  0.7561462E-02  0.1236190E+00
         -2   -1    0    0    0  501 -0.00000000000E+00  0.00000000000E+00  0.25686330739E+03  0.25686330739E+03  0.00000000000E+00 0.  1.
          2   -1    0    0  501    0  0.00000000000E+00 -0.00000000000E+00 -0.76337685459E+02  0.76337685459E+02  0.00000000000E+00 0. -1.
         23    2    1    2    0    0  0.36522303625E+02  0.47715448838E+02  0.16944315820E+03  0.21901688076E+03  0.12508703961E+03 0.  0.
          5    1    3    3  502    0  0.81197269686E+02  0.28866342024E+02  0.82469142004E+02  0.11935197564E+03  0.41800000000E+01 0.  1.
         -5    1    3    3    0  502 -0.44674966061E+02  0.18849106813E+02  0.86974016195E+02  0.99664905123E+02  0.41800000000E+01 0.  1.
        -11    1    1    2    0    0 -0.66393112680E+02 -0.50796752297E+02  0.72242138798E+01  0.83907953863E+02  0.00000000000E+00 0. -1.
         11    1    1    2    0    0  0.29870809055E+02  0.30813034597E+01  0.38582498478E+01  0.30276158219E+02  0.00000000000E+00 0.  1.
</event>
<event>
 7    1  0.4966153E-006  0.1219944E+03  0.7561462E-02  0.1239843E+00
         -1   -1    0    0    0  501 -0.00000000000E+00  0.00000000000E+00  0.24880366225E+03  0.24880366225E+03  0.00000000000E+00 0.  1.
          1   -1    0    0  501    0  0.00000000000E+00 -0.00000000000E+00 -0.11120753145E+03  0.11120753145E+03  0.00000000000E+00 0. -1.
         23    2    1    2    0    0 -0.10275048849E+03 -0.91473789585E+01  0.14726427832E+03  0.21903659604E+03  0.12509566463E+03 0.  0.
          5    1    3    3  502    0 -0.73992095793E+01  0.18253994490E+02 -0.17490809397E+02  0.26671284757E+02  0.41800000000E+01 0. -1.
         -5    1    3    3    0  502 -0.95351278914E+02 -0.27401373449E+02  0.16475508772E+03  0.19236531129E+03  0.41800000000E+01 0. -1.
        -11    1    1    2    0    0  0.63246882777E+02  0.39648279668E+02 -0.37812522784E+02  0.83677602385E+02  0.00000000000E+00 0.  1.
         11    1    1    2    0    0  0.39503605716E+02 -0.30500900709E+02  0.28144375260E+02  0.57296995274E+02  0.00000000000E+00 0. -1.
</event>
<event>
 7    1  0.4966153E-006  0.1161846E+03  0.7561462E-02  0.1249527E+00
         -2   -1    0    0    0  501 -0.00000000000E+00  0.00000000000E+00  0.18793942762E+02  0.18793942762E+02  0.00000000000E+00 0.  1.
          2   -1    0    0  501    0  0.00000000000E+00 -0.00000000000E+00 -0.79207009541E+03  0.79207009541E+03  0.00000000000E+00 0. -1.
         23    2    1    2    0    0 -0.38714395066E+02 -0.41639126234E+02 -0.42976009698E+03  0.45119163710E+03  0.12509009238E+03 0.  0.
          5    1    3    3  502    0 -0.45959647140E+02  0.29226235330E+02 -0.28027316309E+03  0.28554680938E+03  0.41800000000E+01 0. -1.
         -5    1    3    3    0  502  0.72452520743E+01 -0.70865361564E+02 -0.14948693389E+03  0.16564482772E+03  0.41800000000E+01 0. -1.
        -11    1    1    2    0    0  0.19330821358E+02 -0.28042168449E+02 -0.99898566433E+02  0.10554509672E+03  0.00000000000E+00 0. -1.
         11    1    1    2    0    0  0.19383573708E+02  0.69681294683E+02 -0.24361748924E+03  0.25412730436E+03  0.00000000000E+00 0.  1.
</event>
<event>
 6    1  0.4966153E-006  0.1232115E+03  0.7561462E-02  0.1237891E+00
          2   -1    0    0  501    0  0.00000000000E+00  0.00000000000E+00  0.49594239205E+03  0.49594239205E+03  0.00000000000E+00 0. -1.
         -2   -1    0    0    0  501 -0.00000000000E+00 -0.00000000000E+00 -0.64504542900E+02  0.64504542900E+02  0.00000000000E+00 0.  1.
          5    1    1    2  502    0  0.55131733405E+02  0.56856603891E+02  0.23694789257E+02  0.82771352969E+02  0.41800000000E+01 0. -1.
         -5    1    1    2    0  502 -0.17790097086E+02 -0.66268100963E+02  0.12315926562E+02  0.69836259970E+02  0.41800000000E+01 0.  1.
        -11    1    1    2    0    0 -0.29453512605E+02 -0.39252939915E+02  0.23222214417E+03  0.23735085199E+03  0.00000000000E+00 0.  1.
         11    1    1    2    0    0 -0.78881237142E+01  0.48664436988E+02  0.16320498916E+03  0.17048847002E+03  0.00000000000E+00 0. -1.
</event>
<event>
 7    1  0.4966153E-006  0.1336042E+03  0.7561462E-02  0.1222204E+00
         -3   -1    0    0    0  501 -0.00000000000E+00  0.00000000000E+00  0.19754434310E+03  0.19754434310E+03  0.00000000000E+00 0.  1.
          3   -1    0    0  501    0  0.00000000000E+00 -0.00000000000E+00 -0.11544516688E+03  0.11544516688E+03  0.00000000000E+00 0. -1.
         23    2    1    2    0    0 -0.69737055159E+02 -0.72223485218E+02  0.49832864854E+02  0.16796058781E+03  0.12509179013E+03 0.  0.
          5    1    3    3  502    0  0.35086341510E+02 -0.88109441180E+01  0.23147894918E+01  0.36489926654E+02  0.41800000000E+01 0.  1.
         -5    1    3    3    0  502 -0.10482339667E+03 -0.63412541100E+02  0.47518075363E+02  0.13147066115E+03  0.41800000000E+01 0.  1.
        -11    1    1    2    0    0  0.67818381228E+02  0.46072840094E+02  0.63894634522E+02  0.10394500348E+03  0.00000000000E+00 0. -1.
         11    1    1    2    0    0  0.19186739306E+01  0.26150645124E+02 -0.31628323151E+02  0.41083918695E+02  0.00000000000E+00 0.  1.
</event>
<event>
 7    1  0.4966153E-006  0.1317505E+03  0.7561462E-02  0.1224881E+00
         -2   -1    0    0    0  501 -0.00000000000E+00  0.00000000000E+00  0.18752193279E+03  0.18752193279E+03  0.00000000000E+00 0.  1.
          2   -1    0    0  501    0  0.00000000000E+00 -0.00000000000E+00 -0.14659625577E+03  0.14659625577E+03  0.00000000000E+00 0. -1.
         23    2    1    2    0    0 -0.11274091793E+03  0.39987873274E+02  0.74474810161E+02  0.17969641649E+03  0.11151125578E+03 0.  0.
          5    1    3    3  502    0 -0.27696921832E+02  0.25239962798E+02 -0.27027880107E+02  0.46391312808E+02  0.41800000000E+01 0. -1.
         -5    1    3    3    0  502 -0.85043996102E+02  0.14747910477E+02  0.10150269027E+03  0.13330510368E+03  0.41800000000E+01 0.  1.
        -11    1    1    2    0    0 -0.95325399617E+01 -0.92967532137E+01  0.14337392876E+02  0.19566802828E+02  0.00000000000E+00 0.  1.
         11    1    1    2    0    0  0.12227345790E+03 -0.30691120060E+02 -0.47886526014E+02  0.13485496925E+03  0.00000000000E+00 0. -1.
</event>
<event>
 7    1  0.4966153E-006  0.1050613E+03  0.7561462E-02  0.1269999E+00
         -1   -1    0    0    0  501 -0.00000000000E+00  0.00000000000E+00  0.72575683727E+02  0.72575683727E+02  0.00000000000E+00 0.  1.
          1   -1    0    0  501    0  0.00000000000E+00 -0.00000000000E+00 -0.30710573346E+03  0.30710573346E+03  0.00000000000E+00 0. -1.
         23    2    1    2    0    0  0.24905958375E+02  0.52997775563E+02 -0.20412760534E+02  0.13961779842E+03  0.12508947944E+03 0.  0.
          5    1    3    3  502    0  0.61577179628E+02  0.21982212589E+02 -0.50560435943E+02  0.82757457694E+02  0.41800000000E+01 0. -1.
         -5    1    3    3    0  502 -0.36671221253E+02  0.31015562974E+02  0.30147675409E+02  0.56860340725E+02  0.41800000000E+01 0. -1.
        -11    1    1    2    0    0  0.18640414832E+02 -0.49283873979E+02 -0.59918653179E+02  0.79791041466E+02  0.00000000000E+00 0.  1.
         11    1    1    2    0    0 -0.43546373207E+02 -0.37139015840E+01 -0.15419863602E+03  0.16027257730E+03  0.00000000000E+00 0. -1.
</event>
<event>
 7    1  0.4966153E-006  0.1472026E+03  0.7561462E-02  0.1203953E+00
          2   -1    0    0  501    0  0.00000000000E+00  0.00000000000E+00  0.11368055260E+03  0.11368055260E+03  0.00000000000E+00 0. -1.
         -2   -1    0    0    0  501 -0.00000000000E+00 -0.00000000000E+00 -0.22528661626E+03  0.22528661626E+03  0.00000000000E+00 0.  1.
         23    2    1    2    0    0  0.10854269219E+03 -0.50765963390E+02 -0.42977970689E+02  0.17848876065E+03  0.12510968247E+03 0.  0.
          5    1    3    3  502    0  0.85083835220E+02 -0.91450173933E+02 -0.22074029518E+02  0.12691386255E+03  0.41800000000E+01 0.  1.
         -5    1    3    3    0  502  0.23458856972E+02  0.40684210543E+02 -0.20903941171E+02  0.51574898104E+02  0.41800000000E+01 0.  1.
        -11    1    1    2    0    0 -0.13093698895E+02 -0.19500433641E+01 -0.47630751062E+02  0.49436181756E+02  0.00000000000E+00 0.  1.
         11    1    1    2    0    0 -0.95448993297E+02  0.52716006754E+02 -0.20997341908E+02  0.11104222646E+03  0.00000000000E+00 0. -1.
</event>
<event>
 7    1  0.4966153E-006  0.1280330E+03  0.7561462E-02  0.1230404E+00
         -2   -1    0    0    0  501 -0.00000000000E+00  0.00000000000E+00  0.31866547729E+02  0.31866547729E+02  0.00000000000E+00 0.  1.
          2   -1    0    0  501    0  0.00000000000E+00 -0.00000000000E+00 -0.62826724432E+03  0.62826724432E+03  0.00000000000E+00 0. -1.
         23    2    1    2    0    0  0.69377025900E+02  0.27702797983E+02 -0.21108777599E+03  0.25648675979E+03  0.12508713776E+03 0.  0.
          5    1    3    3  502    0 -0.30318771792E+02 -0.45256313552E+01 -0.15593731705E+02  0.34646011757E+02  0.41800000000E+01 0.  1.
         -5    1    3    3    0  502  0.99695797692E+02  0.32228429339E+02 -0.19549404429E+03  0.22184074803E+03  0.41800000000E+01 0.  1.
        -11    1    1    2    0    0 -0.29532381449E+02  0.35113397815E+02 -0.14788061826E+03  0.15483471677E+03  0.00000000000E+00 0. -1.
         11    1    1    2    0    0 -0.39844644451E+02 -0.62816195798E+02 -0.23743230233E+03  0.24881231549E+03  0.00000000000E+00 0.  1.
</event>
<event>
 7    1  0.4966153E-006  0.8628919E+02  0.7561462E-02  0.1312095E+00
         -2   -1    0    0    0  501 -0.00000000000E+00  0.00000000000E+00  0.31372519837E+02  0.31372519837E+02  0.00000000000E+00 0.  1.
          2   -1    0    0  501    0  0.00000000000E+00 -0.00000000000E+00 -0.53648980250E+03  0.53648980250E+03  0.00000000000E+00 0. -1.
         23    2    1    2    0    0  0.65147842834E+02  0.17527395646E+02 -0.19528800835E+03  0.24152927311E+03  0.12509009768E+03 0.  0.
          5    1    3    3  502    0  0.65921804990E+02  0.17416452246E+02 -0.27423196302E+02  0.73610605740E+02  0.41800000000E+01 0. -1.
         -5    1    3    3    0  502 -0.77396215599E+00  0.11094339976E+00 -0.16786481205E+03  0.16791866737E+03  0.41800000000E+01 0. -1.
        -11    1    1    2    0    0 -0.50225533599E+01  0.25556983901E+02 -0.11554929819E+03  0.11844840979E+03  0.00000000000E+00 0.  1.
         11    1    1    2    0    0 -0.60125289474E+02 -0.43084379547E+02 -0.19427997612E+03  0.20788463944E+03  0.00000000000E+00 0. -1.
</event>
<event>
 7    1  0.4966153E-006  0.9773755E+02  0.7561462E-02  0.1285127E+00
          2   -1    0    0  501    0  0.00000000000E+00  0.00000000000E+00  0.41616501746E+03  0.41616501746E+03  0.00000000000E+00 0. -1.
         -2   -1    0    0    0  501 -0.00000000000E+00 -0.00000000000E+00 -0.36548952941E+02  0.36548952941E+02  0.00000000000E+00 0.  1.
         23    2    1    2    0    0  0.35076815442E+02 -0.48281471622E+02  0.21238399658E+03  0.25360465691E+03  0.12508747546E+03 0.  0.
          5    1    3    3  502    0  0.64333489965E+02 -0.36486661263E+02  0.20883809125E+03  0.22158721791E+03  0.41800000000E+01 0.  1.
         -5    1    3    3    0  502 -0.29256674523E+02 -0.11794810360E+02  0.35459053300E+01  0.32017439001E+02  0.41800000000E+01 0.  1.
        -11    1    1    2    0    0 -0.44099478657E+02  0.38823759503E+01  0.13863658745E+03  0.14553329598E+03  0.00000000000E+00 0. -1.
         11    1    1    2    0    0  0.90226632150E+01  0.44399095672E+02  0.28595480490E+02  0.53576017512E+02  0.00000000000E+00 0.  1.
</event>
<event>
 7    1  0.4966153E-006  0.6320699E+02  0.7561462E-02  0.1384846E+00
         -2   -1    0    0    0  501 -0.00000000000E+00  0.00000000000E+00  0.32132622393E+02  0.32132622393E+02  0.00000000000E+00 0.  1.
          2   -1    0    0  501    0  0.00000000000E+00 -0.00000000000E+00 -0.31849966836E+03  0.31849966836E+03  0.00000000000E+00 0. -1.
         23    2    1    2    0    0 -0.25896736561E+02 -0.16053848863E+02 -0.16127561120E+03  0.20636344718E+03  0.12509069725E+03 0.  0.
          5    1    3    3  502    0 -0.47827006092E+02 -0.19222673777E+02 -0.17327009248E+03  0.18082292733E+03  0.41800000000E+01 0. -1.
         -5    1    3    3    0  502  0.21930269531E+02  0.31688249142E+01  0.11994481285E+02  0.25540519852E+02  0.41800000000E+01 0. -1.
        -11    1    1    2    0    0 -0.69053350825E+01 -0.86631340441E+01  0.15015547847E+01  0.11179812648E+02  0.00000000000E+00 0.  1.
         11    1    1    2    0    0  0.32802071643E+02  0.24716982907E+02 -0.12659298955E+03  0.13308903092E+03  0.00000000000E+00 0. -1.
</event>
<event>
 7    1  0.4966153E-006  0.1406564E+03  0.7561462E-02  0.1212448E+00
         -2   -1    0    0    0  501 -0.00000000000E+00  0.00000000000E+00  0.24015723007E+03  0.24015723007E+03  0.00000000000E+00 0.  1.
          2   -1    0    0  501    0  0.00000000000E+00 -0.00000000000E+00 -0.12571997301E+03  0.12571997301E+03  0.00000000000E+00 0. -1.
         23    2    1    2    0    0  0.10849637490E+03 -0.59351956230E+02  0.12021930122E+03  0.21306171810E+03  0.12509395373E+03 0.  0.
          5    1    3    3  502    0  0.11433094770E+03 -0.51038110815E+02  0.14157727522E+03  0.18904510471E+03  0.41800000000E+01 0. -1.
         -5    1    3    3    0  502 -0.58345727961E+01 -0.83138454145E+01 -0.21357973999E+02  0.24016613388E+02  0.41800000000E+01 0. -1.
        -11    1    1    2    0    0 -0.85080425256E+02  0.42540141841E+01  0.20206900385E+02  0.87550523822E+02  0.00000000000E+00 0.  1.
         11    1    1    2    0    0 -0.23415949644E+02  0.55097942046E+02 -0.25988944557E+02  0.65264961155E+02  0.00000000000E+00 0. -1.
</event>
<event>
 7    1  0.4966153E-006  0.1301252E+03  0.7561462E-02  0.1227270E+00
          2   -1    0    0  501    0  0.00000000000E+00  0.00000000000E+00  0.40279371382E+03  0.40279371382E+03  0.00000000000E+00 0. -1.
         -2   -1    0    0    0  501 -0.00000000000E+00 -0.00000000000E+00 -0.59203245923E+02  0.59203245923E+02  0.00000000000E+00 0.  1.
         23    2    1    2    0    0 -0.92928509703E+02  0.21172619322E+02  0.10906474580E+03  0.19137985598E+03  0.12508853974E+03 0.  0.
          5    1    3    3  502    0 -0.93937890924E+02  0.48352499692E+02  0.33427759297E+02  0.11089264660E+03  0.41800000000E+01 0. -1.
         -5    1    3    3    0  502  0.10093812214E+01 -0.27179880370E+02  0.75636986506E+02  0.80487209388E+02  0.41800000000E+01 0. -1.
        -11    1    1    2    0    0  0.54511771704E+01 -0.37598756140E+02  0.11813911033E+03  0.12409766793E+03  0.00000000000E+00 0. -1.
         11    1    1    2    0    0  0.87477332532E+02  0.16426136818E+02  0.11638661176E+03  0.14651943583E+03  0.00000000000E+00 0.  1.
</event>
<event>
 7    1  0.4966153E-006  0.1123820E+03  0.7561462E-02  0.1256221E+00
          2   -1    0    0  501    0  0.00000000000E+00  0.00000000000E+00  0.95735791796E+02  0.95735791796E+02  0.00000000000E+00 0. -1.
         -2   -1    0    0    0  501 -0.00000000000E+00 -0.00000000000E+00 -0.44066882515E+03  0.44066882515E+03  0.00000000000E+00 0.  1.
         23    2    1    2    0    0 -0.54307366883E+02  0.78470829060E+02 -0.36899331280E+03  0.40113418296E+03  0.12508239977E+03 0.  0.
          5    1    3    3  502    0 -0.17107430548E+02  0.41047703936E+02 -0.21389562179E+02  0.49523367702E+02  0.41800000000E+01 0.  1.
         -5    1    3    3    0  502 -0.37199936335E+02  0.37423125124E+02 -0.34760375062E+03  0.35161081525E+03  0.41800000000E+01 0.  1.
        -11    1    1    2    0    0  0.55165918944E+02 -0.69065870916E+01 -0.91956094341E+01  0.56351919142E+02  0.00000000000E+00 0.  1.
         11    1    1    2    0    0 -0.85855206066E+00 -0.71564241968E+02  0.33255888883E+02  0.78918514846E+02  0.00000000000E+00 0. -1.
</event>
<event>
 7    1  0.4966153E-006  0.3058417E+03  0.7561462E-02  0.1082356E+00
          1   -1    0    0  501    0  0.00000000000E+00  0.00000000000E+00  0.10578514837E+04  0.10578514837E+04  0.00000000000E+00 0. -1.
         -1   -1    0    0    0  501 -0.00000000000E+00 -0.00000000000E+00 -0.90050856260E+02  0.90050856260E+02  0.00000000000E+00 0.  1.
         23    2    1    2    0    0  0.10242209892E+03 -0.26809811862E+03  0.43991619628E+03  0.53994622967E+03  0.12509509834E+03 0.  0.
          5    1    3    3  502    0  0.47961566300E+02 -0.25063889808E+03  0.34681204073E+03  0.43059985261E+03  0.41800000000E+01 0.  1.
         -5    1    3    3    0  502  0.54460532622E+02 -0.17459220540E+02  0.93104155552E+02  0.10934637706E+03  0.41800000000E+01 0.  1.
        -11    1    1    2    0    0 -0.49198792484E+01  0.12987239894E+03  0.26832308435E+03  0.29814144766E+03  0.00000000000E+00 0. -1.
         11    1    1    2    0    0 -0.97502219673E+02  0.13822571967E+03  0.25956134677E+03  0.30981466260E+03  0.00000000000E+00 0.  1.
</event>
<event>
 7    1  0.4966153E-006  0.1023490E+03  0.7561462E-02  0.1275433E+00
          2   -1    0    0  501    0  0.00000000000E+00  0.00000000000E+00  0.30940256082E+03  0.30940256082E+03  0.00000000000E+00 0.  1.
         -2   -1    0    0    0  501 -0.00000000000E+00 -0.00000000000E+00 -0.93050100093E+02  0.93050100093E+02  0.00000000000E+00 0. -1.
         23    2    1    2    0    0 -0.86918541513E+02 -0.15375149619E+02  0.17393899896E+01  0.15308338159E+03  0.12506105771E+03 0.  0.
          5    1    3    3  502    0 -0.75027220405E+02 -0.29789438521E+02 -0.51946183546E+02  0.96085237337E+02  0.41800000000E+01 0.  1.
         -5    1    3    3    0  502 -0.11891321108E+02  0.14414288902E+02  0.53685573535E+02  0.56998144251E+02  0.41800000000E+01 0.  1.
        -11    1    1    2    0    0  0.51170538651E+02 -0.19514085109E+02  0.18114367153E+03  0.18924125681E+03  0.00000000000E+00 0.  1.
         11    1    1    2    0    0  0.35748002862E+02  0.34889234728E+02  0.33469399210E+02  0.60128022519E+02  0.00000000000E+00 0. -1.
</event>
<event>
 6    1  0.4966153E-006  0.1642790E+03  0.7561462E-02  0.1183949E+00
         -2   -1    0    0    0  501 -0.00000000000E+00  0.00000000000E+00  0.11450440216E+03  0.11450440216E+03  0.00000000000E+00 0.  1.
          2   -1    0    0  501    0  0.00000000000E+00 -0.00000000000E+00 -0.50122321089E+03  0.50122321089E+03  0.00000000000E+00 0. -1.
          5    1    1    2  502    0  0.58686125237E+01  0.22035039913E+02  0.15910130078E+02  0.28117400947E+02  0.41800000000E+01 0. -1.
         -5    1    1    2    0  502 -0.60401926835E+02 -0.14811257549E+03 -0.15250454547E+02  0.16073511299E+03  0.41800000000E+01 0.  1.
        -11    1    1    2    0    0  0.15187293940E+01  0.62782577484E+02 -0.52155587437E+02  0.81634330251E+02  0.00000000000E+00 0.  1.
         11    1    1    2    0    0  0.53014584917E+02  0.63294958094E+02 -0.33522289682E+03  0.34524076886E+03  0.00000000000E+00 0. -1.
</event>
<event>
 6    1  0.4966153E-006  0.7804437E+02  0.7561462E-02  0.1334695E+00
         -2   -1    0    0    0  501 -0.00000000000E+00  0.00000000000E+00  0.38775714364E+02  0.38775714364E+02  0.00000000000E+00 0.  1.
          2   -1    0    0  501    0  0.00000000000E+00 -0.00000000000E+00 -0.34222408825E+03  0.34222408825E+03  0.00000000000E+00 0. -1.
          5    1    1    2  502    0 -0.30835105332E+02 -0.11634400177E+02 -0.17112033795E+03  0.17431524732E+03  0.41800000000E+01 0. -1.
         -5    1    1    2    0  502  0.30849200006E+02  0.15916181003E+02  0.10378556558E+02  0.36471698548E+02  0.41800000000E+01 0.  1.
        -11    1    1    2    0    0  0.43840285634E+02 -0.42881163456E+01 -0.98710480870E+02  0.10809309700E+03  0.00000000000E+00 0.  1.
         11    1    1    2    0    0 -0.43854380309E+02  0.63355194653E-02 -0.43996111623E+02  0.62119759741E+02  0.00000000000E+00 0. -1.
</event>
<event>
 7    1  0.4966153E-006  0.1557697E+03  0.7561462E-02  0.1193557E+00
          1   -1    0    0  501    0  0.00000000000E+00  0.00000000000E+00  0.17890800415E+04  0.17890800415E+04  0.00000000000E+00 0. -1.
         -1   -1    0    0    0  501 -0.00000000000E+00 -0.00000000000E+00 -0.14110443029E+02  0.14110443029E+02  0.00000000000E+00 0.  1.
         23    2    1    2    0    0  0.92717001596E+02  0.67797150471E+02  0.10296021432E+04  0.10435139418E+04  0.12509147697E+03 0.  0.
          5    1    3    3  502    0  0.12143597747E+03  0.44042196911E+02  0.70463495589E+03  0.71638977184E+03  0.41800000000E+01 0.  1.
         -5    1    3    3    0  502 -0.28718975878E+02  0.23754953560E+02  0.32496718728E+03  0.32712417000E+03  0.41800000000E+01 0.  1.
        -11    1    1    2    0    0 -0.85236439176E+02 -0.88444102085E+02  0.67035980203E+03  0.68152026671E+03  0.00000000000E+00 0. -1.
         11    1    1    2    0    0 -0.74805624199E+01  0.20646951614E+02  0.75007653286E+02  0.78156275989E+02  0.00000000000E+00 0.  1.
</event>
<event>
 7    1  0.4966153E-006  0.1327828E+03  0.7561462E-02  0.1223384E+00
         -2   -1    0    0    0  501 -0.00000000000E+00  0.00000000000E+00  0.24334463368E+03  0.24334463368E+03  0.00000000000E+00 0. -1.
          2   -1    0    0  501    0  0.00000000000E+00 -0.00000000000E+00 -0.11983848009E+03  0.11983848009E+03  0.00000000000E+00 0.  1.
         23    2    1    2    0    0 -0.11784864749E+03 -0.48723406265E+02  0.30305309884E+02  0.18118073817E+03  0.12508306858E+03 0.  0.
          5    1    3    3  502    0 -0.41208921535E+02 -0.44153806570E+02 -0.43541311022E+02  0.74572461500E+02  0.41800000000E+01 0. -1.
         -5    1    3    3    0  502 -0.76639725955E+02 -0.45695996955E+01  0.73846620906E+02  0.10660827667E+03  0.41800000000E+01 0. -1.
        -11    1    1    2    0    0  0.37223885948E+02  0.91997363905E+01 -0.15196680052E+02  0.41245507868E+02  0.00000000000E+00 0.  1.
         11    1    1    2    0    0  0.80624761543E+02  0.39523669875E+02  0.10839752376E+03  0.14075686773E+03  0.00000000000E+00 0. -1.
</event>
<event>
 7    1  0.4990567E-006  0.1519669E+03  0.7561462E-02  0.1198077E+00
         -2   -1    0    0    0  501 -0.00000000000E+00  0.00000000000E+00  0.32801373907E+02  0.32801373907E+02  0.00000000000E+00 0. -1.
          2   -1    0    0  501    0  0.00000000000E+00 -0.00000000000E+00 -0.84700786392E+03  0.84700786392E+03  0.00000000000E+00 0.  1.
         23    2    1    2    0    0 -0.79463345035E+02 -0.93542737352E+02 -0.35227581936E+03  0.39345896700E+03  0.12508812448E+03 0.  0.
          5    1    3    3  502    0 -0.92276767881E+02 -0.10729922929E+03 -0.34491227604E+03  0.37284055179E+03  0.41800000000E+01 0.  1.
         -5    1    3    3    0  502  0.12813422846E+02  0.13756491935E+02 -0.73635433269E+01  0.20618415209E+02  0.41800000000E+01 0.  1.
        -11    1    1    2    0    0  0.18285136817E+02  0.77801934442E+02 -0.17263003185E+03  0.19023305477E+03  0.00000000000E+00 0. -1.
         11    1    1    2    0    0  0.61178208218E+02  0.15740802910E+02 -0.28930063880E+03  0.29611721606E+03  0.00000000000E+00 0.  1.
</event>
<event>
 7    1  0.1453945E-005  0.1854113E+03  0.7561462E-02  0.1162666E+00
          2   -1    0    0  501    0  0.00000000000E+00  0.00000000000E+00  0.12931118861E+04  0.12931118861E+04  0.00000000000E+00 0.  1.
         -2   -1    0    0    0  501 -0.00000000000E+00 -0.00000000000E+00 -0.31203309536E+02  0.31203309536E+02  0.00000000000E+00 0. -1.
         23    2    1    2    0    0  0.16590960709E+03  0.28894394352E+02  0.62194578361E+03  0.65637220177E+03  0.12508807197E+03 0.  0.
          5    1    3    3  502    0  0.10611978950E+03 -0.12663769229E+02  0.18761049748E+03  0.21595590276E+03  0.41800000000E+01 0. -1.
         -5    1    3    3    0  502  0.59789817593E+02  0.41558163580E+02  0.43433528613E+03  0.44041629900E+03  0.41800000000E+01 0. -1.
        -11    1    1    2    0    0 -0.10511760228E+03 -0.61666964062E+02  0.42797342324E+03  0.44498738832E+03  0.00000000000E+00 0.  1.
         11    1    1    2    0    0 -0.60792004807E+02  0.32772569710E+02  0.21198936973E+03  0.22295560557E+03  0.00000000000E+00 0. -1.
</event>
<event>
 7    1  0.4966153E-006  0.1726359E+03  0.7561462E-02  0.1175127E+00
          1   -1    0    0  501    0  0.00000000000E+00  0.00000000000E+00  0.43465456275E+02  0.43465456275E+02  0.00000000000E+00 0. -1.
         -1   -1    0    0    0  501 -0.00000000000E+00 -0.00000000000E+00 -0.87286788390E+03  0.87286788390E+03  0.00000000000E+00 0.  1.
         23    2    1    2    0    0  0.37490504509E+02  0.14851856398E+03 -0.55321595097E+03  0.58750411643E+03  0.12509954691E+03 0.  0.
          5    1    3    3  502    0  0.53399724541E+02  0.36025870014E+02 -0.33796212051E+03  0.34407159312E+03  0.41800000000E+01 0. -1.
         -5    1    3    3    0  502 -0.15909220032E+02  0.11249269396E+03 -0.21525383046E+03  0.24343252331E+03  0.41800000000E+01 0. -1.
        -11    1    1    2    0    0  0.10070587479E+02 -0.94597810505E+02 -0.21232815273E+03  0.23266586970E+03  0.00000000000E+00 0.  1.
         11    1    1    2    0    0 -0.47561091988E+02 -0.53920753471E+02 -0.63858323928E+02  0.96163354043E+02  0.00000000000E+00 0. -1.
</event>
<event>
 7    1  0.4966153E-006  0.1185323E+03  0.7561462E-02  0.1245538E+00
         -1   -1    0    0    0  501 -0.00000000000E+00  0.00000000000E+00  0.96757086083E+02  0.96757086083E+02  0.00000000000E+00 0.  1.
          1   -1    0    0  501    0  0.00000000000E+00 -0.00000000000E+00 -0.22475182953E+03  0.22475182953E+03  0.00000000000E+00 0. -1.
         23    2    1    2    0    0  0.50423758797E+02 -0.78279535137E+02 -0.32148550402E+02  0.15921917154E+03  0.12508786600E+03 0.  0.
          5    1    3    3  502    0 -0.28314398941E+02 -0.54324115805E+02 -0.44579725772E+02  0.75879108425E+02  0.41800000000E+01 0.  1.
         -5    1    3    3    0  502  0.78738157738E+02 -0.23955419332E+02  0.12431175370E+02  0.83340063118E+02  0.41800000000E+01 0.  1.
        -11    1    1    2    0    0 -0.23820384279E+02  0.32307957227E+02  0.12150420290E+02  0.41938616103E+02  0.00000000000E+00 0.  1.
         11    1    1    2    0    0 -0.26603374518E+02  0.45971577910E+02 -0.10799661334E+03  0.12035112797E+03  0.00000000000E+00 0. -1.
</event>
<event>
 7    1  0.4966153E-006  0.1282116E+03  0.7561462E-02  0.1230134E+00
          1   -1    0    0  501    0  0.00000000000E+00  0.00000000000E+00  0.66465982093E+03  0.66465982093E+03  0.00000000000E+00 0. -1.
         -1   -1    0    0    0  501 -0.00000000000E+00 -0.00000000000E+00 -0.28046602507E+02  0.28046602507E+02  0.00000000000E+00 0.  1.
         23    2    1    2    0    0  0.68296798713E+02  0.44421870612E+02  0.33690679165E+03  0.36849990099E+03  0.12509290733E+03 0.  0.
          5    1    3    3  502    0 -0.31033689960E+02  0.21750990827E+02  0.43320005323E+02  0.57708671581E+02  0.41800000000E+01 0. -1.
         -5    1    3    3    0  502  0.99330488672E+02  0.22670879785E+02  0.29358678633E+03  0.31079122941E+03  0.41800000000E+01 0. -1.
        -11    1    1    2    0    0 -0.83350062736E+02 -0.17033017839E+02  0.26066744262E+03  0.27419860010E+03  0.00000000000E+00 0. -1.
         11    1    1    2    0    0  0.15053264023E+02 -0.27388852773E+02  0.39038984152E+02  0.50007922348E+02  0.00000000000E+00 0.  1.
</event>
<event>
 6    1  0.4966153E-006  0.2257161E+03  0.7561462E-02  0.1129692E+00
         -2   -1    0    0    0  501 -0.00000000000E+00  0.00000000000E+00  0.14619203623E+03  0.14619203623E+03  0.00000000000E+00 0.  1.
          2   -1    0    0  501    0  0.00000000000E+00 -0.00000000000E+00 -0.36065647146E+03  0.36065647146E+03  0.00000000000E+00 0. -1.
          5    1    1    2  502    0  0.12796991977E+03 -0.38232679329E+02 -0.75825738980E+02  0.15363936093E+03  0.41800000000E+01 0. -1.
         -5    1    1    2    0  502 -0.48657613665E+02 -0.11704352828E+03 -0.75549499083E+02  0.14762096765E+03  0.41800000000E+01 0.  1.
        -11    1    1    2    0    0 -0.50531080645E+02  0.22833942026E+02 -0.39343384529E+02  0.67990300233E+02  0.00000000000E+00 0.  1.
         11    1    1    2    0    0 -0.28781225459E+02  0.13244226558E+03 -0.23745812638E+02  0.13759787887E+03  0.00000000000E+00 0. -1.
</event>
<event>
 7    1  0.4966153E-006  0.1470509E+03  0.7561462E-02  0.1204144E+00
          1   -1    0    0  501    0  0.00000000000E+00  0.00000000000E+00  0.10332630059E+03  0.10332630059E+03  0.00000000000E+00 0. -1.
         -1   -1    0    0    0  501 -0.00000000000E+00 -0.00000000000E+00 -0.26806651633E+03  0.26806651633E+03  0.00000000000E+00 0.  1.
         23    2    1    2    0    0 -0.19220883197E+02 -0.10825443100E+03 -0.10973679791E+03  0.19944202855E+03  0.12508594547E+03 0.  0.
          5    1    3    3  502    0  0.31711990232E+02 -0.61453561545E+02  0.44457593305E+00  0.69281026254E+02  0.41800000000E+01 0.  1.
         -5    1    3    3    0  502 -0.50932873428E+02 -0.46800869459E+02 -0.11018137384E+03  0.13016100230E+03  0.41800000000E+01 0.  1.
        -11    1    1    2    0    0  0.64262322405E+02  0.47573788467E+02 -0.26168500892E+01  0.79998495826E+02  0.00000000000E+00 0.  1.
         11    1    1    2    0    0 -0.45041439208E+02  0.60680642538E+02 -0.52386567740E+02  0.91952292545E+02  0.00000000000E+00 0. -1.
</event>
<event>
 7    1  0.4966153E-006  0.9620247E+02  0.7561462E-02  0.1288491E+00
         -2   -1    0    0    0  501 -0.00000000000E+00  0.00000000000E+00  0.68817387907E+02  0.68817387907E+02  0.00000000000E+00 0.  1.
          2   -1    0    0  501    0  0.00000000000E+00 -0.00000000000E+00 -0.20606182869E+03  0.20606182869E+03  0.00000000000E+00 0. -1.
         23    2    1    2    0    0  0.13295404836E+02  0.35467569222E+02 -0.30666070217E+02  0.13424444940E+03  0.12508576288E+03 0.  0.
          5    1    3    3  502    0  0.45376744090E+02  0.62934657065E+02  0.63106669945E+01  0.77955864962E+02  0.41800000000E+01 0.  1.
         -5    1    3    3    0  502 -0.32081339254E+02 -0.27467087843E+02 -0.36976737211E+02  0.56288584435E+02  0.41800000000E+01 0.  1.
        -11    1    1    2    0    0 -0.10456505362E+02 -0.53245279014E+02 -0.10967801027E+03  0.12236692436E+03  0.00000000000E+00 0. -1.
         11    1    1    2    0    0 -0.28388994737E+01  0.17777709792E+02  0.30996397013E+01  0.18267842838E+02  0.00000000000E+00 0.  1.
</event>
<event>
 7    1  0.4966153E-006  0.9139320E+02  0.7561462E-02  0.1299513E+00
         -2   -1    0    0    0  501 -0.00000000000E+00  0.00000000000E+00  0.59464099059E+02  0.59464099059E+02  0.00000000000E+00 0.  1.
          2   -1    0    0  501    0  0.00000000000E+00 -0.00000000000E+00 -0.19741679612E+03  0.19741679612E+03  0.00000000000E+00 0. -1.
         23    2    1    2    0    0 -0.11771635051E+02  0.17088959018E+01 -0.58521665345E+02  0.13861036274E+03  0.12508619279E+03 0.  0.
          5    1    3    3  502    0 -0.41289353682E+01  0.50315520350E+02  0.12435571842E+02  0.52161437312E+02  0.41800000000E+01 0.  1.
         -5    1    3    3    0  502 -0.76426996829E+01 -0.48606624449E+02 -0.70957237187E+02  0.86448925430E+02  0.41800000000E+01 0.  1.
        -11    1    1    2    0    0 -0.29974907066E+02  0.19663102049E+02 -0.15682791915E+02  0.39129050564E+02  0.00000000000E+00 0. -1.
         11    1    1    2    0    0  0.41746542117E+02 -0.21371997951E+02 -0.63748239797E+02  0.79141481869E+02  0.00000000000E+00 0.  1.
</event>
<event>
 7    1  0.4966153E-006  0.1010531E+03  0.7561462E-02  0.1278097E+00
         -1   -1    0    0    0  501 -0.00000000000E+00  0.00000000000E+00  0.51333491576E+02  0.51333491576E+02  0.00000000000E+00 0.  1.
          1   -1    0    0  501    0  0.00000000000E+00 -0.00000000000E+00 -0.25508895125E+03  0.25508895125E+03  0.00000000000E+00 0. -1.
         23    2    1    2    0    0 -0.28622692700E+02  0.38572450448E+01 -0.87306312251E+02  0.15526716994E+03  0.12510541566E+03 0.  0.
          5    1    3    3  502    0 -0.46760742617E+02 -0.43604080206E+02 -0.13361502282E+02  0.65451394209E+02  0.41800000000E+01 0.  1.
         -5    1    3    3    0  502  0.18138049916E+02  0.47461325251E+02 -0.73944809969E+02  0.89815775734E+02  0.41800000000E+01 0.  1.
        -11    1    1    2    0    0  0.31717815678E+02  0.35481802182E+02 -0.30353878793E+02  0.56447640121E+02  0.00000000000E+00 0.  1.
         11    1    1    2    0    0 -0.30951229775E+01 -0.39339047227E+02 -0.86095268627E+02  0.94707632759E+02  0.00000000000E+00 0. -1.
</event>
<event>
 7    1  0.4966153E-006  0.2909820E+03  0.7561462E-02  0.1089838E+00
          3   -1    0    0  501    0  0.00000000000E+00  0.00000000000E+00  0.64054819539E+03  0.64054819539E+03  0.00000000000E+00 0. -1.
         -3   -1    0    0    0  501 -0.00000000000E+00 -0.00000000000E+00 -0.14558521622E+03  0.14558521622E+03  0.00000000000E+00 0.  1.
         23    2    1    2    0    0  0.97617252519E+01  0.28422032809E+03  0.23648358809E+03  0.39044666346E+03  0.12509046084E+03 0.  0.
          5    1    3    3  502    0 -0.24890944355E+02  0.84378997762E+02  0.14096741237E+03  0.16621870570E+03  0.41800000000E+01 0.  1.
         -5    1    3    3    0  502  0.34652669607E+02  0.19984133033E+03  0.95516175725E+02  0.22422795777E+03  0.41800000000E+01 0.  1.
        -11    1    1    2    0    0  0.23665687707E+02 -0.18064445311E+03  0.11442689498E+03  0.21514180791E+03  0.00000000000E+00 0.  1.
         11    1    1    2    0    0 -0.33427412958E+02 -0.10357587498E+03  0.14405249610E+03  0.18054494024E+03  0.00000000000E+00 0. -1.
</event>
<event>
 7    1  0.4966153E-006  0.1048678E+03  0.7561462E-02  0.1270380E+00
          2   -1    0    0  501    0  0.00000000000E+00  0.00000000000E+00  0.14333436431E+03  0.14333436431E+03  0.00000000000E+00 0. -1.
         -2   -1    0    0    0  501 -0.00000000000E+00 -0.00000000000E+00 -0.13547317920E+03  0.13547317920E+03  0.00000000000E+00 0.  1.
         23    2    1    2    0    0 -0.29768262456E+02 -0.68037107658E+02 -0.41384917309E+02  0.15124580567E+03  0.12508950749E+03 0.  0.
          5    1    3    3  502    0 -0.51854293322E+02 -0.51200503789E+02 -0.76861959108E+02  0.10599807773E+03  0.41800000000E+01 0.  1.
         -5    1    3    3    0  502  0.22086030866E+02 -0.16836603869E+02  0.35477041799E+02  0.45247727944E+02  0.41800000000E+01 0.  1.
        -11    1    1    2    0    0  0.45310566408E+02  0.77994467911E+02  0.57890205224E+02  0.10717957041E+03  0.00000000000E+00 0. -1.
         11    1    1    2    0    0 -0.15542303952E+02 -0.99573602529E+01 -0.86441028043E+01  0.20382167417E+02  0.00000000000E+00 0.  1.
</event>
<event>
 7    1  0.4966153E-006  0.9063354E+02  0.7561462E-02  0.1301325E+00
         -3   -1    0    0    0  501 -0.00000000000E+00  0.00000000000E+00  0.63274205084E+02  0.63274205084E+02  0.00000000000E+00 0.  1.
          3   -1    0    0  501    0  0.00000000000E+00 -0.00000000000E+00 -0.25335393836E+03  0.25335393836E+03  0.00000000000E+00 0. -1.
         23    2    1    2    0    0  0.17633581149E+02  0.61553429527E+02 -0.94646264787E+02  0.16942589889E+03  0.12508977538E+03 0.  0.
          5    1    3    3  502    0  0.52813593248E+02  0.95151121147E+01 -0.91789895110E+02  0.10640803651E+03  0.41800000000E+01 0. -1.
         -5    1    3    3    0  502 -0.35180012100E+02  0.52038317412E+02 -0.28563696771E+01  0.63017862374E+02  0.41800000000E+01 0. -1.
        -11    1    1    2    0    0 -0.31804674902E+01 -0.24657521185E+02  0.15572164381E+02  0.29336002249E+02  0.00000000000E+00 0.  1.
         11    1    1    2    0    0 -0.14453113658E+02 -0.36895908342E+02 -0.11100563287E+03  0.11786624231E+03  0.00000000000E+00 0. -1.
</event>
<event>
 7    1  0.4966153E-006  0.1043969E+03  0.7561462E-02  0.1271312E+00
         -4   -1    0    0    0  501 -0.00000000000E+00  0.00000000000E+00  0.35853501205E+02  0.35853501205E+02  0.00000000000E+00 0.  1.
          4   -1    0    0  501    0  0.00000000000E+00 -0.00000000000E+00 -0.36329417188E+03  0.36329417188E+03  0.00000000000E+00 0. -1.
         23    2    1    2    0    0  0.14315274588E+02  0.12151835022E+02 -0.14261951591E+03  0.19063128788E+03  0.12508943768E+03 0.  0.
          5    1    3    3  502    0 -0.55368239413E+02  0.38589846788E+01 -0.71761943471E+02  0.90817303578E+02  0.41800000000E+01 0.  1.
         -5    1    3    3    0  502  0.69683514001E+02  0.82928503429E+01 -0.70857572437E+02  0.99813984301E+02  0.41800000000E+01 0.  1.
        -11    1    1    2    0    0  0.22727233798E+02 -0.33196747490E+02 -0.14399480244E+03  0.14950937874E+03  0.00000000000E+00 0. -1.
         11    1    1    2    0    0 -0.37042508385E+02  0.21044912468E+02 -0.40826352322E+02  0.59007006467E+02  0.00000000000E+00 0.  1.
</event>
<event>
 7    1  0.4966153E-006  0.8829150E+02  0.7561462E-02  0.1307043E+00
          2   -1    0    0  501    0  0.00000000000E+00  0.00000000000E+00  0.13040444908E+04  0.13040444908E+04  0.00000000000E+00 0. -1.
         -2   -1    0    0    0  501 -0.00000000000E+00 -0.00000000000E+00 -0.11545420903E+02  0.11545420903E+02  0.00000000000E+00 0.  1.
         23    2    1    2    0    0 -0.25864574357E+01 -0.54692584030E+02  0.71037328508E+03  0.72337775570E+03  0.12508878761E+03 0.  0.
          5    1    3    3  502    0 -0.12383569908E+02 -0.67776678197E+00  0.59896960468E+03  0.59911257031E+03  0.41800000000E+01 0.  1.
         -5    1    3    3    0  502  0.97971124719E+01 -0.54014817248E+02  0.11140368040E+03  0.12426518539E+03  0.41800000000E+01 0.  1.
        -11    1    1    2    0    0 -0.45522760792E+02  0.25985494571E+02  0.25631235490E+03  0.26161726042E+03  0.00000000000E+00 0.  1.
         11    1    1    2    0    0  0.48109218227E+02  0.28707089460E+02  0.32581342990E+03  0.33059489555E+03  0.00000000000E+00 0. -1.
</event>
<event>
 7    1  0.4966153E-006  0.7015904E+02  0.7561462E-02  0.1359553E+00
          1   -1    0    0  501    0  0.00000000000E+00  0.00000000000E+00  0.59485172020E+02  0.59485172020E+02  0.00000000000E+00 0. -1.
         -1   -1    0    0    0  501 -0.00000000000E+00 -0.00000000000E+00 -0.20041896002E+03  0.20041896002E+03  0.00000000000E+00 0.  1.
         23    2    1    2    0    0  0.11960672313E+02 -0.80158083978E+01 -0.94414324425E+02  0.15737680707E+03  0.12508430709E+03 0.  0.
          5    1    3    3  502    0 -0.19004711791E+02 -0.10386228305E+02  0.25337253619E+02  0.33593178320E+02  0.41800000000E+01 0. -1.
         -5    1    3    3    0  502  0.30965384105E+02  0.23704199071E+01 -0.11975157804E+03  0.12378362875E+03  0.41800000000E+01 0. -1.
        -11    1    1    2    0    0  0.32336743734E+02 -0.16492265510E+02 -0.41963764495E+01  0.36541338129E+02  0.00000000000E+00 0.  1.
         11    1    1    2    0    0 -0.44297416047E+02  0.24508073908E+02 -0.42323087124E+02  0.65985986837E+02  0.00000000000E+00 0. -1.
</event>
<event>
 7    1  0.4966153E-006  0.1156167E+03  0.7561462E-02  0.1250508E+00
          4   -1    0    0  501    0  0.00000000000E+00  0.00000000000E+00  0.14166312966E+03  0.14166312966E+03  0.00000000000E+00 0. -1.
         -4   -1    0    0    0  501 -0.00000000000E+00 -0.00000000000E+00 -0.21497931774E+03  0.21497931774E+03  0.00000000000E+00 0.  1.
         23    2    1    2    0    0  0.44884918029E+02 -0.74071883110E+02 -0.15267630968E+03  0.21553983776E+03  0.12508423717E+03 0.  0.
          5    1    3    3  502    0 -0.34681792122E+02 -0.48008459980E+02 -0.10070988511E+03  0.11690847828E+03  0.41800000000E+01 0.  1.
         -5    1    3    3    0  502  0.79566710151E+02 -0.26063423131E+02 -0.51966424569E+02  0.98631359476E+02  0.41800000000E+01 0.  1.
        -11    1    1    2    0    0 -0.40022061017E+02  0.53053700710E+02  0.93935738565E+02  0.11506686537E+03  0.00000000000E+00 0. -1.
         11    1    1    2    0    0 -0.48628570123E+01  0.21018182401E+02 -0.14575616960E+02  0.26035744266E+02  0.00000000000E+00 0.  1.
</event>
<event>
 7    1  0.4966153E-006  0.9558029E+02  0.7561462E-02  0.1289874E+00
          2   -1    0    0  501    0  0.00000000000E+00  0.00000000000E+00  0.74214168177E+03  0.74214168177E+03  0.00000000000E+00 0. -1.
         -2   -1    0    0    0  501 -0.00000000000E+00 -0.00000000000E+00 -0.17305467429E+02  0.17305467429E+02  0.00000000000E+00 0.  1.
         23    2    1    2    0    0  0.32994749468E+02 -0.11157678887E+02  0.41255258017E+03  0.43250350527E+03  0.12508598393E+03 0.  0.
          5    1    3    3  502    0  0.59185293671E+02  0.27952742338E+02  0.33749665078E+03  0.34381058227E+03  0.41800000000E+01 0.  1.
         -5    1    3    3    0  502 -0.26190544203E+02 -0.39110421225E+02  0.75055929383E+02  0.88692922996E+02  0.41800000000E+01 0.  1.
        -11    1    1    2    0    0 -0.54802554798E+02  0.13335295192E+02  0.29092239397E+03  0.29633931468E+03  0.00000000000E+00 0. -1.
         11    1    1    2    0    0  0.21807805329E+02 -0.21776163044E+01  0.21361240205E+02  0.30604329255E+02  0.00000000000E+00 0.  1.
</event>
<event>
 7    1  0.4966153E-006  0.1134211E+03  0.7561462E-02  0.1254363E+00
         -2   -1    0    0    0  501 -0.00000000000E+00  0.00000000000E+00  0.16105480510E+02  0.16105480510E+02  0.00000000000E+00 0. -1.
          2   -1    0    0  501    0  0.00000000000E+00 -0.00000000000E+00 -0.83044536207E+03  0.83044536207E+03  0.00000000000E+00 0.  1.
         23    2    1    2    0    0 -0.24688493902E+02 -0.12231677826E+02 -0.42013542353E+03  0.43922691271E+03  0.12508945227E+03 0.  0.
          5    1    3    3  502    0  0.41758959741E+01  0.54003017346E+02 -0.21274725349E+03  0.21957374674E+03  0.41800000000E+01 0. -1.
         -5    1    3    3    0  502 -0.28864389876E+02 -0.66234695172E+02 -0.20738817004E+03  0.21965316597E+03  0.41800000000E+01 0. -1.
        -11    1    1    2    0    0  0.23525967533E+02  0.53717350151E+02 -0.27247104262E+03  0.27871041230E+03  0.00000000000E+00 0.  1.
         11    1    1    2    0    0  0.11625263688E+01 -0.41485672325E+02 -0.12173341540E+03  0.12861351757E+03  0.00000000000E+00 0. -1.
</event>
<event>
 7    1  0.4966153E-006  0.1730039E+03  0.7561462E-02  0.1174751E+00
          2   -1    0    0  501    0  0.00000000000E+00  0.00000000000E+00  0.19683611781E+03  0.19683611781E+03  0.00000000000E+00 0.  1.
         -2   -1    0    0    0  501 -0.00000000000E+00 -0.00000000000E+00 -0.17124422905E+03  0.17124422905E+03  0.00000000000E+00 0. -1.
         23    2    1    2    0    0  0.10241189198E+03  0.10509867130E+03 -0.17248277937E+01  0.19281147127E+03  0.12505743519E+03 0.  0.
          5    1    3    3  502    0 -0.26824128447E+02  0.58963152798E+01  0.97298664874E+01  0.29435405597E+02  0.41800000000E+01 0.  1.
         -5    1    3    3    0  502  0.12923602042E+03  0.99202356024E+02 -0.11454694281E+02  0.16337606568E+03  0.41800000000E+01 0.  1.
        -11    1    1    2    0    0 -0.60146774954E+02 -0.25908046603E+02 -0.26456111961E+02  0.70631347688E+02  0.00000000000E+00 0. -1.
         11    1    1    2    0    0 -0.42265117022E+02 -0.79190624700E+02  0.53772828520E+02  0.10463752790E+03  0.00000000000E+00 0.  1.
</event>
<event>
 7    1  0.4966153E-006  0.2281047E+03  0.7561462E-02  0.1127981E+00
         -1   -1    0    0    0  501 -0.00000000000E+00  0.00000000000E+00  0.18402801380E+03  0.18402801380E+03  0.00000000000E+00 0.  1.
          1   -1    0    0  501    0  0.00000000000E+00 -0.00000000000E+00 -0.46593143321E+03  0.46593143321E+03  0.00000000000E+00 0. -1.
         23    2    1    2    0    0  0.21196438614E+03  0.19018518148E+02  0.42859820595E+02  0.25055005480E+03  0.12509100974E+03 0.  0.
          5    1    3    3  502    0  0.37605383818E+02  0.52353338383E+02  0.33431908264E+02  0.72733773600E+02  0.41800000000E+01 0. -1.
         -5    1    3    3    0  502  0.17435900232E+03 -0.33334820235E+02  0.94279123312E+01  0.17781628120E+03  0.41800000000E+01 0. -1.
        -11    1    1    2    0    0 -0.15766146985E+03 -0.40226751299E+01 -0.15739754317E+03  0.22281675787E+03  0.00000000000E+00 0.  1.
         11    1    1    2    0    0 -0.54302916285E+02 -0.14995843018E+02 -0.16736569684E+03  0.17659263435E+03  0.00000000000E+00 0. -1.
</event>
<event>
 7    1  0.4966153E-006  0.1109841E+03  0.7561462E-02  0.1258758E+00
         -1   -1    0    0    0  501 -0.00000000000E+00  0.00000000000E+00  0.69988269060E+02  0.69988269060E+02  0.00000000000E+00 0.  1.
          1   -1    0    0  501    0  0.00000000000E+00 -0.00000000000E+00 -0.28172907459E+03  0.28172907459E+03  0.00000000000E+00 0. -1.
         23    2    1    2    0    0 -0.62735936076E+02 -0.55986218866E+02 -0.90776573096E+02  0.17594277500E+03  0.12508085175E+03 0.  0.
          5    1    3    3  502    0  0.52183914041E+01  0.79657102315E+00  0.27396522602E+02  0.28211841218E+02  0.41800000000E+01 0.  1.
         -5    1    3    3    0  502 -0.67954327480E+02 -0.56782789889E+02 -0.11817309570E+03  0.14773093379E+03  0.41800000000E+01 0.  1.
        -11    1    1    2    0    0  0.62348806447E+02 -0.77630920349E+01 -0.49335966175E+02  0.79885398051E+02  0.00000000000E+00 0.  1.
         11    1    1    2    0    0  0.38712962860E+00  0.63749310901E+02 -0.71628266256E+02  0.95889170591E+02  0.00000000000E+00 0. -1.
</event>
<event>
 7    1  0.4966153E-006  0.5394696E+02  0.7561462E-02  0.1425145E+00
         -2   -1    0    0    0  501 -0.00000000000E+00  0.00000000000E+00  0.37526483387E+03  0.37526483387E+03  0.00000000000E+00 0.  1.
          2   -1    0    0  501    0  0.00000000000E+00 -0.00000000000E+00 -0.35544689915E+02  0.35544689915E+02  0.00000000000E+00 0. -1.
         23    2    1    2    0    0  0.32800387417E+02 -0.11814408202E+02  0.21017456554E+03  0.24705148720E+03  0.12508254743E+03 0.  0.
          5    1    3    3  502    0  0.44196196226E+01  0.31946213179E+01  0.21430310298E+03  0.21441322485E+03  0.41800000000E+01 0. -1.
         -5    1    3    3    0  502  0.28380767794E+02 -0.15009029520E+02 -0.41285374424E+01  0.32638262349E+02  0.41800000000E+01 0. -1.
        -11    1    1    2    0    0 -0.43511487756E+02  0.26139942573E+02  0.13566743085E+03  0.14485233155E+03  0.00000000000E+00 0.  1.
         11    1    1    2    0    0  0.10711100339E+02 -0.14325534371E+02 -0.61218524318E+01  0.18905705030E+02  0.00000000000E+00 0. -1.
</event>
<event>
 7    1  0.4966153E-006  0.1161301E+03  0.7561462E-02  0.1249621E+00
          1   -1    0    0  501    0  0.00000000000E+00  0.00000000000E+00  0.27676817831E+02  0.27676817831E+02  0.00000000000E+00 0. -1.
         -1   -1    0    0    0  501 -0.00000000000E+00 -0.00000000000E+00 -0.76908059973E+03  0.76908059973E+03  0.00000000000E+00 0.  1.
         23    2    1    2    0    0 -0.33457158890E+02  0.75147810507E+02 -0.54887182301E+03  0.56892430898E+03  0.12509203149E+03 0.  0.
          5    1    3    3  502    0 -0.64648154355E+02  0.50509399830E+02 -0.17958790601E+03  0.19748385179E+03  0.41800000000E+01 0. -1.
         -5    1    3    3    0  502  0.31190995464E+02  0.24638410677E+02 -0.36928391700E+03  0.37144045719E+03  0.41800000000E+01 0. -1.
        -11    1    1    2    0    0  0.53851437578E+02 -0.71366373198E+02 -0.10513756431E+03  0.13801102848E+03  0.00000000000E+00 0. -1.
         11    1    1    2    0    0 -0.20394278688E+02 -0.37814373089E+01 -0.87394394575E+02  0.89822080105E+02  0.00000000000E+00 0.  1.
</event>
<event>
 6    1  0.4966153E-006  0.1344279E+03  0.7561462E-02  0.1221030E+00
          2   -1    0    0  501    0  0.00000000000E+00  0.00000000000E+00  0.16131692230E+03  0.16131692230E+03  0.00000000000E+00 0. -1.
         -2   -1    0    0    0  501 -0.00000000000E+00 -0.00000000000E+00 -0.17607446491E+03  0.17607446491E+03  0.00000000000E+00 0.  1.
          5    1    1    2  502    0  0.12182549313E+03  0.33306950953E+00 -0.18429559664E+00  0.12189777716E+03  0.41800000000E+01 0. -1.
         -5    1    1    2    0  502 -0.45975576788E+02 -0.73205193239E+01 -0.68913237467E+02  0.83269744579E+02  0.41800000000E+01 0.  1.
        -11    1    1    2    0    0  0.84168412041E+01 -0.11198830961E+02  0.43060680892E+02  0.45282218029E+02  0.00000000000E+00 0.  1.
         11    1    1    2    0    0 -0.84266757546E+02  0.18186280775E+02  0.11279309561E+02  0.86941647442E+02  0.00000000000E+00 0. -1.
</event>
<event>
 7    1  0.4966153E-006  0.6314823E+02  0.7561462E-02  0.1385076E+00
         -1   -1    0    0    0  501 -0.00000000000E+00  0.00000000000E+00  0.17117935033E+03  0.17117935033E+03  0.00000000000E+00 0.  1.
          1   -1    0    0  501    0  0.00000000000E+00 -0.00000000000E+00 -0.71610934976E+02  0.71610934976E+02  0.00000000000E+00 0. -1.
         23    2    1    2    0    0 -0.13194587977E+02 -0.18149616354E+02  0.73043050862E+02  0.14657949110E+03  0.12508698656E+03 0.  0.
          5    1    3    3  502    0  0.28851209369E+02 -0.20300480068E+02  0.93181374343E+02  0.99723330759E+02  0.41800000000E+01 0.  1.
         -5    1    3    3    0  502 -0.42045797346E+02  0.21508637141E+01 -0.20138323481E+02  0.46856160340E+02  0.41800000000E+01 0.  1.
        -11    1    1    2    0    0 -0.10673116515E+02  0.21844408739E+02 -0.27696217015E+02  0.36853412952E+02  0.00000000000E+00 0. -1.
         11    1    1    2    0    0  0.23867704492E+02 -0.36947923849E+01  0.54221581510E+02  0.59357381259E+02  0.00000000000E+00 0.  1.
</event>
<event>
 7    1  0.4966153E-006  0.1622078E+03  0.7561462E-02  0.1186227E+00
          1   -1    0    0  501    0  0.00000000000E+00  0.00000000000E+00  0.23164777301E+03  0.23164777301E+03  0.00000000000E+00 0. -1.
         -1   -1    0    0    0  501 -0.00000000000E+00 -0.00000000000E+00 -0.17255144444E+03  0.17255144444E+03  0.00000000000E+00 0.  1.
         23    2    1    2    0    0 -0.93767091717E+02 -0.75461132052E+02 -0.86794021195E+02  0.19407876156E+03  0.12508682438E+03 0.  0.
          5    1    3    3  502    0 -0.87456043497E+02 -0.10847982113E+03 -0.65138618968E+02  0.15387314001E+03  0.41800000000E+01 0. -1.
         -5    1    3    3    0  502 -0.63110482198E+01  0.33018689078E+02 -0.21655402226E+02  0.40205621542E+02  0.41800000000E+01 0. -1.
        -11    1    1    2    0    0  0.74949113456E+02  0.16549929104E+01  0.68899230231E+02  0.10181950960E+03  0.00000000000E+00 0.  1.
         11    1    1    2    0    0  0.18817978260E+02  0.73806139141E+02  0.76991119537E+02  0.10830094629E+03  0.00000000000E+00 0. -1.
</event>
<event>
 7    1  0.4966153E-006  0.9776924E+02  0.7561462E-02  0.1285058E+00
         -2   -1    0    0    0  501 -0.00000000000E+00  0.00000000000E+00  0.23764161091E+03  0.23764161091E+03  0.00000000000E+00 0. -1.
          2   -1    0    0  501    0  0.00000000000E+00 -0.00000000000E+00 -0.52785969042E+02  0.52785969042E+02  0.00000000000E+00 0.  1.
         23    2    1    2    0    0 -0.14491931091E+02  0.17097379271E+02  0.14080275551E+03  0.18967229954E+03  0.12509128192E+03 0.  0.
          5    1    3    3  502    0  0.41099241425E+02 -0.29071932410E+02  0.82459470261E+02  0.96702438106E+02  0.41800000000E+01 0. -1.
         -5    1    3    3    0  502 -0.55591172516E+02  0.46169311681E+02  0.58343285244E+02  0.92969861438E+02  0.41800000000E+01 0. -1.
        -11    1    1    2    0    0  0.38946168344E+02  0.55122714701E+01 -0.68487902026E+01  0.39926120432E+02  0.00000000000E+00 0.  1.
         11    1    1    2    0    0 -0.24454237254E+02 -0.22609650741E+02  0.50901676561E+02  0.60829159973E+02  0.00000000000E+00 0. -1.
</event>
<event>
 7    1  0.4966153E-006  0.8625940E+02  0.7561462E-02  0.1312172E+00
          3   -1    0    0  501    0  0.00000000000E+00  0.00000000000E+00  0.32481646107E+02  0.32481646107E+02  0.00000000000E+00 0. -1.
         -3   -1    0    0    0  501 -0.00000000000E+00 -0.00000000000E+00 -0.42939988511E+03  0.42939988511E+03  0.00000000000E+00 0.  1.
         23    2    1    2    0    0 -0.29193607306E+01 -0.42948181333E+02 -0.22104680891E+03  0.25760960750E+03  0.12509176312E+03 0.  0.
          5    1    3    3  502    0  0.33425589281E+02 -0.31984343045E+02 -0.21373432135E+03  0.21872380012E+03  0.41800000000E+01 0.  1.
         -5    1    3    3    0  502 -0.36344950011E+02 -0.10963838289E+02 -0.73124875651E+01  0.38885807382E+02  0.41800000000E+01 0.  1.
        -11    1    1    2    0    0 -0.34683165827E+02  0.60764061358E+01 -0.12917139767E+03  0.13388463198E+03  0.00000000000E+00 0.  1.
         11    1    1    2    0    0  0.37602526557E+02  0.36871775198E+02 -0.46700032416E+02  0.70387291732E+02  0.00000000000E+00 0. -1.
</event>
<event>
 7    1  0.4966153E-006  0.1002541E+03  0.7561462E-02  0.1279762E+00
          1   -1    0    0  501    0  0.00000000000E+00  0.00000000000E+00  0.74290943398E+02  0.74290943398E+02  0.00000000000E+00 0. -1.
         -1   -1    0    0    0  501 -0.00000000000E+00 -0.00000000000E+00 -0.20313918155E+03  0.20313918155E+03  0.00000000000E+00 0.  1.
         23    2    1    2    0    0  0.33844969031E+02  0.22116617855E+02 -0.12592217650E+03  0.18203416173E+03  0.12508163250E+03 0.  0.
          5    1    3    3  502    0 -0.34232252923E+02  0.11907490125E+02 -0.10314091643E+03  0.10940364026E+03  0.41800000000E+01 0. -1.
         -5    1    3    3    0  502  0.68077221955E+02  0.10209127730E+02 -0.22781260070E+02  0.72630521466E+02  0.41800000000E+01 0. -1.
        -11    1    1    2    0    0 -0.30801122571E+02 -0.54462977426E+02 -0.54654613210E+01  0.62807613624E+02  0.00000000000E+00 0.  1.
         11    1    1    2    0    0 -0.30438464603E+01  0.32346359571E+02  0.25393996646E+01  0.32588349597E+02  0.00000000000E+00 0. -1.
</event>
<event>
 7    1  0.4966153E-006  0.1050024E+03  0.7561462E-02  0.1270115E+00
          1   -1    0    0  501    0  0.00000000000E+00  0.00000000000E+00  0.38037818377E+03  0.38037818377E+03  0.00000000000E+00 0. -1.
         -1   -1    0    0    0  501 -0.00000000000E+00 -0.00000000000E+00 -0.38872771283E+02  0.38872771283E+02  0.00000000000E+00 0.  1.
         23    2    1    2    0    0 -0.20949684722E+02 -0.47520980060E+02  0.14620931485E+03  0.19930448388E+03  0.12509188907E+03 0.  0.
          5    1    3    3  502    0  0.30119770003E+02 -0.70749609092E+02  0.66538366816E+02  0.10177197252E+03  0.41800000000E+01 0.  1.
         -5    1    3    3    0  502 -0.51069454725E+02  0.23228629032E+02  0.79670948030E+02  0.97532511362E+02  0.41800000000E+01 0.  1.
        -11    1    1    2    0    0  0.37313488975E+02  0.14778129208E+02  0.28606410105E+02  0.49285051095E+02  0.00000000000E+00 0.  1.
         11    1    1    2    0    0 -0.16363804253E+02  0.32742850852E+02  0.16668968754E+03  0.17066142008E+03  0.00000000000E+00 0. -1.
</event>
<event>
 7    1  0.4966153E-006  0.9928079E+02  0.7561462E-02  0.1281816E+00
         -2   -1    0    0    0  501 -0.00000000000E+00  0.00000000000E+00  0.59515094320E+02  0.59515094320E+02  0.00000000000E+00 0.  1.
          2   -1    0    0  501    0  0.00000000000E+00 -0.00000000000E+00 -0.29126240834E+03  0.29126240834E+03  0.00000000000E+00 0. -1.
         23    2    1    2    0    0  0.51164922670E+02 -0.47817635213E+02 -0.44434229384E+02  0.13864251761E+03  0.11109892619E+03 0.  0.
          5    1    3    3  502    0 -0.18156276647E+02 -0.11356072748E+02 -0.55307189707E+02  0.59455600268E+02  0.41800000000E+01 0. -1.
         -5    1    3    3    0  502  0.69321199318E+02 -0.36461562464E+02  0.10872960323E+02  0.79186917343E+02  0.41800000000E+01 0.  1.
        -11    1    1    2    0    0 -0.12658370269E+02 -0.18027202425E+02 -0.29126002620E+02  0.36517644965E+02  0.00000000000E+00 0. -1.
         11    1    1    2    0    0 -0.38506552401E+02  0.65844837638E+02 -0.15818708202E+03  0.17561734008E+03  0.00000000000E+00 0.  1.
</event>
<event>
 7    1  0.4966153E-006  0.1552486E+03  0.7561462E-02  0.1194168E+00
         -1   -1    0    0    0  501 -0.00000000000E+00  0.00000000000E+00  0.18719313452E+03  0.18719313452E+03  0.00000000000E+00 0.  1.
          1   -1    0    0  501    0  0.00000000000E+00 -0.00000000000E+00 -0.15261719771E+03  0.15261719771E+03  0.00000000000E+00 0. -1.
         23    2    1    2    0    0  0.11641240668E+03 -0.51469919033E+02  0.29163714895E+02  0.18082215115E+03  0.12508048243E+03 0.  0.
          5    1    3    3  502    0  0.23480835315E+01  0.33010191853E+02 -0.74412646849E+01  0.34176469721E+02  0.41800000000E+01 0. -1.
         -5    1    3    3    0  502  0.11406432315E+03 -0.84480110886E+02  0.36604979580E+02  0.14664568143E+03  0.41800000000E+01 0. -1.
        -11    1    1    2    0    0 -0.61982604454E+02  0.51688899493E+02 -0.38152751873E+02  0.89270476985E+02  0.00000000000E+00 0. -1.
         11    1    1    2    0    0 -0.54429802228E+02 -0.21898046000E+00  0.43564973794E+02  0.69717704098E+02  0.00000000000E+00 0.  1.
</event>
<event>
 7    1  0.4966153E-006  0.7600967E+02  0.7561462E-02  0.1340773E+00
          2   -1    0    0  501    0  0.00000000000E+00  0.00000000000E+00  0.48894242761E+02  0.48894242761E+02  0.00000000000E+00 0. -1.
         -2   -1    0    0    0  501 -0.00000000000E+00 -0.00000000000E+00 -0.32157312450E+03  0.32157312450E+03  0.00000000000E+00 0.  1.
         23    2    1    2    0    0 -0.31439889536E+02 -0.20138379351E+02 -0.23013403330E+03  0.26458162090E+03  0.12509092637E+03 0.  0.
          5    1    3    3  502    0  0.21464724392E+02  0.20640492572E+02 -0.17586294994E+03  0.17841528490E+03  0.41800000000E+01 0.  1.
         -5    1    3    3    0  502 -0.52904613928E+02 -0.40778871923E+02 -0.54271083366E+02  0.86166336002E+02  0.41800000000E+01 0.  1.
        -11    1    1    2    0    0 -0.81717544361E+01  0.12102159039E+02  0.23961525751E+02  0.28060551318E+02  0.00000000000E+00 0. -1.
         11    1    1    2    0    0  0.39611643972E+02  0.80362203115E+01 -0.66506374185E+02  0.77825195035E+02  0.00000000000E+00 0.  1.
</event>
<event>
 6    1  0.4966153E-006  0.1887594E+03  0.7561462E-02  0.1159585E+00
          2   -1    0    0  501    0  0.00000000000E+00  0.00000000000E+00  0.93089430455E+03  0.93089430455E+03  0.00000000000E+00 0. -1.
         -2   -1    0    0    0  501 -0.00000000000E+00 -0.00000000000E+00 -0.56819907630E+02  0.56819907630E+02  0.00000000000E+00 0.  1.
          5    1    1    2  502    0  0.39743930779E+02 -0.92139464658E+02  0.18907345201E+03  0.21409227832E+03  0.41800000000E+01 0. -1.
         -5    1    1    2    0  502 -0.55613176672E+02 -0.70806532014E+02  0.35244076017E+02  0.96778136424E+02  0.41800000000E+01 0.  1.
        -11    1    1    2    0    0  0.39958252989E+02  0.25475487041E+02  0.12019186026E+03  0.12919653902E+03  0.00000000000E+00 0.  1.
         11    1    1    2    0    0 -0.24089007096E+02  0.13747050963E+03  0.52956500864E+03  0.54764725842E+03  0.00000000000E+00 0. -1.
</event>
<event>
 7    1  0.4966153E-006  0.4770946E+02  0.7561462E-02  0.1458103E+00
         -4   -1    0    0    0  501 -0.00000000000E+00  0.00000000000E+00  0.12086898964E+03  0.12086898964E+03  0.00000000000E+00 0.  1.
          4   -1    0    0  501    0  0.00000000000E+00 -0.00000000000E+00 -0.10035493072E+03  0.10035493072E+03  0.00000000000E+00 0. -1.
         23    2    1    2    0    0 -0.18558531292E+02 -0.21052965482E+01  0.22351314178E+02  0.12843702957E+03  0.12509051907E+03 0.  0.
          5    1    3    3  502    0 -0.72779495443E+01  0.22008641178E+02  0.69911455380E+02  0.73772846153E+02  0.41800000000E+01 0. -1.
         -5    1    3    3    0  502 -0.11280581748E+02 -0.24113937726E+02 -0.47560141203E+02  0.54664183415E+02  0.41800000000E+01 0. -1.
        -11    1    1    2    0    0  0.28914336478E+02 -0.84552677685E+01 -0.41026730550E+02  0.50899145637E+02  0.00000000000E+00 0. -1.
         11    1    1    2    0    0 -0.10355805186E+02  0.10560564317E+02  0.39189475292E+02  0.41887745145E+02  0.00000000000E+00 0.  1.
</event>
<event>
 7    1  0.4966153E-006  0.6823524E+02  0.7561462E-02  0.1366199E+00
         -1   -1    0    0    0  501 -0.00000000000E+00  0.00000000000E+00  0.55790978640E+02  0.55790978640E+02  0.00000000000E+00 0.  1.
          1   -1    0    0  501    0  0.00000000000E+00 -0.00000000000E+00 -0.24291945350E+03  0.24291945350E+03  0.00000000000E+00 0. -1.
         23    2    1    2    0    0  0.24612244924E+02 -0.10844553177E+02 -0.65547638735E+02  0.14377874468E+03  0.12510982193E+03 0.  0.
          5    1    3    3  502    0  0.29868358395E+02 -0.34079745044E+02  0.23701382935E+02  0.51310581838E+02  0.41800000000E+01 0. -1.
         -5    1    3    3    0  502 -0.52561134714E+01  0.23235191867E+02 -0.89249021670E+02  0.92468162840E+02  0.41800000000E+01 0. -1.
        -11    1    1    2    0    0 -0.26662393700E+02  0.34180687108E+02 -0.12402103879E+03  0.13137892020E+03  0.00000000000E+00 0. -1.
         11    1    1    2    0    0  0.20501487764E+01 -0.23336133931E+02  0.24402026666E+01  0.23552767267E+02  0.00000000000E+00 0.  1.
</event>
<event>
 7    1  0.4966153E-006  0.1631303E+03  0.7561462E-02  0.1185207E+00
          1   -1    0    0  501    0  0.00000000000E+00  0.00000000000E+00  0.13250450992E+03  0.13250450992E+03  0.00000000000E+00 0. -1.
         -1   -1    0    0    0  501 -0.00000000000E+00 -0.00000000000E+00 -0.22727569835E+03  0.22727569835E+03  0.00000000000E+00 0.  1.
         23    2    1    2    0    0  0.63049219636E+02  0.11892655718E+03 -0.64431367083E+02  0.19471954892E+03  0.12508225920E+03 0.  0.
          5    1    3    3  502    0  0.94922720426E+02  0.11640230779E+03 -0.61447735776E+02  0.16233643074E+03  0.41800000000E+01 0. -1.
         -5    1    3    3    0  502 -0.31873500790E+02  0.25242493930E+01 -0.29836313077E+01  0.32383118185E+02  0.41800000000E+01 0. -1.
        -11    1    1    2    0    0 -0.49070744226E+02 -0.12009228422E+03  0.20681092207E+01  0.12974733810E+03  0.00000000000E+00 0. -1.
         11    1    1    2    0    0 -0.13978475410E+02  0.11657270382E+01 -0.32407930561E+02  0.35313321248E+02  0.00000000000E+00 0.  1.
</event>
<event>
 7    1  0.4966153E-006  0.1137858E+03  0.7561462E-02  0.1253715E+00
         -3   -1    0    0    0  501 -0.00000000000E+00  0.00000000000E+00  0.33487890848E+03  0.33487890848E+03  0.00000000000E+00 0.  1.
          3   -1    0    0  501    0  0.00000000000E+00 -0.00000000000E+00 -0.51604460635E+02  0.51604460635E+02  0.00000000000E+00 0. -1.
         23    2    1    2    0    0  0.43818055769E+02  0.58289634257E+02  0.17356005785E+03  0.22602784766E+03  0.12509112984E+03 0.  0.
          5    1    3    3  502    0 -0.28880524698E+02  0.29793904254E+02  0.73561043897E+01  0.42347917414E+02  0.41800000000E+01 0. -1.
         -5    1    3    3    0  502  0.72698580467E+02  0.28495730003E+02  0.16620395346E+03  0.18367993025E+03  0.41800000000E+01 0. -1.
        -11    1    1    2    0    0 -0.32159630835E+02  0.13546185575E+02  0.68357476839E+02  0.76749499274E+02  0.00000000000E+00 0.  1.
         11    1    1    2    0    0 -0.11658424934E+02 -0.71835819832E+02  0.41356913154E+02  0.83706022176E+02  0.00000000000E+00 0. -1.
</event>
<event>
 7    1  0.4966153E-006  0.9797045E+02  0.7561462E-02  0.1284623E+00
          3   -1    0    0  501    0  0.00000000000E+00  0.00000000000E+00  0.19371949627E+03  0.19371949627E+03  0.00000000000E+00 0. -1.
         -3   -1    0    0    0  501 -0.00000000000E+00 -0.00000000000E+00 -0.10211108905E+03  0.10211108905E+03  0.00000000000E+00 0.  1.
         23    2    1    2    0    0  0.35199673649E+01 -0.59608083873E+02 -0.22640992193E+02  0.14044652921E+03  0.12508836559E+03 0.  0.
          5    1    3    3  502    0  0.12466319524E+02 -0.90010596408E+02  0.13761660037E+02  0.92000936274E+02  0.41800000000E+01 0. -1.
         -5    1    3    3    0  502 -0.89463521589E+01  0.30402512535E+02 -0.36402652230E+02  0.48445592934E+02  0.41800000000E+01 0. -1.
        -11    1    1    2    0    0 -0.22017498929E+02  0.22142439844E+02 -0.25559475838E+01  0.31330349014E+02  0.00000000000E+00 0.  1.
         11    1    1    2    0    0  0.18497531564E+02  0.37465644030E+02  0.11680534700E+03  0.12405370710E+03  0.00000000000E+00 0. -1.
</event>
<event>
 7    1  0.4966153E-006  0.1080562E+03  0.7561462E-02  0.1264212E+00
         -1   -1    0    0    0  501 -0.00000000000E+00  0.00000000000E+00  0.51196892524E+02  0.51196892524E+02  0.00000000000E+00 0.  1.
          1   -1    0    0  501    0  0.00000000000E+00 -0.00000000000E+00 -0.42161196334E+03  0.42161196334E+03  0.00000000000E+00 0. -1.
         23    2    1    2    0    0 -0.70236191467E+02 -0.15290216027E+02 -0.67459688988E+02  0.14866813140E+03  0.11128562511E+03 0.  0.
          5    1    3    3  502    0 -0.34991884967E+02  0.33841965390E+02 -0.72960251744E+02  0.87808777292E+02  0.41800000000E+01 0. -1.
         -5    1    3    3    0  502 -0.35244306500E+02 -0.49132181416E+02  0.55005627564E+01  0.60859354105E+02  0.41800000000E+01 0.  1.
        -11    1    1    2    0    0 -0.15081997157E+02 -0.94654106906E+01 -0.16681113857E+02  0.24399184358E+02  0.00000000000E+00 0.  1.
         11    1    1    2    0    0  0.85318188625E+02  0.24755626717E+02 -0.28627426797E+03  0.29974154011E+03  0.00000000000E+00 0. -1.
</event>
<event>
 7    1  0.4966153E-006  0.1085071E+03  0.7561462E-02  0.1263360E+00
         -1   -1    0    0    0  501 -0.00000000000E+00  0.00000000000E+00  0.47728248747E+02  0.47728248747E+02  0.00000000000E+00 0.  1.
          1   -1    0    0  501    0  0.00000000000E+00 -0.00000000000E+00 -0.43471378369E+03  0.43471378369E+03  0.00000000000E+00 0. -1.
         23    2    1    2    0    0 -0.14095474191E+02 -0.72776733150E+02 -0.10959271677E+03  0.18208225259E+03  0.12509295687E+03 0.  0.
          5    1    3    3  502    0 -0.11092473068E+02 -0.90499526523E+02 -0.12721127751E+03  0.15656752149E+03  0.41800000000E+01 0. -1.
         -5    1    3    3    0  502 -0.30030011231E+01  0.17722793373E+02  0.17618560738E+02  0.25514731101E+02  0.41800000000E+01 0. -1.
        -11    1    1    2    0    0 -0.32284292777E+02  0.26485275361E+02 -0.58540865507E+02  0.71908124057E+02  0.00000000000E+00 0.  1.
         11    1    1    2    0    0  0.46379766968E+02  0.46291457789E+02 -0.21885195266E+03  0.22845165579E+03  0.00000000000E+00 0. -1.
</event>
<event>
 7    1  0.4966153E-006  0.1596719E+03  0.7561462E-02  0.1189068E+00
         -2   -1    0    0    0  501 -0.00000000000E+00  0.00000000000E+00  0.32618135600E+02  0.32618135600E+02  0.00000000000E+00 0.  1.
          2   -1    0    0  501    0  0.00000000000E+00 -0.00000000000E+00 -0.98714034767E+03  0.98714034767E+03  0.00000000000E+00 0. -1.
         23    2    1    2    0    0  0.87936624454E+02 -0.11107033721E+03 -0.53119629187E+03  0.56381472223E+03  0.12509224908E+03 0.  0.
          5    1    3    3  502    0 -0.49851722922E+00 -0.46453499035E+02 -0.34197072727E+03  0.34513711305E+03  0.41800000000E+01 0. -1.
         -5    1    3    3    0  502  0.88435141683E+02 -0.64616838174E+02 -0.18922556459E+03  0.21867760918E+03  0.41800000000E+01 0. -1.
        -11    1    1    2    0    0  0.15652682756E+02  0.11634272718E+02 -0.20519488510E+02  0.28309224431E+02  0.00000000000E+00 0.  1.
         11    1    1    2    0    0 -0.10358930721E+03  0.99436064492E+02 -0.40280643170E+03  0.42763453662E+03  0.00000000000E+00 0. -1.
</event>
<event>
 7    1  0.4966153E-006  0.9262534E+02  0.7561462E-02  0.1296616E+00
         -2   -1    0    0    0  501 -0.00000000000E+00  0.00000000000E+00  0.16032919946E+03  0.16032919946E+03  0.00000000000E+00 0.  1.
          2   -1    0    0  501    0  0.00000000000E+00 -0.00000000000E+00 -0.95506614650E+02  0.95506614650E+02  0.00000000000E+00 0. -1.
         23    2    1    2    0    0 -0.56895399039E+02  0.11597615176E+02  0.41450030831E+02  0.14399906028E+03  0.12508410450E+03 0.  0.
          5    1    3    3  502    0 -0.30082344132E+02 -0.27190707805E+02  0.75421031237E+02  0.85732644729E+02  0.41800000000E+01 0.  1.
         -5    1    3    3    0  502 -0.26813054907E+02  0.38788322981E+02 -0.33971000406E+02  0.58266415556E+02  0.41800000000E+01 0.  1.
        -11    1    1    2    0    0  0.47016148512E+02 -0.43314814865E+02  0.39252363178E+02  0.75016261056E+02  0.00000000000E+00 0. -1.
         11    1    1    2    0    0  0.98792505269E+01  0.31717199689E+02 -0.15879809204E+02  0.36820492765E+02  0.00000000000E+00 0.  1.
</event>
<event>
 7    1  0.4966153E-006  0.1079429E+03  0.7561462E-02  0.1264428E+00
         -1   -1    0    0    0  501 -0.00000000000E+00  0.00000000000E+00  0.28804248553E+03  0.28804248553E+03  0.00000000000E+00 0.  1.
          1   -1    0    0  501    0  0.00000000000E+00 -0.00000000000E+00 -0.63712444173E+02  0.63712444173E+02  0.00000000000E+00 0. -1.
         23    2    1    2    0    0  0.72012204743E+02  0.32847585498E+02  0.12951093435E+03  0.19669435813E+03  0.12510342480E+03 0.  0.
          5    1    3    3  502    0  0.47689041881E+02 -0.31699678135E+02  0.94816042651E+01  0.58193535112E+02  0.41800000000E+01 0.  1.
         -5    1    3    3    0  502  0.24323162863E+02  0.64547263633E+02  0.12002933009E+03  0.13850082301E+03  0.41800000000E+01 0.  1.
        -11    1    1    2    0    0 -0.91173125350E+01 -0.24222705110E+02  0.87392109061E+02  0.91144092276E+02  0.00000000000E+00 0.  1.
         11    1    1    2    0    0 -0.62894892208E+02 -0.86248803878E+01  0.74269979413E+01  0.63916479299E+02  0.00000000000E+00 0. -1.
</event>
<event>
 7    1  0.4966153E-006  0.1697031E+03  0.7561462E-02  0.1178158E+00
          2   -1    0    0  501    0  0.00000000000E+00  0.00000000000E+00  0.11602790555E+03  0.11602790555E+03  0.00000000000E+00 0. -1.
         -2   -1    0    0    0  501 -0.00000000000E+00 -0.00000000000E+00 -0.27918384492E+03  0.27918384492E+03  0.00000000000E+00 0.  1.
         23    2    1    2    0    0 -0.63939723326E+02  0.11689793759E+03 -0.14573105319E+03  0.23375503163E+03  0.12510179421E+03 0.  0.
          5    1    3    3  502    0 -0.83151495825E+02  0.26412738056E+02 -0.50343067820E+02  0.10081518173E+03  0.41800000000E+01 0.  1.
         -5    1    3    3    0  502  0.19211772499E+02  0.90485199535E+02 -0.95387985371E+02  0.13293984990E+03  0.41800000000E+01 0.  1.
        -11    1    1    2    0    0 -0.13540708073E+02 -0.64554848215E+02  0.18544113554E+01  0.65985741222E+02  0.00000000000E+00 0. -1.
         11    1    1    2    0    0  0.77480431399E+02 -0.52343089377E+02 -0.19279297531E+02  0.95470977625E+02  0.00000000000E+00 0.  1.
</event>
<event>
 7    1  0.4966153E-006  0.1077002E+03  0.7561462E-02  0.1264889E+00
         -2   -1    0    0    0  501 -0.00000000000E+00  0.00000000000E+00  0.61829626410E+02  0.61829626410E+02  0.00000000000E+00 0.  1.
          2   -1    0    0  501    0  0.00000000000E+00 -0.00000000000E+00 -0.25174784229E+03  0.25174784229E+03  0.00000000000E+00 0. -1.
         23    2    1    2    0    0  0.28784396691E+02 -0.91983194263E+01 -0.37742910515E+02  0.13410973288E+03  0.12509093726E+03 0.  0.
          5    1    3    3  502    0 -0.35754794051E+02  0.28420517927E+02  0.77935313268E+01  0.46522496358E+02  0.41800000000E+01 0.  1.
         -5    1    3    3    0  502  0.64539190741E+02 -0.37618837354E+02 -0.45536441841E+02  0.87587236519E+02  0.41800000000E+01 0.  1.
        -11    1    1    2    0    0 -0.61402400308E+02  0.92674626481E+01 -0.91526491752E+02  0.11060397515E+03  0.00000000000E+00 0.  1.
         11    1    1    2    0    0  0.32618003617E+02 -0.69143221777E-01 -0.60648813614E+02  0.68863760669E+02  0.00000000000E+00 0. -1.
</event>
<event>
 7    1  0.4966153E-006  0.1173244E+03  0.7561462E-02  0.1247577E+00
         -1   -1    0    0    0  501 -0.00000000000E+00  0.00000000000E+00  0.39342109964E+02  0.39342109964E+02  0.00000000000E+00 0.  1.
          1   -1    0    0  501    0  0.00000000000E+00 -0.00000000000E+00 -0.62928682244E+03  0.62928682244E+03  0.00000000000E+00 0. -1.
         23    2    1    2    0    0 -0.76253643479E+02  0.74209189536E+02 -0.23263465290E+03  0.28475994245E+03  0.12509085155E+03 0.  0.
          5    1    3    3  502    0 -0.34766391060E+02  0.60040915868E+02 -0.23040964456E+03  0.24066509974E+03  0.41800000000E+01 0.  1.
         -5    1    3    3    0  502 -0.41487252419E+02  0.14168273668E+02 -0.22250083409E+01  0.44094842715E+02  0.41800000000E+01 0.  1.
        -11    1    1    2    0    0  0.40693446127E+02 -0.21523221101E+01 -0.42154367281E+02  0.58630876925E+02  0.00000000000E+00 0.  1.
         11    1    1    2    0    0  0.35560197352E+02 -0.72056867426E+02 -0.31515569229E+03  0.32523811302E+03  0.00000000000E+00 0. -1.
</event>
<event>
 7    1  0.4966153E-006  0.1055799E+03  0.7561462E-02  0.1268981E+00
          2   -1    0    0  501    0  0.00000000000E+00  0.00000000000E+00  0.25247770521E+03  0.25247770521E+03  0.00000000000E+00 0. -1.
         -2   -1    0    0    0  501 -0.00000000000E+00 -0.00000000000E+00 -0.48713356152E+02  0.48713356152E+02  0.00000000000E+00 0.  1.
         23    2    1    2    0    0  0.13061292428E+02  0.10297725808E+02  0.10612863515E+03  0.16488524895E+03  0.12508883885E+03 0.  0.
          5    1    3    3  502    0 -0.91193971759E+00  0.62144085366E+02  0.88481812150E+02  0.10820916071E+03  0.41800000000E+01 0.  1.
         -5    1    3    3    0  502  0.13973232145E+02 -0.51846359558E+02  0.17646822996E+02  0.56676088237E+02  0.41800000000E+01 0.  1.
        -11    1    1    2    0    0 -0.49091093824E+02 -0.26178924348E+02  0.54022196008E+02  0.77547851255E+02  0.00000000000E+00 0.  1.
         11    1    1    2    0    0  0.36029801396E+02  0.15881198540E+02  0.43613517902E+02  0.58757961158E+02  0.00000000000E+00 0. -1.
</event>
<event>
 7    1  0.4966153E-006  0.1012971E+03  0.7561462E-02  0.1277592E+00
          1   -1    0    0  501    0  0.00000000000E+00  0.00000000000E+00  0.46064247668E+03  0.46064247668E+03  0.00000000000E+00 0. -1.
         -1   -1    0    0    0  501 -0.00000000000E+00 -0.00000000000E+00 -0.29129871272E+02  0.29129871272E+02  0.00000000000E+00 0.  1.
         23    2    1    2    0    0  0.12728932939E+02  0.33287686913E+02  0.20658879200E+03  0.24412486931E+03  0.12509167439E+03 0.  0.
          5    1    3    3  502    0 -0.16445134483E+02 -0.30170676341E+02  0.10879401629E+02  0.36284238160E+02  0.41800000000E+01 0. -1.
         -5    1    3    3    0  502  0.29174067422E+02  0.63458363254E+02  0.19570939037E+03  0.20784063115E+03  0.41800000000E+01 0. -1.
        -11    1    1    2    0    0 -0.49238209967E+02 -0.96187395981E+00  0.12802549796E+03  0.13717089578E+03  0.00000000000E+00 0. -1.
         11    1    1    2    0    0  0.36509277028E+02 -0.32325812953E+02  0.96898315441E+02  0.10847658285E+03  0.00000000000E+00 0.  1.
</event>
<event>
 7    1  0.4966153E-006  0.1197711E+03  0.7561462E-02  0.1243475E+00
          2   -1    0    0  501    0  0.00000000000E+00  0.00000000000E+00  0.17827756698E+02  0.17827756698E+02  0.00000000000E+00 0. -1.
         -2   -1    0    0    0  501 -0.00000000000E+00 -0.00000000000E+00 -0.13209204748E+04  0.13209204748E+04  0.00000000000E+00 0.  1.
         23    2    1    2    0    0 -0.99522603087E+02  0.32946489148E+02 -0.81663083404E+03  0.83278046220E+03  0.12508860635E+03 0.  0.
          5    1    3    3  502    0 -0.29900492236E+02  0.28897560587E+02 -0.65943851117E+03  0.66076147804E+03  0.41800000000E+01 0. -1.
         -5    1    3    3    0  502 -0.69622110851E+02  0.40489285610E+01 -0.15719232287E+03  0.17201898416E+03  0.41800000000E+01 0. -1.
        -11    1    1    2    0    0  0.50150942333E+02  0.21342756015E+02 -0.31162552335E+03  0.31635596573E+03  0.00000000000E+00 0.  1.
         11    1    1    2    0    0  0.49371660754E+02 -0.54289245163E+02 -0.17483636071E+03  0.18961180357E+03  0.00000000000E+00 0. -1.
</event>
<event>
 7    1  0.4966153E-006  0.9948910E+02  0.7561462E-02  0.1281374E+00
         -2   -1    0    0    0  501 -0.00000000000E+00  0.00000000000E+00  0.18491656254E+03  0.18491656254E+03  0.00000000000E+00 0.  1.
          2   -1    0    0  501    0  0.00000000000E+00 -0.00000000000E+00 -0.80269608688E+02  0.80269608688E+02  0.00000000000E+00 0. -1.
         23    2    1    2    0    0  0.40849019161E+01 -0.46705977976E+02  0.93605266641E+02  0.16311048679E+03  0.12507977516E+03 0.  0.
          5    1    3    3  502    0  0.49897530603E+02 -0.34658213236E+02  0.32239584151E+01  0.60982141754E+02  0.41800000000E+01 0.  1.
         -5    1    3    3    0  502 -0.45812628687E+02 -0.12047764740E+02  0.90381308226E+02  0.10212834503E+03  0.41800000000E+01 0.  1.
        -11    1    1    2    0    0 -0.27832392089E+01  0.68568888569E+02 -0.12682727176E+02  0.69787466415E+02  0.00000000000E+00 0. -1.
         11    1    1    2    0    0 -0.13016627072E+01 -0.21862910593E+02  0.23724414387E+02  0.32288218028E+02  0.00000000000E+00 0.  1.
</event>
<event>
 7    1  0.4966153E-006  0.1752930E+03  0.7561462E-02  0.1172438E+00
         -2   -1    0    0    0  501 -0.00000000000E+00  0.00000000000E+00  0.35776575501E+02  0.35776575501E+02  0.00000000000E+00 0.  1.
          2   -1    0    0  501    0  0.00000000000E+00 -0.00000000000E+00 -0.10453249186E+04  0.10453249186E+04  0.00000000000E+00 0. -1.
         23    2    1    2    0    0  0.12597717999E+03  0.57224761818E+02 -0.30874512216E+03  0.36071781664E+03  0.12509544174E+03 0.  0.
          5    1    3    3  502    0 -0.22500746802E+02 -0.80097470268E+01 -0.37300572261E+02  0.44488703567E+02  0.41800000000E+01 0.  1.
         -5    1    3    3    0  502  0.14847792679E+03  0.65234508845E+02 -0.27144454990E+03  0.31622911308E+03  0.41800000000E+01 0.  1.
        -11    1    1    2    0    0 -0.82697251836E+02 -0.80122120723E+02 -0.42783994895E+03  0.44306366541E+03  0.00000000000E+00 0.  1.
         11    1    1    2    0    0 -0.43279928153E+02  0.22897358905E+02 -0.27296327197E+03  0.27732001203E+03  0.00000000000E+00 0. -1.
</event>
<event>
 6    1  0.4966153E-006  0.1361403E+03  0.7561462E-02  0.1218619E+00
         -4   -1    0    0    0  501 -0.00000000000E+00  0.00000000000E+00  0.98888303939E+03  0.98888303939E+03  0.00000000000E+00 0.  1.
          4   -1    0    0  501    0  0.00000000000E+00 -0.00000000000E+00 -0.21755924805E+02  0.21755924805E+02  0.00000000000E+00 0. -1.
          5    1    1    2  502    0  0.10343330318E+03 -0.32481244931E+02  0.31491832031E+03  0.33308332343E+03  0.41800000000E+01 0. -1.
         -5    1    1    2    0  502 -0.58425621363E+02 -0.54341366457E+01  0.36885530608E+03  0.37351678985E+03  0.41800000000E+01 0.  1.
        -11    1    1    2    0    0  0.15988722714E+02  0.40876042358E+02  0.16652617780E+03  0.17221340827E+03  0.00000000000E+00 0.  1.
         11    1    1    2    0    0 -0.60996404532E+02 -0.29606607814E+01  0.11682731039E+03  0.13182544266E+03  0.00000000000E+00 0. -1.
</event>
<event>
 7    1  0.4966153E-006  0.2326658E+03  0.7561462E-02  0.1124777E+00
         -2   -1    0    0    0  501 -0.00000000000E+00  0.00000000000E+00  0.40261741052E+02  0.40261741052E+02  0.00000000000E+00 0.  1.
          2   -1    0    0  501    0  0.00000000000E+00 -0.00000000000E+00 -0.14730991364E+04  0.14730991364E+04  0.00000000000E+00 0. -1.
         23    2    1    2    0    0  0.21311604529E+03  0.34415516448E+02 -0.81473398943E+03  0.85208123046E+03  0.12509225884E+03 0.  0.
          5    1    3    3  502    0 -0.42423029018E+01  0.16728417101E+02 -0.18086166544E+03  0.18173126175E+03  0.41800000000E+01 0. -1.
         -5    1    3    3    0  502  0.21735834820E+03  0.17687099347E+02 -0.63387232400E+03  0.67034996870E+03  0.41800000000E+01 0. -1.
        -11    1    1    2    0    0 -0.78943584991E+02 -0.51418464058E+02 -0.18590498017E+03  0.20841451415E+03  0.00000000000E+00 0.  1.
         11    1    1    2    0    0 -0.13417246030E+03  0.17002947611E+02 -0.43219842574E+03  0.45286513284E+03  0.00000000000E+00 0. -1.
</event>
<event>
 7    1  0.4966153E-006  0.3715323E+02  0.7561462E-02  0.1530270E+00
          3   -1    0    0  501    0  0.00000000000E+00  0.00000000000E+00  0.48966952737E+02  0.48966952737E+02  0.00000000000E+00 0. -1.
         -3   -1    0    0    0  501 -0.00000000000E+00 -0.00000000000E+00 -0.30247997731E+03  0.30247997731E+03  0.00000000000E+00 0.  1.
         23    2    1    2    0    0  0.25442599411E+02 -0.99054290979E+01 -0.20765400869E+03  0.24395158403E+03  0.12508694830E+03 0.  0.
          5    1    3    3  502    0 -0.56213437372E+01 -0.36316451829E+01 -0.21159666029E+03  0.21174373048E+03  0.41800000000E+01 0. -1.
         -5    1    3    3    0  502  0.31063943148E+02 -0.62737839150E+01  0.39426515996E+01  0.32207853548E+02  0.41800000000E+01 0. -1.
        -11    1    1    2    0    0 -0.22095444222E+02 -0.19024293126E+01 -0.73755971105E+02  0.77017992484E+02  0.00000000000E+00 0.  1.
         11    1    1    2    0    0 -0.33471551896E+01  0.11807858410E+02  0.27896955220E+02  0.30477353537E+02  0.00000000000E+00 0. -1.
</event>
<event>
 7    1  0.4966153E-006  0.1608893E+03  0.7561462E-02  0.1187696E+00
         -1   -1    0    0    0  501 -0.00000000000E+00  0.00000000000E+00  0.78596358221E+02  0.78596358221E+02  0.00000000000E+00 0. -1.
          1   -1    0    0  501    0  0.00000000000E+00 -0.00000000000E+00 -0.42297226182E+03  0.42297226182E+03  0.00000000000E+00 0.  1.
         23    2    1    2    0    0  0.14426222795E+03 -0.24965868418E+02 -0.19238403702E+03  0.27220160150E+03  0.12508880509E+03 0.  0.
          5    1    3    3  502    0  0.13875177207E+03 -0.51959094823E+00 -0.87061465201E+02  0.16385815619E+03  0.41800000000E+01 0.  1.
         -5    1    3    3    0  502  0.55104558808E+01 -0.24446277470E+02 -0.10532257182E+03  0.10834344531E+03  0.41800000000E+01 0.  1.
        -11    1    1    2    0    0 -0.71590623355E+02 -0.17078156398E+02 -0.26186219212E+02  0.78119132452E+02  0.00000000000E+00 0. -1.
         11    1    1    2    0    0 -0.72671604598E+02  0.42044024816E+02 -0.12580564736E+03  0.15124788609E+03  0.00000000000E+00 0.  1.
</event>
<event>
 7    1  0.4966153E-006  0.3144712E+03  0.7561462E-02  0.1078222E+00
          1   -1    0    0  501    0  0.00000000000E+00  0.00000000000E+00  0.82336721269E+03  0.82336721269E+03  0.00000000000E+00 0. -1.
         -1   -1    0    0    0  501 -0.00000000000E+00 -0.00000000000E+00 -0.17868658665E+03  0.17868658665E+03  0.00000000000E+00 0.  1.
         23    2    1    2    0    0 -0.26540197229E+03 -0.16696511650E+03  0.75602740887E+02  0.34594669009E+03  0.12509109054E+03 0.  0.
          5    1    3    3  502    0 -0.22178197655E+02 -0.20693053388E+02 -0.30211844532E+02  0.43015146865E+02  0.41800000000E+01 0.  1.
         -5    1    3    3    0  502 -0.24322377463E+03 -0.14627206311E+03  0.10581458542E+03  0.30293154323E+03  0.41800000000E+01 0.  1.
        -11    1    1    2    0    0  0.54155171782E+02  0.45927712828E+02  0.21483742253E+03  0.22626810548E+03  0.00000000000E+00 0. -1.
         11    1    1    2    0    0  0.21124680051E+03  0.12103740367E+03  0.35424046262E+03  0.42983900378E+03  0.00000000000E+00 0.  1.
</event>
<event>
 7    1  0.4966153E-006  0.1207091E+03  0.7561462E-02  0.1241932E+00
         -1   -1    0    0    0  501 -0.00000000000E+00  0.00000000000E+00  0.35399034343E+03  0.35399034343E+03  0.00000000000E+00 0.  1.
          1   -1    0    0  501    0  0.00000000000E+00 -0.00000000000E+00 -0.76520771851E+02  0.76520771851E+02  0.00000000000E+00 0. -1.
         23    2    1    2    0    0  0.23041059155E+02 -0.77491527741E+02  0.27095780909E+03  0.30841703058E+03  0.12315479352E+03 0.  0.
          5    1    3    3  502    0  0.38164207262E+02  0.54487007344E+01  0.18079823915E+03  0.18490989897E+03  0.41800000000E+01 0. -1.
         -5    1    3    3    0  502 -0.15123148107E+02 -0.82940228475E+02  0.90159569942E+02  0.12350713162E+03  0.41800000000E+01 0.  1.
        -11    1    1    2    0    0 -0.41328426835E+02  0.87940477610E+02  0.16872419462E+02  0.98621726843E+02  0.00000000000E+00 0.  1.
         11    1    1    2    0    0  0.18287367681E+02 -0.10448949869E+02 -0.10360656979E+02  0.23472357851E+02  0.00000000000E+00 0. -1.
</event>
<event>
 7    1  0.4966153E-006  0.1009903E+03  0.7561462E-02  0.1278227E+00
         -1   -1    0    0    0  501 -0.00000000000E+00  0.00000000000E+00  0.25183888897E+03  0.25183888897E+03  0.00000000000E+00 0.  1.
          1   -1    0    0  501    0  0.00000000000E+00 -0.00000000000E+00 -0.77857654179E+02  0.77857654179E+02  0.00000000000E+00 0. -1.
         23    2    1    2    0    0  0.58636849302E+02  0.66157080879E+02  0.10898546356E+03  0.18799076686E+03  0.12509059800E+03 0.  0.
          5    1    3    3  502    0  0.73160754160E+02  0.58608968134E+02  0.18120162112E+02  0.95568403617E+02  0.41800000000E+01 0. -1.
         -5    1    3    3    0  502 -0.14523904858E+02  0.75481127448E+01  0.90865301453E+02  0.92422363238E+02  0.41800000000E+01 0. -1.
        -11    1    1    2    0    0 -0.43340727935E+02 -0.32149593613E+02 -0.12777495415E+02  0.55455202249E+02  0.00000000000E+00 0. -1.
         11    1    1    2    0    0 -0.15296121367E+02 -0.34007487266E+02  0.77773266640E+02  0.86250574043E+02  0.00000000000E+00 0.  1.
</event>
<event>
 7    1  0.4966153E-006  0.1503084E+03  0.7561462E-02  0.1200095E+00
         -2   -1    0    0    0  501 -0.00000000000E+00  0.00000000000E+00  0.48374961449E+03  0.48374961449E+03  0.00000000000E+00 0. -1.
          2   -1    0    0  501    0  0.00000000000E+00 -0.00000000000E+00 -0.97091371982E+02  0.97091371982E+02  0.00000000000E+00 0.  1.
         23    2    1    2    0    0  0.87986947475E+02 -0.94834202250E+02  0.38556826621E+03  0.42549171827E+03  0.12508031646E+03 0.  0.
          5    1    3    3  502    0  0.15009153739E+02 -0.67168581933E+02  0.62362422683E+02  0.92970087974E+02  0.41800000000E+01 0.  1.
         -5    1    3    3    0  502  0.72977793736E+02 -0.27665620317E+02  0.32320584353E+03  0.33252163030E+03  0.41800000000E+01 0.  1.
        -11    1    1    2    0    0  0.12951109730E+02  0.32220681300E+02 -0.97657150792E+01  0.36073158133E+02  0.00000000000E+00 0.  1.
         11    1    1    2    0    0 -0.10093805721E+03  0.62613520950E+02  0.10855691380E+02  0.11927611007E+03  0.00000000000E+00 0. -1.
</event>
<event>
 7    1  0.5163264E-006  0.3295937E+03  0.7561462E-02  0.1071317E+00
          2   -1    0    0  501    0  0.00000000000E+00  0.00000000000E+00  0.22497432012E+03  0.22497432012E+03  0.00000000000E+00 0. -1.
         -2   -1    0    0    0  501 -0.00000000000E+00 -0.00000000000E+00 -0.54742823512E+03  0.54742823512E+03  0.00000000000E+00 0.  1.
         23    2    1    2    0    0 -0.30739317644E+03  0.82904216928E+02 -0.27332273606E+03  0.43785413272E+03  0.12508896590E+03 0.  0.
          5    1    3    3  502    0 -0.20357169765E+03  0.13094953814E+02 -0.10913077667E+03  0.23138693290E+03  0.41800000000E+01 0.  1.
         -5    1    3    3    0  502 -0.10382147879E+03  0.69809263114E+02 -0.16419195939E+03  0.20646719982E+03  0.41800000000E+01 0.  1.
        -11    1    1    2    0    0  0.77516805962E+02  0.16946658723E+02 -0.10638533198E+01  0.79354749274E+02  0.00000000000E+00 0. -1.
         11    1    1    2    0    0  0.22987637048E+03 -0.99850875651E+02 -0.48067325631E+02  0.25519367325E+03  0.00000000000E+00 0.  1.
</event>
<event>
 7    1  0.4966153E-006  0.1221487E+03  0.7561462E-02  0.1239594E+00
         -2   -1    0    0    0  501 -0.00000000000E+00  0.00000000000E+00  0.26657340734E+03  0.26657340734E+03  0.00000000000E+00 0.  1.
          2   -1    0    0  501    0  0.00000000000E+00 -0.00000000000E+00 -0.63698120606E+02  0.63698120606E+02  0.00000000000E+00 0. -1.
         23    2    1    2    0    0  0.68206810675E+02  0.23495617665E+02  0.97677189006E+02  0.17433602470E+03  0.12509197890E+03 0.  0.
          5    1    3    3  502    0 -0.18074484599E+02  0.37361981742E+02  0.71908126711E+02  0.83131556946E+02  0.41800000000E+01 0.  1.
         -5    1    3    3    0  502  0.86281295274E+02 -0.13866364077E+02  0.25769062296E+02  0.91204467755E+02  0.41800000000E+01 0.  1.
        -11    1    1    2    0    0  0.18798925204E+02  0.10676269735E+02  0.20591584686E+02  0.29856250336E+02  0.00000000000E+00 0.  1.
         11    1    1    2    0    0 -0.87005735880E+02 -0.34171887400E+02  0.84606513038E+02  0.12607925290E+03  0.00000000000E+00 0. -1.
</event>
<event>
 7    1  0.4966153E-006  0.9615681E+02  0.7561462E-02  0.1288592E+00
         -2   -1    0    0    0  501 -0.00000000000E+00  0.00000000000E+00  0.62170437365E+02  0.62170437365E+02  0.00000000000E+00 0.  1.
          2   -1    0    0  501    0  0.00000000000E+00 -0.00000000000E+00 -0.23852029536E+03  0.23852029536E+03  0.00000000000E+00 0. -1.
         23    2    1    2    0    0  0.93001952346E+01 -0.55298955295E+02 -0.91698667065E+02  0.16492574792E+03  0.12508952274E+03 0.  0.
          5    1    3    3  502    0  0.18079994196E+02 -0.73303774820E+02 -0.49298642840E+01  0.75776682131E+02  0.41800000000E+01 0.  1.
         -5    1    3    3    0  502 -0.87797989617E+01  0.18004819525E+02 -0.86768802781E+02  0.89149065794E+02  0.41800000000E+01 0.  1.
        -11    1    1    2    0    0 -0.94620077989E+01 -0.19374169552E+02 -0.47918821806E+02  0.52546184645E+02  0.00000000000E+00 0. -1.
         11    1    1    2    0    0  0.16181256434E+00  0.74673124847E+02 -0.36732369122E+02  0.83218800154E+02  0.00000000000E+00 0.  1.
</event>
<event>
 7    1  0.4966153E-006  0.9286736E+02  0.7561462E-02  0.1296053E+00
         -1   -1    0    0    0  501 -0.00000000000E+00  0.00000000000E+00  0.46097103317E+03  0.46097103317E+03  0.00000000000E+00 0.  1.
          1   -1    0    0  501    0  0.00000000000E+00 -0.00000000000E+00 -0.33053728565E+02  0.33053728565E+02  0.00000000000E+00 0. -1.
         23    2    1    2    0    0 -0.70434387531E+01 -0.41836803183E+02  0.31813534543E+03  0.34446699043E+03  0.12508989311E+03 0.  0.
          5    1    3    3  502    0  0.23266551110E+02  0.13384510680E+02  0.85040083306E+01  0.28465208314E+02  0.41800000000E+01 0. -1.
         -5    1    3    3    0  502 -0.30309989863E+02 -0.55221313863E+02  0.30963133710E+03  0.31600178212E+03  0.41800000000E+01 0. -1.
        -11    1    1    2    0    0  0.29843479259E+02 -0.15576087100E+02  0.65195011073E+02  0.73373273148E+02  0.00000000000E+00 0.  1.
         11    1    1    2    0    0 -0.22800040506E+02  0.57412890283E+02  0.44586948105E+02  0.76184498155E+02  0.00000000000E+00 0. -1.
</event>
<event>
 7    1  0.4966153E-006  0.8017354E+02  0.7561462E-02  0.1328560E+00
          4   -1    0    0  501    0  0.00000000000E+00  0.00000000000E+00  0.70392452157E+02  0.70392452157E+02  0.00000000000E+00 0. -1.
         -4   -1    0    0    0  501 -0.00000000000E+00 -0.00000000000E+00 -0.17564260244E+03  0.17564260244E+03  0.00000000000E+00 0.  1.
         23    2    1    2    0    0  0.11393663751E+02 -0.11093855701E+02 -0.73702163661E+02  0.14604936473E+03  0.12508204827E+03 0.  0.
          5    1    3    3  502    0  0.94294366045E+01  0.27392393690E+02  0.25954322600E+02  0.39119774646E+02  0.41800000000E+01 0.  1.
         -5    1    3    3    0  502  0.19642271467E+01 -0.38486249391E+02 -0.99656486262E+02  0.10692959008E+03  0.41800000000E+01 0.  1.
        -11    1    1    2    0    0 -0.44833280659E+02 -0.17686109081E+02 -0.27965120610E+02  0.55721355688E+02  0.00000000000E+00 0. -1.
         11    1    1    2    0    0  0.33439616908E+02  0.28779964782E+02 -0.35828660121E+01  0.44264334183E+02  0.00000000000E+00 0.  1.
</event>
<event>
 7    1  0.4966153E-006  0.1410877E+03  0.7561462E-02  0.1211873E+00
         -1   -1    0    0    0  501 -0.00000000000E+00  0.00000000000E+00  0.49711379361E+03  0.49711379361E+03  0.00000000000E+00 0.  1.
          1   -1    0    0  501    0  0.00000000000E+00 -0.00000000000E+00 -0.64861147481E+02  0.64861147481E+02  0.00000000000E+00 0. -1.
         23    2    1    2    0    0  0.79518641230E+02  0.95982103820E+02  0.33860329042E+03  0.38188410375E+03  0.12508997504E+03 0.  0.
          5    1    3    3  502    0 -0.18260210657E+01  0.69923079454E+02  0.24621052347E+03  0.25598762794E+03  0.41800000000E+01 0. -1.
         -5    1    3    3    0  502  0.81344662296E+02  0.26059024366E+02  0.92392766953E+02  0.12589647581E+03  0.41800000000E+01 0. -1.
        -11    1    1    2    0    0 -0.34942945287E+02 -0.25769880664E+02  0.86291805700E+02  0.96599026423E+02  0.00000000000E+00 0.  1.
         11    1    1    2    0    0 -0.44575695943E+02 -0.70212223157E+02  0.73575500118E+01  0.83491810925E+02  0.00000000000E+00 0. -1.
</event>
<event>
 7    1  0.4966153E-006  0.1642085E+03  0.7561462E-02  0.1184026E+00
         -2   -1    0    0    0  501 -0.00000000000E+00  0.00000000000E+00  0.61275781486E+02  0.61275781486E+02  0.00000000000E+00 0. -1.
          2   -1    0    0  501    0  0.00000000000E+00 -0.00000000000E+00 -0.51126709882E+03  0.51126709882E+03  0.00000000000E+00 0.  1.
         23    2    1    2    0    0 -0.10651402975E+03  0.89448408992E+02 -0.25168310834E+03  0.31358971561E+03  0.12509143179E+03 0.  0.
          5    1    3    3  502    0 -0.40741586263E+02  0.86752208849E+02 -0.22083480879E+03  0.24077231520E+03  0.41800000000E+01 0.  1.
         -5    1    3    3    0  502 -0.65772443488E+02  0.26962001431E+01 -0.30848299546E+02  0.72817400410E+02  0.41800000000E+01 0.  1.
        -11    1    1    2    0    0  0.69946197830E+02 -0.62369314468E-01 -0.83935799996E+02  0.10925975014E+03  0.00000000000E+00 0.  1.
         11    1    1    2    0    0  0.36567831922E+02 -0.89386039677E+02 -0.11437240900E+03  0.14969341456E+03  0.00000000000E+00 0. -1.
</event>
<event>
 7    1  0.4966153E-006  0.1157358E+03  0.7561462E-02  0.1250302E+00
          2   -1    0    0  501    0  0.00000000000E+00  0.00000000000E+00  0.75048002643E+02  0.75048002643E+02  0.00000000000E+00 0. -1.
         -2   -1    0    0    0  501 -0.00000000000E+00 -0.00000000000E+00 -0.21887151171E+03  0.21887151171E+03  0.00000000000E+00 0.  1.
         23    2    1    2    0    0 -0.62726762981E+02  0.26773361554E+02 -0.90636158178E+02  0.16885910489E+03  0.12508806679E+03 0.  0.
          5    1    3    3  502    0 -0.80523509112E+02 -0.15846950620E+02 -0.20357854400E+02  0.84658584913E+02  0.41800000000E+01 0.  1.
         -5    1    3    3    0  502  0.17796746131E+02  0.42620312174E+02 -0.70278303778E+02  0.84200519979E+02  0.41800000000E+01 0.  1.
        -11    1    1    2    0    0  0.68183376930E+02 -0.46450360280E+02 -0.61614074137E+02  0.10297039862E+03  0.00000000000E+00 0. -1.
         11    1    1    2    0    0 -0.54566139493E+01  0.19676998725E+02  0.84267232442E+01  0.22090010848E+02  0.00000000000E+00 0.  1.
</event>
<event>
 7    1  0.4966153E-006  0.9492283E+02  0.7561462E-02  0.1291350E+00
          3   -1    0    0  501    0  0.00000000000E+00  0.00000000000E+00  0.15400932087E+03  0.15400932087E+03  0.00000000000E+00 0. -1.
         -3   -1    0    0    0  501 -0.00000000000E+00 -0.00000000000E+00 -0.14637833319E+03  0.14637833319E+03  0.00000000000E+00 0.  1.
         23    2    1    2    0    0 -0.15368531974E+02 -0.24837240570E+02 -0.96651901193E+02  0.16076024897E+03  0.12509671199E+03 0.  0.
          5    1    3    3  502    0 -0.57008390358E+02  0.24845291925E+02 -0.36503203002E+02  0.72230196812E+02  0.41800000000E+01 0.  1.
         -5    1    3    3    0  502  0.41639858384E+02 -0.49682532496E+02 -0.60148698190E+02  0.88530052160E+02  0.41800000000E+01 0.  1.
        -11    1    1    2    0    0  0.34046218491E+02  0.35369586779E+01  0.28900182078E+01  0.34351233973E+02  0.00000000000E+00 0.  1.
         11    1    1    2    0    0 -0.18677686517E+02  0.21300281892E+02  0.10139287067E+03  0.10527617112E+03  0.00000000000E+00 0. -1.
</event>
<event>
 7    1  0.4966153E-006  0.1099661E+03  0.7561462E-02  0.1260633E+00
          3   -1    0    0  501    0  0.00000000000E+00  0.00000000000E+00  0.17610656608E+03  0.17610656608E+03  0.00000000000E+00 0. -1.
         -3   -1    0    0    0  501 -0.00000000000E+00 -0.00000000000E+00 -0.89660791387E+02  0.89660791387E+02  0.00000000000E+00 0.  1.
         23    2    1    2    0    0 -0.44919529720E+02  0.36694445674E+02  0.33474236499E+02  0.14188728875E+03  0.12508889522E+03 0.  0.
          5    1    3    3  502    0 -0.43589454926E+01  0.62747043421E+02  0.59725099172E+02  0.86837501893E+02  0.41800000000E+01 0. -1.
         -5    1    3    3    0  502 -0.40560584227E+02 -0.26052597747E+02 -0.26250862673E+02  0.55049786860E+02  0.41800000000E+01 0. -1.
        -11    1    1    2    0    0  0.69093222753E+02 -0.58807264724E+01  0.48148034069E+02  0.84419722571E+02  0.00000000000E+00 0. -1.
         11    1    1    2    0    0 -0.24173693033E+02 -0.30813719201E+02  0.48235041284E+01  0.39460346146E+02  0.00000000000E+00 0.  1.
</event>
<event>
 7    1  0.4966153E-006  0.1141460E+03  0.7561462E-02  0.1253079E+00
          1   -1    0    0  501    0  0.00000000000E+00  0.00000000000E+00  0.15038315180E+03  0.15038315180E+03  0.00000000000E+00 0. -1.
         -1   -1    0    0    0  501 -0.00000000000E+00 -0.00000000000E+00 -0.12103798500E+03  0.12103798500E+03  0.00000000000E+00 0.  1.
         23    2    1    2    0    0 -0.64843332271E+02 -0.13824779745E+02 -0.33181244731E+02  0.14541446497E+03  0.12509432180E+03 0.  0.
          5    1    3    3  502    0 -0.93905664976E+02 -0.17430952432E+02 -0.53474947839E+02  0.10954065210E+03  0.41800000000E+01 0.  1.
         -5    1    3    3    0  502  0.29062332705E+02  0.36061726872E+01  0.20293703107E+02  0.35873812865E+02  0.41800000000E+01 0.  1.
        -11    1    1    2    0    0 -0.83332983682E+01 -0.20612964848E+02  0.33243786348E+02  0.39993593391E+02  0.00000000000E+00 0. -1.
         11    1    1    2    0    0  0.73176630639E+02  0.34437744593E+02  0.29282625182E+02  0.86013078435E+02  0.00000000000E+00 0.  1.
</event>
<event>
 7    1  0.4966153E-006  0.6965855E+02  0.7561462E-02  0.1361258E+00
          1   -1    0    0  501    0  0.00000000000E+00  0.00000000000E+00  0.20301065720E+03  0.20301065720E+03  0.00000000000E+00 0. -1.
         -1   -1    0    0    0  501 -0.00000000000E+00 -0.00000000000E+00 -0.67314335600E+02  0.67314335600E+02  0.00000000000E+00 0.  1.
         23    2    1    2    0    0  0.19836195371E+02  0.13106932013E+02  0.39066536025E+02  0.13318763054E+03  0.12508990518E+03 0.  0.
          5    1    3    3  502    0  0.70727734039E+01  0.26878476943E+02  0.81708649121E+02  0.86407478771E+02  0.41800000000E+01 0. -1.
         -5    1    3    3    0  502  0.12763421968E+02 -0.13771544930E+02 -0.42642113096E+02  0.46780151768E+02  0.41800000000E+01 0. -1.
        -11    1    1    2    0    0  0.26458799616E+02 -0.32391060327E+02  0.22096038558E+02  0.47302048435E+02  0.00000000000E+00 0.  1.
         11    1    1    2    0    0 -0.46294994987E+02  0.19284128314E+02  0.74533747015E+02  0.89835313824E+02  0.00000000000E+00 0. -1.
</event>
<event>
 7    1  0.4966153E-006  0.1023601E+03  0.7561462E-02  0.1275410E+00
         -2   -1    0    0    0  501 -0.00000000000E+00  0.00000000000E+00  0.31401449919E+02  0.31401449919E+02  0.00000000000E+00 0.  1.
          2   -1    0    0  501    0  0.00000000000E+00 -0.00000000000E+00 -0.45378589303E+03  0.45378589303E+03  0.00000000000E+00 0. -1.
         23    2    1    2    0    0  0.47644101670E+02  0.18417446459E+02 -0.21592496876E+03  0.25472523812E+03  0.12510872089E+03 0.  0.
          5    1    3    3  502    0 -0.38059732012E+02 -0.16857195411E+02 -0.57027228435E+02  0.70726836639E+02  0.41800000000E+01 0. -1.
         -5    1    3    3    0  502  0.85703833682E+02  0.35274641870E+02 -0.15889774032E+03  0.18399840148E+03  0.41800000000E+01 0. -1.
        -11    1    1    2    0    0  0.38709256570E+01 -0.18188748177E+02 -0.97843269423E+00  0.18621813989E+02  0.00000000000E+00 0.  1.
         11    1    1    2    0    0 -0.51515027327E+02 -0.22869828157E+00 -0.20548104166E+03  0.21184029084E+03  0.00000000000E+00 0. -1.
</event>
<event>
 7    1  0.4966153E-006  0.8569003E+02  0.7561462E-02  0.1313638E+00
          1   -1    0    0  501    0  0.00000000000E+00  0.00000000000E+00  0.21102306070E+03  0.21102306070E+03  0.00000000000E+00 0. -1.
         -1   -1    0    0    0  501 -0.00000000000E+00 -0.00000000000E+00 -0.95932212868E+02  0.95932212868E+02  0.00000000000E+00 0.  1.
         23    2    1    2    0    0 -0.11742453512E+02  0.12358535889E+02 -0.38540567940E+02  0.12669069962E+03  0.11947610376E+03 0.  0.
          5    1    3    3  502    0  0.37349846495E+02  0.22041303706E+02 -0.58255905490E+02  0.72746498381E+02  0.41800000000E+01 0. -1.
         -5    1    3    3    0  502 -0.49092300007E+02 -0.96827678167E+01  0.19715337550E+02  0.53944201239E+02  0.41800000000E+01 0.  1.
        -11    1    1    2    0    0 -0.30495472482E+02 -0.17318550970E+02  0.20761944679E+02  0.40754930946E+02  0.00000000000E+00 0.  1.
         11    1    1    2    0    0  0.42237925994E+02  0.49600150807E+01  0.13286947109E+03  0.13950964300E+03  0.00000000000E+00 0. -1.
</event>
<event>
 7    1  0.4966153E-006  0.8041445E+02  0.7561462E-02  0.1327879E+00
          1   -1    0    0  501    0  0.00000000000E+00  0.00000000000E+00  0.33528457653E+02  0.33528457653E+02  0.00000000000E+00 0. -1.
         -1   -1    0    0    0  501 -0.00000000000E+00 -0.00000000000E+00 -0.41293899842E+03  0.41293899842E+03  0.00000000000E+00 0.  1.
         23    2    1    2    0    0  0.82436719586E+01  0.14030581592E+02 -0.31795971556E+03  0.34206915940E+03  0.12509242081E+03 0.  0.
          5    1    3    3  502    0 -0.36862706036E+02 -0.30996155758E+02 -0.64033166822E+02  0.80233033230E+02  0.41800000000E+01 0. -1.
         -5    1    3    3    0  502  0.45106377994E+02  0.45026737349E+02 -0.25392654874E+03  0.26183612617E+03  0.41800000000E+01 0. -1.
        -11    1    1    2    0    0 -0.14388324619E+02 -0.29032969003E+02  0.77559293598E+01  0.33318037377E+02  0.00000000000E+00 0. -1.
         11    1    1    2    0    0  0.61446526600E+01  0.15002387411E+02 -0.69206754559E+02  0.71080259292E+02  0.00000000000E+00 0.  1.
</event>
<event>
 7    1  0.4966153E-006  0.1064550E+03  0.7561462E-02  0.1267279E+00
          4   -1    0    0  501    0  0.00000000000E+00  0.00000000000E+00  0.37636162505E+02  0.37636162505E+02  0.00000000000E+00 0. -1.
         -4   -1    0    0    0  501 -0.00000000000E+00 -0.00000000000E+00 -0.39077909168E+03  0.39077909168E+03  0.00000000000E+00 0.  1.
         23    2    1    2    0    0  0.47468434037E+01 -0.56701661519E+02 -0.17551555837E+03  0.22291429640E+03  0.12508981320E+03 0.  0.
          5    1    3    3  502    0  0.48832304694E+02 -0.11683176144E+02 -0.18494949075E+02  0.53671464745E+02  0.41800000000E+01 0. -1.
         -5    1    3    3    0  502 -0.44085461291E+02 -0.45018485375E+02 -0.15702060930E+03  0.16924283166E+03  0.41800000000E+01 0. -1.
        -11    1    1    2    0    0  0.23239751979E+02  0.65932376867E+02 -0.14816756268E+03  0.16383159348E+03  0.00000000000E+00 0.  1.
         11    1    1    2    0    0 -0.27986595383E+02 -0.92307153483E+01 -0.29459808123E+02  0.41669364305E+02  0.00000000000E+00 0. -1.
</event>
<event>
 7    1  0.4966153E-006  0.1395355E+03  0.7561462E-02  0.1213955E+00
          1   -1    0    0  501    0  0.00000000000E+00  0.00000000000E+00  0.36692533354E+03  0.36692533354E+03  0.00000000000E+00 0. -1.
         -1   -1    0    0    0  501 -0.00000000000E+00 -0.00000000000E+00 -0.73095511034E+02  0.73095511034E+02  0.00000000000E+00 0.  1.
         23    2    1    2    0    0  0.11802252950E+03  0.15361301131E+02  0.16944846197E+03  0.24191979554E+03  0.12508844538E+03 0.  0.
          5    1    3    3  502    0  0.89800032319E+02  0.56688378658E+02  0.15799101900E+03  0.19041074698E+03  0.41800000000E+01 0.  1.
         -5    1    3    3    0  502  0.28222497185E+02 -0.41327077527E+02  0.11457442963E+02  0.51509048560E+02  0.41800000000E+01 0.  1.
        -11    1    1    2    0    0 -0.53338856213E+02  0.77218934122E+01 -0.23612557493E+01  0.53946610169E+02  0.00000000000E+00 0.  1.
         11    1    1    2    0    0 -0.64683673292E+02 -0.23083194543E+02  0.12674261628E+03  0.14415443886E+03  0.00000000000E+00 0. -1.
</event>
<event>
 7    1  0.4966153E-006  0.2116901E+03  0.7561462E-02  0.1140235E+00
         -2   -1    0    0    0  501 -0.00000000000E+00  0.00000000000E+00  0.41780961216E+02  0.41780961216E+02  0.00000000000E+00 0. -1.
          2   -1    0    0  501    0  0.00000000000E+00 -0.00000000000E+00 -0.13092594946E+04  0.13092594946E+04  0.00000000000E+00 0.  1.
         23    2    1    2    0    0 -0.20533624601E+03  0.21065362232E+02 -0.63683161784E+03  0.68103666869E+03  0.12509880577E+03 0.  0.
          5    1    3    3  502    0 -0.88289353213E-01 -0.72938768062E+01 -0.17076046605E+03  0.17096729979E+03  0.41800000000E+01 0. -1.
         -5    1    3    3    0  502 -0.20524795666E+03  0.28359239038E+02 -0.46607115179E+03  0.51006936890E+03  0.41800000000E+01 0. -1.
        -11    1    1    2    0    0  0.11540456999E+03 -0.16534104490E+00 -0.47689696821E+03  0.49066175763E+03  0.00000000000E+00 0.  1.
         11    1    1    2    0    0  0.89931676025E+02 -0.20900021187E+02 -0.15374994730E+03  0.17934202947E+03  0.00000000000E+00 0. -1.
</event>
<event>
 7    1  0.4966153E-006  0.6668032E+02  0.7561462E-02  0.1371760E+00
          3   -1    0    0  501    0  0.00000000000E+00  0.00000000000E+00  0.10132484278E+03  0.10132484278E+03  0.00000000000E+00 0. -1.
         -3   -1    0    0    0  501 -0.00000000000E+00 -0.00000000000E+00 -0.24900907781E+03  0.24900907781E+03  0.00000000000E+00 0.  1.
         23    2    1    2    0    0  0.18405434639E+02  0.38339915188E+02 -0.19016731715E+03  0.23155893393E+03  0.12508885743E+03 0.  0.
          5    1    3    3  502    0 -0.23992898009E+02  0.38984067784E+02 -0.18258328106E+03  0.18828049187E+03  0.41800000000E+01 0. -1.
         -5    1    3    3    0  502  0.42398332647E+02 -0.64415259561E+00 -0.75840360838E+01  0.43278442060E+02  0.41800000000E+01 0. -1.
        -11    1    1    2    0    0 -0.71970637528E+01 -0.29902840837E+02 -0.31174683983E+02  0.43793133460E+02  0.00000000000E+00 0.  1.
         11    1    1    2    0    0 -0.11208370886E+02 -0.84370743510E+01  0.73657766099E+02  0.74981853193E+02  0.00000000000E+00 0. -1.
</event>
<event>
 7    1  0.4966153E-006  0.9357791E+02  0.7561462E-02  0.1294411E+00
          2   -1    0    0  501    0  0.00000000000E+00  0.00000000000E+00  0.38256524702E+03  0.38256524702E+03  0.00000000000E+00 0. -1.
         -2   -1    0    0    0  501 -0.00000000000E+00 -0.00000000000E+00 -0.49921027050E+02  0.49921027050E+02  0.00000000000E+00 0.  1.
         23    2    1    2    0    0  0.74922869674E+01  0.71126385524E+02  0.65431421691E+02  0.15498941710E+03  0.12093531902E+03 0.  0.
          5    1    3    3  502    0 -0.16216119303E+02 -0.15404190493E+02  0.60952257695E+02  0.65060754131E+02  0.41800000000E+01 0. -1.
         -5    1    3    3    0  502  0.23708406270E+02  0.86530576017E+02  0.44791639958E+01  0.89928662972E+02  0.41800000000E+01 0.  1.
        -11    1    1    2    0    0 -0.13869540766E+02 -0.61454229702E+02  0.21666844861E+03  0.22564175840E+03  0.00000000000E+00 0. -1.
         11    1    1    2    0    0  0.63772537991E+01 -0.96721558226E+01  0.50544349671E+02  0.51855098572E+02  0.00000000000E+00 0.  1.
</event>
<event>
 7    1  0.4966153E-006  0.1041699E+03  0.7561462E-02  0.1271764E+00
         -1   -1    0    0    0  501 -0.00000000000E+00  0.00000000000E+00  0.61718418151E+02  0.61718418151E+02  0.00000000000E+00 0.  1.
          1   -1    0    0  501    0  0.00000000000E+00 -0.00000000000E+00 -0.28229821006E+03  0.28229821006E+03  0.00000000000E+00 0. -1.
         23    2    1    2    0    0  0.12783067110E+02  0.66159013105E+02 -0.78287967111E+02  0.16222799872E+03  0.12509394852E+03 0.  0.
          5    1    3    3  502    0 -0.36308386677E+02  0.98031447569E+01 -0.78751097497E+02  0.87370523332E+02  0.41800000000E+01 0.  1.
         -5    1    3    3    0  502  0.49091453787E+02  0.56355868348E+02  0.46313038617E+00  0.74857475391E+02  0.41800000000E+01 0.  1.
        -11    1    1    2    0    0 -0.38087183258E+02 -0.57359858348E+02 -0.13857996843E+03  0.15474234885E+03  0.00000000000E+00 0. -1.
         11    1    1    2    0    0  0.25304116148E+02 -0.87991547566E+01 -0.37118563663E+01  0.27046280634E+02  0.00000000000E+00 0.  1.
</event>
<event>
 7    1  0.4966153E-006  0.4158051E+03  0.7561462E-02  0.1038440E+00
         -2   -1    0    0    0  501 -0.00000000000E+00  0.00000000000E+00  0.67403140236E+03  0.67403140236E+03  0.00000000000E+00 0.  1.
          2   -1    0    0  501    0  0.00000000000E+00 -0.00000000000E+00 -0.36656547073E+03  0.36656547073E+03  0.00000000000E+00 0. -1.
         23    2    1    2    0    0 -0.21003449480E+03  0.35403247260E+03  0.42262430303E+03  0.60308550244E+03  0.12508933240E+03 0.  0.
          5    1    3    3  502    0 -0.18233799781E+03  0.27535711671E+03  0.26025587014E+03  0.42049884365E+03  0.41800000000E+01 0. -1.
         -5    1    3    3    0  502 -0.27696496988E+02  0.78675355895E+02  0.16236843288E+03  0.18258665879E+03  0.41800000000E+01 0. -1.
        -11    1    1    2    0    0  0.13641453692E+03 -0.15984665473E+03 -0.88943951369E+02  0.22819050243E+03  0.00000000000E+00 0.  1.
         11    1    1    2    0    0  0.73619957876E+02 -0.19418581787E+03 -0.26214420034E+02  0.20932086823E+03  0.00000000000E+00 0. -1.
</event>
<event>
 7    1  0.4966153E-006  0.8432943E+02  0.7561462E-02  0.1317196E+00
          4   -1    0    0  501    0  0.00000000000E+00  0.00000000000E+00  0.29143170613E+02  0.29143170613E+02  0.00000000000E+00 0. -1.
         -4   -1    0    0    0  501 -0.00000000000E+00 -0.00000000000E+00 -0.44132993163E+03  0.44132993163E+03  0.00000000000E+00 0.  1.
         23    2    1    2    0    0 -0.88393575779E+01 -0.26872599949E+02 -0.27314114010E+03  0.30175176030E+03  0.12509105309E+03 0.  0.
          5    1    3    3  502    0 -0.30772654082E+02  0.83692697905E+01 -0.77265480172E+01  0.33078283818E+02  0.41800000000E+01 0. -1.
         -5    1    3    3    0  502  0.21933296504E+02 -0.35241869739E+02 -0.26541459208E+03  0.26867347649E+03  0.41800000000E+01 0. -1.
        -11    1    1    2    0    0  0.48527712503E+02  0.33560629786E+01 -0.60501075495E+02  0.77631064501E+02  0.00000000000E+00 0.  1.
         11    1    1    2    0    0 -0.39688354925E+02  0.23516536970E+02 -0.78544545424E+02  0.91090277438E+02  0.00000000000E+00 0. -1.
</event>
<event>
 7    1  0.4966153E-006  0.1220089E+03  0.7561462E-02  0.1239819E+00
          2   -1    0    0  501    0  0.00000000000E+00  0.00000000000E+00  0.27137122740E+02  0.27137122740E+02  0.00000000000E+00 0. -1.
         -2   -1    0    0    0  501 -0.00000000000E+00 -0.00000000000E+00 -0.10447664327E+04  0.10447664327E+04  0.00000000000E+00 0.  1.
         23    2    1    2    0    0 -0.83487316494E+02  0.67398174609E+02 -0.79250063786E+03  0.80945472095E+03  0.12508812211E+03 0.  0.
          5    1    3    3  502    0 -0.15866794772E+02  0.66794810977E+02 -0.62495726779E+03  0.62873075391E+03  0.41800000000E+01 0. -1.
         -5    1    3    3    0  502 -0.67620521721E+02  0.60336363210E+00 -0.16754337007E+03  0.18072396703E+03  0.41800000000E+01 0. -1.
        -11    1    1    2    0    0  0.50091896177E+02 -0.36405111019E+02 -0.44739104230E+02  0.76394486831E+02  0.00000000000E+00 0. -1.
         11    1    1    2    0    0  0.33395420317E+02 -0.30993063590E+02 -0.18038956787E+03  0.18605434766E+03  0.00000000000E+00 0.  1.
</event>
<event>
 7    1  0.4966153E-006  0.1083485E+03  0.7561462E-02  0.1263659E+00
         -2   -1    0    0    0  501 -0.00000000000E+00  0.00000000000E+00  0.25505899346E+02  0.25505899346E+02  0.00000000000E+00 0.  1.
          2   -1    0    0  501    0  0.00000000000E+00 -0.00000000000E+00 -0.51213978749E+03  0.51213978749E+03  0.00000000000E+00 0. -1.
         23    2    1    2    0    0  0.19338106206E+02 -0.14980008550E+02 -0.21325386974E+03  0.24844380330E+03  0.12509495366E+03 0.  0.
          5    1    3    3  502    0  0.57033443518E+02 -0.48954496896E+02 -0.14395455283E+03  0.16244919860E+03  0.41800000000E+01 0. -1.
         -5    1    3    3    0  502 -0.37695337311E+02  0.33974488346E+02 -0.69299316911E+02  0.85994604701E+02  0.41800000000E+01 0. -1.
        -11    1    1    2    0    0  0.82134715351E+01  0.47313081828E+02 -0.10359945995E+03  0.11418772670E+03  0.00000000000E+00 0.  1.
         11    1    1    2    0    0 -0.27551577741E+02 -0.32333073279E+02 -0.16978055846E+03  0.17501415684E+03  0.00000000000E+00 0. -1.
</event>
<event>
 7    1  0.4966153E-006  0.1207569E+03  0.7561462E-02  0.1241854E+00
         -4   -1    0    0    0  501 -0.00000000000E+00  0.00000000000E+00  0.34938513880E+03  0.34938513880E+03  0.00000000000E+00 0.  1.
          4   -1    0    0  501    0  0.00000000000E+00 -0.00000000000E+00 -0.52814125737E+02  0.52814125737E+02  0.00000000000E+00 0. -1.
         23    2    1    2    0    0 -0.34933882147E+02 -0.62800883576E+02  0.22783418139E+03  0.26968794380E+03  0.12513530966E+03 0.  0.
          5    1    3    3  502    0 -0.77058862147E+02 -0.64875565996E+02  0.14449401342E+03  0.17618995321E+03  0.41800000000E+01 0.  1.
         -5    1    3    3    0  502  0.42124980000E+02  0.20746824198E+01  0.83340167969E+02  0.93497990589E+02  0.41800000000E+01 0.  1.
        -11    1    1    2    0    0 -0.15681852972E+02  0.39679416502E+02 -0.17554694578E+01  0.42701970442E+02  0.00000000000E+00 0. -1.
         11    1    1    2    0    0  0.50615735120E+02  0.23121467074E+02  0.70492301136E+02  0.89809350297E+02  0.00000000000E+00 0.  1.
</event>
<event>
 7    1  0.4966153E-006  0.7142699E+02  0.7561462E-02  0.1355307E+00
         -1   -1    0    0    0  501 -0.00000000000E+00  0.00000000000E+00  0.56703393827E+02  0.56703393827E+02  0.00000000000E+00 0.  1.
          1   -1    0    0  501    0  0.00000000000E+00 -0.00000000000E+00 -0.24372042267E+03  0.24372042267E+03  0.00000000000E+00 0. -1.
         23    2    1    2    0    0  0.44269062082E+02  0.17788962513E+02 -0.74110520025E+02  0.15302155343E+03  0.12508808733E+03 0.  0.
          5    1    3    3  502    0  0.21774242839E+02  0.16922126459E+01  0.34401017565E+02  0.40961978032E+02  0.41800000000E+01 0. -1.
         -5    1    3    3    0  502  0.22494819243E+02  0.16096749867E+02 -0.10851153759E+03  0.11205957540E+03  0.41800000000E+01 0. -1.
        -11    1    1    2    0    0  0.99518455972E+01 -0.34498734603E+02 -0.59435187495E+02  0.69438774705E+02  0.00000000000E+00 0. -1.
         11    1    1    2    0    0 -0.54220907679E+02  0.16709772090E+02 -0.53471321323E+02  0.77963488358E+02  0.00000000000E+00 0.  1.
</event>
<event>
 7    1  0.4966153E-006  0.1449478E+03  0.7561462E-02  0.1206822E+00
         -2   -1    0    0    0  501 -0.00000000000E+00  0.00000000000E+00  0.28393703284E+02  0.28393703284E+02  0.00000000000E+00 0. -1.
          2   -1    0    0  501    0  0.00000000000E+00 -0.00000000000E+00 -0.81541937932E+03  0.81541937932E+03  0.00000000000E+00 0.  1.
         23    2    1    2    0    0 -0.90498243623E+02 -0.45325710273E+02 -0.33715348204E+03  0.37358395369E+03  0.12509255733E+03 0.  0.
          5    1    3    3  502    0 -0.80268723791E+02 -0.84564576428E+02 -0.28043244193E+03  0.30373353864E+03  0.41800000000E+01 0.  1.
         -5    1    3    3    0  502 -0.10229519832E+02  0.39238866155E+02 -0.56721040103E+02  0.69850415056E+02  0.41800000000E+01 0.  1.
        -11    1    1    2    0    0  0.62052957567E+02 -0.16668359284E+02 -0.27774358115E+03  0.28507876213E+03  0.00000000000E+00 0. -1.
         11    1    1    2    0    0  0.28445286056E+02  0.61994069557E+02 -0.17212861285E+03  0.18515036678E+03  0.00000000000E+00 0.  1.
</event>
<event>
 7    1  0.4966153E-006  0.7550630E+02  0.7561462E-02  0.1342310E+00
         -2   -1    0    0    0  501 -0.00000000000E+00  0.00000000000E+00  0.98115509967E+02  0.98115509967E+02  0.00000000000E+00 0.  1.
          2   -1    0    0  501    0  0.00000000000E+00 -0.00000000000E+00 -0.13331020299E+03  0.13331020299E+03  0.00000000000E+00 0. -1.
         23    2    1    2    0    0  0.28399033969E+02  0.50507246780E+01 -0.34777973592E+02  0.13299928678E+03  0.12508911977E+03 0.  0.
          5    1    3    3  502    0  0.11494828237E+02 -0.26749114799E+02  0.40144055774E+02  0.49766091194E+02  0.41800000000E+01 0.  1.
         -5    1    3    3    0  502  0.16904205732E+02  0.31799839477E+02 -0.74922029367E+02  0.83233195581E+02  0.41800000000E+01 0.  1.
        -11    1    1    2    0    0  0.10814443566E+02  0.30533522293E+02 -0.24144999969E+02  0.40400856387E+02  0.00000000000E+00 0. -1.
         11    1    1    2    0    0 -0.39213477535E+02 -0.35584246971E+02  0.23728280537E+02  0.58025569796E+02  0.00000000000E+00 0.  1.
</event>
<event>
 6    1  0.4966153E-006  0.1944923E+03  0.7561462E-02  0.1154471E+00
         -2   -1    0    0    0  501 -0.00000000000E+00  0.00000000000E+00  0.82326454412E+02  0.82326454412E+02  0.00000000000E+00 0.  1.
          2   -1    0    0  501    0  0.00000000000E+00 -0.00000000000E+00 -0.17200728900E+04  0.17200728900E+04  0.00000000000E+00 0. -1.
          5    1    1    2  502    0  0.33749452945E+02  0.10398857812E+03 -0.10798159571E+04  0.10853444723E+04  0.41800000000E+01 0. -1.
         -5    1    1    2    0  502  0.10584023911E+02  0.76663244582E+02  0.37654374486E+02  0.86166112538E+02  0.41800000000E+01 0.  1.
        -11    1    1    2    0    0 -0.21859226008E+00 -0.14593756942E+03 -0.35469207896E+03  0.38354177455E+03  0.00000000000E+00 0.  1.
         11    1    1    2    0    0 -0.44114884596E+02 -0.34714253281E+02 -0.24089277406E+03  0.24734698506E+03  0.00000000000E+00 0. -1.
</event>
<event>
 7    1  0.4966153E-006  0.9121305E+02  0.7561462E-02  0.1299940E+00
         -4   -1    0    0    0  501 -0.00000000000E+00  0.00000000000E+00  0.60538827609E+03  0.60538827609E+03  0.00000000000E+00 0.  1.
          4   -1    0    0  501    0  0.00000000000E+00 -0.00000000000E+00 -0.22426407911E+02  0.22426407911E+02  0.00000000000E+00 0. -1.
         23    2    1    2    0    0  0.21944017373E+02  0.19065346112E+02  0.40691140421E+03  0.42669619808E+03  0.12509087598E+03 0.  0.
          5    1    3    3  502    0  0.58287192703E+02  0.22105487451E+02  0.36775093662E+03  0.37302047289E+03  0.41800000000E+01 0. -1.
         -5    1    3    3    0  502 -0.36343175330E+02 -0.30401413382E+01  0.39160467589E+02  0.53675725186E+02  0.41800000000E+01 0. -1.
        -11    1    1    2    0    0 -0.38585617199E+02  0.18023708440E+02  0.14149372297E+03  0.14776392510E+03  0.00000000000E+00 0.  1.
         11    1    1    2    0    0  0.16641599826E+02 -0.37089054552E+02  0.34556740989E+02  0.53354560818E+02  0.00000000000E+00 0. -1.
</event>
<event>
 7    1  0.4966153E-006  0.3167859E+03  0.7561462E-02  0.1077138E+00
         -1   -1    0    0    0  501 -0.00000000000E+00  0.00000000000E+00  0.29175382767E+03  0.29175382767E+03  0.00000000000E+00 0.  1.
          1   -1    0    0  501    0  0.00000000000E+00 -0.00000000000E+00 -0.39363927741E+03  0.39363927741E+03  0.00000000000E+00 0. -1.
         23    2    1    2    0    0 -0.54054895601E+02  0.30526141232E+03  0.31321580350E+02  0.33575870864E+03  0.12508560046E+03 0.  0.
          5    1    3    3  502    0 -0.76965431227E+01  0.86337075849E+02 -0.46928496035E+02  0.98656391492E+02  0.41800000000E+01 0. -1.
         -5    1    3    3    0  502 -0.46358352478E+02  0.21892433647E+03  0.78250076385E+02  0.23710231715E+03  0.41800000000E+01 0. -1.
        -11    1    1    2    0    0 -0.14009551169E+02 -0.17889214414E+03 -0.81365423556E+02  0.19702537631E+03  0.00000000000E+00 0. -1.
         11    1    1    2    0    0  0.68064446770E+02 -0.12636926818E+03 -0.51841606538E+02  0.15260902012E+03  0.00000000000E+00 0.  1.
</event>
<event>
 7    1  0.4966153E-006  0.2741196E+03  0.7561462E-02  0.1098945E+00
         -2   -1    0    0    0  501 -0.00000000000E+00  0.00000000000E+00  0.49595289014E+03  0.49595289014E+03  0.00000000000E+00 0.  1.
          2   -1    0    0  501    0  0.00000000000E+00 -0.00000000000E+00 -0.15798765757E+03  0.15798765757E+03  0.00000000000E+00 0. -1.
         23    2    1    2    0    0  0.13935875281E+03  0.21653128050E+03  0.16626368633E+03  0.33105199944E+03  0.12508059610E+03 0.  0.
          5    1    3    3  502    0  0.26895165736E+02 -0.50854334838E+01 -0.63884488392E+01  0.28416478533E+02  0.41800000000E+01 0. -1.
         -5    1    3    3    0  502  0.11246358708E+03  0.22161671398E+03  0.17265213517E+03  0.30263552090E+03  0.41800000000E+01 0. -1.
        -11    1    1    2    0    0 -0.32701492530E+02 -0.13174730412E+03  0.69055047357E+02  0.15230016193E+03  0.00000000000E+00 0. -1.
         11    1    1    2    0    0 -0.10665726028E+03 -0.84783976374E+02  0.10264649889E+03  0.17058838635E+03  0.00000000000E+00 0.  1.
</event>
<event>
 7    1  0.4966153E-006  0.9144886E+02  0.7561462E-02  0.1299381E+00
          4   -1    0    0  501    0  0.00000000000E+00  0.00000000000E+00  0.68578865006E+02  0.68578865006E+02  0.00000000000E+00 0. -1.
         -4   -1    0    0    0  501 -0.00000000000E+00 -0.00000000000E+00 -0.16172352296E+03  0.16172352296E+03  0.00000000000E+00 0.  1.
         23    2    1    2    0    0  0.84437358017E+01 -0.11695305845E+02 -0.68408420035E+02  0.14330225150E+03  0.12509095291E+03 0.  0.
          5    1    3    3  502    0  0.51003407241E+02 -0.27694149810E+02  0.33114541024E+01  0.58281657596E+02  0.41800000000E+01 0.  1.
         -5    1    3    3    0  502 -0.42559671439E+02  0.15998843965E+02 -0.71719874138E+02  0.85020593903E+02  0.41800000000E+01 0.  1.
        -11    1    1    2    0    0  0.27751056555E+02  0.27938391061E+02 -0.26204357684E+02  0.47300562329E+02  0.00000000000E+00 0.  1.
         11    1    1    2    0    0 -0.36194792357E+02 -0.16243085216E+02  0.14681197646E+01  0.39699574138E+02  0.00000000000E+00 0. -1.
</event>
<event>
 7    1  0.4966153E-006  0.2304607E+03  0.7561462E-02  0.1126316E+00
         -2   -1    0    0    0  501 -0.00000000000E+00  0.00000000000E+00  0.50198960610E+02  0.50198960610E+02  0.00000000000E+00 0.  1.
          2   -1    0    0  501    0  0.00000000000E+00 -0.00000000000E+00 -0.10863243939E+04  0.10863243939E+04  0.00000000000E+00 0. -1.
         23    2    1    2    0    0 -0.55839747218E+01  0.20874455496E+03 -0.45977058947E+03  0.52023297918E+03  0.12509151724E+03 0.  0.
          5    1    3    3  502    0 -0.34339352484E+02  0.21075009994E+03 -0.41663016657E+03  0.46818048214E+03  0.41800000000E+01 0. -1.
         -5    1    3    3    0  502  0.28755377762E+02 -0.20055449804E+01 -0.43140422897E+02  0.52052497045E+02  0.41800000000E+01 0. -1.
        -11    1    1    2    0    0  0.34578575927E+02 -0.10931850328E+03 -0.29908412427E+03  0.32030848641E+03  0.00000000000E+00 0. -1.
         11    1    1    2    0    0 -0.28994601206E+02 -0.99426051682E+02 -0.27727071958E+03  0.29598188895E+03  0.00000000000E+00 0.  1.
</event>
<event>
 7    1  0.4966153E-006  0.2457708E+03  0.7561462E-02  0.1116007E+00
          2   -1    0    0  501    0  0.00000000000E+00  0.00000000000E+00  0.20806082223E+03  0.20806082223E+03  0.00000000000E+00 0. -1.
         -2   -1    0    0    0  501 -0.00000000000E+00 -0.00000000000E+00 -0.32281115307E+03  0.32281115307E+03  0.00000000000E+00 0.  1.
         23    2    1    2    0    0 -0.23124832687E+03 -0.39348503598E+02 -0.41162231719E+02  0.26900986756E+03  0.12509151094E+03 0.  0.
          5    1    3    3  502    0 -0.16539558326E+03  0.15671260662E+02 -0.67163259624E+02  0.17924749152E+03  0.41800000000E+01 0.  1.
         -5    1    3    3    0  502 -0.65852743607E+02 -0.55019764260E+02  0.26001027905E+02  0.89762376038E+02  0.41800000000E+01 0.  1.
        -11    1    1    2    0    0  0.19521910219E+03  0.50642387316E+02 -0.89801771379E+02  0.22077025931E+03  0.00000000000E+00 0.  1.
         11    1    1    2    0    0  0.36029224681E+02 -0.11293883717E+02  0.16213672255E+02  0.41091848444E+02  0.00000000000E+00 0. -1.
</event>
<event>
 7    1  0.4966153E-006  0.2297598E+03  0.7561462E-02  0.1126809E+00
          1   -1    0    0  501    0  0.00000000000E+00  0.00000000000E+00  0.11648888427E+04  0.11648888427E+04  0.00000000000E+00 0. -1.
         -1   -1    0    0    0  501 -0.00000000000E+00 -0.00000000000E+00 -0.51820769020E+02  0.51820769020E+02  0.00000000000E+00 0.  1.
         23    2    1    2    0    0  0.87112867802E+02  0.19741280763E+03  0.51034203407E+03  0.56802869158E+03  0.12508850613E+03 0.  0.
          5    1    3    3  502    0  0.96733533631E+01  0.74077802082E+02  0.31830317455E+03  0.32697932329E+03  0.41800000000E+01 0.  1.
         -5    1    3    3    0  502  0.77439514439E+02  0.12333500555E+03  0.19203885952E+03  0.24104936829E+03  0.41800000000E+01 0.  1.
        -11    1    1    2    0    0  0.23520741848E+02 -0.26753579688E+02  0.11020889520E+03  0.11582305429E+03  0.00000000000E+00 0.  1.
         11    1    1    2    0    0 -0.11063360965E+03 -0.17065922794E+03  0.49251714445E+03  0.53285786590E+03  0.00000000000E+00 0. -1.
</event>
<event>
 7    1  0.4966153E-006  0.7974964E+02  0.7561462E-02  0.1329763E+00
          3   -1    0    0  501    0  0.00000000000E+00  0.00000000000E+00  0.28970329169E+03  0.28970329169E+03  0.00000000000E+00 0. -1.
         -3   -1    0    0    0  501 -0.00000000000E+00 -0.00000000000E+00 -0.45496331720E+02  0.45496331720E+02  0.00000000000E+00 0.  1.
         23    2    1    2    0    0 -0.87732713407E+00  0.47363166766E+02  0.10249816135E+03  0.15882616347E+03  0.11169529019E+03 0.  0.
          5    1    3    3  502    0  0.13535457385E+02  0.31167998471E+02  0.12361865065E+03  0.12827196078E+03  0.41800000000E+01 0. -1.
         -5    1    3    3    0  502 -0.14412784519E+02  0.16195168296E+02 -0.21120489292E+02  0.30554202684E+02  0.41800000000E+01 0.  1.
        -11    1    1    2    0    0 -0.45160164475E+02 -0.28694384920E+02  0.89736718245E+02  0.10447720700E+03  0.00000000000E+00 0. -1.
         11    1    1    2    0    0  0.46037491609E+02 -0.18668781846E+02  0.51972080376E+02  0.71896252947E+02  0.00000000000E+00 0.  1.
</event>
<event>
 6    1  0.4966153E-006  0.1759000E+03  0.7561462E-02  0.1171831E+00
         -2   -1    0    0    0  501 -0.00000000000E+00  0.00000000000E+00  0.17649025549E+03  0.17649025549E+03  0.00000000000E+00 0.  1.
          2   -1    0    0  501    0  0.00000000000E+00 -0.00000000000E+00 -0.70279500313E+03  0.70279500313E+03  0.00000000000E+00 0. -1.
          5    1    1    2  502    0 -0.70255867642E+02  0.57732416900E+02 -0.27348442955E+02  0.95049085378E+02  0.41800000000E+01 0. -1.
         -5    1    1    2    0  502  0.30953843776E+02  0.85838181851E+02  0.11479814615E+03  0.14670521691E+03  0.41800000000E+01 0.  1.
        -11    1    1    2    0    0 -0.17782623947E+01 -0.12384053088E+03 -0.39041847198E+03  0.40959275209E+03  0.00000000000E+00 0. -1.
         11    1    1    2    0    0  0.41080286261E+02 -0.19730067873E+02 -0.22333597886E+03  0.22793820424E+03  0.00000000000E+00 0.  1.
</event>
<event>
 6    1  0.4966153E-006  0.1133502E+03  0.7561462E-02  0.1254489E+00
         -4   -1    0    0    0  501 -0.00000000000E+00  0.00000000000E+00  0.28716566305E+03  0.28716566305E+03  0.00000000000E+00 0.  1.
          4   -1    0    0  501    0  0.00000000000E+00 -0.00000000000E+00 -0.90198521201E+02  0.90198521201E+02  0.00000000000E+00 0. -1.
          5    1    1    2  502    0 -0.54413090526E+02 -0.25086826992E+02  0.57009305035E+02  0.82811029276E+02  0.41800000000E+01 0. -1.
         -5    1    1    2    0  502  0.41753146011E+02  0.64379621876E+02  0.17095703623E+03  0.18743489950E+03  0.41800000000E+01 0.  1.
        -11    1    1    2    0    0  0.45066766265E+02 -0.10126114093E+02 -0.41695655748E+02  0.62226034073E+02  0.00000000000E+00 0.  1.
         11    1    1    2    0    0 -0.32406821750E+02 -0.29166680791E+02  0.10696456336E+02  0.44892221403E+02  0.00000000000E+00 0. -1.
</event>
<event>
 7    1  0.4966153E-006  0.1049412E+03  0.7561462E-02  0.1270235E+00
         -4   -1    0    0    0  501 -0.00000000000E+00  0.00000000000E+00  0.11190434138E+03  0.11190434138E+03  0.00000000000E+00 0. -1.
          4   -1    0    0  501    0  0.00000000000E+00 -0.00000000000E+00 -0.11297961458E+03  0.11297961458E+03  0.00000000000E+00 0.  1.
         23    2    1    2    0    0 -0.17232575278E+02 -0.93516219346E+01  0.46400172749E+01  0.12670368460E+03  0.12509148431E+03 0.  0.
          5    1    3    3  502    0  0.56466143559E+01  0.50317628495E+02  0.28628619839E+02  0.58316535090E+02  0.41800000000E+01 0.  1.
         -5    1    3    3    0  502 -0.22879189634E+02 -0.59669250429E+02 -0.23988602564E+02  0.68387149510E+02  0.41800000000E+01 0.  1.
        -11    1    1    2    0    0  0.35199126941E+02 -0.33485626719E+02 -0.14925530415E+02  0.50823588936E+02  0.00000000000E+00 0.  1.
         11    1    1    2    0    0 -0.17966551663E+02  0.42837248654E+02  0.92102399416E+01  0.47356682429E+02  0.00000000000E+00 0. -1.
</event>
<event>
 7    1  0.4966153E-006  0.3086981E+03  0.7561462E-02  0.1080972E+00
          2   -1    0    0  501    0  0.00000000000E+00  0.00000000000E+00  0.15769851505E+04  0.15769851505E+04  0.00000000000E+00 0. -1.
         -2   -1    0    0    0  501 -0.00000000000E+00 -0.00000000000E+00 -0.13221076843E+03  0.13221076843E+03  0.00000000000E+00 0.  1.
         23    2    1    2    0    0  0.29360495565E+03 -0.33223631361E+02  0.10985061111E+03  0.33914895087E+03  0.12508866637E+03 0.  0.
          5    1    3    3  502    0  0.26278785552E+03  0.86350748886E+01  0.66260065685E+02  0.27118239292E+03  0.41800000000E+01 0.  1.
         -5    1    3    3    0  502  0.30817100133E+02 -0.41858706249E+02  0.43590545421E+02  0.67966557950E+02  0.41800000000E+01 0.  1.
        -11    1    1    2    0    0 -0.13432248914E+03 -0.16715654775E+02  0.46721875363E+03  0.48643119549E+03  0.00000000000E+00 0.  1.
         11    1    1    2    0    0 -0.15928246651E+03  0.49939286136E+02  0.86770501738E+03  0.88361577262E+03  0.00000000000E+00 0. -1.
</event>
<event>
 7    1  0.4966153E-006  0.1282095E+03  0.7561462E-02  0.1230137E+00
         -3   -1    0    0    0  501 -0.00000000000E+00  0.00000000000E+00  0.83241865887E+02  0.83241865887E+02  0.00000000000E+00 0.  1.
          3   -1    0    0  501    0  0.00000000000E+00 -0.00000000000E+00 -0.20356168331E+03  0.20356168331E+03  0.00000000000E+00 0. -1.
         23    2    1    2    0    0 -0.38677847513E+02  0.60329585161E+02 -0.65298754238E+02  0.15826917068E+03  0.12509823479E+03 0.  0.
          5    1    3    3  502    0 -0.27007342305E+02 -0.35106838873E+02 -0.51656081024E+01  0.44788866709E+02  0.41800000000E+01 0.  1.
         -5    1    3    3    0  502 -0.11670505208E+02  0.95436424033E+02 -0.60133146136E+02  0.11348030397E+03  0.41800000000E+01 0.  1.
        -11    1    1    2    0    0  0.12273777671E+02 -0.81145385454E+02 -0.33678077087E+02  0.88709819497E+02  0.00000000000E+00 0.  1.
         11    1    1    2    0    0  0.26404069842E+02  0.20815800294E+02 -0.21342986103E+02  0.39824559029E+02  0.00000000000E+00 0. -1.
</event>
<event>
 7    1  0.4966153E-006  0.1043604E+03  0.7561462E-02  0.1271385E+00
          2   -1    0    0  501    0  0.00000000000E+00  0.00000000000E+00  0.20626175227E+03  0.20626175227E+03  0.00000000000E+00 0. -1.
         -2   -1    0    0    0  501 -0.00000000000E+00 -0.00000000000E+00 -0.11958754992E+03  0.11958754992E+03  0.00000000000E+00 0.  1.
         23    2    1    2    0    0  0.66469894457E+02  0.56879351307E+02 -0.26843513061E+02  0.15498741729E+03  0.12508804040E+03 0.  0.
          5    1    3    3  502    0  0.97325539318E+01 -0.21596885114E+02 -0.49864021612E+02  0.55362813368E+02  0.41800000000E+01 0.  1.
         -5    1    3    3    0  502  0.56737340525E+02  0.78476236421E+02  0.23020508551E+02  0.99624603922E+02  0.41800000000E+01 0.  1.
        -11    1    1    2    0    0 -0.51566226404E+02 -0.47628669674E+02  0.16286683878E+02  0.72061237515E+02  0.00000000000E+00 0.  1.
         11    1    1    2    0    0 -0.14903668052E+02 -0.92506816326E+01  0.97231031526E+02  0.98800647385E+02  0.00000000000E+00 0. -1.
</event>
<event>
 7    1  0.4966153E-006  0.2256044E+03  0.7561462E-02  0.1129772E+00
         -1   -1    0    0    0  501 -0.00000000000E+00  0.00000000000E+00  0.75277550374E+03  0.75277550374E+03  0.00000000000E+00 0.  1.
          1   -1    0    0  501    0  0.00000000000E+00 -0.00000000000E+00 -0.83112356681E+02  0.83112356681E+02  0.00000000000E+00 0. -1.
         23    2    1    2    0    0  0.15428534024E+03 -0.13753919212E+03  0.49190045290E+03  0.54802845386E+03  0.12509250615E+03 0.  0.
          5    1    3    3  502    0 -0.95192040451E+01 -0.36759289630E+02  0.15917596757E+03  0.16369582057E+03  0.41800000000E+01 0.  1.
         -5    1    3    3    0  502  0.16380454428E+03 -0.10077990249E+03  0.33272448532E+03  0.38433263329E+03  0.41800000000E+01 0.  1.
        -11    1    1    2    0    0 -0.98202691720E+02  0.13165708095E+03  0.15854435560E+03  0.22828418324E+03  0.00000000000E+00 0.  1.
         11    1    1    2    0    0 -0.56082648520E+02  0.58821111705E+01  0.19218338563E+02  0.59575223323E+02  0.00000000000E+00 0. -1.
</event>
<event>
 7    1  0.4966153E-006  0.9906578E+02  0.7561462E-02  0.1282273E+00
         -1   -1    0    0    0  501 -0.00000000000E+00  0.00000000000E+00  0.97505841051E+02  0.97505841051E+02  0.00000000000E+00 0.  1.
          1   -1    0    0  501    0  0.00000000000E+00 -0.00000000000E+00 -0.16811543245E+03  0.16811543245E+03  0.00000000000E+00 0. -1.
         23    2    1    2    0    0 -0.30871129884E+02  0.46497252998E+02  0.13840186096E+00  0.13697715800E+03  0.12509077289E+03 0.  0.
          5    1    3    3  502    0  0.20959450683E+00  0.85557624607E+02 -0.87396229258E+01  0.86104613506E+02  0.41800000000E+01 0.  1.
         -5    1    3    3    0  502 -0.31080724391E+02 -0.39060371609E+02  0.88780247867E+01  0.50872544491E+02  0.41800000000E+01 0.  1.
        -11    1    1    2    0    0  0.21362056650E+01 -0.28271762023E+02 -0.86587162786E+02  0.91110881139E+02  0.00000000000E+00 0. -1.
         11    1    1    2    0    0  0.28734924219E+02 -0.18225490974E+02  0.15839169522E+02  0.37533234370E+02  0.00000000000E+00 0.  1.
</event>
<event>
 7    1  0.4966153E-006  0.2084799E+03  0.7561462E-02  0.1142775E+00
          2   -1    0    0  501    0  0.00000000000E+00  0.00000000000E+00  0.75822057142E+03  0.75822057142E+03  0.00000000000E+00 0. -1.
         -2   -1    0    0    0  501 -0.00000000000E+00 -0.00000000000E+00 -0.66593076677E+02  0.66593076677E+02  0.00000000000E+00 0.  1.
         23    2    1    2    0    0 -0.17875131235E+03  0.78796786188E+02  0.36307562046E+03  0.43085572142E+03  0.12510707945E+03 0.  0.
          5    1    3    3  502    0 -0.28897388513E+01  0.20132300634E+02 -0.25248845006E+01  0.20916681409E+02  0.41800000000E+01 0.  1.
         -5    1    3    3    0  502 -0.17586157350E+03  0.58664485554E+02  0.36560050496E+03  0.40993904001E+03  0.41800000000E+01 0.  1.
        -11    1    1    2    0    0  0.18030187582E+03 -0.57270902030E+02  0.25633308103E+03  0.31858338167E+03  0.00000000000E+00 0.  1.
         11    1    1    2    0    0 -0.15505634681E+01 -0.21525884158E+02  0.72218793250E+02  0.75374545003E+02  0.00000000000E+00 0. -1.
</event>
<event>
 7    1  0.4966153E-006  0.2022562E+03  0.7561462E-02  0.1147849E+00
          1   -1    0    0  501    0  0.00000000000E+00  0.00000000000E+00  0.43082501612E+03  0.43082501612E+03  0.00000000000E+00 0. -1.
         -1   -1    0    0    0  501 -0.00000000000E+00 -0.00000000000E+00 -0.12942138877E+03  0.12942138877E+03  0.00000000000E+00 0.  1.
         23    2    1    2    0    0 -0.16986035992E+03  0.59554823113E+02  0.32208479110E+02  0.22155117182E+03  0.12509283265E+03 0.  0.
          5    1    3    3  502    0 -0.75432698565E+02  0.88611085429E+02  0.38020576215E+02  0.12249511455E+03  0.41800000000E+01 0.  1.
         -5    1    3    3    0  502 -0.94427661357E+02 -0.29056262316E+02 -0.58120971045E+01  0.99056057270E+02  0.41800000000E+01 0.  1.
        -11    1    1    2    0    0  0.10402493229E+03 -0.65739736322E+02  0.10528751749E+03  0.16195172370E+03  0.00000000000E+00 0.  1.
         11    1    1    2    0    0  0.65835427628E+02  0.61849132093E+01  0.16390763075E+03  0.17674350936E+03  0.00000000000E+00 0. -1.
</event>
<event>
 7    1  0.4966153E-006  0.1204551E+03  0.7561462E-02  0.1242348E+00
         -1   -1    0    0    0  501 -0.00000000000E+00  0.00000000000E+00  0.31183601131E+02  0.31183601131E+02  0.00000000000E+00 0.  1.
          1   -1    0    0  501    0  0.00000000000E+00 -0.00000000000E+00 -0.49906046354E+03  0.49906046354E+03  0.00000000000E+00 0. -1.
         23    2    1    2    0    0 -0.58458730592E+02 -0.22501049999E+02 -0.25743747542E+03  0.29299436945E+03  0.12509167177E+03 0.  0.
          5    1    3    3  502    0  0.22852632684E+02 -0.48622952703E+02 -0.87625932791E+02  0.10286987337E+03  0.41800000000E+01 0.  1.
         -5    1    3    3    0  502 -0.81311363276E+02  0.26121902704E+02 -0.16981154263E+03  0.19012449608E+03  0.41800000000E+01 0.  1.
        -11    1    1    2    0    0 -0.28365776872E+01  0.38149319281E+02 -0.39536111683E+02  0.55013824277E+02  0.00000000000E+00 0.  1.
         11    1    1    2    0    0  0.61295308279E+02 -0.15648269282E+02 -0.17090327530E+03  0.18223587094E+03  0.00000000000E+00 0. -1.
</event>
<event>
 7    1  0.4966153E-006  0.8013318E+02  0.7561462E-02  0.1328674E+00
          2   -1    0    0  501    0  0.00000000000E+00  0.00000000000E+00  0.38200728723E+02  0.38200728723E+02  0.00000000000E+00 0. -1.
         -2   -1    0    0    0  501 -0.00000000000E+00 -0.00000000000E+00 -0.47812196095E+03  0.47812196095E+03  0.00000000000E+00 0.  1.
         23    2    1    2    0    0  0.62627379046E+02  0.21966108588E+01 -0.34153719122E+03  0.36908349170E+03  0.12509179491E+03 0.  0.
          5    1    3    3  502    0  0.27575129881E+02  0.82052406983E+01 -0.33026611891E+03  0.33154320301E+03  0.41800000000E+01 0. -1.
         -5    1    3    3    0  502  0.35052249165E+02 -0.60086298395E+01 -0.11271072316E+02  0.37540288694E+02  0.41800000000E+01 0. -1.
        -11    1    1    2    0    0 -0.20554907063E+02 -0.35973961347E+02 -0.83327201310E+01  0.42261854244E+02  0.00000000000E+00 0.  1.
         11    1    1    2    0    0 -0.42072471983E+02  0.33777350489E+02 -0.90051320872E+02  0.10497734373E+03  0.00000000000E+00 0. -1.
</event>
<event>
 7    1  0.4966153E-006  0.1078458E+03  0.7561462E-02  0.1264612E+00
          1   -1    0    0  501    0  0.00000000000E+00  0.00000000000E+00  0.22378280796E+02  0.22378280796E+02  0.00000000000E+00 0. -1.
         -1   -1    0    0    0  501 -0.00000000000E+00 -0.00000000000E+00 -0.80516217125E+03  0.80516217125E+03  0.00000000000E+00 0.  1.
         23    2    1    2    0    0  0.56718393057E+02 -0.19939370599E+02 -0.58207226044E+03  0.59838911156E+03  0.12508740081E+03 0.  0.
          5    1    3    3  502    0 -0.44939357223E+01 -0.47074022897E+02 -0.42427809147E+03  0.42692567315E+03  0.41800000000E+01 0. -1.
         -5    1    3    3    0  502  0.61212328779E+02  0.27134652298E+02 -0.15779416897E+03  0.17146343841E+03  0.41800000000E+01 0. -1.
        -11    1    1    2    0    0 -0.63407939400E+02 -0.15329017049E+02 -0.80057166248E+02  0.10327001215E+03  0.00000000000E+00 0.  1.
         11    1    1    2    0    0  0.66895463436E+01  0.35268387648E+02 -0.12065446376E+03  0.12588132833E+03  0.00000000000E+00 0. -1.
</event>
<event>
 7    1  0.4966153E-006  0.1019886E+03  0.7561462E-02  0.1276169E+00
          1   -1    0    0  501    0  0.00000000000E+00  0.00000000000E+00  0.18547296657E+03  0.18547296657E+03  0.00000000000E+00 0. -1.
         -1   -1    0    0    0  501 -0.00000000000E+00 -0.00000000000E+00 -0.75355871536E+02  0.75355871536E+02  0.00000000000E+00 0.  1.
         23    2    1    2    0    0  0.67462561425E+01  0.27548069964E+02  0.36078949189E+02  0.13324459112E+03  0.12509205554E+03 0.  0.
          5    1    3    3  502    0  0.21278122855E+02 -0.33421639710E+02 -0.23844035106E+02  0.46430323316E+02  0.41800000000E+01 0.  1.
         -5    1    3    3    0  502 -0.14531866712E+02  0.60969709674E+02  0.59922984294E+02  0.86814267806E+02  0.41800000000E+01 0.  1.
        -11    1    1    2    0    0 -0.19759685373E+01 -0.64264640877E+02  0.32850352416E+02  0.72201067669E+02  0.00000000000E+00 0. -1.
         11    1    1    2    0    0 -0.47702876052E+01  0.36716570913E+02  0.41187793434E+02  0.55383179318E+02  0.00000000000E+00 0.  1.
</event>
<event>
 7    1  0.4966153E-006  0.1424227E+03  0.7561462E-02  0.1210106E+00
         -3   -1    0    0    0  501 -0.00000000000E+00  0.00000000000E+00  0.35167364076E+02  0.35167364076E+02  0.00000000000E+00 0.  1.
          3   -1    0    0  501    0  0.00000000000E+00 -0.00000000000E+00 -0.89319302965E+03  0.89319302965E+03  0.00000000000E+00 0. -1.
         23    2    1    2    0    0 -0.12742127878E+03 -0.17419811820E+01 -0.30865429093E+03  0.35658688114E+03  0.12509003039E+03 0.  0.
          5    1    3    3  502    0 -0.81850452517E+02  0.30854274108E+02 -0.72048182466E+02  0.11340148061E+03  0.41800000000E+01 0. -1.
         -5    1    3    3    0  502 -0.45570826259E+02 -0.32596255290E+02 -0.23660610847E+03  0.24318540053E+03  0.41800000000E+01 0. -1.
        -11    1    1    2    0    0  0.12692165372E+03  0.15014325213E+02 -0.54140505974E+03  0.55628587512E+03  0.00000000000E+00 0. -1.
         11    1    1    2    0    0  0.49962506063E+00 -0.13272344031E+02 -0.79663148944E+01  0.15487637466E+02  0.00000000000E+00 0.  1.
</event>
<event>
 7    1  0.4966153E-006  0.9971636E+02  0.7561462E-02  0.1280894E+00
          3   -1    0    0  501    0  0.00000000000E+00  0.00000000000E+00  0.39711997260E+02  0.39711997260E+02  0.00000000000E+00 0. -1.
         -3   -1    0    0    0  501 -0.00000000000E+00 -0.00000000000E+00 -0.44826502566E+03  0.44826502566E+03  0.00000000000E+00 0.  1.
         23    2    1    2    0    0  0.52390492522E+01 -0.49160236002E+02 -0.33575339700E+03  0.36170162846E+03  0.12511413989E+03 0.  0.
          5    1    3    3  502    0 -0.25827228370E+02  0.25722435468E+02 -0.36967657722E+02  0.52084254138E+02  0.41800000000E+01 0.  1.
         -5    1    3    3    0  502  0.31066277622E+02 -0.74882671470E+02 -0.29878573927E+03  0.30961737433E+03  0.41800000000E+01 0.  1.
        -11    1    1    2    0    0 -0.16391861028E+02 -0.11412153024E+02 -0.60176453399E+02  0.63404541543E+02  0.00000000000E+00 0.  1.
         11    1    1    2    0    0  0.11152811776E+02  0.60572389026E+02 -0.12623178004E+02  0.62870852911E+02  0.00000000000E+00 0. -1.
</event>
<event>
 7    1  0.4966153E-006  0.1951514E+03  0.7561462E-02  0.1153895E+00
          2   -1    0    0  501    0  0.00000000000E+00  0.00000000000E+00  0.70290237960E+03  0.70290237960E+03  0.00000000000E+00 0. -1.
         -2   -1    0    0    0  501 -0.00000000000E+00 -0.00000000000E+00 -0.73510766112E+02  0.73510766112E+02  0.00000000000E+00 0.  1.
         23    2    1    2    0    0 -0.11663270866E+03  0.12973606624E+03  0.16052459915E+03  0.26805097668E+03  0.12509413878E+03 0.  0.
          5    1    3    3  502    0  0.72914006929E+01  0.57946350515E+02  0.92429722107E+02  0.10941512688E+03  0.41800000000E+01 0.  1.
         -5    1    3    3    0  502 -0.12392410935E+03  0.71789715722E+02  0.68094877041E+02  0.15863584980E+03  0.41800000000E+01 0.  1.
        -11    1    1    2    0    0  0.50129013813E+02 -0.94291638004E+01  0.71045495247E+02  0.87460216960E+02  0.00000000000E+00 0.  1.
         11    1    1    2    0    0  0.66503694849E+02 -0.12030690244E+03  0.39782151910E+03  0.42090195207E+03  0.00000000000E+00 0. -1.
</event>
<event>
 7    1  0.4966153E-006  0.1060589E+03  0.7561462E-02  0.1268047E+00
          2   -1    0    0  501    0  0.00000000000E+00  0.00000000000E+00  0.14922476572E+02  0.14922476572E+02  0.00000000000E+00 0.  1.
         -2   -1    0    0    0  501 -0.00000000000E+00 -0.00000000000E+00 -0.82045821881E+03  0.82045821881E+03  0.00000000000E+00 0. -1.
         23    2    1    2    0    0 -0.15290653336E+02 -0.15961114499E+02 -0.45063457455E+03  0.46819189413E+03  0.12507425273E+03 0.  0.
          5    1    3    3  502    0 -0.52674038011E+02 -0.51260022609E+02 -0.22507087572E+03  0.23680480505E+03  0.41800000000E+01 0.  1.
         -5    1    3    3    0  502  0.37383384675E+02  0.35298908110E+02 -0.22556369883E+03  0.23138708908E+03  0.41800000000E+01 0.  1.
        -11    1    1    2    0    0 -0.23307851648E+02  0.36412254093E+02 -0.10589635867E+03  0.11438158495E+03  0.00000000000E+00 0.  1.
         11    1    1    2    0    0  0.38598504984E+02 -0.20451139594E+02 -0.24900480902E+03  0.25280721630E+03  0.00000000000E+00 0. -1.
</event>
<event>
 7    1  0.4966153E-006  0.1085658E+03  0.7561462E-02  0.1263249E+00
          1   -1    0    0  501    0  0.00000000000E+00  0.00000000000E+00  0.30146822097E+02  0.30146822097E+02  0.00000000000E+00 0. -1.
         -1   -1    0    0    0  501 -0.00000000000E+00 -0.00000000000E+00 -0.45931437527E+03  0.45931437527E+03  0.00000000000E+00 0.  1.
         23    2    1    2    0    0  0.17487065393E+02  0.87366814794E+01 -0.32043411073E+03  0.34454022003E+03  0.12509123405E+03 0.  0.
          5    1    3    3  502    0  0.69772428242E+02 -0.89778672284E+01 -0.16032511930E+03  0.17512969515E+03  0.41800000000E+01 0. -1.
         -5    1    3    3    0  502 -0.52285362849E+02  0.17714548708E+02 -0.16010899143E+03  0.16941052488E+03  0.41800000000E+01 0. -1.
        -11    1    1    2    0    0  0.11931581871E+02  0.35903926828E+02 -0.24238614954E+02  0.44932895105E+02  0.00000000000E+00 0.  1.
         11    1    1    2    0    0 -0.29418647264E+02 -0.44640608307E+02 -0.84494827490E+02  0.99988082237E+02  0.00000000000E+00 0. -1.
</event>
<event>
 7    1  0.4966153E-006  0.1206271E+03  0.7561462E-02  0.1242066E+00
         -2   -1    0    0    0  501 -0.00000000000E+00  0.00000000000E+00  0.26015354753E+02  0.26015354753E+02  0.00000000000E+00 0. -1.
          2   -1    0    0  501    0  0.00000000000E+00 -0.00000000000E+00 -0.70741185744E+03  0.70741185744E+03  0.00000000000E+00 0.  1.
         23    2    1    2    0    0  0.47429568713E+02  0.26071489253E+02 -0.21097733332E+03  0.25117346936E+03  0.12508952792E+03 0.  0.
          5    1    3    3  502    0  0.76707774391E+01  0.73405485067E+02 -0.12447956097E+03  0.14477513448E+03  0.41800000000E+01 0. -1.
         -5    1    3    3    0  502  0.39758791273E+02 -0.47333995814E+02 -0.86497772347E+02  0.10639833488E+03  0.41800000000E+01 0. -1.
        -11    1    1    2    0    0 -0.73052429545E+02 -0.30865999829E+02 -0.37793546693E+03  0.38616652441E+03  0.00000000000E+00 0.  1.
         11    1    1    2    0    0  0.25622860833E+02  0.47945105754E+01 -0.92483702436E+02  0.96087218428E+02  0.00000000000E+00 0. -1.
</event>
<event>
 6    1  0.4966153E-006  0.2208149E+03  0.7561462E-02  0.1133277E+00
         -1   -1    0    0    0  501 -0.00000000000E+00  0.00000000000E+00  0.13861426997E+03  0.13861426997E+03  0.00000000000E+00 0.  1.
          1   -1    0    0  501    0  0.00000000000E+00 -0.00000000000E+00 -0.69157944870E+03  0.69157944870E+03  0.00000000000E+00 0. -1.
          5    1    1    2  502    0  0.17868714900E+03 -0.66571753681E+02 -0.69268209305E+02  0.20291981871E+03  0.41800000000E+01 0. -1.
         -5    1    1    2    0  502 -0.13880387159E+03  0.14745816069E+02 -0.92813489804E+01  0.13995559903E+03  0.41800000000E+01 0.  1.
        -11    1    1    2    0    0 -0.46684769644E+02 -0.11077538939E+02 -0.21697373368E+03  0.22221561757E+03  0.00000000000E+00 0. -1.
         11    1    1    2    0    0  0.68014922318E+01  0.62903476552E+02 -0.25744188677E+03  0.26510268336E+03  0.00000000000E+00 0.  1.
</event>
<event>
 7    1  0.4966153E-006  0.1499006E+03  0.7561462E-02  0.1200595E+00
          1   -1    0    0  501    0  0.00000000000E+00  0.00000000000E+00  0.65056897908E+03  0.65056897908E+03  0.00000000000E+00 0. -1.
         -1   -1    0    0    0  501 -0.00000000000E+00 -0.00000000000E+00 -0.45233609757E+02  0.45233609757E+02  0.00000000000E+00 0.  1.
         23    2    1    2    0    0  0.99192261402E+02  0.37113861171E+02  0.16696553663E+03  0.23396790653E+03  0.12508775900E+03 0.  0.
          5    1    3    3  502    0 -0.25894348873E+02  0.21851403447E+02  0.58103322618E+02  0.67390426883E+02  0.41800000000E+01 0.  1.
         -5    1    3    3    0  502  0.12508661028E+03  0.15262457724E+02  0.10886221402E+03  0.16657747965E+03  0.41800000000E+01 0.  1.
        -11    1    1    2    0    0  0.10731335355E+02 -0.27162380182E+02  0.48236776926E+02  0.56389210882E+02  0.00000000000E+00 0.  1.
         11    1    1    2    0    0 -0.10992359676E+03 -0.99514809892E+01  0.39013305576E+03  0.40544547142E+03  0.00000000000E+00 0. -1.
</event>
<event>
 7    1  0.4966153E-006  0.1258002E+03  0.7561462E-02  0.1233824E+00
          3   -1    0    0  501    0  0.00000000000E+00  0.00000000000E+00  0.11442508739E+03  0.11442508739E+03  0.00000000000E+00 0. -1.
         -3   -1    0    0    0  501 -0.00000000000E+00 -0.00000000000E+00 -0.16175306073E+03  0.16175306073E+03  0.00000000000E+00 0.  1.
         23    2    1    2    0    0 -0.78250001508E+02 -0.21751236595E+01  0.13426487335E+01  0.14757061810E+03  0.12508993054E+03 0.  0.
          5    1    3    3  502    0  0.89553129045E+01 -0.39772216750E+02 -0.26154857796E+02  0.48616621034E+02  0.41800000000E+01 0.  1.
         -5    1    3    3    0  502 -0.87205314412E+02  0.37597093091E+02  0.27497506530E+02  0.98953997069E+02  0.41800000000E+01 0.  1.
        -11    1    1    2    0    0  0.12332664778E+02 -0.36918502325E+02 -0.22110169129E+01  0.38986651950E+02  0.00000000000E+00 0.  1.
         11    1    1    2    0    0  0.65917336730E+02  0.39093625985E+02 -0.46459605157E+02  0.89620878067E+02  0.00000000000E+00 0. -1.
</event>
<event>
 7    1  0.4966153E-006  0.1454554E+03  0.7561462E-02  0.1206171E+00
          1   -1    0    0  501    0  0.00000000000E+00  0.00000000000E+00  0.89289902005E+03  0.89289902005E+03  0.00000000000E+00 0. -1.
         -1   -1    0    0    0  501 -0.00000000000E+00 -0.00000000000E+00 -0.33437208558E+02  0.33437208558E+02  0.00000000000E+00 0.  1.
         23    2    1    2    0    0 -0.13257385356E+03 -0.35811809430E+01  0.38493707132E+03  0.42592566665E+03  0.12508986021E+03 0.  0.
          5    1    3    3  502    0 -0.13120187963E+03 -0.16769800901E+02  0.19608663944E+03  0.23656416044E+03  0.41800000000E+01 0. -1.
         -5    1    3    3    0  502 -0.13719739281E+01  0.13188619958E+02  0.18885043189E+03  0.18936150621E+03  0.41800000000E+01 0. -1.
        -11    1    1    2    0    0  0.70980350453E+02  0.30747632147E+02  0.14775634730E+03  0.16677999041E+03  0.00000000000E+00 0.  1.
         11    1    1    2    0    0  0.61593503104E+02 -0.27166451204E+02  0.32676839287E+03  0.33363057155E+03  0.00000000000E+00 0. -1.
</event>
<event>
 7    1  0.4966153E-006  0.1389422E+03  0.7561462E-02  0.1214759E+00
          2   -1    0    0  501    0  0.00000000000E+00  0.00000000000E+00  0.19755733505E+03  0.19755733505E+03  0.00000000000E+00 0.  1.
         -2   -1    0    0    0  501 -0.00000000000E+00 -0.00000000000E+00 -0.18823193493E+03  0.18823193493E+03  0.00000000000E+00 0. -1.
         23    2    1    2    0    0  0.10996991072E+03 -0.41192876884E+01 -0.10557681809E+03  0.19724240307E+03  0.12509097192E+03 0.  0.
          5    1    3    3  502    0 -0.13528482722E+02  0.34275984232E+02 -0.20378172571E+02  0.42315543919E+02  0.41800000000E+01 0.  1.
         -5    1    3    3    0  502  0.12349839344E+03 -0.38395271920E+02 -0.85198645522E+02  0.15492685915E+03  0.41800000000E+01 0.  1.
        -11    1    1    2    0    0 -0.54154112533E+02 -0.66374597388E+01 -0.60595784600E+01  0.54894829147E+02  0.00000000000E+00 0. -1.
         11    1    1    2    0    0 -0.55815798184E+02  0.10756747427E+02  0.12096179668E+03  0.13365203776E+03  0.00000000000E+00 0.  1.
</event>
<event>
 7    1  0.4966153E-006  0.1365801E+03  0.7561462E-02  0.1218006E+00
          2   -1    0    0  501    0  0.00000000000E+00  0.00000000000E+00  0.49687841967E+03  0.49687841967E+03  0.00000000000E+00 0. -1.
         -2   -1    0    0    0  501 -0.00000000000E+00 -0.00000000000E+00 -0.53655592609E+02  0.53655592609E+02  0.00000000000E+00 0.  1.
         23    2    1    2    0    0 -0.65979059852E+01  0.90463404318E+02  0.99055127706E+02  0.18353877611E+03  0.12508958441E+03 0.  0.
          5    1    3    3  502    0  0.53673103459E+02  0.73102090673E+02  0.48882493387E+02  0.10311007834E+03  0.41800000000E+01 0. -1.
         -5    1    3    3    0  502 -0.60271009445E+02  0.17361313645E+02  0.50172634319E+02  0.80428697773E+02  0.41800000000E+01 0. -1.
        -11    1    1    2    0    0 -0.35735980164E+02 -0.43078547236E+02  0.22599137170E+03  0.23281950433E+03  0.00000000000E+00 0.  1.
         11    1    1    2    0    0  0.42333886149E+02 -0.47384857083E+02  0.11817632765E+03  0.13417573184E+03  0.00000000000E+00 0. -1.
</event>
<event>
 7    1  0.4966153E-006  0.1112075E+03  0.7561462E-02  0.1258350E+00
          1   -1    0    0  501    0  0.00000000000E+00  0.00000000000E+00  0.37725955718E+03  0.37725955718E+03  0.00000000000E+00 0. -1.
         -1   -1    0    0    0  501 -0.00000000000E+00 -0.00000000000E+00 -0.47397917001E+02  0.47397917001E+02  0.00000000000E+00 0.  1.
         23    2    1    2    0    0  0.28829122730E+02 -0.53136865885E+02  0.10441369155E+03  0.17379462237E+03  0.12509079483E+03 0.  0.
          5    1    3    3  502    0  0.27421529161E+01  0.37852223858E+02  0.87878797679E+01  0.39179197088E+02  0.41800000000E+01 0. -1.
         -5    1    3    3    0  502  0.26086969814E+02 -0.90989089743E+02  0.95625811781E+02  0.13461542529E+03  0.41800000000E+01 0. -1.
        -11    1    1    2    0    0  0.20948301102E+02  0.23806529654E+02  0.16190219158E+03  0.16497848893E+03  0.00000000000E+00 0. -1.
         11    1    1    2    0    0 -0.49777423832E+02  0.29330336231E+02  0.63545757053E+02  0.85884362873E+02  0.00000000000E+00 0.  1.
</event>
<event>
 7    1  0.4966153E-006  0.9455904E+02  0.7561462E-02  0.1292172E+00
          1   -1    0    0  501    0  0.00000000000E+00  0.00000000000E+00  0.31099554572E+03  0.31099554572E+03  0.00000000000E+00 0. -1.
         -1   -1    0    0    0  501 -0.00000000000E+00 -0.00000000000E+00 -0.60696169929E+02  0.60696169929E+02  0.00000000000E+00 0.  1.
         23    2    1    2    0    0  0.77251160405E+02  0.22345030316E+02  0.10027881451E+03  0.17936175108E+03  0.12509098667E+03 0.  0.
          5    1    3    3  502    0  0.73147360212E+02  0.36863459664E+02  0.12535333200E+03  0.14980113887E+03  0.41800000000E+01 0.  1.
         -5    1    3    3    0  502  0.41038001935E+01 -0.14518429349E+02 -0.25074517487E+02  0.29560612206E+02  0.41800000000E+01 0.  1.
        -11    1    1    2    0    0 -0.44780921290E+02  0.97054906514E+01  0.12582105690E+02  0.47516700685E+02  0.00000000000E+00 0.  1.
         11    1    1    2    0    0 -0.32470239116E+02 -0.32050520967E+02  0.13743845560E+03  0.14481326389E+03  0.00000000000E+00 0. -1.
</event>
<event>
 7    1  0.4966153E-006  0.1309040E+03  0.7561462E-02  0.1226121E+00
         -2   -1    0    0    0  501 -0.00000000000E+00  0.00000000000E+00  0.33308509577E+03  0.33308509577E+03  0.00000000000E+00 0.  1.
          2   -1    0    0  501    0  0.00000000000E+00 -0.00000000000E+00 -0.10721370509E+03  0.10721370509E+03  0.00000000000E+00 0. -1.
         23    2    1    2    0    0 -0.95336417262E+02  0.25652760990E+01  0.26020394714E+03  0.30405285822E+03  0.12508570417E+03 0.  0.
          5    1    3    3  502    0 -0.75294592390E+02  0.52949331279E+02  0.10552939525E+03  0.14009579932E+03  0.41800000000E+01 0.  1.
         -5    1    3    3    0  502 -0.20041824871E+02 -0.50384055180E+02  0.15467455188E+03  0.16395705889E+03  0.41800000000E+01 0.  1.
        -11    1    1    2    0    0 -0.78693385378E+01 -0.88998856505E+01 -0.30547986453E+02  0.32776728481E+02  0.00000000000E+00 0. -1.
         11    1    1    2    0    0  0.10320575580E+03  0.63346095515E+01 -0.37845700096E+01  0.10346921416E+03  0.00000000000E+00 0.  1.
</event>
<event>
 7    1  0.4966153E-006  0.1997965E+03  0.7561462E-02  0.1149911E+00
         -1   -1    0    0    0  501 -0.00000000000E+00  0.00000000000E+00  0.11108083795E+03  0.11108083795E+03  0.00000000000E+00 0.  1.
          1   -1    0    0  501    0  0.00000000000E+00 -0.00000000000E+00 -0.40109574450E+03  0.40109574450E+03  0.00000000000E+00 0. -1.
         23    2    1    2    0    0 -0.18023975877E+03  0.17066741629E+02 -0.15200607638E+03  0.26745261172E+03  0.12508959967E+03 0.  0.
          5    1    3    3  502    0 -0.65265345236E+02  0.58658294623E+02 -0.10373399828E+03  0.13593592467E+03  0.41800000000E+01 0. -1.
         -5    1    3    3    0  502 -0.11497441353E+03 -0.41591552994E+02 -0.48272078105E+02  0.13151668705E+03  0.41800000000E+01 0. -1.
        -11    1    1    2    0    0  0.65775512727E+02 -0.33418415864E+02 -0.13857083734E+02  0.75068151456E+02  0.00000000000E+00 0. -1.
         11    1    1    2    0    0  0.11446424604E+03  0.16351674235E+02 -0.12415174644E+03  0.16965581928E+03  0.00000000000E+00 0.  1.
</event>
<event>
 7    1  0.4966153E-006  0.1140495E+03  0.7561462E-02  0.1253249E+00
         -2   -1    0    0    0  501 -0.00000000000E+00  0.00000000000E+00  0.20338880821E+02  0.20338880821E+02  0.00000000000E+00 0.  1.
          2   -1    0    0  501    0  0.00000000000E+00 -0.00000000000E+00 -0.71387142422E+03  0.71387142422E+03  0.00000000000E+00 0. -1.
         23    2    1    2    0    0 -0.12818058433E+02  0.43286357051E+02 -0.30689285517E+03  0.33447286555E+03  0.12510340484E+03 0.  0.
          5    1    3    3  502    0  0.43244404963E+02  0.57077568187E+02 -0.13173892458E+03  0.15000181332E+03  0.41800000000E+01 0.  1.
         -5    1    3    3    0  502 -0.56062463396E+02 -0.13791211135E+02 -0.17515393059E+03  0.18447105222E+03  0.41800000000E+01 0.  1.
        -11    1    1    2    0    0  0.37478094200E+02  0.10830735370E+02 -0.10821451802E+03  0.11503170990E+03  0.00000000000E+00 0. -1.
         11    1    1    2    0    0 -0.24660035767E+02 -0.54117092422E+02 -0.27842517020E+03  0.28470572959E+03  0.00000000000E+00 0.  1.
</event>
<event>
 7    1  0.4966153E-006  0.1419309E+03  0.7561462E-02  0.1210754E+00
         -1   -1    0    0    0  501 -0.00000000000E+00  0.00000000000E+00  0.48964997415E+02  0.48964997415E+02  0.00000000000E+00 0.  1.
          1   -1    0    0  501    0  0.00000000000E+00 -0.00000000000E+00 -0.52856187159E+03  0.52856187159E+03  0.00000000000E+00 0. -1.
         23    2    1    2    0    0 -0.73116753931E+02  0.90025479131E+02 -0.22096472883E+03  0.27914754155E+03  0.12508913609E+03 0.  0.
          5    1    3    3  502    0  0.33783462844E+02  0.19315283090E+02 -0.76817148164E+02  0.86213393244E+02  0.41800000000E+01 0.  1.
         -5    1    3    3    0  502 -0.10690021678E+03  0.70710196041E+02 -0.14414758067E+03  0.19293414831E+03  0.41800000000E+01 0.  1.
        -11    1    1    2    0    0  0.15194681672E+02 -0.26258955786E+02 -0.52961617894E+01  0.30797084923E+02  0.00000000000E+00 0.  1.
         11    1    1    2    0    0  0.57922072259E+02 -0.63766523345E+02 -0.25333598355E+03  0.26758224253E+03  0.00000000000E+00 0. -1.
</event>
<event>
 7    1  0.4966153E-006  0.7123468E+02  0.7561462E-02  0.1355944E+00
          1   -1    0    0  501    0  0.00000000000E+00  0.00000000000E+00  0.92182328990E+02  0.92182328990E+02  0.00000000000E+00 0. -1.
         -1   -1    0    0    0  501 -0.00000000000E+00 -0.00000000000E+00 -0.16730928960E+03  0.16730928960E+03  0.00000000000E+00 0.  1.
         23    2    1    2    0    0 -0.53838509275E+02 -0.21603229727E+02 -0.36171726733E+02  0.14256021921E+03  0.12509891155E+03 0.  0.
          5    1    3    3  502    0 -0.20935036430E+00  0.13009110578E+02 -0.69224018389E+02  0.70560030524E+02  0.41800000000E+01 0.  1.
         -5    1    3    3    0  502 -0.53629158911E+02 -0.34612340306E+02  0.33052291657E+02  0.72000188685E+02  0.41800000000E+01 0.  1.
        -11    1    1    2    0    0  0.20895664296E+02  0.23983590588E+02  0.27932865710E+02  0.42333041358E+02  0.00000000000E+00 0. -1.
         11    1    1    2    0    0  0.32942844979E+02 -0.23803608610E+01 -0.66888099591E+02  0.74598358025E+02  0.00000000000E+00 0.  1.
</event>
<event>
 7    1  0.4966153E-006  0.8752063E+02  0.7561462E-02  0.1308969E+00
          1   -1    0    0  501    0  0.00000000000E+00  0.00000000000E+00  0.65101890715E+02  0.65101890715E+02  0.00000000000E+00 0. -1.
         -1   -1    0    0    0  501 -0.00000000000E+00 -0.00000000000E+00 -0.20061506008E+03  0.20061506008E+03  0.00000000000E+00 0.  1.
         23    2    1    2    0    0 -0.21660536851E+02  0.36222391250E+02 -0.11534759907E+03  0.17530865037E+03  0.12508722477E+03 0.  0.
          5    1    3    3  502    0  0.14466000572E+02 -0.42586321628E+02 -0.37204670652E+02  0.58519397473E+02  0.41800000000E+01 0.  1.
         -5    1    3    3    0  502 -0.36126537424E+02  0.78808712878E+02 -0.78142928414E+02  0.11678925290E+03  0.41800000000E+01 0.  1.
        -11    1    1    2    0    0  0.60173254849E+01 -0.18416043499E+02 -0.49229776084E+02  0.52904912035E+02  0.00000000000E+00 0.  1.
         11    1    1    2    0    0  0.15643211366E+02 -0.17806347752E+02  0.29064205789E+02  0.37503388383E+02  0.00000000000E+00 0. -1.
</event>
<event>
 7    1  0.4966153E-006  0.8868082E+02  0.7561462E-02  0.1306078E+00
          1   -1    0    0  501    0  0.00000000000E+00  0.00000000000E+00  0.39273973909E+02  0.39273973909E+02  0.00000000000E+00 0. -1.
         -1   -1    0    0    0  501 -0.00000000000E+00 -0.00000000000E+00 -0.32854252540E+03  0.32854252540E+03  0.00000000000E+00 0.  1.
         23    2    1    2    0    0  0.13227089193E+02 -0.13916844843E+02 -0.20613218135E+03  0.24188242241E+03  0.12509194869E+03 0.  0.
          5    1    3    3  502    0  0.13960804457E+02 -0.47719963360E+02 -0.21837228071E+02  0.54464996961E+02  0.41800000000E+01 0. -1.
         -5    1    3    3    0  502 -0.73371526379E+00  0.33803118517E+02 -0.18429495328E+03  0.18741742545E+03  0.41800000000E+01 0. -1.
        -11    1    1    2    0    0 -0.71679642959E+00  0.52670133509E+02 -0.56651200763E+02  0.77356417374E+02  0.00000000000E+00 0.  1.
         11    1    1    2    0    0 -0.12510292764E+02 -0.38753288666E+02 -0.26485169377E+02  0.48577659520E+02  0.00000000000E+00 0. -1.
</event>
<event>
 7    1  0.4966153E-006  0.1112035E+03  0.7561462E-02  0.1258357E+00
         -1   -1    0    0    0  501 -0.00000000000E+00  0.00000000000E+00  0.59737198157E+03  0.59737198157E+03  0.00000000000E+00 0.  1.
          1   -1    0    0  501    0  0.00000000000E+00 -0.00000000000E+00 -0.28981161573E+02  0.28981161573E+02  0.00000000000E+00 0. -1.
         23    2    1    2    0    0 -0.35646093449E+02  0.38062241465E+02  0.42928483193E+03  0.45017011080E+03  0.12509309947E+03 0.  0.
          5    1    3    3  502    0  0.10206990418E+02  0.73593114682E+02  0.28622625898E+03  0.29574156439E+03  0.41800000000E+01 0. -1.
         -5    1    3    3    0  502 -0.45853083867E+02 -0.35530873217E+02  0.14305857295E+03  0.15442854641E+03  0.41800000000E+01 0. -1.
        -11    1    1    2    0    0  0.36151400595E+02  0.13261582047E+02  0.11137603761E+03  0.11784487717E+03  0.00000000000E+00 0.  1.
         11    1    1    2    0    0 -0.50530714574E+00 -0.51323823513E+02  0.27729950462E+02  0.58338155164E+02  0.00000000000E+00 0. -1.
</event>
<event>
 7    1  0.4966153E-006  0.8169616E+02  0.7561462E-02  0.1324306E+00
          1   -1    0    0  501    0  0.00000000000E+00  0.00000000000E+00  0.12948848849E+03  0.12948848849E+03  0.00000000000E+00 0. -1.
         -1   -1    0    0    0  501 -0.00000000000E+00 -0.00000000000E+00 -0.27299355668E+03  0.27299355668E+03  0.00000000000E+00 0.  1.
         23    2    1    2    0    0 -0.17042475452E+02  0.26694188361E+02 -0.23617681149E+03  0.26912804383E+03  0.12508953606E+03 0.  0.
          5    1    3    3  502    0 -0.37880348546E+02  0.60720485791E+01 -0.84775577004E+01  0.39511162530E+02  0.41800000000E+01 0.  1.
         -5    1    3    3    0  502  0.20837873094E+02  0.20622139782E+02 -0.22769925379E+03  0.22961688130E+03  0.41800000000E+01 0.  1.
        -11    1    1    2    0    0  0.51956122752E+02 -0.12232187175E+01  0.58565525726E+02  0.78299781347E+02  0.00000000000E+00 0.  1.
         11    1    1    2    0    0 -0.34913647300E+02 -0.25470969644E+02  0.34106217570E+02  0.55054219995E+02  0.00000000000E+00 0. -1.
</event>
<event>
 7    1  0.4966153E-006  0.1323070E+03  0.7561462E-02  0.1224072E+00
          1   -1    0    0  501    0  0.00000000000E+00  0.00000000000E+00  0.28817017643E+03  0.28817017643E+03  0.00000000000E+00 0. -1.
         -1   -1    0    0    0  501 -0.00000000000E+00 -0.00000000000E+00 -0.73246148548E+02  0.73246148548E+02  0.00000000000E+00 0.  1.
         23    2    1    2    0    0  0.81468556775E+02  0.57315918446E+02  0.12313846215E+03  0.20182475689E+03  0.12509161197E+03 0.  0.
          5    1    3    3  502    0 -0.28479608737E+02  0.26713390375E+00  0.25442498646E+01  0.28898184748E+02  0.41800000000E+01 0. -1.
         -5    1    3    3    0  502  0.10994816551E+03  0.57048784543E+02  0.12059421228E+03  0.17292657214E+03  0.41800000000E+01 0. -1.
        -11    1    1    2    0    0 -0.36758005839E+02 -0.56214751979E+02  0.93158179612E+02  0.11484640074E+03  0.00000000000E+00 0. -1.
         11    1    1    2    0    0 -0.44710550935E+02 -0.11011664672E+01 -0.13726138755E+01  0.44745167352E+02  0.00000000000E+00 0.  1.
</event>
<event>
 7    1  0.4966153E-006  0.2090155E+03  0.7561462E-02  0.1142348E+00
          2   -1    0    0  501    0  0.00000000000E+00  0.00000000000E+00  0.70577589271E+03  0.70577589271E+03  0.00000000000E+00 0. -1.
         -2   -1    0    0    0  501 -0.00000000000E+00 -0.00000000000E+00 -0.10905909051E+03  0.10905909051E+03  0.00000000000E+00 0.  1.
         23    2    1    2    0    0  0.96334648747E+02  0.16609281458E+03  0.50237060149E+02  0.22838479133E+03  0.11299850926E+03 0.  0.
          5    1    3    3  502    0  0.35660471665E+02 -0.92734637627E+01  0.10868299551E+02  0.38642705711E+02  0.41800000000E+01 0. -1.
         -5    1    3    3    0  502  0.60674177082E+02  0.17536627834E+03  0.39368760598E+02  0.18974208562E+03  0.41800000000E+01 0.  1.
        -11    1    1    2    0    0 -0.69034179124E+02 -0.83469470130E+02  0.18259622582E+03  0.21230697590E+03  0.00000000000E+00 0.  1.
         11    1    1    2    0    0 -0.27300469623E+02 -0.82623344449E+02  0.36388351623E+03  0.37414321599E+03  0.00000000000E+00 0. -1.
</event>
<event>
 6    1  0.4966153E-006  0.1261854E+03  0.7561462E-02  0.1233228E+00
          1   -1    0    0  501    0  0.00000000000E+00  0.00000000000E+00  0.38377903394E+03  0.38377903394E+03  0.00000000000E+00 0. -1.
         -1   -1    0    0    0  501 -0.00000000000E+00 -0.00000000000E+00 -0.11006121016E+03  0.11006121016E+03  0.00000000000E+00 0.  1.
          5    1    1    2  502    0 -0.67502778073E+02 -0.56733624401E+02  0.12796550698E+03  0.15546051769E+03  0.41800000000E+01 0. -1.
         -5    1    1    2    0  502  0.56978079420E+02  0.72752368584E+02 -0.61039485268E+02  0.11082734243E+03  0.41800000000E+01 0.  1.
        -11    1    1    2    0    0  0.21048692588E+01 -0.43140563924E+02  0.18937538596E+03  0.19423845021E+03  0.00000000000E+00 0. -1.
         11    1    1    2    0    0  0.84198293946E+01  0.27121819741E+02  0.17416416101E+02  0.33313933765E+02  0.00000000000E+00 0.  1.
</event>
<event>
 7    1  0.4966153E-006  0.1222097E+03  0.7561462E-02  0.1239496E+00
          2   -1    0    0  501    0  0.00000000000E+00  0.00000000000E+00  0.30166172100E+02  0.30166172100E+02  0.00000000000E+00 0. -1.
         -2   -1    0    0    0  501 -0.00000000000E+00 -0.00000000000E+00 -0.10410348186E+04  0.10410348186E+04  0.00000000000E+00 0.  1.
         23    2    1    2    0    0  0.79890721013E+02  0.44146526278E+02 -0.85464832782E+03  0.86856498678E+03  0.12509967593E+03 0.  0.
          5    1    3    3  502    0  0.39857582265E+02  0.60223381219E+02 -0.77070422392E+03  0.77409169721E+03  0.41800000000E+01 0. -1.
         -5    1    3    3    0  502  0.40033138748E+02 -0.16076854941E+02 -0.83944103899E+02  0.94473289570E+02  0.41800000000E+01 0. -1.
        -11    1    1    2    0    0 -0.51426822089E+02 -0.72285592178E+02 -0.11413464816E+03  0.14455671128E+03  0.00000000000E+00 0. -1.
         11    1    1    2    0    0 -0.28463898924E+02  0.28139065900E+02 -0.42085670551E+02  0.58079292673E+02  0.00000000000E+00 0.  1.
</event>
<event>
 7    1  0.4966153E-006  0.1795489E+03  0.7561462E-02  0.1168240E+00
         -1   -1    0    0    0  501 -0.00000000000E+00  0.00000000000E+00  0.10731646962E+03  0.10731646962E+03  0.00000000000E+00 0.  1.
          1   -1    0    0  501    0  0.00000000000E+00 -0.00000000000E+00 -0.52028010383E+03  0.52028010383E+03  0.00000000000E+00 0. -1.
         23    2    1    2    0    0  0.23989040039E+02  0.15022030821E+03 -0.22145234770E+02  0.19819379360E+03  0.12509497734E+03 0.  0.
          5    1    3    3  502    0  0.67470798259E+02  0.79357133547E+02 -0.42368670798E+02  0.11252750743E+03  0.41800000000E+01 0. -1.
         -5    1    3    3    0  502 -0.43481758220E+02  0.70863174665E+02  0.20223436028E+02  0.85666286171E+02  0.41800000000E+01 0. -1.
        -11    1    1    2    0    0  0.22433298434E+02 -0.11267314775E+02 -0.10814631453E+03  0.11102175736E+03  0.00000000000E+00 0. -1.
         11    1    1    2    0    0 -0.46422338474E+02 -0.13895299344E+03 -0.28267208491E+03  0.31838102249E+03  0.00000000000E+00 0.  1.
</event>
<event>
 7    1  0.4966153E-006  0.9203168E+02  0.7561462E-02  0.1298005E+00
          2   -1    0    0  501    0  0.00000000000E+00  0.00000000000E+00  0.27435869059E+02  0.27435869059E+02  0.00000000000E+00 0. -1.
         -2   -1    0    0    0  501 -0.00000000000E+00 -0.00000000000E+00 -0.46668078211E+03  0.46668078211E+03  0.00000000000E+00 0.  1.
         23    2    1    2    0    0 -0.20605051959E+02 -0.44913783891E+01 -0.27791551939E+03  0.30549892378E+03  0.12509123017E+03 0.  0.
          5    1    3    3  502    0 -0.96318639823E+01 -0.64398541211E+02 -0.15787442798E+03  0.17082667334E+03  0.41800000000E+01 0. -1.
         -5    1    3    3    0  502 -0.10973187976E+02  0.59907162822E+02 -0.12004109141E+03  0.13467225044E+03  0.41800000000E+01 0. -1.
        -11    1    1    2    0    0  0.38804456050E+02  0.68872977317E+01 -0.16521837469E+03  0.16985385487E+03  0.00000000000E+00 0.  1.
         11    1    1    2    0    0 -0.18199404092E+02 -0.23959193426E+01  0.38889810213E+01  0.18763872526E+02  0.00000000000E+00 0. -1.
</event>
<event>
 7    1  0.4966153E-006  0.9150566E+02  0.7561462E-02  0.1299246E+00
          1   -1    0    0  501    0  0.00000000000E+00  0.00000000000E+00  0.12993663764E+03  0.12993663764E+03  0.00000000000E+00 0. -1.
         -1   -1    0    0    0  501 -0.00000000000E+00 -0.00000000000E+00 -0.15624942525E+03  0.15624942525E+03  0.00000000000E+00 0.  1.
         23    2    1    2    0    0  0.26272560006E+02 -0.57168768017E+02 -0.80242360428E+02  0.16138001796E+03  0.12508460474E+03 0.  0.
          5    1    3    3  502    0  0.37872583934E+02 -0.13212499292E+01  0.22153479406E+02  0.44094527608E+02  0.41800000000E+01 0.  1.
         -5    1    3    3    0  502 -0.11600023928E+02 -0.55847518088E+02 -0.10239583983E+03  0.11728549035E+03  0.41800000000E+01 0.  1.
        -11    1    1    2    0    0 -0.46136204606E+02  0.34876865634E+02  0.70077351340E+02  0.90861324571E+02  0.00000000000E+00 0. -1.
         11    1    1    2    0    0  0.19863644600E+02  0.22291902384E+02 -0.16147778525E+02  0.33944720355E+02  0.00000000000E+00 0.  1.
</event>
<event>
 7    1  0.4966153E-006  0.9935831E+02  0.7561462E-02  0.1281651E+00
         -1   -1    0    0    0  501 -0.00000000000E+00  0.00000000000E+00  0.39182447462E+02  0.39182447462E+02  0.00000000000E+00 0.  1.
          1   -1    0    0  501    0  0.00000000000E+00 -0.00000000000E+00 -0.41703760963E+03  0.41703760963E+03  0.00000000000E+00 0. -1.
         23    2    1    2    0    0  0.44913868419E+02  0.43065832554E+02 -0.16325248690E+03  0.21487293025E+03  0.12508828949E+03 0.  0.
          5    1    3    3  502    0  0.37286681066E+02 -0.96798321898E+01  0.43117644665E+01  0.38987939789E+02  0.41800000000E+01 0. -1.
         -5    1    3    3    0  502  0.76271873524E+01  0.52745664744E+02 -0.16756425136E+03  0.17588499046E+03  0.41800000000E+01 0. -1.
        -11    1    1    2    0    0  0.81141766156E+01  0.21487699497E+02 -0.23895662582E+02  0.33144589031E+02  0.00000000000E+00 0.  1.
         11    1    1    2    0    0 -0.53028045034E+02 -0.64553532051E+02 -0.19070701269E+03  0.20820253781E+03  0.00000000000E+00 0. -1.
</event>
<event>
 7    1  0.4966153E-006  0.1162327E+03  0.7561462E-02  0.1249444E+00
          2   -1    0    0  501    0  0.00000000000E+00  0.00000000000E+00  0.29591789668E+03  0.29591789668E+03  0.00000000000E+00 0. -1.
         -2   -1    0    0    0  501 -0.00000000000E+00 -0.00000000000E+00 -0.55624228108E+02  0.55624228108E+02  0.00000000000E+00 0.  1.
         23    2    1    2    0    0  0.59570104459E+02  0.22755477305E+02  0.10582994575E+03  0.17582102034E+03  0.12508654877E+03 0.  0.
          5    1    3    3  502    0  0.98245902626E+02  0.77615438359E+01  0.71795159540E+02  0.12200211588E+03  0.41800000000E+01 0. -1.
         -5    1    3    3    0  502 -0.38675798168E+02  0.14993933469E+02  0.34034786207E+02  0.53818904457E+02  0.41800000000E+01 0. -1.
        -11    1    1    2    0    0  0.14810712829E+02 -0.22670198740E+01  0.79733119955E+02  0.81128706457E+02  0.00000000000E+00 0. -1.
         11    1    1    2    0    0 -0.74380817287E+02 -0.20488457431E+02  0.54730602872E+02  0.94592397998E+02  0.00000000000E+00 0.  1.
</event>
<event>
 7    1  0.4966153E-006  0.9699068E+02  0.7561462E-02  0.1286754E+00
          2   -1    0    0  501    0  0.00000000000E+00  0.00000000000E+00  0.10143140637E+02  0.10143140637E+02  0.00000000000E+00 0. -1.
         -2   -1    0    0    0  501 -0.00000000000E+00 -0.00000000000E+00 -0.13835102732E+04  0.13835102732E+04  0.00000000000E+00 0.  1.
         23    2    1    2    0    0  0.21275325022E+02  0.17131622554E+02 -0.99044664336E+03  0.99768956395E+03  0.11684939331E+03 0.  0.
          5    1    3    3  502    0 -0.51080321557E+01 -0.35243184042E+02 -0.72155454202E+03  0.72244487923E+03  0.41800000000E+01 0. -1.
         -5    1    3    3    0  502  0.26383357178E+02  0.52374806596E+02 -0.26889210134E+03  0.27524468472E+03  0.41800000000E+01 0.  1.
        -11    1    1    2    0    0  0.26294554284E+02  0.24632493669E+02 -0.17274402866E+03  0.17646150506E+03  0.00000000000E+00 0.  1.
         11    1    1    2    0    0 -0.47569879306E+02 -0.41764116223E+02 -0.21017646051E+03  0.21950234480E+03  0.00000000000E+00 0. -1.
</event>
<event>
 7    1  0.4966153E-006  0.1035386E+03  0.7561462E-02  0.1273026E+00
         -1   -1    0    0    0  501 -0.00000000000E+00  0.00000000000E+00  0.29049652582E+03  0.29049652582E+03  0.00000000000E+00 0.  1.
          1   -1    0    0  501    0  0.00000000000E+00 -0.00000000000E+00 -0.46726936638E+02  0.46726936638E+02  0.00000000000E+00 0. -1.
         23    2    1    2    0    0  0.60924516071E+01 -0.38570782150E+01  0.19221657074E+03  0.22944713222E+03  0.12508709525E+03 0.  0.
          5    1    3    3  502    0 -0.20504128199E+01  0.60206871013E+02  0.99165357810E+02  0.11610474624E+03  0.41800000000E+01 0. -1.
         -5    1    3    3    0  502  0.81428644270E+01 -0.64063949228E+02  0.93051212929E+02  0.11334238598E+03  0.41800000000E+01 0. -1.
        -11    1    1    2    0    0 -0.21993780416E+02 -0.34239071464E+02  0.52572222331E+02  0.66482170185E+02  0.00000000000E+00 0.  1.
         11    1    1    2    0    0  0.15901328809E+02  0.38096149679E+02 -0.10192038854E+01  0.41294160057E+02  0.00000000000E+00 0. -1.
</event>
<event>
 7    1  0.4966153E-006  0.1041635E+03  0.7561462E-02  0.1271777E+00
          1   -1    0    0  501    0  0.00000000000E+00  0.00000000000E+00  0.82805377123E+02  0.82805377123E+02  0.00000000000E+00 0. -1.
         -1   -1    0    0    0  501 -0.00000000000E+00 -0.00000000000E+00 -0.22701324370E+03  0.22701324370E+03  0.00000000000E+00 0.  1.
         23    2    1    2    0    0  0.34927503395E+01 -0.67513363411E+01 -0.17479432803E+03  0.21507893065E+03  0.12509240364E+03 0.  0.
          5    1    3    3  502    0 -0.56942956787E+02 -0.10214802966E+02 -0.51094091010E+02  0.77297613569E+02  0.41800000000E+01 0.  1.
         -5    1    3    3    0  502  0.60435707127E+02  0.34634666251E+01 -0.12370023702E+03  0.13778131708E+03  0.41800000000E+01 0.  1.
        -11    1    1    2    0    0  0.39039038412E+02  0.21575154104E+02  0.16248994243E+02  0.47471713774E+02  0.00000000000E+00 0. -1.
         11    1    1    2    0    0 -0.42531788752E+02 -0.14823817763E+02  0.14337467206E+02  0.47267976404E+02  0.00000000000E+00 0.  1.
</event>
<event>
 7    1  0.4966153E-006  0.1098640E+03  0.7561462E-02  0.1260822E+00
          1   -1    0    0  501    0  0.00000000000E+00  0.00000000000E+00  0.34289712746E+02  0.34289712746E+02  0.00000000000E+00 0. -1.
         -1   -1    0    0    0  501 -0.00000000000E+00 -0.00000000000E+00 -0.52822436178E+03  0.52822436178E+03  0.00000000000E+00 0.  1.
         23    2    1    2    0    0  0.45303182645E+02  0.61767668090E+02 -0.26067497495E+03  0.29910884806E+03  0.12508811792E+03 0.  0.
          5    1    3    3  502    0 -0.40499509104E+01  0.79872728455E+02 -0.89998082864E+02  0.12047066934E+03  0.41800000000E+01 0. -1.
         -5    1    3    3    0  502  0.49353133555E+02 -0.18105060365E+02 -0.17067689208E+03  0.17863817871E+03  0.41800000000E+01 0. -1.
        -11    1    1    2    0    0 -0.51830307782E+02 -0.44028899707E+02 -0.23479109096E+03  0.24444177467E+03  0.00000000000E+00 0.  1.
         11    1    1    2    0    0  0.65271251373E+01 -0.17738768384E+02  0.15314168673E+01  0.18963451794E+02  0.00000000000E+00 0. -1.
</event>
<event>
 7    1  0.4966153E-006  0.1113605E+03  0.7561462E-02  0.1258071E+00
         -2   -1    0    0    0  501 -0.00000000000E+00  0.00000000000E+00  0.16178101958E+02  0.16178101958E+02  0.00000000000E+00 0. -1.
          2   -1    0    0  501    0  0.00000000000E+00 -0.00000000000E+00 -0.89767583410E+03  0.89767583410E+03  0.00000000000E+00 0.  1.
         23    2    1    2    0    0 -0.19629765697E+02  0.46770996982E+02 -0.44305199757E+03  0.46315864454E+03  0.12509198055E+03 0.  0.
          5    1    3    3  502    0 -0.50474115839E+02  0.66412739503E+02 -0.38833281113E+03  0.39721295666E+03  0.41800000000E+01 0. -1.
         -5    1    3    3    0  502  0.30844350142E+02 -0.19641742521E+02 -0.54719186438E+02  0.65945687876E+02  0.41800000000E+01 0. -1.
        -11    1    1    2    0    0  0.24382556476E+02 -0.72365356985E+02 -0.36111121911E+03  0.36909696087E+03  0.00000000000E+00 0.  1.
         11    1    1    2    0    0 -0.47527907793E+01  0.25594360003E+02 -0.77334515462E+02  0.81598330656E+02  0.00000000000E+00 0. -1.
</event>
<event>
 7    1  0.4966153E-006  0.1220847E+03  0.7561462E-02  0.1239697E+00
          1   -1    0    0  501    0  0.00000000000E+00  0.00000000000E+00  0.67467392872E+03  0.67467392872E+03  0.00000000000E+00 0. -1.
         -1   -1    0    0    0  501 -0.00000000000E+00 -0.00000000000E+00 -0.33891592846E+02  0.33891592846E+02  0.00000000000E+00 0.  1.
         23    2    1    2    0    0 -0.96626517108E+02  0.47496161676E+02  0.32110708322E+03  0.35941849413E+03  0.12033007042E+03 0.  0.
          5    1    3    3  502    0 -0.39314944627E+02  0.39318646206E+02  0.31478494010E+02  0.64031154882E+02  0.41800000000E+01 0. -1.
         -5    1    3    3    0  502 -0.57311572482E+02  0.81775154705E+01  0.28962858921E+03  0.29538733925E+03  0.41800000000E+01 0.  1.
        -11    1    1    2    0    0  0.76418996281E+02  0.24813298233E+01  0.24763376068E+03  0.25916886275E+03  0.00000000000E+00 0.  1.
         11    1    1    2    0    0  0.20207520828E+02 -0.49977491500E+02  0.72041491968E+02  0.89978164682E+02  0.00000000000E+00 0. -1.
</event>
<event>
 7    1  0.4966153E-006  0.1640927E+03  0.7561462E-02  0.1184152E+00
         -1   -1    0    0    0  501 -0.00000000000E+00  0.00000000000E+00  0.11937686432E+03  0.11937686432E+03  0.00000000000E+00 0.  1.
          1   -1    0    0  501    0  0.00000000000E+00 -0.00000000000E+00 -0.29662313311E+03  0.29662313311E+03  0.00000000000E+00 0. -1.
         23    2    1    2    0    0 -0.10721829217E+03  0.10749107233E+03 -0.10469748292E+03  0.22284498181E+03  0.12509288622E+03 0.  0.
          5    1    3    3  502    0 -0.86295319144E+02  0.11586401051E+03 -0.33931008665E+02  0.14845920917E+03  0.41800000000E+01 0.  1.
         -5    1    3    3    0  502 -0.20922973030E+02 -0.83729381779E+01 -0.70766474252E+02  0.74385772646E+02  0.41800000000E+01 0.  1.
        -11    1    1    2    0    0  0.84628535973E+02 -0.48440629681E+02 -0.84239365177E+02  0.12885943640E+03  0.00000000000E+00 0. -1.
         11    1    1    2    0    0  0.22589756201E+02 -0.59050442652E+02  0.11690579302E+02  0.64295579218E+02  0.00000000000E+00 0.  1.
</event>
<event>
 7    1  0.4966153E-006  0.1098738E+03  0.7561462E-02  0.1260804E+00
         -1   -1    0    0    0  501 -0.00000000000E+00  0.00000000000E+00  0.19487809642E+02  0.19487809642E+02  0.00000000000E+00 0.  1.
          1   -1    0    0  501    0  0.00000000000E+00 -0.00000000000E+00 -0.77750240331E+03  0.77750240331E+03  0.00000000000E+00 0. -1.
         23    2    1    2    0    0 -0.56145698200E+02 -0.67663144234E+01 -0.33108862002E+03  0.35684950347E+03  0.12051461066E+03 0.  0.
          5    1    3    3  502    0 -0.65383313524E+02  0.33266713592E+02 -0.11233685164E+03  0.13423372362E+03  0.41800000000E+01 0.  1.
         -5    1    3    3    0  502  0.92376153241E+01 -0.40033028016E+02 -0.21875176838E+03  0.22261577985E+03  0.41800000000E+01 0. -1.
        -11    1    1    2    0    0  0.49938346625E+02 -0.36124201920E+02 -0.29168676677E+03  0.29812743305E+03  0.00000000000E+00 0. -1.
         11    1    1    2    0    0  0.62073515751E+01  0.42890516343E+02 -0.13523920688E+03  0.14201327643E+03  0.00000000000E+00 0.  1.
</event>
<event>
 7    1  0.4966153E-006  0.1297006E+03  0.7561462E-02  0.1227901E+00
          2   -1    0    0  501    0  0.00000000000E+00  0.00000000000E+00  0.22146159857E+03  0.22146159857E+03  0.00000000000E+00 0. -1.
         -2   -1    0    0    0  501 -0.00000000000E+00 -0.00000000000E+00 -0.99292173993E+02  0.99292173993E+02  0.00000000000E+00 0.  1.
         23    2    1    2    0    0  0.68861873438E+02 -0.37135088482E+02 -0.15737876143E+01  0.14755121716E+03  0.12509161629E+03 0.  0.
          5    1    3    3  502    0 -0.31269827115E+02 -0.18160918315E+02 -0.23358233524E+02  0.43251595522E+02  0.41800000000E+01 0.  1.
         -5    1    3    3    0  502  0.10013170055E+03 -0.18974170168E+02  0.21784445910E+02  0.10429962163E+03  0.41800000000E+01 0.  1.
        -11    1    1    2    0    0 -0.90397333072E+02  0.17958074895E+02  0.98271438059E+02  0.13472730168E+03  0.00000000000E+00 0.  1.
         11    1    1    2    0    0  0.21535459633E+02  0.19177013587E+02  0.25471774128E+02  0.38475253722E+02  0.00000000000E+00 0. -1.
</event>
<event>
 7    1  0.4966153E-006  0.1309242E+03  0.7561462E-02  0.1226091E+00
          2   -1    0    0  501    0  0.00000000000E+00  0.00000000000E+00  0.38335083716E+03  0.38335083716E+03  0.00000000000E+00 0. -1.
         -2   -1    0    0    0  501 -0.00000000000E+00 -0.00000000000E+00 -0.10361577617E+03  0.10361577617E+03  0.00000000000E+00 0.  1.
         23    2    1    2    0    0 -0.25587590083E+02 -0.74536781170E+02 -0.33299565442E+02  0.15154925123E+03  0.12509139849E+03 0.  0.
          5    1    3    3  502    0 -0.57921922937E+02 -0.92383579082E+02 -0.15084766698E+02  0.11015760267E+03  0.41800000000E+01 0. -1.
         -5    1    3    3    0  502  0.32334332853E+02  0.17846797912E+02 -0.18214798744E+02  0.41391648554E+02  0.41800000000E+01 0. -1.
        -11    1    1    2    0    0  0.25436451724E+02 -0.12625647378E+02  0.41896696737E+02  0.50613765376E+02  0.00000000000E+00 0.  1.
         11    1    1    2    0    0  0.15113835910E+00  0.87162428548E+02  0.27113792969E+03  0.28480359673E+03  0.00000000000E+00 0. -1.
</event>
<event>
 7    1  0.4966153E-006  0.1306104E+03  0.7561462E-02  0.1226553E+00
         -2   -1    0    0    0  501 -0.00000000000E+00  0.00000000000E+00  0.51678773851E+03  0.51678773851E+03  0.00000000000E+00 0. -1.
          2   -1    0    0  501    0  0.00000000000E+00 -0.00000000000E+00 -0.34304163643E+02  0.34304163643E+02  0.00000000000E+00 0.  1.
         23    2    1    2    0    0  0.40818606886E+02 -0.60800044061E+02  0.31467342333E+03  0.34645334787E+03  0.12509098638E+03 0.  0.
          5    1    3    3  502    0 -0.42833017908E+02 -0.39369116979E+02  0.13503594953E+03  0.14709444198E+03  0.41800000000E+01 0.  1.
         -5    1    3    3    0  502  0.83651624794E+02 -0.21430927082E+02  0.17963747379E+03  0.19935890589E+03  0.41800000000E+01 0.  1.
        -11    1    1    2    0    0 -0.45372582415E+02 -0.91959854832E+01  0.56145984061E+02  0.72770934515E+02  0.00000000000E+00 0.  1.
         11    1    1    2    0    0  0.45539755292E+01  0.69996029544E+02  0.11166416748E+03  0.13186761977E+03  0.00000000000E+00 0. -1.
</event>
<event>
 7    1  0.4966153E-006  0.1034345E+03  0.7561462E-02  0.1273235E+00
         -2   -1    0    0    0  501 -0.00000000000E+00  0.00000000000E+00  0.39447314901E+03  0.39447314901E+03  0.00000000000E+00 0. -1.
          2   -1    0    0  501    0  0.00000000000E+00 -0.00000000000E+00 -0.31836389531E+02  0.31836389531E+02  0.00000000000E+00 0.  1.
         23    2    1    2    0    0 -0.22555402105E+02  0.21101359787E+02  0.23887634267E+03  0.27141149518E+03  0.12509308166E+03 0.  0.
          5    1    3    3  502    0 -0.61306994920E+02  0.50780229392E+02  0.14165746442E+03  0.16254688231E+03  0.41800000000E+01 0. -1.
         -5    1    3    3    0  502  0.38751592815E+02 -0.29678869605E+02  0.97218878245E+02  0.10886461286E+03  0.41800000000E+01 0. -1.
        -11    1    1    2    0    0  0.98029226783E+01  0.26829754603E+02  0.91148096744E+01  0.29983541827E+02  0.00000000000E+00 0.  1.
         11    1    1    2    0    0  0.12752479427E+02 -0.47931114390E+02  0.11464560713E+03  0.12491450153E+03  0.00000000000E+00 0. -1.
</event>
<event>
 6    1  0.1858077E-005  0.7521233E+02  0.7561462E-02  0.1343215E+00
          2   -1    0    0  501    0  0.00000000000E+00  0.00000000000E+00  0.17407609043E+03  0.17407609043E+03  0.00000000000E+00 0. -1.
         -2   -1    0    0    0  501 -0.00000000000E+00 -0.00000000000E+00 -0.63838251638E+02  0.63838251638E+02  0.00000000000E+00 0.  1.
          5    1    1    2  502    0 -0.19437060011E+02 -0.62881919413E+02  0.64697732374E+02  0.92386168149E+02  0.41800000000E+01 0. -1.
         -5    1    1    2    0  502  0.34730607571E+02  0.43460524311E+02 -0.30965926116E+02  0.63807470220E+02  0.41800000000E+01 0.  1.
        -11    1    1    2    0    0 -0.10982819744E+02  0.25547913914E+01  0.27997755871E+02  0.30183167865E+02  0.00000000000E+00 0.  1.
         11    1    1    2    0    0 -0.43107278159E+01  0.16866603711E+02  0.48508276664E+02  0.51537535835E+02  0.00000000000E+00 0. -1.
</event>
<event>
 7    1  0.4966153E-006  0.9964981E+02  0.7561462E-02  0.1281034E+00
         -1   -1    0    0    0  501 -0.00000000000E+00  0.00000000000E+00  0.64847894765E+02  0.64847894765E+02  0.00000000000E+00 0.  1.
          1   -1    0    0  501    0  0.00000000000E+00 -0.00000000000E+00 -0.26492419659E+03  0.26492419659E+03  0.00000000000E+00 0. -1.
         23    2    1    2    0    0  0.15861558098E+02 -0.40864164101E+02 -0.37176893928E+02  0.13766789231E+03  0.12509539639E+03 0.  0.
          5    1    3    3  502    0  0.27666009480E+02  0.22041808054E+02 -0.59842323408E+02  0.69640688205E+02  0.41800000000E+01 0.  1.
         -5    1    3    3    0  502 -0.11804451383E+02 -0.62905972156E+02  0.22665429480E+02  0.68027204108E+02  0.41800000000E+01 0.  1.
        -11    1    1    2    0    0 -0.29730978822E+02 -0.20832879129E+02 -0.79890281173E+02  0.87751905851E+02  0.00000000000E+00 0.  1.
         11    1    1    2    0    0  0.13869420724E+02  0.61697043231E+02 -0.83009126726E+02  0.10435229319E+03  0.00000000000E+00 0. -1.
</event>
<event>
 6    1  0.4966153E-006  0.1458069E+03  0.7561462E-02  0.1205722E+00
         -1   -1    0    0    0  501 -0.00000000000E+00  0.00000000000E+00  0.58511643581E+02  0.58511643581E+02  0.00000000000E+00 0.  1.
          1   -1    0    0  501    0  0.00000000000E+00 -0.00000000000E+00 -0.87450579960E+03  0.87450579960E+03  0.00000000000E+00 0. -1.
          5    1    1    2  502    0 -0.25121733942E+01 -0.38134235921E+02 -0.12381963906E+03  0.12965070914E+03  0.41800000000E+01 0. -1.
         -5    1    1    2    0  502 -0.74606115023E+02  0.96586890760E+02 -0.27128983647E+02  0.12509418060E+03  0.41800000000E+01 0.  1.
        -11    1    1    2    0    0  0.63719420926E+02  0.71277184142E+01 -0.26364421064E+03  0.27132865454E+03  0.00000000000E+00 0. -1.
         11    1    1    2    0    0  0.13398867491E+02 -0.65580373253E+02 -0.40140132268E+03  0.40694389891E+03  0.00000000000E+00 0.  1.
</event>
<event>
 7    1  0.4966153E-006  0.1051946E+03  0.7561462E-02  0.1269737E+00
          2   -1    0    0  501    0  0.00000000000E+00  0.00000000000E+00  0.66942990361E+02  0.66942990361E+02  0.00000000000E+00 0. -1.
         -2   -1    0    0    0  501 -0.00000000000E+00 -0.00000000000E+00 -0.19704299555E+03  0.19704299555E+03  0.00000000000E+00 0.  1.
         23    2    1    2    0    0 -0.12378420120E+02  0.51359055417E+01 -0.11504058738E+03  0.17047309985E+03  0.12508852152E+03 0.  0.
          5    1    3    3  502    0 -0.40745689873E+02 -0.48285838826E+02 -0.73313424939E+02  0.96871379419E+02  0.41800000000E+01 0.  1.
         -5    1    3    3    0  502  0.28367269753E+02  0.53421744368E+02 -0.41727162440E+02  0.73601720427E+02  0.41800000000E+01 0.  1.
        -11    1    1    2    0    0  0.79206488850E+01 -0.45321412833E+02 -0.24310239722E+02  0.52036092237E+02  0.00000000000E+00 0.  1.
         11    1    1    2    0    0  0.44577712349E+01  0.40185507291E+02  0.92508219080E+01  0.41476793832E+02  0.00000000000E+00 0. -1.
</event>
<event>
 7    1  0.4966153E-006  0.1160915E+03  0.7561462E-02  0.1249688E+00
          1   -1    0    0  501    0  0.00000000000E+00  0.00000000000E+00  0.47137151505E+02  0.47137151505E+02  0.00000000000E+00 0. -1.
         -1   -1    0    0    0  501 -0.00000000000E+00 -0.00000000000E+00 -0.35255157173E+03  0.35255157173E+03  0.00000000000E+00 0.  1.
         23    2    1    2    0    0 -0.41485722738E+02  0.42908184058E+02 -0.22756610398E+03  0.26645034660E+03  0.12508908055E+03 0.  0.
          5    1    3    3  502    0  0.35809997255E+02  0.33097088108E+02 -0.14413608062E+03  0.15221844593E+03  0.41800000000E+01 0. -1.
         -5    1    3    3    0  502 -0.77295719994E+02  0.98110959503E+01 -0.83430023365E+02  0.11423190067E+03  0.41800000000E+01 0. -1.
        -11    1    1    2    0    0  0.58844670946E+02  0.88931477683E-01 -0.58559040216E+02  0.83017253620E+02  0.00000000000E+00 0.  1.
         11    1    1    2    0    0 -0.17358948208E+02 -0.42997115536E+02 -0.19289276030E+02  0.50221123016E+02  0.00000000000E+00 0. -1.
</event>
<event>
 7    1  0.4966153E-006  0.1397003E+03  0.7561462E-02  0.1213733E+00
         -1   -1    0    0    0  501 -0.00000000000E+00  0.00000000000E+00  0.72223258180E+02  0.72223258180E+02  0.00000000000E+00 0.  1.
          1   -1    0    0  501    0  0.00000000000E+00 -0.00000000000E+00 -0.31573967836E+03  0.31573967836E+03  0.00000000000E+00 0. -1.
         23    2    1    2    0    0 -0.25606491974E+02  0.96338362761E+02 -0.87292859722E+02  0.18222049414E+03  0.12508993786E+03 0.  0.
          5    1    3    3  502    0  0.39842541430E+02  0.13049005216E+02 -0.59000376069E+02  0.72499802903E+02  0.41800000000E+01 0.  1.
         -5    1    3    3    0  502 -0.65449033404E+02  0.83289357545E+02 -0.28292483653E+02  0.10972069123E+03  0.41800000000E+01 0.  1.
        -11    1    1    2    0    0 -0.21219194692E+02  0.30056866709E+01 -0.12328752933E+02  0.24724209282E+02  0.00000000000E+00 0.  1.
         11    1    1    2    0    0  0.46825686666E+02 -0.99344049432E+02 -0.14389480752E+03  0.18101823312E+03  0.00000000000E+00 0. -1.
</event>
<event>
 7    1  0.4966153E-006  0.1088003E+03  0.7561462E-02  0.1262808E+00
          2   -1    0    0  501    0  0.00000000000E+00  0.00000000000E+00  0.48852085714E+03  0.48852085714E+03  0.00000000000E+00 0. -1.
         -2   -1    0    0    0  501 -0.00000000000E+00 -0.00000000000E+00 -0.34826005516E+02  0.34826005516E+02  0.00000000000E+00 0.  1.
         23    2    1    2    0    0  0.50371129814E+02 -0.51814881437E+02  0.26416735429E+03  0.30108880473E+03  0.12509214444E+03 0.  0.
          5    1    3    3  502    0  0.10503280459E+00 -0.52793850649E+02  0.23883611013E+03  0.24463720404E+03  0.41800000000E+01 0. -1.
         -5    1    3    3    0  502  0.50266097010E+02  0.97896921245E+00  0.25331244163E+02  0.56451600687E+02  0.41800000000E+01 0. -1.
        -11    1    1    2    0    0 -0.86149219784E+01  0.68636632118E+02  0.13375607019E+03  0.15058516016E+03  0.00000000000E+00 0. -1.
         11    1    1    2    0    0 -0.41756207836E+02 -0.16821750681E+02  0.55771427146E+02  0.71672897769E+02  0.00000000000E+00 0.  1.
</event>
<event>
 7    1  0.4966153E-006  0.1012728E+03  0.7561462E-02  0.1277642E+00
          1   -1    0    0  501    0  0.00000000000E+00  0.00000000000E+00  0.21349068800E+03  0.21349068800E+03  0.00000000000E+00 0. -1.
         -1   -1    0    0    0  501 -0.00000000000E+00 -0.00000000000E+00 -0.64802526688E+02  0.64802526688E+02  0.00000000000E+00 0.  1.
         23    2    1    2    0    0 -0.14443529822E+02 -0.40293489646E+02  0.60208978433E+02  0.14527468225E+03  0.12508969325E+03 0.  0.
          5    1    3    3  502    0  0.25596350269E+02 -0.62139483176E+02  0.71381373121E+02  0.98128799774E+02  0.41800000000E+01 0.  1.
         -5    1    3    3    0  502 -0.40039880090E+02  0.21845993530E+02 -0.11172394688E+02  0.47145882472E+02  0.41800000000E+01 0.  1.
        -11    1    1    2    0    0  0.16400459674E+02 -0.21801877547E+02  0.31416375472E+01  0.27462098037E+02  0.00000000000E+00 0.  1.
         11    1    1    2    0    0 -0.19569298526E+01  0.62095367193E+02  0.85337545335E+02  0.10555643441E+03  0.00000000000E+00 0. -1.
</event>
<event>
 7    1  0.4966153E-006  0.1280983E+03  0.7561462E-02  0.1230305E+00
          2   -1    0    0  501    0  0.00000000000E+00  0.00000000000E+00  0.22112591088E+02  0.22112591088E+02  0.00000000000E+00 0. -1.
         -2   -1    0    0    0  501 -0.00000000000E+00 -0.00000000000E+00 -0.83317069993E+03  0.83317069993E+03  0.00000000000E+00 0.  1.
         23    2    1    2    0    0 -0.80083268618E+01 -0.76661712961E+02 -0.58867680266E+03  0.60673604173E+03  0.12508834805E+03 0.  0.
          5    1    3    3  502    0  0.20818442123E+02 -0.10421709115E+03 -0.40491016321E+03  0.41864581963E+03  0.41800000000E+01 0. -1.
         -5    1    3    3    0  502 -0.28826768985E+02  0.27555378194E+02 -0.18376663944E+03  0.18809022210E+03  0.41800000000E+01 0. -1.
        -11    1    1    2    0    0 -0.36123749515E+01  0.91120242761E+02 -0.19726728470E+03  0.21732540005E+03  0.00000000000E+00 0.  1.
         11    1    1    2    0    0  0.11620701813E+02 -0.14458529800E+02 -0.25114021482E+02  0.31221849234E+02  0.00000000000E+00 0. -1.
</event>
<event>
 7    1  0.4966153E-006  0.6652909E+02  0.7561462E-02  0.1372310E+00
          2   -1    0    0  501    0  0.00000000000E+00  0.00000000000E+00  0.22194888215E+03  0.22194888215E+03  0.00000000000E+00 0.  1.
         -2   -1    0    0    0  501 -0.00000000000E+00 -0.00000000000E+00 -0.71375903748E+02  0.71375903748E+02  0.00000000000E+00 0. -1.
         23    2    1    2    0    0 -0.44877185538E+02 -0.26786632371E+02  0.42512215963E+02  0.14207809143E+03  0.12508960829E+03 0.  0.
          5    1    3    3  502    0 -0.55775388791E+02 -0.35029194695E+02  0.78972467524E+02  0.10291774144E+03  0.41800000000E+01 0. -1.
         -5    1    3    3    0  502  0.10898203253E+02  0.82425623232E+01 -0.36460251561E+02  0.39160349995E+02  0.41800000000E+01 0. -1.
        -11    1    1    2    0    0  0.23435552846E+02  0.18215291525E+02  0.12112980752E+03  0.12471348064E+03  0.00000000000E+00 0.  1.
         11    1    1    2    0    0  0.21441632692E+02  0.85713408463E+01 -0.13069045085E+02  0.26533213824E+02  0.00000000000E+00 0. -1.
</event>
<event>
 7    1  0.4966153E-006  0.9676574E+02  0.7561462E-02  0.1287248E+00
         -2   -1    0    0    0  501 -0.00000000000E+00  0.00000000000E+00  0.18963657736E+03  0.18963657736E+03  0.00000000000E+00 0.  1.
          2   -1    0    0  501    0  0.00000000000E+00 -0.00000000000E+00 -0.79302675845E+02  0.79302675845E+02  0.00000000000E+00 0. -1.
         23    2    1    2    0    0  0.16590803704E+02  0.50963676643E+02  0.89067084087E+02  0.16264434507E+03  0.12509071272E+03 0.  0.
          5    1    3    3  502    0  0.48778347835E+02  0.11451658816E+02 -0.99034757229E+01  0.51244696687E+02  0.41800000000E+01 0. -1.
         -5    1    3    3    0  502 -0.32187544131E+02  0.39512017827E+02  0.98970559810E+02  0.11139964838E+03  0.41800000000E+01 0. -1.
        -11    1    1    2    0    0 -0.12387410667E+02  0.18644044290E+02  0.28440152982E+02  0.36192411251E+02  0.00000000000E+00 0.  1.
         11    1    1    2    0    0 -0.42033930373E+01 -0.69607720933E+02 -0.71733355558E+01  0.70102496885E+02  0.00000000000E+00 0. -1.
</event>
<event>
 7    1  0.4966153E-006  0.8859214E+02  0.7561462E-02  0.1306297E+00
         -1   -1    0    0    0  501 -0.00000000000E+00  0.00000000000E+00  0.13303892127E+02  0.13303892127E+02  0.00000000000E+00 0.  1.
          1   -1    0    0  501    0  0.00000000000E+00 -0.00000000000E+00 -0.88901170371E+03  0.88901170371E+03  0.00000000000E+00 0. -1.
         23    2    1    2    0    0  0.59615639265E-01 -0.96165318882E-01 -0.52887853857E+03  0.54346985459E+03  0.12508781507E+03 0.  0.
          5    1    3    3  502    0 -0.32382925311E+02  0.27565125376E+02 -0.46249012881E+03  0.46445998927E+03  0.41800000000E+01 0.  1.
         -5    1    3    3    0  502  0.32442540950E+02 -0.27661290695E+02 -0.66388409766E+02  0.79009865317E+02  0.41800000000E+01 0.  1.
        -11    1    1    2    0    0  0.15381719634E+02 -0.43088777790E+02 -0.19132945930E+03  0.19672366931E+03  0.00000000000E+00 0. -1.
         11    1    1    2    0    0 -0.15441335274E+02  0.43184943109E+02 -0.15549981371E+03  0.16212207194E+03  0.00000000000E+00 0.  1.
</event>
<event>
 7    1  0.4966153E-006  0.7794015E+02  0.7561462E-02  0.1335001E+00
         -3   -1    0    0    0  501 -0.00000000000E+00  0.00000000000E+00  0.53709881521E+03  0.53709881521E+03  0.00000000000E+00 0.  1.
          3   -1    0    0  501    0  0.00000000000E+00 -0.00000000000E+00 -0.31899600153E+02  0.31899600153E+02  0.00000000000E+00 0. -1.
         23    2    1    2    0    0 -0.44608979378E+02  0.25094108232E+02  0.39474613927E+03  0.41724124243E+03  0.12508423006E+03 0.  0.
          5    1    3    3  502    0 -0.71823244457E+01  0.35157055377E+02  0.21654558993E+02  0.42118839638E+02  0.41800000000E+01 0. -1.
         -5    1    3    3    0  502 -0.37426654933E+02 -0.10062947146E+02  0.37309158027E+03  0.37512240279E+03  0.41800000000E+01 0. -1.
        -11    1    1    2    0    0  0.35492092933E+02 -0.45921432302E+02  0.11477490527E+03  0.12861471722E+03  0.00000000000E+00 0.  1.
         11    1    1    2    0    0  0.91168864451E+01  0.20827324070E+02 -0.43218294827E+01  0.23142455714E+02  0.00000000000E+00 0. -1.
</event>
<event>
 7    1  0.4966153E-006  0.1612840E+03  0.7561462E-02  0.1187255E+00
          1   -1    0    0  501    0  0.00000000000E+00  0.00000000000E+00  0.16163006306E+03  0.16163006306E+03  0.00000000000E+00 0. -1.
         -1   -1    0    0    0  501 -0.00000000000E+00 -0.00000000000E+00 -0.22798178575E+03  0.22798178575E+03  0.00000000000E+00 0.  1.
         23    2    1    2    0    0 -0.98238539586E+02 -0.12240700818E+03 -0.18419190986E+02  0.20152293641E+03  0.12505175326E+03 0.  0.
          5    1    3    3  502    0 -0.79753342607E+02 -0.12218726344E+03 -0.58444259634E+02  0.15723716764E+03  0.41800000000E+01 0.  1.
         -5    1    3    3    0  502 -0.18485196979E+02 -0.21974473476E+00  0.40025068649E+02  0.44285768769E+02  0.41800000000E+01 0.  1.
        -11    1    1    2    0    0  0.26572906683E+02  0.44142950597E+02 -0.62472417393E+02  0.80978530438E+02  0.00000000000E+00 0.  1.
         11    1    1    2    0    0  0.71665632903E+02  0.78264057580E+02  0.14539885682E+02  0.10711038196E+03  0.00000000000E+00 0. -1.
</event>
<event>
 7    1  0.4966153E-006  0.1803944E+03  0.7561462E-02  0.1167422E+00
          2   -1    0    0  501    0  0.00000000000E+00  0.00000000000E+00  0.17186966845E+03  0.17186966845E+03  0.00000000000E+00 0. -1.
         -2   -1    0    0    0  501 -0.00000000000E+00 -0.00000000000E+00 -0.23030662417E+03  0.23030662417E+03  0.00000000000E+00 0.  1.
         23    2    1    2    0    0  0.14268771337E+03  0.18770246433E+02 -0.11306781437E+03  0.22169256581E+03  0.12510458580E+03 0.  0.
          5    1    3    3  502    0  0.36546203982E+02 -0.50306570970E+02 -0.23864869157E+02  0.66733653340E+02  0.41800000000E+01 0. -1.
         -5    1    3    3    0  502  0.10614150939E+03  0.69076817403E+02 -0.89202945212E+02  0.15495891246E+03  0.41800000000E+01 0. -1.
        -11    1    1    2    0    0 -0.15632189884E+03 -0.21680628258E+02  0.47423146653E+02  0.16478938235E+03  0.00000000000E+00 0.  1.
         11    1    1    2    0    0  0.13634185469E+02  0.29103818252E+01  0.72077119908E+01  0.15694344456E+02  0.00000000000E+00 0. -1.
</event>
<event>
 7    1  0.4966153E-006  0.9040384E+02  0.7561462E-02  0.1301877E+00
          1   -1    0    0  501    0  0.00000000000E+00  0.00000000000E+00  0.10362864770E+03  0.10362864770E+03  0.00000000000E+00 0. -1.
         -1   -1    0    0    0  501 -0.00000000000E+00 -0.00000000000E+00 -0.23565412848E+03  0.23565412848E+03  0.00000000000E+00 0.  1.
         23    2    1    2    0    0 -0.17826251952E+02 -0.36990688247E+02 -0.18351823051E+03  0.22585874927E+03  0.12508855828E+03 0.  0.
          5    1    3    3  502    0  0.31653110006E+02  0.15289930307E+02 -0.82646718617E+01  0.36352146330E+02  0.41800000000E+01 0. -1.
         -5    1    3    3    0  502 -0.49479361958E+02 -0.52280618554E+02 -0.17525355865E+03  0.18950660294E+03  0.41800000000E+01 0. -1.
        -11    1    1    2    0    0  0.39271155595E+02  0.33413800015E+02 -0.60449564059E+01  0.51915770159E+02  0.00000000000E+00 0.  1.
         11    1    1    2    0    0 -0.21444903643E+02  0.35768882313E+01  0.57537706141E+02  0.61508256760E+02  0.00000000000E+00 0. -1.
</event>
<event>
 7    1  0.4966153E-006  0.7469172E+02  0.7561462E-02  0.1344828E+00
         -1   -1    0    0    0  501 -0.00000000000E+00  0.00000000000E+00  0.41759838284E+03  0.41759838284E+03  0.00000000000E+00 0.  1.
          1   -1    0    0  501    0  0.00000000000E+00 -0.00000000000E+00 -0.38655929785E+02  0.38655929785E+02  0.00000000000E+00 0. -1.
         23    2    1    2    0    0  0.54557769104E+02  0.16745712038E+02  0.26901739142E+03  0.30211576256E+03  0.12508640237E+03 0.  0.
          5    1    3    3  502    0  0.67860945530E+02  0.20449788656E+02  0.61016588509E+02  0.93615160405E+02  0.41800000000E+01 0. -1.
         -5    1    3    3    0  502 -0.13303176426E+02 -0.37040766180E+01  0.20800080291E+03  0.20850060215E+03  0.41800000000E+01 0. -1.
        -11    1    1    2    0    0 -0.30424374610E+02  0.57522907783E+01  0.11645835237E+03  0.12050427070E+03  0.00000000000E+00 0.  1.
         11    1    1    2    0    0 -0.24133394494E+02 -0.22498002817E+02 -0.65332907390E+01  0.33634279365E+02  0.00000000000E+00 0. -1.
</event>
<event>
 7    1  0.4966153E-006  0.3009583E+03  0.7561462E-02  0.1084763E+00
          4   -1    0    0  501    0  0.00000000000E+00  0.00000000000E+00  0.38446293336E+03  0.38446293336E+03  0.00000000000E+00 0. -1.
         -4   -1    0    0    0  501 -0.00000000000E+00 -0.00000000000E+00 -0.28303418195E+03  0.28303418195E+03  0.00000000000E+00 0.  1.
         23    2    1    2    0    0 -0.27429441739E+03  0.83640087558E+02 -0.70444451548E+02  0.32069155601E+03  0.12509021417E+03 0.  0.
          5    1    3    3  502    0 -0.95567506397E+02  0.87218342857E+02 -0.56786854086E+02  0.14135914122E+03  0.41800000000E+01 0.  1.
         -5    1    3    3    0  502 -0.17872691099E+03 -0.35782552992E+01 -0.13657597462E+02  0.17933241479E+03  0.41800000000E+01 0.  1.
        -11    1    1    2    0    0  0.20064404550E+02 -0.26226415020E+02 -0.26659770921E+01  0.33128727845E+02  0.00000000000E+00 0.  1.
         11    1    1    2    0    0  0.25423001284E+03 -0.57413672538E+02  0.17453918005E+03  0.31367683146E+03  0.00000000000E+00 0. -1.
</event>
<event>
 7    1  0.4966153E-006  0.1070963E+03  0.7561462E-02  0.1266044E+00
         -2   -1    0    0    0  501 -0.00000000000E+00  0.00000000000E+00  0.11561375841E+04  0.11561375841E+04  0.00000000000E+00 0.  1.
          2   -1    0    0  501    0  0.00000000000E+00 -0.00000000000E+00 -0.16271593687E+02  0.16271593687E+02  0.00000000000E+00 0. -1.
         23    2    1    2    0    0 -0.62542833543E+02 -0.12605312029E+02  0.85200522769E+03  0.86351201375E+03  0.12517823281E+03 0.  0.
          5    1    3    3  502    0 -0.53575871057E+01  0.50500568750E+02  0.22259647830E+03  0.22835427680E+03  0.41800000000E+01 0. -1.
         -5    1    3    3    0  502 -0.57185246437E+02 -0.63105880779E+02  0.62940874939E+03  0.63515773695E+03  0.41800000000E+01 0.  1.
        -11    1    1    2    0    0 -0.16207991987E+01  0.13704214292E+02 -0.17339287986E+00  0.13800816805E+02  0.00000000000E+00 0.  1.
         11    1    1    2    0    0  0.64163632742E+02 -0.10989022623E+01  0.28803415564E+03  0.29509634727E+03  0.00000000000E+00 0. -1.
</event>
<event>
 7    1  0.4966153E-006  0.8014452E+02  0.7561462E-02  0.1328642E+00
          1   -1    0    0  501    0  0.00000000000E+00  0.00000000000E+00  0.21256119877E+03  0.21256119877E+03  0.00000000000E+00 0. -1.
         -1   -1    0    0    0  501 -0.00000000000E+00 -0.00000000000E+00 -0.55947531693E+02  0.55947531693E+02  0.00000000000E+00 0.  1.
         23    2    1    2    0    0 -0.77916298379E+01 -0.92174161361E+01  0.78430460708E+02  0.14813673275E+03  0.12508990434E+03 0.  0.
          5    1    3    3  502    0  0.17466164926E+02  0.48968905703E+02  0.64692044123E+02  0.83099660744E+02  0.41800000000E+01 0. -1.
         -5    1    3    3    0  502 -0.25257794764E+02 -0.58186321839E+02  0.13738416585E+02  0.65037072011E+02  0.41800000000E+01 0. -1.
        -11    1    1    2    0    0  0.11182529767E+02 -0.15776855629E+02  0.90329703134E+02  0.92376476517E+02  0.00000000000E+00 0. -1.
         11    1    1    2    0    0 -0.33908999288E+01  0.24994271766E+02 -0.12146496761E+02  0.27995521195E+02  0.00000000000E+00 0.  1.
</event>
<event>
 7    1  0.4966153E-006  0.1149012E+03  0.7561462E-02  0.1251754E+00
          1   -1    0    0  501    0  0.00000000000E+00  0.00000000000E+00  0.70287232518E+03  0.70287232518E+03  0.00000000000E+00 0. -1.
         -1   -1    0    0    0  501 -0.00000000000E+00 -0.00000000000E+00 -0.28428641240E+02  0.28428641240E+02  0.00000000000E+00 0.  1.
         23    2    1    2    0    0 -0.87242232591E+02  0.97253149916E+01  0.42990527200E+03  0.45625899094E+03  0.12509170643E+03 0.  0.
          5    1    3    3  502    0 -0.77308648728E+02  0.29178637731E+02  0.42564964342E+03  0.43361631820E+03  0.41800000000E+01 0. -1.
         -5    1    3    3    0  502 -0.99335838636E+01 -0.19453322739E+02  0.42556285814E+01  0.22642672735E+02  0.41800000000E+01 0. -1.
        -11    1    1    2    0    0 -0.66334061280E+01 -0.28353941647E+02  0.73313120316E+02  0.78884483228E+02  0.00000000000E+00 0. -1.
         11    1    1    2    0    0  0.93875638719E+02  0.18628626656E+02  0.17122529163E+03  0.19615749226E+03  0.00000000000E+00 0.  1.
</event>
<event>
 7    1  0.4966153E-006  0.6731572E+02  0.7561462E-02  0.1369466E+00
          3   -1    0    0  501    0  0.00000000000E+00  0.00000000000E+00  0.15060474975E+03  0.15060474975E+03  0.00000000000E+00 0. -1.
         -3   -1    0    0    0  501 -0.00000000000E+00 -0.00000000000E+00 -0.79182415898E+02  0.79182415898E+02  0.00000000000E+00 0.  1.
         23    2    1    2    0    0  0.78999288672E+01 -0.44767354638E+01  0.30775929095E+02  0.12913623524E+03  0.12508620789E+03 0.  0.
          5    1    3    3  502    0 -0.63524550191E+01  0.24051468887E+02 -0.42325457500E+02  0.49272138100E+02  0.41800000000E+01 0.  1.
         -5    1    3    3    0  502  0.14252383886E+02 -0.28528204350E+02  0.73101386594E+02  0.79864097139E+02  0.41800000000E+01 0.  1.
        -11    1    1    2    0    0  0.37867014040E+01  0.39829498319E+02  0.48217095778E+02  0.62654739398E+02  0.00000000000E+00 0. -1.
         11    1    1    2    0    0 -0.11686630271E+02 -0.35352762855E+02 -0.75706910227E+01  0.37996191008E+02  0.00000000000E+00 0.  1.
</event>
<event>
 7    1  0.4966153E-006  0.7537647E+02  0.7561462E-02  0.1342709E+00
         -2   -1    0    0    0  501 -0.00000000000E+00  0.00000000000E+00  0.14337311151E+03  0.14337311151E+03  0.00000000000E+00 0.  1.
          2   -1    0    0  501    0  0.00000000000E+00 -0.00000000000E+00 -0.99857817675E+02  0.99857817675E+02  0.00000000000E+00 0. -1.
         23    2    1    2    0    0 -0.38462902793E+02 -0.34851922640E+02  0.32317820222E+02  0.13923390900E+03  0.12509032141E+03 0.  0.
          5    1    3    3  502    0 -0.10338514507E+02 -0.11035173919E+02 -0.48143519725E+02  0.50635272658E+02  0.41800000000E+01 0. -1.
         -5    1    3    3    0  502 -0.28124388287E+02 -0.23816748721E+02  0.80461339947E+02  0.88598636345E+02  0.41800000000E+01 0. -1.
        -11    1    1    2    0    0 -0.23646459067E+02 -0.50126011437E+01 -0.11521263328E+02  0.26777242302E+02  0.00000000000E+00 0. -1.
         11    1    1    2    0    0  0.62109361860E+02  0.39864523784E+02  0.22718736938E+02  0.77219777876E+02  0.00000000000E+00 0.  1.
</event>
<event>
 7    1  0.4966153E-006  0.1292530E+03  0.7561462E-02  0.1228568E+00
          2   -1    0    0  501    0  0.00000000000E+00  0.00000000000E+00  0.76556210415E+02  0.76556210415E+02  0.00000000000E+00 0. -1.
         -2   -1    0    0    0  501 -0.00000000000E+00 -0.00000000000E+00 -0.33530691079E+03  0.33530691079E+03  0.00000000000E+00 0.  1.
         23    2    1    2    0    0  0.35774396902E+02 -0.87354908592E+02 -0.22495108601E+03  0.27415533729E+03  0.12508984906E+03 0.  0.
          5    1    3    3  502    0  0.66071227565E+01  0.32402640084E+02 -0.50702086354E+02  0.60677500906E+02  0.41800000000E+01 0. -1.
         -5    1    3    3    0  502  0.29167274145E+02 -0.11975754868E+03 -0.17424899966E+03  0.21347783639E+03  0.41800000000E+01 0. -1.
        -11    1    1    2    0    0 -0.11486007455E+02  0.72433857140E+02 -0.63159034418E+02  0.96786650195E+02  0.00000000000E+00 0.  1.
         11    1    1    2    0    0 -0.24288389447E+02  0.14921051453E+02  0.29359420058E+02  0.40921133715E+02  0.00000000000E+00 0. -1.
</event>
<event>
 6    1  0.4966153E-006  0.1897792E+03  0.7561462E-02  0.1158661E+00
          2   -1    0    0  501    0  0.00000000000E+00  0.00000000000E+00  0.34293803987E+03  0.34293803987E+03  0.00000000000E+00 0. -1.
         -2   -1    0    0    0  501 -0.00000000000E+00 -0.00000000000E+00 -0.11036725607E+03  0.11036725607E+03  0.00000000000E+00 0.  1.
          5    1    1    2  502    0 -0.14750490734E+03 -0.10381261792E+03  0.14450339846E+03  0.23115679072E+03  0.41800000000E+01 0. -1.
         -5    1    1    2    0  502  0.18713335535E+02  0.13488912922E+02  0.16508454514E+02  0.28673004187E+02  0.41800000000E+01 0.  1.
        -11    1    1    2    0    0  0.14256764819E+02 -0.14568803601E+02  0.23044712189E+02  0.30766282540E+02  0.00000000000E+00 0. -1.
         11    1    1    2    0    0  0.11453480699E+03  0.10489250860E+03  0.48514218637E+02  0.16270921849E+03  0.00000000000E+00 0.  1.
</event>
<event>
 7    1  0.4966153E-006  0.8377883E+02  0.7561462E-02  0.1318657E+00
          1   -1    0    0  501    0  0.00000000000E+00  0.00000000000E+00  0.54518536780E+02  0.54518536780E+02  0.00000000000E+00 0. -1.
         -1   -1    0    0    0  501 -0.00000000000E+00 -0.00000000000E+00 -0.29183416202E+03  0.29183416202E+03  0.00000000000E+00 0.  1.
         23    2    1    2    0    0  0.46376007578E+02  0.88692529183E+01 -0.19154940981E+03  0.23359861446E+03  0.12509092113E+03 0.  0.
          5    1    3    3  502    0  0.78032179419E+02 -0.80863432203E+01 -0.64934980471E+02  0.10192366781E+03  0.41800000000E+01 0. -1.
         -5    1    3    3    0  502 -0.31656171841E+02  0.16955596139E+02 -0.12661442934E+03  0.13167494664E+03  0.41800000000E+01 0. -1.
        -11    1    1    2    0    0 -0.23201098902E+02 -0.16470767044E+02 -0.71708421043E+02  0.77147098492E+02  0.00000000000E+00 0.  1.
         11    1    1    2    0    0 -0.23174908676E+02  0.76015141259E+01  0.25942205617E+02  0.35606985851E+02  0.00000000000E+00 0. -1.
</event>
<event>
 7    1  0.4966153E-006  0.1047607E+03  0.7561462E-02  0.1270592E+00
         -1   -1    0    0    0  501 -0.00000000000E+00  0.00000000000E+00  0.79157287143E+02  0.79157287143E+02  0.00000000000E+00 0.  1.
          1   -1    0    0  501    0  0.00000000000E+00 -0.00000000000E+00 -0.35790466163E+03  0.35790466163E+03  0.00000000000E+00 0. -1.
         23    2    1    2    0    0 -0.29755558828E+01  0.72747867290E+02 -0.11039933028E+02  0.14515379158E+03  0.12508651790E+03 0.  0.
          5    1    3    3  502    0 -0.42111778679E+02  0.18189375354E+02  0.39764442433E+02  0.60851775334E+02  0.41800000000E+01 0. -1.
         -5    1    3    3    0  502  0.39136222796E+02  0.54558491936E+02 -0.50804375461E+02  0.84302016245E+02  0.41800000000E+01 0. -1.
        -11    1    1    2    0    0 -0.29440598575E+02 -0.25873167585E+02 -0.35741290249E+02  0.53043467779E+02  0.00000000000E+00 0.  1.
         11    1    1    2    0    0  0.32416154458E+02 -0.46874699705E+02 -0.23196615121E+03  0.23886468942E+03  0.00000000000E+00 0. -1.
</event>
<event>
 7    1  0.4966153E-006  0.8915854E+02  0.7561462E-02  0.1304902E+00
         -2   -1    0    0    0  501 -0.00000000000E+00  0.00000000000E+00  0.54945792216E+02  0.54945792216E+02  0.00000000000E+00 0.  1.
          2   -1    0    0  501    0  0.00000000000E+00 -0.00000000000E+00 -0.25566396599E+03  0.25566396599E+03  0.00000000000E+00 0. -1.
         23    2    1    2    0    0  0.32869765357E+02 -0.43273839184E+01 -0.68009107264E+02  0.14619375924E+03  0.12509288087E+03 0.  0.
          5    1    3    3  502    0  0.19142077824E+02  0.37459184460E+02  0.20715877711E+02  0.47076848165E+02  0.41800000000E+01 0. -1.
         -5    1    3    3    0  502  0.13727687533E+02 -0.41786568379E+02 -0.88724984975E+02  0.99116911073E+02  0.41800000000E+01 0. -1.
        -11    1    1    2    0    0 -0.42989064122E+01  0.43313842135E+02 -0.89758247744E+02  0.99755263295E+02  0.00000000000E+00 0.  1.
         11    1    1    2    0    0 -0.28570858945E+02 -0.38986458216E+02 -0.42950818768E+02  0.64660735674E+02  0.00000000000E+00 0. -1.
</event>
<event>
 6    1  0.4966153E-006  0.9506443E+02  0.7561462E-02  0.1291031E+00
         -2   -1    0    0    0  501 -0.00000000000E+00  0.00000000000E+00  0.12114622636E+02  0.12114622636E+02  0.00000000000E+00 0.  1.
          2   -1    0    0  501    0  0.00000000000E+00 -0.00000000000E+00 -0.94358197887E+03  0.94358197887E+03  0.00000000000E+00 0. -1.
          5    1    1    2  502    0 -0.60250374864E+02  0.18773043377E+02 -0.51174139395E+03  0.51563481410E+03  0.41800000000E+01 0. -1.
         -5    1    1    2    0  502  0.38155431078E+02 -0.24918077135E+02 -0.99027951275E+02  0.10909058173E+03  0.41800000000E+01 0.  1.
        -11    1    1    2    0    0  0.21553887084E+02  0.40968770356E+02 -0.20402240603E+03  0.20920839456E+03  0.00000000000E+00 0. -1.
         11    1    1    2    0    0  0.54105670280E+00 -0.34823736597E+02 -0.11667560498E+03  0.12176281111E+03  0.00000000000E+00 0.  1.
</event>
<event>
 7    1  0.4966153E-006  0.1395180E+03  0.7561462E-02  0.1213979E+00
          2   -1    0    0  501    0  0.00000000000E+00  0.00000000000E+00  0.33765414134E+03  0.33765414134E+03  0.00000000000E+00 0. -1.
         -2   -1    0    0    0  501 -0.00000000000E+00 -0.00000000000E+00 -0.10989449123E+03  0.10989449123E+03  0.00000000000E+00 0.  1.
         23    2    1    2    0    0 -0.71095803854E+02  0.99365839969E+02  0.14748108196E+01  0.17486681824E+03  0.12509214834E+03 0.  0.
          5    1    3    3  502    0 -0.31339536734E+02  0.10777733962E+03 -0.37492201264E+02  0.11841139749E+03  0.41800000000E+01 0. -1.
         -5    1    3    3    0  502 -0.39756267119E+02 -0.84114996534E+01  0.38967012083E+02  0.56455420753E+02  0.41800000000E+01 0. -1.
        -11    1    1    2    0    0  0.46760522076E+02 -0.39386484511E+02  0.34350896250E+02  0.70127210554E+02  0.00000000000E+00 0.  1.
         11    1    1    2    0    0  0.24335281777E+02 -0.59979355458E+02  0.19193394304E+03  0.20255460378E+03  0.00000000000E+00 0. -1.
</event>
<event>
 7    1  0.4966153E-006  0.8358674E+02  0.7561462E-02  0.1319170E+00
         -2   -1    0    0    0  501 -0.00000000000E+00  0.00000000000E+00  0.33982907188E+02  0.33982907188E+02  0.00000000000E+00 0.  1.
          2   -1    0    0  501    0  0.00000000000E+00 -0.00000000000E+00 -0.35128187559E+03  0.35128187559E+03  0.00000000000E+00 0. -1.
         23    2    1    2    0    0 -0.29087079294E+00 -0.43693703243E+01 -0.10918511764E+03  0.15956601764E+03  0.11627875157E+03 0.  0.
          5    1    3    3  502    0 -0.39542865462E+02 -0.24044474555E+02 -0.53783046956E+01  0.46777917087E+02  0.41800000000E+01 0. -1.
         -5    1    3    3    0  502  0.39251994669E+02  0.19675104230E+02 -0.10380681295E+03  0.11278810055E+03  0.41800000000E+01 0.  1.
        -11    1    1    2    0    0  0.11224369562E+02  0.38844080458E+02 -0.16266918982E+03  0.16761895589E+03  0.00000000000E+00 0. -1.
         11    1    1    2    0    0 -0.10933498769E+02 -0.34474710133E+02 -0.45444660943E+02  0.58079809248E+02  0.00000000000E+00 0.  1.
</event>
<event>
 7    1  0.4966153E-006  0.1247508E+03  0.7561462E-02  0.1235459E+00
         -1   -1    0    0    0  501 -0.00000000000E+00  0.00000000000E+00  0.10174572434E+03  0.10174572434E+03  0.00000000000E+00 0.  1.
          1   -1    0    0  501    0  0.00000000000E+00 -0.00000000000E+00 -0.26402451099E+03  0.26402451099E+03  0.00000000000E+00 0. -1.
         23    2    1    2    0    0 -0.91292324880E+02  0.26328279488E+02  0.40895249360E+01  0.15713237734E+03  0.12508554237E+03 0.  0.
          5    1    3    3  502    0 -0.70075435880E+02  0.73379379494E+02 -0.13499316674E+02  0.10244415064E+03  0.41800000000E+01 0. -1.
         -5    1    3    3    0  502 -0.21216888999E+02 -0.47051100006E+02  0.17588841610E+02  0.54688226702E+02  0.41800000000E+01 0. -1.
        -11    1    1    2    0    0  0.60660418979E+02 -0.24689730327E+02 -0.36051878829E+02  0.74759662796E+02  0.00000000000E+00 0.  1.
         11    1    1    2    0    0  0.30631905901E+02 -0.16385491611E+01 -0.13031643276E+03  0.13387819519E+03  0.00000000000E+00 0. -1.
</event>
<event>
 7    1  0.4966153E-006  0.3118921E+03  0.7561462E-02  0.1079442E+00
          1   -1    0    0  501    0  0.00000000000E+00  0.00000000000E+00  0.12210034006E+03  0.12210034006E+03  0.00000000000E+00 0. -1.
         -1   -1    0    0    0  501 -0.00000000000E+00 -0.00000000000E+00 -0.86024894186E+03  0.86024894186E+03  0.00000000000E+00 0.  1.
         23    2    1    2    0    0 -0.16914714270E+03 -0.25337204243E+03 -0.40661273947E+03  0.52324918670E+03  0.12509054207E+03 0.  0.
          5    1    3    3  502    0 -0.15932216370E+01 -0.41535381874E+02 -0.13031160099E+03  0.13684411590E+03  0.41800000000E+01 0. -1.
         -5    1    3    3    0  502 -0.16755392107E+03 -0.21183666055E+03 -0.27630113848E+03  0.38640507080E+03  0.41800000000E+01 0. -1.
        -11    1    1    2    0    0  0.13092366519E+03  0.13745391337E+03 -0.24278569923E+03  0.30818741077E+03  0.00000000000E+00 0.  1.
         11    1    1    2    0    0  0.38223477517E+02  0.11591812906E+03 -0.88750163103E+02  0.15091268445E+03  0.00000000000E+00 0. -1.
</event>
<event>
 7    1  0.4966153E-006  0.1189741E+03  0.7561462E-02  0.1244799E+00
          2   -1    0    0  501    0  0.00000000000E+00  0.00000000000E+00  0.11811426979E+03  0.11811426979E+03  0.00000000000E+00 0. -1.
         -2   -1    0    0    0  501 -0.00000000000E+00 -0.00000000000E+00 -0.14121894987E+03  0.14121894987E+03  0.00000000000E+00 0.  1.
         23    2    1    2    0    0 -0.40054192623E+02  0.34087111579E+02 -0.53698565896E+02  0.14593902820E+03  0.12509354280E+03 0.  0.
          5    1    3    3  502    0 -0.51877744711E+02 -0.34780448138E+02 -0.40910378640E+02  0.74780421565E+02  0.41800000000E+01 0.  1.
         -5    1    3    3    0  502  0.11823552088E+02  0.68867559716E+02 -0.12788187256E+02  0.71158606637E+02  0.41800000000E+01 0.  1.
        -11    1    1    2    0    0  0.12768202847E+02 -0.63767737830E+02  0.41235107856E+01  0.65164060134E+02  0.00000000000E+00 0. -1.
         11    1    1    2    0    0  0.27285989776E+02  0.29680626252E+02  0.26470375030E+02  0.48230131318E+02  0.00000000000E+00 0.  1.
</event>
<event>
 7    1  0.4966153E-006  0.9946730E+02  0.7561462E-02  0.1281420E+00
          3   -1    0    0  501    0  0.00000000000E+00  0.00000000000E+00  0.29871303683E+03  0.29871303683E+03  0.00000000000E+00 0. -1.
         -3   -1    0    0    0  501 -0.00000000000E+00 -0.00000000000E+00 -0.10872038439E+03  0.10872038439E+03  0.00000000000E+00 0.  1.
         23    2    1    2    0    0  0.17116987874E+02  0.23750476170E+02 -0.58500790816E+02  0.14115932575E+03  0.12508611564E+03 0.  0.
          5    1    3    3  502    0  0.66466678094E+02  0.35073334237E+02 -0.48028456810E+02  0.89286970689E+02  0.41800000000E+01 0. -1.
         -5    1    3    3    0  502 -0.49349690220E+02 -0.11322858066E+02 -0.10472334006E+02  0.51872355056E+02  0.41800000000E+01 0. -1.
        -11    1    1    2    0    0 -0.32096123235E+01  0.23442801986E+02  0.15836956866E+02  0.28472368693E+02  0.00000000000E+00 0.  1.
         11    1    1    2    0    0 -0.13907375551E+02 -0.47193278157E+02  0.23265648640E+03  0.23780172678E+03  0.00000000000E+00 0. -1.
</event>
<event>
 6    1  0.4966153E-006  0.3155722E+03  0.7561462E-02  0.1077705E+00
          1   -1    0    0  501    0  0.00000000000E+00  0.00000000000E+00  0.11086443215E+04  0.11086443215E+04  0.00000000000E+00 0. -1.
         -1   -1    0    0    0  501 -0.00000000000E+00 -0.00000000000E+00 -0.17266269952E+03  0.17266269952E+03  0.00000000000E+00 0.  1.
          5    1    1    2  502    0  0.30687123984E+02 -0.17021787512E+02  0.28937291249E+03  0.29152289054E+03  0.41800000000E+01 0. -1.
         -5    1    1    2    0  502  0.21821331822E+03 -0.17241149520E+03  0.15335367166E+02  0.27855954806E+03  0.41800000000E+01 0.  1.
        -11    1    1    2    0    0 -0.93423554116E+02  0.10572761224E+03  0.19601365638E+03  0.24151116318E+03  0.00000000000E+00 0.  1.
         11    1    1    2    0    0 -0.15547688809E+03  0.83705670481E+02  0.43525968593E+03  0.46971341922E+03  0.00000000000E+00 0. -1.
</event>
<event>
 7    1  0.4966153E-006  0.2098965E+03  0.7561462E-02  0.1141648E+00
          2   -1    0    0  501    0  0.00000000000E+00  0.00000000000E+00  0.91888378269E+02  0.91888378269E+02  0.00000000000E+00 0.  1.
         -2   -1    0    0    0  501 -0.00000000000E+00 -0.00000000000E+00 -0.56678118352E+03  0.56678118352E+03  0.00000000000E+00 0. -1.
         23    2    1    2    0    0 -0.93479959811E+02  0.17471636671E+03 -0.29624917853E+03  0.37772428751E+03  0.12509096655E+03 0.  0.
          5    1    3    3  502    0 -0.25183352368E+02  0.76061490839E+01  0.44158410517E+01  0.27000496154E+02  0.41800000000E+01 0. -1.
         -5    1    3    3    0  502 -0.68296607443E+02  0.16711021763E+03 -0.30066501958E+03  0.35072379135E+03  0.41800000000E+01 0. -1.
        -11    1    1    2    0    0  0.16402524474E+02 -0.11204419726E+03 -0.67304343773E+02  0.13173010149E+03  0.00000000000E+00 0.  1.
         11    1    1    2    0    0  0.77077435337E+02 -0.62672169451E+02 -0.11133928295E+03  0.14921517279E+03  0.00000000000E+00 0. -1.
</event>
<event>
 7    1  0.4966153E-006  0.1183795E+03  0.7561462E-02  0.1245795E+00
          2   -1    0    0  501    0  0.00000000000E+00  0.00000000000E+00  0.45483055630E+03  0.45483055630E+03  0.00000000000E+00 0. -1.
         -2   -1    0    0    0  501 -0.00000000000E+00 -0.00000000000E+00 -0.36525983784E+02  0.36525983784E+02  0.00000000000E+00 0.  1.
         23    2    1    2    0    0 -0.52509410482E+02  0.28476327567E+02  0.16262863964E+03  0.21368982014E+03  0.12508847021E+03 0.  0.
          5    1    3    3  502    0 -0.82279525057E+01 -0.43163121265E+02  0.21048290210E+02  0.48900482212E+02  0.41800000000E+01 0. -1.
         -5    1    3    3    0  502 -0.44281457976E+02  0.71639448833E+02  0.14158034943E+03  0.16478933793E+03  0.41800000000E+01 0. -1.
        -11    1    1    2    0    0  0.43875046376E+02  0.27419055620E+02  0.12307095423E+03  0.13350387291E+03  0.00000000000E+00 0. -1.
         11    1    1    2    0    0  0.86343641065E+01 -0.55895383188E+02  0.13260497864E+03  0.14416284704E+03  0.00000000000E+00 0.  1.
</event>
<event>
 7    1  0.4966153E-006  0.1677543E+03  0.7561462E-02  0.1180210E+00
         -2   -1    0    0    0  501 -0.00000000000E+00  0.00000000000E+00  0.35252196509E+03  0.35252196509E+03  0.00000000000E+00 0. -1.
          2   -1    0    0  501    0  0.00000000000E+00 -0.00000000000E+00 -0.10154024970E+03  0.10154024970E+03  0.00000000000E+00 0.  1.
         23    2    1    2    0    0  0.41487091742E+02 -0.14894226980E+03  0.14207040881E+03  0.24441087506E+03  0.12509075215E+03 0.  0.
          5    1    3    3  502    0  0.37790058540E+02 -0.14721416866E+03  0.16286803819E+03  0.22280837113E+03  0.41800000000E+01 0. -1.
         -5    1    3    3    0  502  0.36970332022E+01 -0.17281011361E+01 -0.20797629384E+02  0.21602503930E+02  0.41800000000E+01 0. -1.
        -11    1    1    2    0    0 -0.68780565322E+02  0.11581911381E+03  0.70416125610E+02  0.15199757904E+03  0.00000000000E+00 0.  1.
         11    1    1    2    0    0  0.27293473580E+02  0.33123155991E+02  0.38495180979E+02  0.57653760688E+02  0.00000000000E+00 0. -1.
</event>
<event>
 7    1  0.4966153E-006  0.1105971E+03  0.7561462E-02  0.1259468E+00
          2   -1    0    0  501    0  0.00000000000E+00  0.00000000000E+00  0.47331654556E+02  0.47331654556E+02  0.00000000000E+00 0.  1.
         -2   -1    0    0    0  501 -0.00000000000E+00 -0.00000000000E+00 -0.49877312311E+03  0.49877312311E+03  0.00000000000E+00 0. -1.
         23    2    1    2    0    0 -0.86463875392E+02  0.57676394144E+02 -0.27521632144E+03  0.31967698380E+03  0.12508709844E+03 0.  0.
          5    1    3    3  502    0 -0.51625335401E+02  0.25900252644E+01 -0.18940489889E+02  0.55209582894E+02  0.41800000000E+01 0. -1.
         -5    1    3    3    0  502 -0.34838539991E+02  0.55086368880E+02 -0.25627583155E+03  0.26446740090E+03  0.41800000000E+01 0. -1.
        -11    1    1    2    0    0  0.29044524534E+02 -0.16977622798E+02  0.31008147100E+01  0.33785191034E+02  0.00000000000E+00 0.  1.
         11    1    1    2    0    0  0.57419350857E+02 -0.40698771346E+02 -0.17932596182E+03  0.19264260283E+03  0.00000000000E+00 0. -1.
</event>
<event>
 7    1  0.4966153E-006  0.3243778E+03  0.7561462E-02  0.1073652E+00
         -1   -1    0    0    0  501 -0.00000000000E+00  0.00000000000E+00  0.75912309927E+02  0.75912309927E+02  0.00000000000E+00 0.  1.
          1   -1    0    0  501    0  0.00000000000E+00 -0.00000000000E+00 -0.15205831591E+04  0.15205831591E+04  0.00000000000E+00 0. -1.
         23    2    1    2    0    0 -0.31050640072E+03 -0.59026670246E+02 -0.59440326031E+03  0.68473490784E+03  0.12509310716E+03 0.  0.
          5    1    3    3  502    0 -0.17998054888E+03  0.14383467711E+02 -0.24329513195E+03  0.30300144513E+03  0.41800000000E+01 0.  1.
         -5    1    3    3    0  502 -0.13052585184E+03 -0.73410137957E+02 -0.35110812836E+03  0.38173346271E+03  0.41800000000E+01 0.  1.
        -11    1    1    2    0    0  0.12167909964E+03  0.43484177047E+01 -0.21874103697E+03  0.25034446924E+03  0.00000000000E+00 0.  1.
         11    1    1    2    0    0  0.18882730108E+03  0.54678252542E+02 -0.63152655191E+03  0.66141609196E+03  0.00000000000E+00 0. -1.
</event>
<event>
 7    1  0.4966153E-006  0.1572452E+03  0.7561462E-02  0.1191842E+00
         -1   -1    0    0    0  501 -0.00000000000E+00  0.00000000000E+00  0.40718388698E+03  0.40718388698E+03  0.00000000000E+00 0.  1.
          1   -1    0    0  501    0  0.00000000000E+00 -0.00000000000E+00 -0.13602534504E+03  0.13602534504E+03  0.00000000000E+00 0. -1.
         23    2    1    2    0    0 -0.58270493644E+02  0.12224350157E+03  0.31740729042E+03  0.36436386513E+03  0.11693893320E+03 0.  0.
          5    1    3    3  502    0  0.17030899148E+02  0.17633304671E+02  0.36474232511E+01  0.25134857385E+02  0.41800000000E+01 0. -1.
         -5    1    3    3    0  502 -0.75301392792E+02  0.10461019690E+03  0.31375986716E+03  0.33922900774E+03  0.41800000000E+01 0.  1.
        -11    1    1    2    0    0  0.81243001187E+02 -0.93546426252E+02 -0.62361669697E+02  0.13870954168E+03  0.00000000000E+00 0. -1.
         11    1    1    2    0    0 -0.22972507543E+02 -0.28697075319E+02  0.16112921224E+02  0.40135825207E+02  0.00000000000E+00 0.  1.
</event>
<event>
 7    1  0.4966153E-006  0.1147638E+03  0.7561462E-02  0.1251994E+00
         -2   -1    0    0    0  501 -0.00000000000E+00  0.00000000000E+00  0.50392129279E+02  0.50392129279E+02  0.00000000000E+00 0.  1.
          2   -1    0    0  501    0  0.00000000000E+00 -0.00000000000E+00 -0.42875105776E+03  0.42875105776E+03  0.00000000000E+00 0. -1.
         23    2    1    2    0    0  0.40690765324E+02  0.59783278740E+01 -0.59367185157E+02  0.14444028722E+03  0.12508818934E+03 0.  0.
          5    1    3    3  502    0 -0.36713457663E+02  0.29480109810E+02 -0.65036388995E+01  0.47715035020E+02  0.41800000000E+01 0. -1.
         -5    1    3    3    0  502  0.77404222987E+02 -0.23501781936E+02 -0.52863546258E+02  0.96725252201E+02  0.41800000000E+01 0. -1.
        -11    1    1    2    0    0 -0.57412188650E+02  0.27632492473E+02 -0.20731715643E+03  0.21688733803E+03  0.00000000000E+00 0. -1.
         11    1    1    2    0    0  0.16721423326E+02 -0.33610820347E+02 -0.11167458689E+03  0.11781556179E+03  0.00000000000E+00 0.  1.
</event>
<event>
 6    1  0.4966153E-006  0.2208797E+03  0.7561462E-02  0.1133229E+00
         -1   -1    0    0    0  501 -0.00000000000E+00  0.00000000000E+00  0.53610140649E+03  0.53610140649E+03  0.00000000000E+00 0.  1.
          1   -1    0    0  501    0  0.00000000000E+00 -0.00000000000E+00 -0.23427899985E+03  0.23427899985E+03  0.00000000000E+00 0. -1.
          5    1    1    2  502    0  0.38137170384E+02  0.13134217603E+03 -0.68241376275E+02  0.15290378937E+03  0.41800000000E+01 0. -1.
         -5    1    1    2    0  502  0.33835106645E+02 -0.18128536591E+03  0.44068509334E+03  0.47773425900E+03  0.41800000000E+01 0.  1.
        -11    1    1    2    0    0 -0.66054218402E+02  0.71952347691E+02 -0.54786327487E+02  0.11199036470E+03  0.00000000000E+00 0. -1.
         11    1    1    2    0    0 -0.59180586277E+01 -0.22009157807E+02 -0.15834982934E+02  0.27751993258E+02  0.00000000000E+00 0.  1.
</event>
<event>
 7    1  0.4966153E-006  0.8293474E+02  0.7561462E-02  0.1320923E+00
         -2   -1    0    0    0  501 -0.00000000000E+00  0.00000000000E+00  0.23944563628E+02  0.23944563628E+02  0.00000000000E+00 0.  1.
          2   -1    0    0  501    0  0.00000000000E+00 -0.00000000000E+00 -0.67300037906E+03  0.67300037906E+03  0.00000000000E+00 0. -1.
         23    2    1    2    0    0 -0.25195793620E+02 -0.22756308362E+02 -0.21058713669E+03  0.24727812908E+03  0.12508738303E+03 0.  0.
          5    1    3    3  502    0  0.98359393603E+01  0.12411723850E+02  0.11280066744E+02  0.19887405507E+02  0.41800000000E+01 0.  1.
         -5    1    3    3    0  502 -0.35031732980E+02 -0.35168032212E+02 -0.22186720344E+03  0.22739072357E+03  0.41800000000E+01 0.  1.
        -11    1    1    2    0    0 -0.31780568631E+02 -0.10784224787E+02 -0.15449057837E+03  0.15809377866E+03  0.00000000000E+00 0.  1.
         11    1    1    2    0    0  0.56976362251E+02  0.33540533148E+02 -0.28397810037E+03  0.29157303495E+03  0.00000000000E+00 0. -1.
</event>
<event>
 6    1  0.4966153E-006  0.8031002E+02  0.7561462E-02  0.1328174E+00
          2   -1    0    0  501    0  0.00000000000E+00  0.00000000000E+00  0.27248311379E+03  0.27248311379E+03  0.00000000000E+00 0. -1.
         -2   -1    0    0    0  501 -0.00000000000E+00 -0.00000000000E+00 -0.45061145593E+02  0.45061145593E+02  0.00000000000E+00 0.  1.
          5    1    1    2  502    0  0.45190111870E+02  0.28104258600E+02  0.10836853906E+03  0.12080235188E+03  0.41800000000E+01 0. -1.
         -5    1    1    2    0  502 -0.37304888388E+02 -0.51057633592E+02 -0.40607305738E+01  0.63501957281E+02  0.41800000000E+01 0.  1.
        -11    1    1    2    0    0  0.14383171283E+02  0.13324698610E+02  0.22975242100E+02  0.30204055337E+02  0.00000000000E+00 0. -1.
         11    1    1    2    0    0 -0.22268394765E+02  0.96286763819E+01  0.10013891762E+03  0.10303589489E+03  0.00000000000E+00 0.  1.
</event>
<event>
 7    1  0.4966153E-006  0.7044704E+02  0.7561462E-02  0.1358579E+00
          1   -1    0    0  501    0  0.00000000000E+00  0.00000000000E+00  0.79821040751E+03  0.79821040751E+03  0.00000000000E+00 0. -1.
         -1   -1    0    0    0  501 -0.00000000000E+00 -0.00000000000E+00 -0.18097539088E+02  0.18097539088E+02  0.00000000000E+00 0.  1.
         23    2    1    2    0    0  0.18237858735E+01 -0.21631680656E+02  0.27895471630E+03  0.30648738204E+03  0.12509007073E+03 0.  0.
          5    1    3    3  502    0 -0.18805862294E+02 -0.17306324566E+02 -0.79948808172E+00  0.25909089290E+02  0.41800000000E+01 0.  1.
         -5    1    3    3    0  502  0.20629648168E+02 -0.43253560892E+01  0.27975420439E+03  0.28057829275E+03  0.41800000000E+01 0.  1.
        -11    1    1    2    0    0 -0.44298154221E+02 -0.30161762044E+01  0.22793453836E+03  0.23221881398E+03  0.00000000000E+00 0. -1.
         11    1    1    2    0    0  0.42474368347E+02  0.24647856860E+02  0.27322361375E+03  0.27760175058E+03  0.00000000000E+00 0.  1.
</event>
<event>
 7    1  0.4966153E-006  0.9932774E+02  0.7561462E-02  0.1281716E+00
          2   -1    0    0  501    0  0.00000000000E+00  0.00000000000E+00  0.35693772091E+03  0.35693772091E+03  0.00000000000E+00 0. -1.
         -2   -1    0    0    0  501 -0.00000000000E+00 -0.00000000000E+00 -0.42071605934E+02  0.42071605934E+02  0.00000000000E+00 0.  1.
         23    2    1    2    0    0  0.40143481556E+02 -0.26187469972E+02  0.12818167327E+03  0.18540365359E+03  0.12508673275E+03 0.  0.
          5    1    3    3  502    0  0.44553269730E+02  0.29162380770E+02  0.94208145624E+01  0.54237094712E+02  0.41800000000E+01 0. -1.
         -5    1    3    3    0  502 -0.44097881743E+01 -0.55349850742E+02  0.11876085870E+03  0.13116655888E+03  0.41800000000E+01 0. -1.
        -11    1    1    2    0    0 -0.55339460562E+02 -0.42892248404E+01  0.57143929722E+02  0.79663555338E+02  0.00000000000E+00 0.  1.
         11    1    1    2    0    0  0.15195979006E+02  0.30476694812E+02  0.12954051199E+03  0.13394211791E+03  0.00000000000E+00 0. -1.
</event>
<event>
 7    1  0.4966153E-006  0.9010424E+02  0.7561462E-02  0.1302599E+00
         -1   -1    0    0    0  501 -0.00000000000E+00  0.00000000000E+00  0.36482964052E+02  0.36482964052E+02  0.00000000000E+00 0.  1.
          1   -1    0    0  501    0  0.00000000000E+00 -0.00000000000E+00 -0.52158987307E+03  0.52158987307E+03  0.00000000000E+00 0. -1.
         23    2    1    2    0    0 -0.34132098014E+01 -0.91876413599E+01 -0.96726394734E+02  0.15843049708E+03  0.12509262253E+03 0.  0.
          5    1    3    3  502    0  0.26093701922E+02 -0.39257973958E+02  0.56363490365E+01  0.47658269269E+02  0.41800000000E+01 0. -1.
         -5    1    3    3    0  502 -0.29506911723E+02  0.30070332598E+02 -0.10236274377E+03  0.11077222781E+03  0.41800000000E+01 0. -1.
        -11    1    1    2    0    0  0.41207413736E+02  0.26484260956E+02 -0.15393248009E+03  0.16153846431E+03  0.00000000000E+00 0.  1.
         11    1    1    2    0    0 -0.37794203934E+02 -0.17296619596E+02 -0.23444803419E+03  0.23810387573E+03  0.00000000000E+00 0. -1.
</event>
<event>
 7    1  0.4966153E-006  0.1091264E+03  0.7561462E-02  0.1262196E+00
          1   -1    0    0  501    0  0.00000000000E+00  0.00000000000E+00  0.58491626739E+03  0.58491626739E+03  0.00000000000E+00 0. -1.
         -1   -1    0    0    0  501 -0.00000000000E+00 -0.00000000000E+00 -0.22000495865E+02  0.22000495865E+02  0.00000000000E+00 0.  1.
         23    2    1    2    0    0  0.18746120164E+02 -0.18733798720E+02  0.27666412244E+03  0.30478382089E+03  0.12509104123E+03 0.  0.
          5    1    3    3  502    0  0.11521288697E+02  0.53495441030E+02  0.10917165641E+03  0.12219011936E+03  0.41800000000E+01 0.  1.
         -5    1    3    3    0  502  0.72248314665E+01 -0.72229239750E+02  0.16749246603E+03  0.18259370154E+03  0.41800000000E+01 0.  1.
        -11    1    1    2    0    0 -0.17690619321E+02  0.53258928509E+02  0.22418133908E+03  0.23109899236E+03  0.00000000000E+00 0. -1.
         11    1    1    2    0    0 -0.10555008431E+01 -0.34525129789E+02  0.62070309994E+02  0.71033949994E+02  0.00000000000E+00 0.  1.
</event>
<event>
 7    1  0.4966153E-006  0.6416551E+02  0.7561462E-02  0.1381138E+00
         -1   -1    0    0    0  501 -0.00000000000E+00  0.00000000000E+00  0.17404215413E+02  0.17404215413E+02  0.00000000000E+00 0.  1.
          1   -1    0    0  501    0  0.00000000000E+00 -0.00000000000E+00 -0.71376902628E+03  0.71376902628E+03  0.00000000000E+00 0. -1.
         23    2    1    2    0    0  0.13748808044E+02  0.17346264419E+02 -0.35712598351E+03  0.37904702862E+03  0.12509100365E+03 0.  0.
          5    1    3    3  502    0 -0.12770291876E+01 -0.59334315800E+01 -0.35007457840E+03  0.35015213730E+03  0.41800000000E+01 0.  1.
         -5    1    3    3    0  502  0.15025837232E+02  0.23279695999E+02 -0.70514051111E+01  0.28894891319E+02  0.41800000000E+01 0.  1.
        -11    1    1    2    0    0  0.38329058216E+02 -0.13815335041E+02 -0.11881822425E+03  0.12560951636E+03  0.00000000000E+00 0.  1.
         11    1    1    2    0    0 -0.52077866260E+02 -0.35309293783E+01 -0.22042060310E+03  0.22651669671E+03  0.00000000000E+00 0. -1.
</event>
<event>
 7    1  0.4966153E-006  0.2701476E+03  0.7561462E-02  0.1101195E+00
         -1   -1    0    0    0  501 -0.00000000000E+00  0.00000000000E+00  0.22600895848E+03  0.22600895848E+03  0.00000000000E+00 0.  1.
          1   -1    0    0  501    0  0.00000000000E+00 -0.00000000000E+00 -0.41676602100E+03  0.41676602100E+03  0.00000000000E+00 0. -1.
         23    2    1    2    0    0 -0.22039134795E+03 -0.13968576456E+03  0.27895374952E+02  0.29070569561E+03  0.12508873029E+03 0.  0.
          5    1    3    3  502    0 -0.16452295339E+03 -0.81710545709E+02 -0.36730240188E+02  0.18737929026E+03  0.41800000000E+01 0.  1.
         -5    1    3    3    0  502 -0.55868394554E+02 -0.57975218851E+02  0.64625615140E+02  0.10332640535E+03  0.41800000000E+01 0.  1.
        -11    1    1    2    0    0  0.11433707749E+03  0.20098843099E+02 -0.93650779817E+02  0.14915562123E+03  0.00000000000E+00 0.  1.
         11    1    1    2    0    0  0.10605427045E+03  0.11958692146E+03 -0.12500165766E+03  0.20291366263E+03  0.00000000000E+00 0. -1.
</event>
<event>
 7    1  0.4966153E-006  0.1452749E+03  0.7561462E-02  0.1206402E+00
         -2   -1    0    0    0  501 -0.00000000000E+00  0.00000000000E+00  0.40188359171E+02  0.40188359171E+02  0.00000000000E+00 0.  1.
          2   -1    0    0  501    0  0.00000000000E+00 -0.00000000000E+00 -0.52879873258E+03  0.52879873258E+03  0.00000000000E+00 0. -1.
         23    2    1    2    0    0  0.18618753048E+02  0.96344367813E+02 -0.24869214914E+03  0.29516730796E+03  0.12508820677E+03 0.  0.
          5    1    3    3  502    0 -0.53608584282E+02  0.46912747458E+02 -0.11236702178E+03  0.13311087922E+03  0.41800000000E+01 0. -1.
         -5    1    3    3    0  502  0.72227337330E+02  0.49431620355E+02 -0.13632512736E+03  0.16205642874E+03  0.41800000000E+01 0. -1.
        -11    1    1    2    0    0  0.33260743442E+02 -0.18615369957E+02 -0.79530718645E+02  0.88192654236E+02  0.00000000000E+00 0.  1.
         11    1    1    2    0    0 -0.51879496490E+02 -0.77728997856E+02 -0.16038750563E+03  0.18562712955E+03  0.00000000000E+00 0. -1.
</event>
<event>
 7    1  0.4966153E-006  0.1034348E+03  0.7561462E-02  0.1273234E+00
         -2   -1    0    0    0  501 -0.00000000000E+00  0.00000000000E+00  0.17399388494E+03  0.17399388494E+03  0.00000000000E+00 0. -1.
          2   -1    0    0  501    0  0.00000000000E+00 -0.00000000000E+00 -0.10088463122E+03  0.10088463122E+03  0.00000000000E+00 0.  1.
         23    2    1    2    0    0 -0.20506535122E+02 -0.35261594339E+02  0.10635529121E+03  0.16918494152E+03  0.12509275938E+03 0.  0.
          5    1    3    3  502    0  0.42122918777E+02 -0.18454839601E+01  0.13802102235E+01  0.42392493176E+02  0.41800000000E+01 0.  1.
         -5    1    3    3    0  502 -0.62629453899E+02 -0.33416110379E+02  0.10497508098E+03  0.12679244834E+03  0.41800000000E+01 0.  1.
        -11    1    1    2    0    0  0.32074910392E+02 -0.19421625494E+02 -0.32769606779E+02  0.49798057612E+02  0.00000000000E+00 0.  1.
         11    1    1    2    0    0 -0.11568375270E+02  0.54683219833E+02 -0.47643071340E+00  0.55895517028E+02  0.00000000000E+00 0. -1.
</event>
<event>
 7    1  0.4966153E-006  0.1234888E+03  0.7561462E-02  0.1237450E+00
         -2   -1    0    0    0  501 -0.00000000000E+00  0.00000000000E+00  0.44449551958E+02  0.44449551958E+02  0.00000000000E+00 0.  1.
          2   -1    0    0  501    0  0.00000000000E+00 -0.00000000000E+00 -0.35134079703E+03  0.35134079703E+03  0.00000000000E+00 0. -1.
         23    2    1    2    0    0  0.47502046435E+02  0.56058972223E+02 -0.16953295589E+03  0.22313222385E+03  0.12509002120E+03 0.  0.
          5    1    3    3  502    0  0.75393047418E+02  0.76831779312E+02 -0.14376933729E+03  0.17965057377E+03  0.41800000000E+01 0. -1.
         -5    1    3    3    0  502 -0.27891000983E+02 -0.20772807089E+02 -0.25763618595E+02  0.43481650075E+02  0.41800000000E+01 0. -1.
        -11    1    1    2    0    0 -0.49905869803E+02 -0.18260091069E+01 -0.58434427826E+02  0.76866849196E+02  0.00000000000E+00 0.  1.
         11    1    1    2    0    0  0.24038233678E+01 -0.54232963117E+02 -0.78923861362E+02  0.95791275946E+02  0.00000000000E+00 0. -1.
</event>
<event>
 7    1  0.4966153E-006  0.1190365E+03  0.7561462E-02  0.1244695E+00
          1   -1    0    0  501    0  0.00000000000E+00  0.00000000000E+00  0.20787311759E+03  0.20787311759E+03  0.00000000000E+00 0. -1.
         -1   -1    0    0    0  501 -0.00000000000E+00 -0.00000000000E+00 -0.89898032473E+02  0.89898032473E+02  0.00000000000E+00 0.  1.
         23    2    1    2    0    0  0.37163499040E+02  0.73272685808E+02  0.82122270830E+02  0.17071406216E+03  0.12509680854E+03 0.  0.
          5    1    3    3  502    0  0.29773270999E+02 -0.30593642537E+02  0.10193789501E+02  0.44088596871E+02  0.41800000000E+01 0.  1.
         -5    1    3    3    0  502  0.73902280411E+01  0.10386632834E+03  0.71928481330E+02  0.12662546529E+03  0.41800000000E+01 0.  1.
        -11    1    1    2    0    0  0.83713772956E+01 -0.11556732429E+02 -0.25245482659E+02  0.28999524426E+02  0.00000000000E+00 0.  1.
         11    1    1    2    0    0 -0.45534876336E+02 -0.61715953379E+02  0.61098296943E+02  0.98057563470E+02  0.00000000000E+00 0. -1.
</event>
<event>
 7    1  0.4966153E-006  0.3083063E+03  0.7561462E-02  0.1081161E+00
         -2   -1    0    0    0  501 -0.00000000000E+00  0.00000000000E+00  0.55158668926E+02  0.55158668926E+02  0.00000000000E+00 0.  1.
          2   -1    0    0  501    0  0.00000000000E+00 -0.00000000000E+00 -0.19627169986E+04  0.19627169986E+04  0.00000000000E+00 0. -1.
         23    2    1    2    0    0 -0.29779364321E+03  0.42415018906E+02 -0.73605633942E+03  0.80492395439E+03  0.12507417716E+03 0.  0.
          5    1    3    3  502    0 -0.81526749696E+02  0.55879412082E+02 -0.33184749191E+03  0.34627929465E+03  0.41800000000E+01 0.  1.
         -5    1    3    3    0  502 -0.21626689351E+03 -0.13464393176E+02 -0.40420884750E+03  0.45864465975E+03  0.41800000000E+01 0.  1.
        -11    1    1    2    0    0  0.12212612196E+03 -0.22280345104E+02 -0.31896513210E+03  0.34227176182E+03  0.00000000000E+00 0.  1.
         11    1    1    2    0    0  0.17566752125E+03 -0.20134673801E+02 -0.85253685811E+03  0.87067995127E+03  0.00000000000E+00 0. -1.
</event>
<event>
 7    1  0.4966153E-006  0.1285858E+03  0.7561462E-02  0.1229569E+00
         -1   -1    0    0    0  501 -0.00000000000E+00  0.00000000000E+00  0.77836799182E+02  0.77836799182E+02  0.00000000000E+00 0.  1.
          1   -1    0    0  501    0  0.00000000000E+00 -0.00000000000E+00 -0.28392916371E+03  0.28392916371E+03  0.00000000000E+00 0. -1.
         23    2    1    2    0    0  0.73022542942E+02 -0.43095120017E+02 -0.46612914015E+02  0.15813915396E+03  0.12508296094E+03 0.  0.
          5    1    3    3  502    0 -0.21258652814E+02  0.21128796390E+02 -0.30302158599E+02  0.42825804979E+02  0.41800000000E+01 0.  1.
         -5    1    3    3    0  502  0.94281195756E+02 -0.64223916407E+02 -0.16310755416E+02  0.11531334898E+03  0.41800000000E+01 0.  1.
        -11    1    1    2    0    0 -0.83249414429E+02  0.17329435345E+02 -0.15317907977E+03  0.17519875802E+03  0.00000000000E+00 0. -1.
         11    1    1    2    0    0  0.10226871486E+02  0.25765684672E+02 -0.63003707445E+01  0.28428050910E+02  0.00000000000E+00 0.  1.
</event>
<event>
 7    1  0.4966153E-006  0.1260685E+03  0.7561462E-02  0.1233409E+00
         -1   -1    0    0    0  501 -0.00000000000E+00  0.00000000000E+00  0.67651131093E+02  0.67651131093E+02  0.00000000000E+00 0.  1.
          1   -1    0    0  501    0  0.00000000000E+00 -0.00000000000E+00 -0.27110289310E+03  0.27110289310E+03  0.00000000000E+00 0. -1.
         23    2    1    2    0    0  0.17365655053E+02  0.65474104744E+02 -0.10309794072E+03  0.17568326048E+03  0.12508796211E+03 0.  0.
          5    1    3    3  502    0 -0.44079606824E+02  0.41997025969E+02 -0.10344917793E+02  0.61897105362E+02  0.41800000000E+01 0. -1.
         -5    1    3    3    0  502  0.61445261877E+02  0.23477078775E+02 -0.92753022930E+02  0.11378615512E+03  0.41800000000E+01 0. -1.
        -11    1    1    2    0    0 -0.50245168557E+02 -0.75620157916E+02 -0.55034332782E+02  0.10616855952E+03  0.00000000000E+00 0.  1.
         11    1    1    2    0    0  0.32879513504E+02  0.10146053172E+02 -0.45319488499E+02  0.56902204184E+02  0.00000000000E+00 0. -1.
</event>
<event>
 7    1  0.4966153E-006  0.1202707E+03  0.7561462E-02  0.1242651E+00
         -1   -1    0    0    0  501 -0.00000000000E+00  0.00000000000E+00  0.19527114974E+04  0.19527114974E+04  0.00000000000E+00 0.  1.
          1   -1    0    0  501    0  0.00000000000E+00 -0.00000000000E+00 -0.14360438937E+02  0.14360438937E+02  0.00000000000E+00 0. -1.
         23    2    1    2    0    0 -0.23080220196E+02 -0.95816374982E+02  0.14807025809E+04  0.14892413086E+04  0.12508424317E+03 0.  0.
          5    1    3    3  502    0 -0.29592727790E+02 -0.12560026826E+02  0.10498354306E+04  0.10503358451E+04  0.41800000000E+01 0. -1.
         -5    1    3    3    0  502  0.65125075945E+01 -0.83256348156E+02  0.43086715026E+03  0.43890546344E+03  0.41800000000E+01 0. -1.
        -11    1    1    2    0    0  0.25321310253E+02 -0.31494949076E+01  0.32554594741E+02  0.41362902580E+02  0.00000000000E+00 0. -1.
         11    1    1    2    0    0 -0.22410900574E+01  0.98965869889E+02  0.42509388281E+03  0.43646772514E+03  0.00000000000E+00 0.  1.
</event>
<event>
 7    1  0.4966153E-006  0.1307897E+03  0.7561462E-02  0.1226289E+00
          1   -1    0    0  501    0  0.00000000000E+00  0.00000000000E+00  0.36738375796E+02  0.36738375796E+02  0.00000000000E+00 0. -1.
         -1   -1    0    0    0  501 -0.00000000000E+00 -0.00000000000E+00 -0.63376580620E+03  0.63376580620E+03  0.00000000000E+00 0.  1.
         23    2    1    2    0    0  0.45551689965E+02  0.92868559043E+02 -0.38256799129E+03  0.41557867377E+03  0.12509132832E+03 0.  0.
          5    1    3    3  502    0  0.61089221936E+02  0.94021038131E+02 -0.38334578959E+03  0.39942873638E+03  0.41800000000E+01 0. -1.
         -5    1    3    3    0  502 -0.15537531971E+02 -0.11524790882E+01  0.77779829886E+00  0.16149937399E+02  0.41800000000E+01 0. -1.
        -11    1    1    2    0    0 -0.24253562101E+02  0.11418025878E+02 -0.20750914364E+02  0.33899956291E+02  0.00000000000E+00 0.  1.
         11    1    1    2    0    0 -0.21298127864E+02 -0.10428658492E+03 -0.19370852475E+03  0.22102555193E+03  0.00000000000E+00 0. -1.
</event>
<event>
 7    1  0.4966153E-006  0.7846705E+02  0.7561462E-02  0.1333459E+00
         -2   -1    0    0    0  501 -0.00000000000E+00  0.00000000000E+00  0.27175829479E+02  0.27175829479E+02  0.00000000000E+00 0.  1.
          2   -1    0    0  501    0  0.00000000000E+00 -0.00000000000E+00 -0.56966049542E+03  0.56966049542E+03  0.00000000000E+00 0. -1.
         23    2    1    2    0    0 -0.17275741192E+01  0.50065991427E+02 -0.22298424916E+03  0.26053713274E+03  0.12509210268E+03 0.  0.
          5    1    3    3  502    0  0.10422316968E+02  0.21399958480E+02  0.94798950012E+01  0.25960040893E+02  0.41800000000E+01 0. -1.
         -5    1    3    3    0  502 -0.12149891088E+02  0.28666032946E+02 -0.23246414416E+03  0.23457709184E+03  0.41800000000E+01 0. -1.
        -11    1    1    2    0    0 -0.13306420725E+02 -0.72850316011E+02 -0.18934329705E+03  0.20331038713E+03  0.00000000000E+00 0.  1.
         11    1    1    2    0    0  0.15033994844E+02  0.22784324585E+02 -0.13015711973E+03  0.13298880503E+03  0.00000000000E+00 0. -1.
</event>
<event>
 7    1  0.4966153E-006  0.1546227E+03  0.7561462E-02  0.1194905E+00
          4   -1    0    0  501    0  0.00000000000E+00  0.00000000000E+00  0.85689409157E+02  0.85689409157E+02  0.00000000000E+00 0. -1.
         -4   -1    0    0    0  501 -0.00000000000E+00 -0.00000000000E+00 -0.41472991786E+03  0.41472991786E+03  0.00000000000E+00 0.  1.
         23    2    1    2    0    0 -0.11386516581E+03  0.34660225340E+02 -0.30242454336E+03  0.34824318280E+03  0.12508438246E+03 0.  0.
          5    1    3    3  502    0 -0.10925184229E+03  0.68073128991E+02 -0.18095554896E+03  0.22210875497E+03  0.41800000000E+01 0. -1.
         -5    1    3    3    0  502 -0.46133235194E+01 -0.33412903651E+02 -0.12146899440E+03  0.12613442783E+03  0.41800000000E+01 0. -1.
        -11    1    1    2    0    0  0.96128643225E+02 -0.61628461135E+02 -0.33846597240E+02  0.11909817553E+03  0.00000000000E+00 0.  1.
         11    1    1    2    0    0  0.17736522583E+02  0.26968235795E+02  0.72306318901E+01  0.33077968691E+02  0.00000000000E+00 0. -1.
</event>
<event>
 7    1  0.4966153E-006  0.1974315E+03  0.7561462E-02  0.1151924E+00
          1   -1    0    0  501    0  0.00000000000E+00  0.00000000000E+00  0.90157950473E+03  0.90157950473E+03  0.00000000000E+00 0. -1.
         -1   -1    0    0    0  501 -0.00000000000E+00 -0.00000000000E+00 -0.52076258495E+02  0.52076258495E+02  0.00000000000E+00 0.  1.
         23    2    1    2    0    0 -0.13458073429E+03  0.12828259974E+03  0.33444795036E+03  0.39854216213E+03  0.11140926377E+03 0.  0.
          5    1    3    3  502    0 -0.54334682120E+02  0.10719709332E+01  0.15531752567E+03  0.16460380610E+03  0.41800000000E+01 0. -1.
         -5    1    3    3    0  502 -0.80246052170E+02  0.12721062881E+03  0.17913042469E+03  0.23393835603E+03  0.41800000000E+01 0.  1.
        -11    1    1    2    0    0  0.27613111648E+02 -0.50770682433E+02  0.27601842196E+03  0.28200410528E+03  0.00000000000E+00 0.  1.
         11    1    1    2    0    0  0.10696762264E+03 -0.77511917309E+02  0.23903687392E+03  0.27310949583E+03  0.00000000000E+00 0. -1.
</event>
<event>
 7    1  0.4966153E-006  0.1088520E+03  0.7561462E-02  0.1262711E+00
          1   -1    0    0  501    0  0.00000000000E+00  0.00000000000E+00  0.38875426215E+03  0.38875426215E+03  0.00000000000E+00 0. -1.
         -1   -1    0    0    0  501 -0.00000000000E+00 -0.00000000000E+00 -0.56319238976E+02  0.56319238976E+02  0.00000000000E+00 0.  1.
         23    2    1    2    0    0  0.14475424823E+02  0.90928547535E+02  0.10805799806E+03  0.18920716377E+03  0.12508109847E+03 0.  0.
          5    1    3    3  502    0 -0.19205867393E+02  0.89388024704E+02  0.12197372254E+03  0.15249310047E+03  0.41800000000E+01 0.  1.
         -5    1    3    3    0  502  0.33681292216E+02  0.15405228316E+01 -0.13915724474E+02  0.36714063294E+02  0.41800000000E+01 0.  1.
        -11    1    1    2    0    0 -0.31213621948E+01 -0.34850879527E+02  0.18024016635E+03  0.18360513139E+03  0.00000000000E+00 0. -1.
         11    1    1    2    0    0 -0.11354062628E+02 -0.56077668009E+02  0.44136858767E+02  0.72261205977E+02  0.00000000000E+00 0.  1.
</event>
<event>
 7    1  0.4966153E-006  0.1446273E+03  0.7561462E-02  0.1207235E+00
          3   -1    0    0  501    0  0.00000000000E+00  0.00000000000E+00  0.20115281361E+03  0.20115281361E+03  0.00000000000E+00 0. -1.
         -3   -1    0    0    0  501 -0.00000000000E+00 -0.00000000000E+00 -0.12788109168E+03  0.12788109168E+03  0.00000000000E+00 0.  1.
         23    2    1    2    0    0  0.65444858721E+02 -0.96395142593E+02  0.14553660531E+02  0.17156536201E+03  0.12509121215E+03 0.  0.
          5    1    3    3  502    0  0.78182128319E+02 -0.67777733156E+01  0.18968407709E+02  0.80843405981E+02  0.41800000000E+01 0.  1.
         -5    1    3    3    0  502 -0.12737269599E+02 -0.89617369277E+02 -0.44147471786E+01  0.90721956029E+02  0.41800000000E+01 0.  1.
        -11    1    1    2    0    0 -0.42579665657E+02  0.37001080019E+02  0.72986899632E+02  0.92245299978E+02  0.00000000000E+00 0. -1.
         11    1    1    2    0    0 -0.22865193064E+02  0.59394062574E+02 -0.14268838235E+02  0.65223243307E+02  0.00000000000E+00 0.  1.
</event>
<event>
 7    1  0.4966153E-006  0.1934074E+03  0.7561462E-02  0.1155423E+00
          2   -1    0    0  501    0  0.00000000000E+00  0.00000000000E+00  0.11712826053E+04  0.11712826053E+04  0.00000000000E+00 0.  1.
         -2   -1    0    0    0  501 -0.00000000000E+00 -0.00000000000E+00 -0.54262152454E+02  0.54262152454E+02  0.00000000000E+00 0. -1.
         23    2    1    2    0    0  0.11595954552E+03 -0.13622741571E+03  0.23490428589E+03  0.32067405029E+03  0.12508916024E+03 0.  0.
          5    1    3    3  502    0  0.35419344793E+02 -0.88912801975E+02  0.19836186927E+03  0.22028372596E+03  0.41800000000E+01 0.  1.
         -5    1    3    3    0  502  0.80540200732E+02 -0.47314613734E+02  0.36542416613E+02  0.10039032433E+03  0.41800000000E+01 0.  1.
        -11    1    1    2    0    0 -0.44805354662E+02  0.11475023104E+03  0.63418965708E+03  0.64604307633E+03  0.00000000000E+00 0.  1.
         11    1    1    2    0    0 -0.71154190863E+02  0.21477184672E+02  0.24792650989E+03  0.25882763115E+03  0.00000000000E+00 0. -1.
</event>
<event>
 7    1  0.4966153E-006  0.7815948E+02  0.7561462E-02  0.1334357E+00
         -1   -1    0    0    0  501 -0.00000000000E+00  0.00000000000E+00  0.85813451208E+02  0.85813451208E+02  0.00000000000E+00 0.  1.
          1   -1    0    0  501    0  0.00000000000E+00 -0.00000000000E+00 -0.20345817355E+03  0.20345817355E+03  0.00000000000E+00 0. -1.
         23    2    1    2    0    0 -0.20671416194E+02 -0.67539493514E+02 -0.34839850592E+02  0.14781951485E+03  0.12509157905E+03 0.  0.
          5    1    3    3  502    0  0.15435548720E+01 -0.22944094507E+02 -0.78213053356E+02  0.81630681423E+02  0.41800000000E+01 0.  1.
         -5    1    3    3    0  502 -0.22214971066E+02 -0.44595399008E+02  0.43373202763E+02  0.66188833424E+02  0.41800000000E+01 0.  1.
        -11    1    1    2    0    0  0.30473411854E+02  0.25359808828E+02 -0.89261599219E+02  0.97669759030E+02  0.00000000000E+00 0. -1.
         11    1    1    2    0    0 -0.98019956602E+01  0.42179684687E+02  0.64567274673E+01  0.43782350882E+02  0.00000000000E+00 0.  1.
</event>
<event>
 7    1  0.4966153E-006  0.1225857E+03  0.7561462E-02  0.1238891E+00
         -1   -1    0    0    0  501 -0.00000000000E+00  0.00000000000E+00  0.34850344912E+02  0.34850344912E+02  0.00000000000E+00 0.  1.
          1   -1    0    0  501    0  0.00000000000E+00 -0.00000000000E+00 -0.50653435922E+03  0.50653435922E+03  0.00000000000E+00 0. -1.
         23    2    1    2    0    0  0.36030864629E+02  0.66403595518E+02 -0.24781534825E+03  0.28769527522E+03  0.12509382019E+03 0.  0.
          5    1    3    3  502    0 -0.24897178561E+02 -0.24492140998E+02 -0.44067431647E+02  0.56383910851E+02  0.41800000000E+01 0. -1.
         -5    1    3    3    0  502  0.60928043191E+02  0.90895736515E+02 -0.20374791660E+03  0.23131136436E+03  0.41800000000E+01 0. -1.
        -11    1    1    2    0    0 -0.51777364092E+02 -0.27732368225E+02 -0.19306543812E+03  0.20180248530E+03  0.00000000000E+00 0. -1.
         11    1    1    2    0    0  0.15746499463E+02 -0.38671227293E+02 -0.30803227935E+02  0.51886943607E+02  0.00000000000E+00 0.  1.
</event>
<event>
 7    1  0.4966153E-006  0.1485600E+03  0.7561462E-02  0.1202254E+00
          1   -1    0    0  501    0  0.00000000000E+00  0.00000000000E+00  0.73113233962E+02  0.73113233962E+02  0.00000000000E+00 0. -1.
         -1   -1    0    0    0  501 -0.00000000000E+00 -0.00000000000E+00 -0.44165294385E+03  0.44165294385E+03  0.00000000000E+00 0.  1.
         23    2    1    2    0    0  0.12302151526E+03  0.60873452886E+02 -0.26717278218E+03  0.32537851411E+03  0.12510000569E+03 0.  0.
          5    1    3    3  502    0  0.48880311020E+02  0.22311976223E+02 -0.22559553553E+03  0.23194380168E+03  0.41800000000E+01 0.  1.
         -5    1    3    3    0  502  0.74141204235E+02  0.38561476664E+02 -0.41577246658E+02  0.93434712434E+02  0.41800000000E+01 0.  1.
        -11    1    1    2    0    0 -0.85746780421E+02  0.27749408691E+01 -0.61361733758E+02  0.10547735785E+03  0.00000000000E+00 0. -1.
         11    1    1    2    0    0 -0.37274734834E+02 -0.63648393755E+02 -0.40005193945E+02  0.83910305846E+02  0.00000000000E+00 0.  1.
</event>
<event>
 7    1  0.4966153E-006  0.1176762E+03  0.7561462E-02  0.1246981E+00
          3   -1    0    0  501    0  0.00000000000E+00  0.00000000000E+00  0.12199649990E+03  0.12199649990E+03  0.00000000000E+00 0. -1.
         -3   -1    0    0    0  501 -0.00000000000E+00 -0.00000000000E+00 -0.20425796679E+03  0.20425796679E+03  0.00000000000E+00 0.  1.
         23    2    1    2    0    0  0.40958654716E+02  0.95842873086E+02  0.10594565611E+02  0.16316587984E+03  0.12508953516E+03 0.  0.
          5    1    3    3  502    0  0.32374855469E+02  0.66648532504E+02 -0.53906017162E+02  0.91725074205E+02  0.41800000000E+01 0.  1.
         -5    1    3    3    0  502  0.85837992465E+01  0.29194340582E+02  0.64500582773E+02  0.71440805634E+02  0.41800000000E+01 0.  1.
        -11    1    1    2    0    0  0.91382019516E+01  0.98638205175E+01 -0.23560072117E+02  0.27127084035E+02  0.00000000000E+00 0. -1.
         11    1    1    2    0    0 -0.50096856667E+02 -0.10570669360E+03 -0.69295960385E+02  0.13596150281E+03  0.00000000000E+00 0.  1.
</event>
<event>
 7    1  0.4966153E-006  0.8316390E+02  0.7561462E-02  0.1320305E+00
          2   -1    0    0  501    0  0.00000000000E+00  0.00000000000E+00  0.43662952390E+02  0.43662952390E+02  0.00000000000E+00 0. -1.
         -2   -1    0    0    0  501 -0.00000000000E+00 -0.00000000000E+00 -0.32009487219E+03  0.32009487219E+03  0.00000000000E+00 0.  1.
         23    2    1    2    0    0  0.59070828632E+01 -0.25661289390E+02 -0.21093279014E+03  0.24664377191E+03  0.12508842019E+03 0.  0.
          5    1    3    3  502    0 -0.45260043994E+02  0.25477767079E+01 -0.16789063218E+03  0.17395315324E+03  0.41800000000E+01 0.  1.
         -5    1    3    3    0  502  0.51167126857E+02 -0.28209066098E+02 -0.43042157962E+02  0.72690618672E+02  0.41800000000E+01 0.  1.
        -11    1    1    2    0    0  0.22953226663E+02 -0.94591693475E+00 -0.73540444212E+02  0.77045066734E+02  0.00000000000E+00 0.  1.
         11    1    1    2    0    0 -0.28860309526E+02  0.26607206325E+02  0.80413145500E+01  0.40068985937E+02  0.00000000000E+00 0. -1.
</event>
<event>
 7    1  0.4966153E-006  0.1171765E+03  0.7561462E-02  0.1247829E+00
          1   -1    0    0  501    0  0.00000000000E+00  0.00000000000E+00  0.82641983168E+03  0.82641983168E+03  0.00000000000E+00 0. -1.
         -1   -1    0    0    0  501 -0.00000000000E+00 -0.00000000000E+00 -0.22212938876E+02  0.22212938876E+02  0.00000000000E+00 0.  1.
         23    2    1    2    0    0  0.98460561997E+02  0.23781781925E+01  0.42589879184E+03  0.45468403807E+03  0.12509058954E+03 0.  0.
          5    1    3    3  502    0  0.37208226265E+02  0.43202448373E+02  0.66030639766E+02  0.87340834866E+02  0.41800000000E+01 0.  1.
         -5    1    3    3    0  502  0.61252335732E+02 -0.40824270181E+02  0.35986815207E+03  0.36734320321E+03  0.41800000000E+01 0.  1.
        -11    1    1    2    0    0 -0.23804895310E+02 -0.14423033486E+02  0.51867983792E+02  0.58864120466E+02  0.00000000000E+00 0.  1.
         11    1    1    2    0    0 -0.74655666687E+02  0.12044855293E+02  0.32644011717E+03  0.33508461201E+03  0.00000000000E+00 0. -1.
</event>
<event>
 7    1  0.4966153E-006  0.1447917E+03  0.7561462E-02  0.1207023E+00
          2   -1    0    0  501    0  0.00000000000E+00  0.00000000000E+00  0.10130559605E+03  0.10130559605E+03  0.00000000000E+00 0. -1.
         -2   -1    0    0    0  501 -0.00000000000E+00 -0.00000000000E+00 -0.25656354766E+03  0.25656354766E+03  0.00000000000E+00 0.  1.
         23    2    1    2    0    0  0.14921464413E+02 -0.11315211934E+03 -0.12007905973E+03  0.20758884066E+03  0.12509234177E+03 0.  0.
          5    1    3    3  502    0 -0.77974441211E+01 -0.13579173282E+03 -0.88127824688E+02  0.16212396714E+03  0.41800000000E+01 0.  1.
         -5    1    3    3    0  502  0.22718908534E+02  0.22639613480E+02 -0.31951235042E+02  0.45464873521E+02  0.41800000000E+01 0.  1.
        -11    1    1    2    0    0 -0.20153142068E+02  0.21917121726E+02 -0.49515220080E+02  0.57777732558E+02  0.00000000000E+00 0.  1.
         11    1    1    2    0    0  0.52316776555E+01  0.91234997617E+02  0.14336328205E+02  0.92502570493E+02  0.00000000000E+00 0. -1.
</event>
<event>
 7    1  0.4966153E-006  0.1119436E+03  0.7561462E-02  0.1257012E+00
         -2   -1    0    0    0  501 -0.00000000000E+00  0.00000000000E+00  0.46358520780E+02  0.46358520780E+02  0.00000000000E+00 0.  1.
          2   -1    0    0  501    0  0.00000000000E+00 -0.00000000000E+00 -0.34649280276E+03  0.34649280276E+03  0.00000000000E+00 0. -1.
         23    2    1    2    0    0  0.41707997420E+02  0.34650527776E+02 -0.10662119560E+03  0.17307602971E+03  0.12508803533E+03 0.  0.
          5    1    3    3  502    0 -0.20440149630E+02  0.55801951538E+02 -0.85066212806E+02  0.10385273455E+03  0.41800000000E+01 0.  1.
         -5    1    3    3    0  502  0.62148147051E+02 -0.21151423762E+02 -0.21554982793E+02  0.69223295155E+02  0.41800000000E+01 0.  1.
        -11    1    1    2    0    0 -0.22788321314E+02  0.26248540022E+02 -0.36988164141E+02  0.50758425193E+02  0.00000000000E+00 0.  1.
         11    1    1    2    0    0 -0.18919676106E+02 -0.60899067798E+02 -0.15652492224E+03  0.16901686864E+03  0.00000000000E+00 0. -1.
</event>
<event>
 7    1  0.4966153E-006  0.6995385E+02  0.7561462E-02  0.1360250E+00
         -2   -1    0    0    0  501 -0.00000000000E+00  0.00000000000E+00  0.39299865489E+02  0.39299865489E+02  0.00000000000E+00 0.  1.
          2   -1    0    0  501    0  0.00000000000E+00 -0.00000000000E+00 -0.35190058354E+03  0.35190058354E+03  0.00000000000E+00 0. -1.
         23    2    1    2    0    0  0.59047462747E+01 -0.21268205227E+02 -0.10874938813E+03  0.16721894152E+03  0.12509413416E+03 0.  0.
          5    1    3    3  502    0  0.22568432317E+02 -0.23884536889E+02  0.19070903263E+02  0.38222728722E+02  0.41800000000E+01 0.  1.
         -5    1    3    3    0  502 -0.16663686043E+02  0.26163316627E+01 -0.12782029139E+03  0.12899621279E+03  0.41800000000E+01 0.  1.
        -11    1    1    2    0    0  0.35596234524E+02 -0.10531078303E+02 -0.56258253376E+02  0.67401680954E+02  0.00000000000E+00 0. -1.
         11    1    1    2    0    0 -0.41500980798E+02  0.31799283530E+02 -0.14759307655E+03  0.15657982656E+03  0.00000000000E+00 0.  1.
</event>
<event>
 6    1  0.4966153E-006  0.9983914E+02  0.7561462E-02  0.1280635E+00
         -2   -1    0    0    0  501 -0.00000000000E+00  0.00000000000E+00  0.98802165583E+02  0.98802165583E+02  0.00000000000E+00 0.  1.
          2   -1    0    0  501    0  0.00000000000E+00 -0.00000000000E+00 -0.17735988587E+03  0.17735988587E+03  0.00000000000E+00 0. -1.
          5    1    1    2  502    0 -0.48082789842E+02  0.19465974806E+02  0.54759501903E+02  0.75544386309E+02  0.41800000000E+01 0. -1.
         -5    1    1    2    0  502  0.44221810272E+02  0.15896590333E+02 -0.46508726938E+02  0.66248050306E+02  0.41800000000E+01 0.  1.
        -11    1    1    2    0    0  0.32281002171E+02 -0.56478376193E+02 -0.42726793563E+02  0.77829614972E+02  0.00000000000E+00 0.  1.
         11    1    1    2    0    0 -0.28420022601E+02  0.21115811054E+02 -0.44081701692E+02  0.56539999869E+02  0.00000000000E+00 0. -1.
</event>
<event>
 7    1  0.4966153E-006  0.1374672E+03  0.7561462E-02  0.1216778E+00
          2   -1    0    0  501    0  0.00000000000E+00  0.00000000000E+00  0.29852689224E+03  0.29852689224E+03  0.00000000000E+00 0.  1.
         -2   -1    0    0    0  501 -0.00000000000E+00 -0.00000000000E+00 -0.79390050432E+02  0.79390050432E+02  0.00000000000E+00 0. -1.
         23    2    1    2    0    0 -0.80349903230E+02 -0.73109855498E+02  0.97792920859E+02  0.19238924399E+03  0.12509599479E+03 0.  0.
          5    1    3    3  502    0  0.31268482626E+02 -0.35992481022E+02  0.31588981482E+02  0.57345556470E+02  0.41800000000E+01 0. -1.
         -5    1    3    3    0  502 -0.11161838586E+03 -0.37117374476E+02  0.66203939377E+02  0.13504368752E+03  0.41800000000E+01 0. -1.
        -11    1    1    2    0    0  0.42631688650E+02  0.47248988021E+02  0.90510614320E+01  0.64279463744E+02  0.00000000000E+00 0. -1.
         11    1    1    2    0    0  0.37718214580E+02  0.25860867477E+02  0.11229285952E+03  0.12124823495E+03  0.00000000000E+00 0.  1.
</event>
<event>
 7    1  0.8359134E-006  0.2831309E+03  0.7561462E-02  0.1093991E+00
          2   -1    0    0  501    0  0.00000000000E+00  0.00000000000E+00  0.10539980575E+04  0.10539980575E+04  0.00000000000E+00 0. -1.
         -2   -1    0    0    0  501 -0.00000000000E+00 -0.00000000000E+00 -0.80782184616E+02  0.80782184616E+02  0.00000000000E+00 0.  1.
         23    2    1    2    0    0 -0.19198971879E+03  0.18755326778E+03  0.43042721019E+03  0.52244755765E+03  0.12509031475E+03 0.  0.
          5    1    3    3  502    0 -0.32137935233E+02  0.10667592286E+03  0.11843766294E+03  0.16265777510E+03  0.41800000000E+01 0.  1.
         -5    1    3    3    0  502 -0.15985178355E+03  0.80877344915E+02  0.31198954726E+03  0.35978978255E+03  0.41800000000E+01 0.  1.
        -11    1    1    2    0    0  0.71019820650E+02 -0.11303912153E+03  0.19186720838E+03  0.23374063312E+03  0.00000000000E+00 0. -1.
         11    1    1    2    0    0  0.12096989814E+03 -0.74514146244E+02  0.35092145432E+03  0.37859205135E+03  0.00000000000E+00 0.  1.
</event>
<event>
 7    1  0.4966153E-006  0.2597957E+03  0.7561462E-02  0.1107266E+00
         -2   -1    0    0    0  501 -0.00000000000E+00  0.00000000000E+00  0.15930292198E+03  0.15930292198E+03  0.00000000000E+00 0.  1.
          2   -1    0    0  501    0  0.00000000000E+00 -0.00000000000E+00 -0.56548561988E+03  0.56548561988E+03  0.00000000000E+00 0. -1.
         23    2    1    2    0    0  0.21900933144E+02  0.24184363302E+03 -0.39008481625E+02  0.27593034888E+03  0.12509157481E+03 0.  0.
          5    1    3    3  502    0 -0.40446094590E+02  0.16022114639E+03 -0.49624475584E+02  0.17258842167E+03  0.41800000000E+01 0. -1.
         -5    1    3    3    0  502  0.62347027734E+02  0.81622486638E+02  0.10615993959E+02  0.10334192721E+03  0.41800000000E+01 0. -1.
        -11    1    1    2    0    0 -0.44862625048E+02 -0.13666776302E+03 -0.15841952948E+03  0.21398009229E+03  0.00000000000E+00 0.  1.
         11    1    1    2    0    0  0.22961691903E+02 -0.10517587000E+03 -0.20875468679E+03  0.23487810069E+03  0.00000000000E+00 0. -1.
</event>
<event>
 7    1  0.4966153E-006  0.8632360E+02  0.7561462E-02  0.1312007E+00
         -2   -1    0    0    0  501 -0.00000000000E+00  0.00000000000E+00  0.29893161872E+03  0.29893161872E+03  0.00000000000E+00 0.  1.
          2   -1    0    0  501    0  0.00000000000E+00 -0.00000000000E+00 -0.51109488306E+02  0.51109488306E+02  0.00000000000E+00 0. -1.
         23    2    1    2    0    0 -0.12709464640E+02 -0.50349168080E+02  0.17916095749E+03  0.22458998169E+03  0.12508174114E+03 0.  0.
          5    1    3    3  502    0 -0.40680508358E+02 -0.68707234730E+02  0.57874959801E+02  0.98704464116E+02  0.41800000000E+01 0.  1.
         -5    1    3    3    0  502  0.27971043718E+02  0.18358066650E+02  0.12128599769E+03  0.12588551757E+03  0.41800000000E+01 0.  1.
        -11    1    1    2    0    0 -0.48511013700E+01  0.35916368342E+02 -0.14652435134E+02  0.39092359288E+02  0.00000000000E+00 0. -1.
         11    1    1    2    0    0  0.17560566010E+02  0.14432799739E+02  0.83313608051E+02  0.86358766048E+02  0.00000000000E+00 0.  1.
</event>
<event>
 7    1  0.4966153E-006  0.1204030E+03  0.7561462E-02  0.1242434E+00
          2   -1    0    0  501    0  0.00000000000E+00  0.00000000000E+00  0.26881954164E+03  0.26881954164E+03  0.00000000000E+00 0. -1.
         -2   -1    0    0    0  501 -0.00000000000E+00 -0.00000000000E+00 -0.85653514272E+02  0.85653514272E+02  0.00000000000E+00 0.  1.
         23    2    1    2    0    0  0.32681519600E+02  0.59637777344E+02 -0.12132797255E+00  0.14237545368E+03  0.12508400729E+03 0.  0.
          5    1    3    3  502    0  0.80822161113E+02  0.36446970027E+02  0.10303872761E+01  0.88764505570E+02  0.41800000000E+01 0.  1.
         -5    1    3    3    0  502 -0.48140641513E+02  0.23190807317E+02 -0.11517152487E+01  0.53610948110E+02  0.41800000000E+01 0.  1.
        -11    1    1    2    0    0 -0.51332436308E+02 -0.61028144570E+02  0.17358800655E+03  0.19102944660E+03  0.00000000000E+00 0. -1.
         11    1    1    2    0    0  0.18650916708E+02  0.13903672262E+01  0.96993487870E+01  0.21068155637E+02  0.00000000000E+00 0.  1.
</event>
<event>
 7    1  0.4966153E-006  0.2024287E+03  0.7561462E-02  0.1147706E+00
         -3   -1    0    0    0  501 -0.00000000000E+00  0.00000000000E+00  0.49202058019E+02  0.49202058019E+02  0.00000000000E+00 0.  1.
          3   -1    0    0  501    0  0.00000000000E+00 -0.00000000000E+00 -0.10205099818E+04  0.10205099818E+04  0.00000000000E+00 0. -1.
         23    2    1    2    0    0 -0.16381770432E+03 -0.91909104984E+02 -0.37135387582E+03  0.43447562103E+03  0.12482724206E+03 0.  0.
          5    1    3    3  502    0 -0.55240028865E+02  0.11574635354E+02 -0.19438119123E+03  0.20245234718E+03  0.41800000000E+01 0. -1.
         -5    1    3    3    0  502 -0.10857767545E+03 -0.10348374034E+03 -0.17697268458E+03  0.23202327385E+03  0.41800000000E+01 0. -1.
        -11    1    1    2    0    0  0.75430634120E+02  0.78405621754E+02 -0.42567871745E+03  0.43936271187E+03  0.00000000000E+00 0. -1.
         11    1    1    2    0    0  0.88387070198E+02  0.13503483229E+02 -0.17427533051E+03  0.19587370692E+03  0.00000000000E+00 0.  1.
</event>
<event>
 7    1  0.4966153E-006  0.7603904E+02  0.7561462E-02  0.1340683E+00
          2   -1    0    0  501    0  0.00000000000E+00  0.00000000000E+00  0.32420747720E+03  0.32420747720E+03  0.00000000000E+00 0. -1.
         -2   -1    0    0    0  501 -0.00000000000E+00 -0.00000000000E+00 -0.40852120511E+02  0.40852120511E+02  0.00000000000E+00 0.  1.
         23    2    1    2    0    0  0.10785998120E+02  0.35536158417E+02  0.14585800370E+03  0.19570679821E+03  0.12508971705E+03 0.  0.
          5    1    3    3  502    0  0.28802051693E+02  0.26594252926E+01  0.15430721344E+03  0.15705037167E+03  0.41800000000E+01 0.  1.
         -5    1    3    3    0  502 -0.18016053573E+02  0.32876733124E+02 -0.84492097352E+01  0.38656426534E+02  0.41800000000E+01 0.  1.
        -11    1    1    2    0    0 -0.39949877123E+01  0.24443797322E+02  0.87606867625E+02  0.91040773335E+02  0.00000000000E+00 0. -1.
         11    1    1    2    0    0 -0.67910104081E+01 -0.59979955738E+02  0.49890485365E+02  0.78312026169E+02  0.00000000000E+00 0.  1.
</event>
<event>
 7    1  0.4966153E-006  0.5990808E+02  0.7561462E-02  0.1398218E+00
         -2   -1    0    0    0  501 -0.00000000000E+00  0.00000000000E+00  0.31567090249E+02  0.31567090249E+02  0.00000000000E+00 0.  1.
          2   -1    0    0  501    0  0.00000000000E+00 -0.00000000000E+00 -0.46094454039E+03  0.46094454039E+03  0.00000000000E+00 0. -1.
         23    2    1    2    0    0 -0.49070947868E+02 -0.65457230992E+01 -0.23295110620E+03  0.26900741881E+03  0.12509184256E+03 0.  0.
          5    1    3    3  502    0 -0.32785666398E+01  0.12418907994E+02 -0.21605378378E+03  0.21647560639E+03  0.41800000000E+01 0. -1.
         -5    1    3    3    0  502 -0.45792381228E+02 -0.18964631093E+02 -0.16897322426E+02  0.52531812421E+02  0.41800000000E+01 0. -1.
        -11    1    1    2    0    0  0.13216539277E+02 -0.10489391023E+02  0.54737683288E+01  0.17738838018E+02  0.00000000000E+00 0.  1.
         11    1    1    2    0    0  0.35854408591E+02  0.17035114122E+02 -0.20190011226E+03  0.20576537381E+03  0.00000000000E+00 0. -1.
</event>
<event>
 7    1  0.4966153E-006  0.9279731E+02  0.7561462E-02  0.1296216E+00
         -1   -1    0    0    0  501 -0.00000000000E+00  0.00000000000E+00  0.33122661315E+03  0.33122661315E+03  0.00000000000E+00 0.  1.
          1   -1    0    0  501    0  0.00000000000E+00 -0.00000000000E+00 -0.52057027026E+02  0.52057027026E+02  0.00000000000E+00 0. -1.
         23    2    1    2    0    0 -0.28185680965E+02  0.12211461397E+02  0.24815902753E+03  0.27959633417E+03  0.12509058612E+03 0.  0.
          5    1    3    3  502    0 -0.42078620686E+02  0.44587598580E+02  0.52729131405E+02  0.80972204889E+02  0.41800000000E+01 0.  1.
         -5    1    3    3    0  502  0.13892939721E+02 -0.32376137183E+02  0.19542989612E+03  0.19862412928E+03  0.41800000000E+01 0.  1.
        -11    1    1    2    0    0  0.52463242963E+02 -0.28233907852E+02  0.41673449034E+02  0.72706408034E+02  0.00000000000E+00 0.  1.
         11    1    1    2    0    0 -0.24277561998E+02  0.16022446455E+02 -0.10662890436E+02  0.30980897977E+02  0.00000000000E+00 0. -1.
</event>
<event>
 7    1  0.4966153E-006  0.6840014E+02  0.7561462E-02  0.1365620E+00
         -2   -1    0    0    0  501 -0.00000000000E+00  0.00000000000E+00  0.14909259759E+03  0.14909259759E+03  0.00000000000E+00 0.  1.
          2   -1    0    0  501    0  0.00000000000E+00 -0.00000000000E+00 -0.11188323367E+03  0.11188323367E+03  0.00000000000E+00 0. -1.
         23    2    1    2    0    0 -0.47532094213E+02  0.31055124127E+02  0.70698041377E+02  0.15449617376E+03  0.12508850441E+03 0.  0.
          5    1    3    3  502    0 -0.51836593910E+02  0.15747840481E+02  0.10400983270E+03  0.11734796396E+03  0.41800000000E+01 0.  1.
         -5    1    3    3    0  502  0.43044996976E+01  0.15307283646E+02 -0.33311791320E+02  0.37148209798E+02  0.41800000000E+01 0.  1.
        -11    1    1    2    0    0 -0.23312630349E+01 -0.12661638650E+02 -0.49361118600E+02  0.51012468183E+02  0.00000000000E+00 0. -1.
         11    1    1    2    0    0  0.49863357247E+02 -0.18393485477E+02  0.15872441145E+02  0.55467189327E+02  0.00000000000E+00 0.  1.
</event>
<event>
 6    1  0.4966153E-006  0.1059616E+03  0.7561462E-02  0.1268237E+00
         -2   -1    0    0    0  501 -0.00000000000E+00  0.00000000000E+00  0.99659179307E+02  0.99659179307E+02  0.00000000000E+00 0.  1.
          2   -1    0    0  501    0  0.00000000000E+00 -0.00000000000E+00 -0.24842378844E+03  0.24842378844E+03  0.00000000000E+00 0. -1.
          5    1    1    2  502    0 -0.62735994776E+02 -0.50873201565E+02 -0.38667543934E+02  0.89646745797E+02  0.41800000000E+01 0. -1.
         -5    1    1    2    0  502  0.16893425392E+02  0.34454365174E+02  0.52564880634E+02  0.65215260308E+02  0.41800000000E+01 0.  1.
        -11    1    1    2    0    0  0.63579003889E+02 -0.59960382486E+01 -0.14779621199E+03  0.16100298906E+03  0.00000000000E+00 0. -1.
         11    1    1    2    0    0 -0.17736434505E+02  0.22414874640E+02 -0.14865733845E+02  0.32217972575E+02  0.00000000000E+00 0.  1.
</event>
<event>
 7    1  0.4966153E-006  0.1095520E+03  0.7561462E-02  0.1261402E+00
         -1   -1    0    0    0  501 -0.00000000000E+00  0.00000000000E+00  0.23099318103E+02  0.23099318103E+02  0.00000000000E+00 0.  1.
          1   -1    0    0  501    0  0.00000000000E+00 -0.00000000000E+00 -0.62536763443E+03  0.62536763443E+03  0.00000000000E+00 0. -1.
         23    2    1    2    0    0 -0.40786061017E+02  0.21613469316E+02 -0.40757294210E+03  0.42882737452E+03  0.12508624695E+03 0.  0.
          5    1    3    3  502    0 -0.24642820720E+02 -0.48520432806E+02 -0.24471163197E+03  0.25072446277E+03  0.41800000000E+01 0. -1.
         -5    1    3    3    0  502 -0.16143240297E+02  0.70133902123E+02 -0.16286131013E+03  0.17810291174E+03  0.41800000000E+01 0. -1.
        -11    1    1    2    0    0 -0.78289306599E+01  0.24321916089E+02 -0.19593840355E+02  0.32198856150E+02  0.00000000000E+00 0.  1.
         11    1    1    2    0    0  0.48614991677E+02 -0.45935385406E+02 -0.17510153387E+03  0.18744072186E+03  0.00000000000E+00 0. -1.
</event>
<event>
 7    1  0.4966153E-006  0.2333753E+03  0.7561462E-02  0.1124286E+00
          1   -1    0    0  501    0  0.00000000000E+00  0.00000000000E+00  0.18651322148E+03  0.18651322148E+03  0.00000000000E+00 0. -1.
         -1   -1    0    0    0  501 -0.00000000000E+00 -0.00000000000E+00 -0.36949263589E+03  0.36949263589E+03  0.00000000000E+00 0.  1.
         23    2    1    2    0    0 -0.71517422087E+02  0.20274568977E+03 -0.20514530840E+03  0.32241806933E+03  0.12509299537E+03 0.  0.
          5    1    3    3  502    0  0.22423219802E+02  0.10693129816E+02  0.12491659811E+01  0.25222542045E+02  0.41800000000E+01 0.  1.
         -5    1    3    3    0  502 -0.93940641888E+02  0.19205255996E+03 -0.20639447438E+03  0.29719552729E+03  0.41800000000E+01 0.  1.
        -11    1    1    2    0    0  0.54132454401E+02 -0.49061640967E+02  0.29408151176E+02  0.78754089351E+02  0.00000000000E+00 0. -1.
         11    1    1    2    0    0  0.17384967685E+02 -0.15368404881E+03 -0.72422571927E+01  0.15483369869E+03  0.00000000000E+00 0.  1.
</event>
<event>
 7    1  0.4966153E-006  0.1323299E+03  0.7561462E-02  0.1224039E+00
         -2   -1    0    0    0  501 -0.00000000000E+00  0.00000000000E+00  0.28318856568E+03  0.28318856568E+03  0.00000000000E+00 0. -1.
          2   -1    0    0  501    0  0.00000000000E+00 -0.00000000000E+00 -0.79868614948E+02  0.79868614948E+02  0.00000000000E+00 0.  1.
         23    2    1    2    0    0 -0.75691332861E+02 -0.80206363654E+02  0.12412315704E+03  0.20788266536E+03  0.12508559391E+03 0.  0.
          5    1    3    3  502    0 -0.13994499906E+02 -0.66264689167E+02  0.12746845151E+03  0.14440406362E+03  0.41800000000E+01 0. -1.
         -5    1    3    3    0  502 -0.61696832955E+02 -0.13941674487E+02 -0.33452944773E+01  0.63478601744E+02  0.41800000000E+01 0. -1.
        -11    1    1    2    0    0  0.55719323962E+02  0.53917121299E+01  0.34821491643E+02  0.65926094247E+02  0.00000000000E+00 0. -1.
         11    1    1    2    0    0  0.19972008899E+02  0.74814651524E+02  0.44375302051E+02  0.89248421018E+02  0.00000000000E+00 0.  1.
</event>
<event>
 7    1  0.4966153E-006  0.1417752E+03  0.7561462E-02  0.1210960E+00
          2   -1    0    0  501    0  0.00000000000E+00  0.00000000000E+00  0.57188818450E+02  0.57188818450E+02  0.00000000000E+00 0. -1.
         -2   -1    0    0    0  501 -0.00000000000E+00 -0.00000000000E+00 -0.64167526659E+03  0.64167526659E+03  0.00000000000E+00 0.  1.
         23    2    1    2    0    0 -0.41727204879E+02  0.79794561138E+02 -0.53791517875E+03  0.55956103463E+03  0.12508988901E+03 0.  0.
          5    1    3    3  502    0  0.35350090447E+02 -0.86995069416E+01 -0.13446919697E+03  0.13937269335E+03  0.41800000000E+01 0.  1.
         -5    1    3    3    0  502 -0.77077295326E+02  0.88494068080E+02 -0.40344598178E+03  0.42018834128E+03  0.41800000000E+01 0.  1.
        -11    1    1    2    0    0  0.55157149487E+02 -0.71697332327E+01 -0.31511239230E+02  0.63927102328E+02  0.00000000000E+00 0.  1.
         11    1    1    2    0    0 -0.13429944609E+02 -0.72624827905E+02 -0.15060030158E+02  0.75375948079E+02  0.00000000000E+00 0. -1.
</event>
<event>
 7    1  0.4966153E-006  0.1285837E+03  0.7561462E-02  0.1229573E+00
          1   -1    0    0  501    0  0.00000000000E+00  0.00000000000E+00  0.32140377152E+03  0.32140377152E+03  0.00000000000E+00 0. -1.
         -1   -1    0    0    0  501 -0.00000000000E+00 -0.00000000000E+00 -0.69660599385E+02  0.69660599385E+02  0.00000000000E+00 0.  1.
         23    2    1    2    0    0  0.46645697464E+02  0.80226906847E+02  0.77780756630E+02  0.17409589217E+03  0.12508939162E+03 0.  0.
          5    1    3    3  502    0  0.70574690032E+02  0.38097885988E+02  0.93248303716E+02  0.12306483793E+03  0.41800000000E+01 0.  1.
         -5    1    3    3    0  502 -0.23928992568E+02  0.42129020859E+02 -0.15467547086E+02  0.51031054238E+02  0.41800000000E+01 0.  1.
        -11    1    1    2    0    0  0.21358833536E+02  0.20806837492E+01  0.42513535376E+02  0.47622785566E+02  0.00000000000E+00 0. -1.
         11    1    1    2    0    0 -0.68004531000E+02 -0.82307590596E+02  0.13144888012E+03  0.16934569316E+03  0.00000000000E+00 0.  1.
</event>
<event>
 6    1  0.4966153E-006  0.9845925E+02  0.7561462E-02  0.1283570E+00
         -1   -1    0    0    0  501 -0.00000000000E+00  0.00000000000E+00  0.17270124912E+03  0.17270124912E+03  0.00000000000E+00 0.  1.
          1   -1    0    0  501    0  0.00000000000E+00 -0.00000000000E+00 -0.81714326397E+02  0.81714326397E+02  0.00000000000E+00 0. -1.
          5    1    1    2  502    0  0.61738011377E+02 -0.37568935710E+02  0.96134237163E+02  0.12034230733E+03  0.41800000000E+01 0. -1.
         -5    1    1    2    0  502 -0.30163916697E+02  0.23433671302E+01 -0.23031387755E+02  0.38252718360E+02  0.41800000000E+01 0.  1.
        -11    1    1    2    0    0 -0.57427439177E+02  0.36593773450E+02  0.15374563898E+02  0.69809685867E+02  0.00000000000E+00 0.  1.
         11    1    1    2    0    0  0.25853344497E+02 -0.13682048701E+01  0.25095094161E+01  0.26010863956E+02  0.00000000000E+00 0. -1.
</event>
<event>
 7    1  0.4966153E-006  0.6852973E+02  0.7561462E-02  0.1365165E+00
          1   -1    0    0  501    0  0.00000000000E+00  0.00000000000E+00  0.36688279611E+03  0.36688279611E+03  0.00000000000E+00 0. -1.
         -1   -1    0    0    0  501 -0.00000000000E+00 -0.00000000000E+00 -0.39786101969E+02  0.39786101969E+02  0.00000000000E+00 0.  1.
         23    2    1    2    0    0 -0.35960632643E+02  0.84467578278E+01  0.11466296360E+03  0.17366533148E+03  0.12509011679E+03 0.  0.
          5    1    3    3  502    0 -0.37190298970E+00  0.41843920910E+01 -0.26915594304E+02  0.27560280582E+02  0.41800000000E+01 0. -1.
         -5    1    3    3    0  502 -0.35588729653E+02  0.42623657367E+01  0.14157855790E+03  0.14610505089E+03  0.41800000000E+01 0. -1.
        -11    1    1    2    0    0 -0.12727854306E+02 -0.36638216367E+02  0.10053150273E+03  0.10775407284E+03  0.00000000000E+00 0.  1.
         11    1    1    2    0    0  0.48688486949E+02  0.28191458540E+02  0.11190222782E+03  0.12524949376E+03  0.00000000000E+00 0. -1.
</event>
<event>
 7    1  0.4966153E-006  0.1760711E+03  0.7561462E-02  0.1171660E+00
          1   -1    0    0  501    0  0.00000000000E+00  0.00000000000E+00  0.22838683799E+03  0.22838683799E+03  0.00000000000E+00 0. -1.
         -1   -1    0    0    0  501 -0.00000000000E+00 -0.00000000000E+00 -0.16039010624E+03  0.16039010624E+03  0.00000000000E+00 0.  1.
         23    2    1    2    0    0 -0.14096545501E+03  0.56939589114E+02 -0.50686631041E+01  0.19694400756E+03  0.12509146435E+03 0.  0.
          5    1    3    3  502    0  0.20173826147E+02 -0.90436006424E+01  0.22691208820E+01  0.22613962138E+02  0.41800000000E+01 0.  1.
         -5    1    3    3    0  502 -0.16113928116E+03  0.65983189757E+02 -0.73377839861E+01  0.17433004542E+03  0.41800000000E+01 0.  1.
        -11    1    1    2    0    0  0.82206728180E+02 -0.50201525666E+02  0.88394026693E+02  0.13073501173E+03  0.00000000000E+00 0. -1.
         11    1    1    2    0    0  0.58758726830E+02 -0.67380634481E+01 -0.15328631836E+02  0.61097924938E+02  0.00000000000E+00 0.  1.
</event>
<event>
 7    1  0.4966153E-006  0.1087555E+03  0.7561462E-02  0.1262892E+00
         -1   -1    0    0    0  501 -0.00000000000E+00  0.00000000000E+00  0.14382802037E+03  0.14382802037E+03  0.00000000000E+00 0.  1.
          1   -1    0    0  501    0  0.00000000000E+00 -0.00000000000E+00 -0.15552905151E+03  0.15552905151E+03  0.00000000000E+00 0. -1.
         23    2    1    2    0    0 -0.43019043737E+02 -0.31987057876E+02  0.75894048060E+02  0.15582395240E+03  0.12508951840E+03 0.  0.
          5    1    3    3  502    0  0.63123269477E+01  0.26892022100E+02 -0.18909907263E+02  0.33735490463E+02  0.41800000000E+01 0. -1.
         -5    1    3    3    0  502 -0.49331370684E+02 -0.58879079975E+02  0.94803955323E+02  0.12208846193E+03  0.41800000000E+01 0. -1.
        -11    1    1    2    0    0  0.58079263695E+02  0.58322631849E+02 -0.54939205845E+02  0.98959823141E+02  0.00000000000E+00 0.  1.
         11    1    1    2    0    0 -0.15060219958E+02 -0.26335573973E+02 -0.32655873361E+02  0.44573296340E+02  0.00000000000E+00 0. -1.
</event>
<event>
 7    1  0.4966153E-006  0.1159748E+03  0.7561462E-02  0.1249889E+00
          2   -1    0    0  501    0  0.00000000000E+00  0.00000000000E+00  0.48250294132E+03  0.48250294132E+03  0.00000000000E+00 0. -1.
         -2   -1    0    0    0  501 -0.00000000000E+00 -0.00000000000E+00 -0.34577995938E+02  0.34577995938E+02  0.00000000000E+00 0.  1.
         23    2    1    2    0    0 -0.37488042165E+02 -0.60084064900E+02  0.24266311430E+03  0.28204315147E+03  0.12508998397E+03 0.  0.
          5    1    3    3  502    0 -0.76286948004E+02 -0.48573673952E+02  0.21374292356E+03  0.23212628031E+03  0.41800000000E+01 0. -1.
         -5    1    3    3    0  502  0.38798905839E+02 -0.11510390948E+02  0.28920190732E+02  0.49916871157E+02  0.41800000000E+01 0. -1.
        -11    1    1    2    0    0 -0.15031123774E+02  0.42920712874E+02  0.39248651894E+02  0.60071448717E+02  0.00000000000E+00 0.  1.
         11    1    1    2    0    0  0.52519165939E+02  0.17163352026E+02  0.16601317919E+03  0.17496633707E+03  0.00000000000E+00 0. -1.
</event>
<event>
 7    1  0.4966153E-006  0.1200191E+03  0.7561462E-02  0.1243066E+00
         -2   -1    0    0    0  501 -0.00000000000E+00  0.00000000000E+00  0.55673449180E+02  0.55673449180E+02  0.00000000000E+00 0.  1.
          2   -1    0    0  501    0  0.00000000000E+00 -0.00000000000E+00 -0.30849002945E+03  0.30849002945E+03  0.00000000000E+00 0. -1.
         23    2    1    2    0    0  0.60459940376E+02 -0.39443051824E+02 -0.15561810265E+03  0.21231206490E+03  0.12509300660E+03 0.  0.
          5    1    3    3  502    0 -0.20444536543E+02 -0.55888526668E+02 -0.83426299832E+02  0.10256181741E+03  0.41800000000E+01 0.  1.
         -5    1    3    3    0  502  0.80904476919E+02  0.16445474844E+02 -0.72191802822E+02  0.10975024749E+03  0.41800000000E+01 0.  1.
        -11    1    1    2    0    0 -0.66090102076E+02  0.51908686778E+02 -0.40058740393E+02  0.93097347101E+02  0.00000000000E+00 0.  1.
         11    1    1    2    0    0  0.56301616997E+01 -0.12465634953E+02 -0.57139737228E+02  0.58754066634E+02  0.00000000000E+00 0. -1.
</event>
<event>
 7    1  0.4966153E-006  0.6923487E+02  0.7561462E-02  0.1362714E+00
          2   -1    0    0  501    0  0.00000000000E+00  0.00000000000E+00  0.68015351817E+02  0.68015351817E+02  0.00000000000E+00 0. -1.
         -2   -1    0    0    0  501 -0.00000000000E+00 -0.00000000000E+00 -0.18738680972E+03  0.18738680972E+03  0.00000000000E+00 0.  1.
         23    2    1    2    0    0  0.31694353626E+02 -0.53609059996E+01 -0.99686054510E+02  0.16314576975E+03  0.12508381733E+03 0.  0.
          5    1    3    3  502    0 -0.21812989500E+02 -0.21363712337E+02 -0.10253706850E+03  0.10706791084E+03  0.41800000000E+01 0. -1.
         -5    1    3    3    0  502  0.53507343126E+02  0.16002806338E+02  0.28510139861E+01  0.56077858909E+02  0.41800000000E+01 0. -1.
        -11    1    1    2    0    0  0.97505661803E+01  0.26984063763E+01  0.27556585695E+02  0.29355073717E+02  0.00000000000E+00 0. -1.
         11    1    1    2    0    0 -0.41444919806E+02  0.26624996233E+01 -0.47241989083E+02  0.62901318067E+02  0.00000000000E+00 0.  1.
</event>
<event>
 7    1  0.4966153E-006  0.1036297E+03  0.7561462E-02  0.1272843E+00
          2   -1    0    0  501    0  0.00000000000E+00  0.00000000000E+00  0.65246172620E+03  0.65246172620E+03  0.00000000000E+00 0. -1.
         -2   -1    0    0    0  501 -0.00000000000E+00 -0.00000000000E+00 -0.20221585552E+02  0.20221585552E+02  0.00000000000E+00 0.  1.
         23    2    1    2    0    0 -0.31471033055E+02 -0.11613195699E+02  0.30260473886E+03  0.32915263746E+03  0.12508612444E+03 0.  0.
          5    1    3    3  502    0 -0.68683778804E+02 -0.21212783464E+02  0.10199090495E+03  0.12484815075E+03  0.41800000000E+01 0.  1.
         -5    1    3    3    0  502  0.37212745749E+02  0.95995877649E+01  0.20061383391E+03  0.20430448671E+03  0.41800000000E+01 0.  1.
        -11    1    1    2    0    0  0.15210488063E+02 -0.39834249504E+02  0.15404216906E+03  0.15983465278E+03  0.00000000000E+00 0. -1.
         11    1    1    2    0    0  0.16260544992E+02  0.51447445203E+02  0.17559323273E+03  0.18369602152E+03  0.00000000000E+00 0.  1.
</event>
<event>
 7    1  0.4966153E-006  0.1339657E+03  0.7561462E-02  0.1221687E+00
          1   -1    0    0  501    0  0.00000000000E+00  0.00000000000E+00  0.19929713221E+03  0.19929713221E+03  0.00000000000E+00 0. -1.
         -1   -1    0    0    0  501 -0.00000000000E+00 -0.00000000000E+00 -0.12920913585E+03  0.12920913585E+03  0.00000000000E+00 0.  1.
         23    2    1    2    0    0  0.45003597959E+02  0.10547526548E+03  0.11783221190E+02  0.17011061515E+03  0.12509365143E+03 0.  0.
          5    1    3    3  502    0  0.38549824822E+02  0.43591639513E+02  0.65563868922E+02  0.87763394062E+02  0.41800000000E+01 0. -1.
         -5    1    3    3    0  502  0.64537731369E+01  0.61883625967E+02 -0.53780647732E+02  0.82347221089E+02  0.41800000000E+01 0. -1.
        -11    1    1    2    0    0 -0.64533300721E+02 -0.33615589096E+02  0.26870696944E+02  0.77566675102E+02  0.00000000000E+00 0.  1.
         11    1    1    2    0    0  0.19529702762E+02 -0.71859676384E+02  0.31434078224E+02  0.80828977810E+02  0.00000000000E+00 0. -1.
</event>
<event>
 7    1  0.4966153E-006  0.1030251E+03  0.7561462E-02  0.1274060E+00
          2   -1    0    0  501    0  0.00000000000E+00  0.00000000000E+00  0.15710085814E+02  0.15710085814E+02  0.00000000000E+00 0. -1.
         -2   -1    0    0    0  501 -0.00000000000E+00 -0.00000000000E+00 -0.93407291169E+03  0.93407291169E+03  0.00000000000E+00 0.  1.
         23    2    1    2    0    0 -0.33310907902E+02 -0.39766372198E+02 -0.52082074607E+03  0.53813840896E+03  0.12509083389E+03 0.  0.
          5    1    3    3  502    0 -0.88850706302E+01 -0.76823805431E+02 -0.43054450940E+03  0.43745501315E+03  0.41800000000E+01 0.  1.
         -5    1    3    3    0  502 -0.24425837272E+02  0.37057433233E+02 -0.90276236672E+02  0.10068339581E+03  0.41800000000E+01 0.  1.
        -11    1    1    2    0    0 -0.20049439444E+02  0.62184500852E+01 -0.20398229492E+02  0.29270068498E+02  0.00000000000E+00 0. -1.
         11    1    1    2    0    0  0.53360347346E+02  0.33547922113E+02 -0.37714385032E+03  0.38237452005E+03  0.00000000000E+00 0.  1.
</event>
<event>
 7    1  0.4966153E-006  0.1126859E+03  0.7561462E-02  0.1255675E+00
          1   -1    0    0  501    0  0.00000000000E+00  0.00000000000E+00  0.22924330693E+02  0.22924330693E+02  0.00000000000E+00 0. -1.
         -1   -1    0    0    0  501 -0.00000000000E+00 -0.00000000000E+00 -0.59182828114E+03  0.59182828114E+03  0.00000000000E+00 0.  1.
         23    2    1    2    0    0 -0.51926671397E+02  0.74109374707E+01 -0.35442976712E+03  0.37950075752E+03  0.12509621873E+03 0.  0.
          5    1    3    3  502    0  0.31101996426E+02  0.29752514765E+02 -0.69538123303E+02  0.81887540621E+02  0.41800000000E+01 0.  1.
         -5    1    3    3    0  502 -0.83028667823E+02 -0.22341577294E+02 -0.28489164382E+03  0.29761321690E+03  0.41800000000E+01 0.  1.
        -11    1    1    2    0    0  0.67113552421E+02  0.15193849344E+02 -0.14104873927E+03  0.15693893343E+03  0.00000000000E+00 0. -1.
         11    1    1    2    0    0 -0.15186881024E+02 -0.22604786815E+02 -0.73425444058E+02  0.78312920884E+02  0.00000000000E+00 0.  1.
</event>
<event>
 7    1  0.4966153E-006  0.1049910E+03  0.7561462E-02  0.1270137E+00
         -4   -1    0    0    0  501 -0.00000000000E+00  0.00000000000E+00  0.54077377356E+02  0.54077377356E+02  0.00000000000E+00 0. -1.
          4   -1    0    0  501    0  0.00000000000E+00 -0.00000000000E+00 -0.39715163368E+03  0.39715163368E+03  0.00000000000E+00 0.  1.
         23    2    1    2    0    0  0.22256247071E+01 -0.86807778041E+00 -0.34989193038E+02  0.12991505534E+03  0.12509185029E+03 0.  0.
          5    1    3    3  502    0 -0.59012808259E+02  0.12419629137E+02 -0.60084061572E+01  0.60748103436E+02  0.41800000000E+01 0. -1.
         -5    1    3    3    0  502  0.61238432966E+02 -0.13287706917E+02 -0.28980786881E+02  0.69166951902E+02  0.41800000000E+01 0. -1.
        -11    1    1    2    0    0 -0.93800772035E+01  0.42991212046E+02 -0.20601894801E+03  0.21066569986E+03  0.00000000000E+00 0.  1.
         11    1    1    2    0    0  0.71544524965E+01 -0.42123134266E+02 -0.10206611528E+03  0.11064825583E+03  0.00000000000E+00 0. -1.
</event>
<event>
 7    1  0.4966153E-006  0.1276278E+03  0.7561462E-02  0.1231019E+00
          1   -1    0    0  501    0  0.00000000000E+00  0.00000000000E+00  0.15774600164E+03  0.15774600164E+03  0.00000000000E+00 0. -1.
         -1   -1    0    0    0  501 -0.00000000000E+00 -0.00000000000E+00 -0.17480274468E+03  0.17480274468E+03  0.00000000000E+00 0.  1.
         23    2    1    2    0    0  0.10257433137E+03  0.60704162172E+01 -0.81545232544E+02  0.18126263322E+03  0.12509266103E+03 0.  0.
          5    1    3    3  502    0  0.10338064911E+03  0.45255002596E+02 -0.30887464493E+02  0.11707724686E+03  0.41800000000E+01 0.  1.
         -5    1    3    3    0  502 -0.80631774253E+00 -0.39184586379E+02 -0.50657768051E+02  0.64185386358E+02  0.41800000000E+01 0.  1.
        -11    1    1    2    0    0 -0.79035877275E+02 -0.70695929553E+01  0.87660063612E+02  0.11824100724E+03  0.00000000000E+00 0. -1.
         11    1    1    2    0    0 -0.23538454091E+02  0.99917673813E+00 -0.23171574108E+02  0.33045105868E+02  0.00000000000E+00 0.  1.
</event>
<event>
 7    1  0.4966153E-006  0.1054510E+03  0.7561462E-02  0.1269234E+00
          2   -1    0    0  501    0  0.00000000000E+00  0.00000000000E+00  0.79884224022E+03  0.79884224022E+03  0.00000000000E+00 0. -1.
         -2   -1    0    0    0  501 -0.00000000000E+00 -0.00000000000E+00 -0.21764723916E+02  0.21764723916E+02  0.00000000000E+00 0.  1.
         23    2    1    2    0    0 -0.67689993245E+02 -0.29520986288E+02  0.29084622035E+03  0.31994259406E+03  0.11098790829E+03 0.  0.
          5    1    3    3  502    0 -0.18348072935E+02 -0.41118552108E+02  0.25178834608E+03  0.25581679133E+03  0.41800000000E+01 0. -1.
         -5    1    3    3    0  502 -0.49341920311E+02  0.11597565820E+02  0.39057874274E+02  0.64125802729E+02  0.41800000000E+01 0.  1.
        -11    1    1    2    0    0 -0.59674397046E+01  0.39983623214E+02  0.24199152542E+03  0.24534506075E+03  0.00000000000E+00 0.  1.
         11    1    1    2    0    0  0.73657432950E+02 -0.10462636926E+02  0.24423977054E+03  0.25531930932E+03  0.00000000000E+00 0. -1.
</event>
<event>
 7    1  0.4966153E-006  0.7897180E+02  0.7561462E-02  0.1331995E+00
          2   -1    0    0  501    0  0.00000000000E+00  0.00000000000E+00  0.38353308208E+03  0.38353308208E+03  0.00000000000E+00 0. -1.
         -2   -1    0    0    0  501 -0.00000000000E+00 -0.00000000000E+00 -0.31042398191E+02  0.31042398191E+02  0.00000000000E+00 0.  1.
         23    2    1    2    0    0 -0.19933453506E+01  0.24645888533E+02  0.20403075522E+03  0.24059809342E+03  0.12508996857E+03 0.  0.
          5    1    3    3  502    0  0.29973086379E+02  0.26129075595E+02  0.20444990241E+03  0.20832270518E+03  0.41800000000E+01 0.  1.
         -5    1    3    3    0  502 -0.31966431730E+02 -0.14831870620E+01 -0.41914719641E+00  0.32275388236E+02  0.41800000000E+01 0.  1.
        -11    1    1    2    0    0  0.40943512543E+02 -0.22407793637E+02  0.51720094515E+02  0.69666696575E+02  0.00000000000E+00 0.  1.
         11    1    1    2    0    0 -0.38950167193E+02 -0.22380948960E+01  0.96739834159E+02  0.10431069028E+03  0.00000000000E+00 0. -1.
</event>
<event>
 7    1  0.4966153E-006  0.9808635E+02  0.7561462E-02  0.1284372E+00
         -1   -1    0    0    0  501 -0.00000000000E+00  0.00000000000E+00  0.77716460387E+02  0.77716460387E+02  0.00000000000E+00 0.  1.
          1   -1    0    0  501    0  0.00000000000E+00 -0.00000000000E+00 -0.22652822951E+03  0.22652822951E+03  0.00000000000E+00 0. -1.
         23    2    1    2    0    0  0.69982203988E+02 -0.91675546648E+01 -0.54658056709E+02  0.15367667806E+03  0.12508982886E+03 0.  0.
          5    1    3    3  502    0 -0.26169145165E+02 -0.10065158874E+02 -0.49805753986E+02  0.57308089411E+02  0.41800000000E+01 0. -1.
         -5    1    3    3    0  502  0.96151349153E+02  0.89760420898E+00 -0.48523027229E+01  0.96368588653E+02  0.41800000000E+01 0. -1.
        -11    1    1    2    0    0 -0.17160511531E+02  0.75069549222E+01  0.18380351339E+02  0.26242615029E+02  0.00000000000E+00 0.  1.
         11    1    1    2    0    0 -0.52821692457E+02  0.16605997426E+01 -0.11253406375E+03  0.12432539680E+03  0.00000000000E+00 0. -1.
</event>
<event>
 7    1  0.4966153E-006  0.1321875E+03  0.7561462E-02  0.1224246E+00
          2   -1    0    0  501    0  0.00000000000E+00  0.00000000000E+00  0.34789201972E+03  0.34789201972E+03  0.00000000000E+00 0. -1.
         -2   -1    0    0    0  501 -0.00000000000E+00 -0.00000000000E+00 -0.75878305998E+02  0.75878305998E+02  0.00000000000E+00 0.  1.
         23    2    1    2    0    0 -0.28784297088E+01 -0.90845649396E+02  0.39551341816E+02  0.15960209096E+03  0.12508917391E+03 0.  0.
          5    1    3    3  502    0 -0.46635509977E+02 -0.80196368892E+01 -0.16583992211E+02  0.50315867917E+02  0.41800000000E+01 0.  1.
         -5    1    3    3    0  502  0.43757080268E+02 -0.82826012507E+02  0.56135334027E+02  0.10928622305E+03  0.41800000000E+01 0.  1.
        -11    1    1    2    0    0 -0.32958187808E+02  0.96356669401E+01  0.43703263450E+02  0.55579343799E+02  0.00000000000E+00 0. -1.
         11    1    1    2    0    0  0.35836617516E+02  0.81209982456E+02  0.18875910845E+03  0.20858889095E+03  0.00000000000E+00 0.  1.
</event>
<event>
 7    1  0.4966153E-006  0.1673720E+03  0.7561462E-02  0.1180616E+00
          2   -1    0    0  501    0  0.00000000000E+00  0.00000000000E+00  0.51611315351E+03  0.51611315351E+03  0.00000000000E+00 0. -1.
         -2   -1    0    0    0  501 -0.00000000000E+00 -0.00000000000E+00 -0.75523648768E+02  0.75523648768E+02  0.00000000000E+00 0.  1.
         23    2    1    2    0    0  0.15092763588E+03  0.34566626223E+02  0.13274344773E+03  0.23925576793E+03  0.12509395131E+03 0.  0.
          5    1    3    3  502    0  0.56151921170E+02 -0.13294255051E+02 -0.12601713781E+02  0.59211916526E+02  0.41800000000E+01 0. -1.
         -5    1    3    3    0  502  0.94775714708E+02  0.47860881275E+02  0.14534516151E+03  0.18004385141E+03  0.41800000000E+01 0. -1.
        -11    1    1    2    0    0 -0.96132303631E+02  0.14326594736E+02  0.15787180477E+03  0.18539195738E+03  0.00000000000E+00 0.  1.
         11    1    1    2    0    0 -0.54795332247E+02 -0.48893220959E+02  0.14997425224E+03  0.16698907697E+03  0.00000000000E+00 0. -1.
</event>
<event>
 7    1  0.4966153E-006  0.1082748E+03  0.7561462E-02  0.1263798E+00
         -2   -1    0    0    0  501 -0.00000000000E+00  0.00000000000E+00  0.57152475915E+02  0.57152475915E+02  0.00000000000E+00 0.  1.
          2   -1    0    0  501    0  0.00000000000E+00 -0.00000000000E+00 -0.29410611893E+03  0.29410611893E+03  0.00000000000E+00 0. -1.
         23    2    1    2    0    0 -0.44424997128E+02 -0.80804327063E+01 -0.48078243560E+02  0.14141087014E+03  0.12508654175E+03 0.  0.
          5    1    3    3  502    0  0.32982824819E+02  0.25764554493E+02  0.37180202471E+01  0.42225289529E+02  0.41800000000E+01 0.  1.
         -5    1    3    3    0  502 -0.77407821947E+02 -0.33844987199E+02 -0.51796263807E+02  0.99185580612E+02  0.41800000000E+01 0.  1.
        -11    1    1    2    0    0  0.54643883651E+02 -0.21411744552E+02 -0.10402693137E+03  0.11944044238E+03  0.00000000000E+00 0. -1.
         11    1    1    2    0    0 -0.10218886523E+02  0.29492177259E+02 -0.84848468087E+02  0.90407282328E+02  0.00000000000E+00 0.  1.
</event>
<event>
 7    1  0.4966153E-006  0.8159190E+02  0.7561462E-02  0.1324594E+00
         -2   -1    0    0    0  501 -0.00000000000E+00  0.00000000000E+00  0.46640229943E+02  0.46640229943E+02  0.00000000000E+00 0.  1.
          2   -1    0    0  501    0  0.00000000000E+00 -0.00000000000E+00 -0.24070383748E+03  0.24070383748E+03  0.00000000000E+00 0. -1.
         23    2    1    2    0    0 -0.64416202823E+01 -0.65721732400E+01 -0.11212579130E+03  0.16382175251E+03  0.11908268383E+03 0.  0.
          5    1    3    3  502    0 -0.16051888635E+01 -0.38401234112E+02 -0.12350952148E+03  0.12941910875E+03  0.41800000000E+01 0. -1.
         -5    1    3    3    0  502 -0.48364314188E+01  0.31829060872E+02  0.11383730181E+02  0.34402643760E+02  0.41800000000E+01 0.  1.
        -11    1    1    2    0    0 -0.37757782546E+02 -0.17624505048E+02 -0.42657911310E+02  0.59631960544E+02  0.00000000000E+00 0. -1.
         11    1    1    2    0    0  0.44199402829E+02  0.24196678288E+02 -0.39279904927E+02  0.63890354371E+02  0.00000000000E+00 0.  1.
</event>
<event>
 7    1  0.4966153E-006  0.9849547E+02  0.7561462E-02  0.1283492E+00
         -2   -1    0    0    0  501 -0.00000000000E+00  0.00000000000E+00  0.32295272149E+02  0.32295272149E+02  0.00000000000E+00 0.  1.
          2   -1    0    0  501    0  0.00000000000E+00 -0.00000000000E+00 -0.63549787923E+03  0.63549787923E+03  0.00000000000E+00 0. -1.
         23    2    1    2    0    0 -0.17090467145E+02  0.68757603714E+02 -0.18799698842E+03  0.23666442780E+03  0.12508993404E+03 0.  0.
          5    1    3    3  502    0 -0.25818496581E+02  0.24078892030E+02 -0.18760941507E+03  0.19094803699E+03  0.41800000000E+01 0.  1.
         -5    1    3    3    0  502  0.87280294362E+01  0.44678711684E+02 -0.38757334440E+00  0.45716390810E+02  0.41800000000E+01 0.  1.
        -11    1    1    2    0    0  0.19769925880E+02  0.19299064668E+02 -0.85280807102E+02  0.89644408226E+02  0.00000000000E+00 0.  1.
         11    1    1    2    0    0 -0.26794587349E+01 -0.88056668382E+02 -0.32992481156E+03  0.34148431535E+03  0.00000000000E+00 0. -1.
</event>
<event>
 7    1  0.4966153E-006  0.1086728E+03  0.7561462E-02  0.1263048E+00
         -1   -1    0    0    0  501 -0.00000000000E+00  0.00000000000E+00  0.32731356098E+02  0.32731356098E+02  0.00000000000E+00 0.  1.
          1   -1    0    0  501    0  0.00000000000E+00 -0.00000000000E+00 -0.50429253996E+03  0.50429253996E+03  0.00000000000E+00 0. -1.
         23    2    1    2    0    0  0.42002759416E+02  0.54081504302E+02 -0.22927294969E+03  0.27000476931E+03  0.12508976410E+03 0.  0.
          5    1    3    3  502    0  0.68622752911E+02  0.42195734460E+02 -0.22648560091E+03  0.24042204983E+03  0.41800000000E+01 0. -1.
         -5    1    3    3    0  502 -0.26619993495E+02  0.11885769843E+02 -0.27873487782E+01  0.29582719477E+02  0.41800000000E+01 0. -1.
        -11    1    1    2    0    0  0.39933162434E+01 -0.60636168497E+02 -0.96806654580E+02  0.11429881835E+03  0.00000000000E+00 0.  1.
         11    1    1    2    0    0 -0.45996075659E+02  0.65546641948E+01 -0.14548157959E+03  0.15272030840E+03  0.00000000000E+00 0. -1.
</event>
<event>
 7    1  0.4966153E-006  0.8384479E+02  0.7561462E-02  0.1318481E+00
          1   -1    0    0  501    0  0.00000000000E+00  0.00000000000E+00  0.82894023470E+03  0.82894023470E+03  0.00000000000E+00 0. -1.
         -1   -1    0    0    0  501 -0.00000000000E+00 -0.00000000000E+00 -0.20015161354E+02  0.20015161354E+02  0.00000000000E+00 0.  1.
         23    2    1    2    0    0  0.53417988581E+02 -0.63829578008E+01  0.30662869210E+03  0.33550435559E+03  0.12509114335E+03 0.  0.
          5    1    3    3  502    0  0.27045628428E+02  0.12008016788E+02  0.30114184551E+03  0.30262111956E+03  0.41800000000E+01 0.  1.
         -5    1    3    3    0  502  0.26372360154E+02 -0.18390974589E+02  0.54868465915E+01  0.32883236032E+02  0.41800000000E+01 0.  1.
        -11    1    1    2    0    0 -0.41314923485E+02  0.47247155871E+02  0.26268403974E+03  0.27007799128E+03  0.00000000000E+00 0. -1.
         11    1    1    2    0    0 -0.12103065097E+02 -0.40864198070E+02  0.23961234151E+03  0.24337304919E+03  0.00000000000E+00 0.  1.
</event>
<event>
 7    1  0.4966153E-006  0.1308293E+03  0.7561462E-02  0.1226230E+00
         -4   -1    0    0    0  501 -0.00000000000E+00  0.00000000000E+00  0.51760138391E+02  0.51760138391E+02  0.00000000000E+00 0.  1.
          4   -1    0    0  501    0  0.00000000000E+00 -0.00000000000E+00 -0.39565613687E+03  0.39565613687E+03  0.00000000000E+00 0. -1.
         23    2    1    2    0    0  0.77194036273E+02 -0.11987876270E+02 -0.11139093768E+03  0.18482723517E+03  0.12510210809E+03 0.  0.
          5    1    3    3  502    0  0.46009880595E+01 -0.55028882887E+02 -0.16536123972E+02  0.57795007042E+02  0.41800000000E+01 0.  1.
         -5    1    3    3    0  502  0.72593048213E+02  0.43041006617E+02 -0.94854813711E+02  0.12703222813E+03  0.41800000000E+01 0.  1.
        -11    1    1    2    0    0 -0.45821256428E+02  0.53055217472E+02 -0.12529780800E+03  0.14357570940E+03  0.00000000000E+00 0.  1.
         11    1    1    2    0    0 -0.31372779844E+02 -0.41067341202E+02 -0.10720725279E+03  0.11901333068E+03  0.00000000000E+00 0. -1.
</event>
<event>
 7    1  0.4966153E-006  0.1830932E+03  0.7561462E-02  0.1164843E+00
          2   -1    0    0  501    0  0.00000000000E+00  0.00000000000E+00  0.71120158428E+03  0.71120158428E+03  0.00000000000E+00 0. -1.
         -2   -1    0    0    0  501 -0.00000000000E+00 -0.00000000000E+00 -0.20261653456E+03  0.20261653456E+03  0.00000000000E+00 0.  1.
         23    2    1    2    0    0 -0.32470753226E+02  0.14722078649E+03 -0.14287543289E+03  0.23936411188E+03  0.11896839473E+03 0.  0.
          5    1    3    3  502    0  0.10405823607E+02 -0.17989676576E+02 -0.18420213106E+02  0.28083558876E+02  0.41800000000E+01 0. -1.
         -5    1    3    3    0  502 -0.42876576833E+02  0.16521046307E+03 -0.12445521978E+03  0.21128055300E+03  0.41800000000E+01 0.  1.
        -11    1    1    2    0    0  0.60959469734E+02 -0.75213823264E+02  0.34048731002E+03  0.35398415846E+03  0.00000000000E+00 0. -1.
         11    1    1    2    0    0 -0.28488716509E+02 -0.72006963227E+02  0.31097317260E+03  0.32046984850E+03  0.00000000000E+00 0.  1.
</event>
<event>
 6    1  0.4966153E-006  0.1465218E+03  0.7561462E-02  0.1204813E+00
         -2   -1    0    0    0  501 -0.00000000000E+00  0.00000000000E+00  0.22673291847E+02  0.22673291847E+02  0.00000000000E+00 0.  1.
          2   -1    0    0  501    0  0.00000000000E+00 -0.00000000000E+00 -0.21268537396E+04  0.21268537396E+04  0.00000000000E+00 0. -1.
          5    1    1    2  502    0  0.16377601396E+02 -0.95644928353E+02 -0.13298397877E+04  0.13333819826E+04  0.41800000000E+01 0. -1.
         -5    1    1    2    0  502  0.54219614629E+02  0.41304075853E+02 -0.61294993438E+02  0.91762421029E+02  0.41800000000E+01 0.  1.
        -11    1    1    2    0    0 -0.60114133373E+02 -0.11290438522E+02 -0.34925590214E+03  0.35457138662E+03  0.00000000000E+00 0. -1.
         11    1    1    2    0    0 -0.10483082652E+02  0.65631291022E+02 -0.36378976447E+03  0.36981124120E+03  0.00000000000E+00 0.  1.
</event>
<event>
 7    1  0.4966153E-006  0.1518409E+03  0.7561462E-02  0.1198229E+00
         -1   -1    0    0    0  501 -0.00000000000E+00  0.00000000000E+00  0.42553811766E+03  0.42553811766E+03  0.00000000000E+00 0.  1.
          1   -1    0    0  501    0  0.00000000000E+00 -0.00000000000E+00 -0.12253272576E+03  0.12253272576E+03  0.00000000000E+00 0. -1.
         23    2    1    2    0    0  0.27478285382E+02  0.13697837598E+03  0.25469743195E+03  0.31628699109E+03  0.12509415349E+03 0.  0.
          5    1    3    3  502    0  0.16652214625E+02  0.87781890607E+02  0.44132700925E+02  0.99740284045E+02  0.41800000000E+01 0. -1.
         -5    1    3    3    0  502  0.10826070757E+02  0.49196485371E+02  0.21056473103E+03  0.21654670705E+03  0.41800000000E+01 0. -1.
        -11    1    1    2    0    0  0.10777370600E+02 -0.12220734976E+03 -0.44353850985E+02  0.13045325657E+03  0.00000000000E+00 0. -1.
         11    1    1    2    0    0 -0.38255655982E+02 -0.14771026216E+02  0.92661810938E+02  0.10133059576E+03  0.00000000000E+00 0.  1.
</event>
<event>
 7    1  0.4966153E-006  0.1065382E+03  0.7561462E-02  0.1267118E+00
          1   -1    0    0  501    0  0.00000000000E+00  0.00000000000E+00  0.58502963095E+03  0.58502963095E+03  0.00000000000E+00 0. -1.
         -1   -1    0    0    0  501 -0.00000000000E+00 -0.00000000000E+00 -0.20668315373E+02  0.20668315373E+02  0.00000000000E+00 0.  1.
         23    2    1    2    0    0  0.13567916287E+02  0.89477273419E+01  0.35597232523E+03  0.37766118708E+03  0.12509007043E+03 0.  0.
          5    1    3    3  502    0  0.35070368902E+02 -0.49193518497E+02  0.21969688837E+03  0.22789060576E+03  0.41800000000E+01 0.  1.
         -5    1    3    3    0  502 -0.21502452615E+02  0.58141245839E+02  0.13627543686E+03  0.14977058132E+03  0.41800000000E+01 0.  1.
        -11    1    1    2    0    0  0.25653388525E+02  0.26957037604E+02  0.11107475986E+03  0.11714256484E+03  0.00000000000E+00 0. -1.
         11    1    1    2    0    0 -0.39221304812E+02 -0.35904764946E+02  0.97314230486E+02  0.11089419440E+03  0.00000000000E+00 0.  1.
</event>
<event>
 7    1  0.4966153E-006  0.1287193E+03  0.7561462E-02  0.1229368E+00
         -1   -1    0    0    0  501 -0.00000000000E+00  0.00000000000E+00  0.43418704172E+03  0.43418704172E+03  0.00000000000E+00 0.  1.
          1   -1    0    0  501    0  0.00000000000E+00 -0.00000000000E+00 -0.58052999485E+02  0.58052999485E+02  0.00000000000E+00 0. -1.
         23    2    1    2    0    0  0.88798428131E+02 -0.30301075028E+02  0.31843688901E+03  0.35476151911E+03  0.12510142755E+03 0.  0.
          5    1    3    3  502    0  0.99293569176E+02  0.16607031226E+02  0.15948185426E+03  0.18864501214E+03  0.41800000000E+01 0. -1.
         -5    1    3    3    0  502 -0.10495141045E+02 -0.46908106254E+02  0.15895503475E+03  0.16611650697E+03  0.41800000000E+01 0. -1.
        -11    1    1    2    0    0 -0.96920201708E+01  0.27627602657E+02  0.50015730856E+02  0.57955094829E+02  0.00000000000E+00 0.  1.
         11    1    1    2    0    0 -0.79106407961E+02  0.26734723703E+01  0.76814223781E+01  0.79523427270E+02  0.00000000000E+00 0. -1.
</event>
<event>
 7    1  0.4966153E-006  0.1407740E+03  0.7561462E-02  0.1212291E+00
         -2   -1    0    0    0  501 -0.00000000000E+00  0.00000000000E+00  0.20068824117E+03  0.20068824117E+03  0.00000000000E+00 0.  1.
          2   -1    0    0  501    0  0.00000000000E+00 -0.00000000000E+00 -0.13309279827E+03  0.13309279827E+03  0.00000000000E+00 0. -1.
         23    2    1    2    0    0  0.11417666276E+03 -0.25457790841E+01  0.79482582430E+02  0.18710326506E+03  0.12508940634E+03 0.  0.
          5    1    3    3  502    0  0.95788409553E+02 -0.49309898448E+02  0.20925271735E+02  0.10982816072E+03  0.41800000000E+01 0. -1.
         -5    1    3    3    0  502  0.18388253206E+02  0.46764119364E+02  0.58557310694E+02  0.77275104345E+02  0.41800000000E+01 0. -1.
        -11    1    1    2    0    0 -0.50924600698E+02 -0.21983409143E+02  0.33737343874E+02  0.64921441800E+02  0.00000000000E+00 0.  1.
         11    1    1    2    0    0 -0.63252062061E+02  0.24529188227E+02 -0.45624483408E+02  0.81756332576E+02  0.00000000000E+00 0. -1.
</event>
<event>
 7    1  0.4966153E-006  0.1400671E+03  0.7561462E-02  0.1213239E+00
         -1   -1    0    0    0  501 -0.00000000000E+00  0.00000000000E+00  0.16787591900E+03  0.16787591900E+03  0.00000000000E+00 0.  1.
          1   -1    0    0  501    0  0.00000000000E+00 -0.00000000000E+00 -0.11994438413E+03  0.11994438413E+03  0.00000000000E+00 0. -1.
         23    2    1    2    0    0  0.81730561296E+02  0.37353392172E+02  0.36029842128E+02  0.15817265117E+03  0.12508108370E+03 0.  0.
          5    1    3    3  502    0  0.60456302122E+02  0.83136155623E+02  0.29965161167E+02  0.10715394590E+03  0.41800000000E+01 0.  1.
         -5    1    3    3    0  502  0.21274259174E+02 -0.45782763450E+02  0.60646809611E+01  0.51018705273E+02  0.41800000000E+01 0.  1.
        -11    1    1    2    0    0 -0.17656119672E+02 -0.56926007561E+02 -0.70624005926E+01  0.60018217242E+02  0.00000000000E+00 0. -1.
         11    1    1    2    0    0 -0.64074441624E+02  0.19572615389E+02  0.18964093331E+02  0.69629434713E+02  0.00000000000E+00 0.  1.
</event>
<event>
 7    1  0.4966153E-006  0.9983843E+02  0.7561462E-02  0.1280636E+00
         -2   -1    0    0    0  501 -0.00000000000E+00  0.00000000000E+00  0.21885504597E+02  0.21885504597E+02  0.00000000000E+00 0.  1.
          2   -1    0    0  501    0  0.00000000000E+00 -0.00000000000E+00 -0.62139050859E+03  0.62139050859E+03  0.00000000000E+00 0. -1.
         23    2    1    2    0    0 -0.27770260651E+02 -0.11574716387E+02 -0.26228742309E+03  0.29214274057E+03  0.12509007602E+03 0.  0.
          5    1    3    3  502    0 -0.41439595371E+02 -0.49527407669E+02 -0.23377841939E+03  0.24256963113E+03  0.41800000000E+01 0. -1.
         -5    1    3    3    0  502  0.13669334720E+02  0.37952691282E+02 -0.28509003704E+02  0.49573109439E+02  0.41800000000E+01 0. -1.
        -11    1    1    2    0    0  0.20808181374E+01  0.48984283844E+02 -0.12841729423E+03  0.13745832578E+03  0.00000000000E+00 0.  1.
         11    1    1    2    0    0  0.25689442513E+02 -0.37409567457E+02 -0.20880028666E+03  0.21367494684E+03  0.00000000000E+00 0. -1.
</event>
<event>
 7    1  0.4966153E-006  0.9028597E+02  0.7561462E-02  0.1302161E+00
         -3   -1    0    0    0  501 -0.00000000000E+00  0.00000000000E+00  0.14250029491E+03  0.14250029491E+03  0.00000000000E+00 0.  1.
          3   -1    0    0  501    0  0.00000000000E+00 -0.00000000000E+00 -0.10061914104E+03  0.10061914104E+03  0.00000000000E+00 0. -1.
         23    2    1    2    0    0  0.14341228342E+02  0.35415669457E+02  0.62488000922E+02  0.14495972790E+03  0.12509449220E+03 0.  0.
          5    1    3    3  502    0  0.45307392355E+02  0.18879894357E+02  0.88351347709E+02  0.10115652848E+03  0.41800000000E+01 0. -1.
         -5    1    3    3    0  502 -0.30966164013E+02  0.16535775101E+02 -0.25863346787E+02  0.43803199414E+02  0.41800000000E+01 0. -1.
        -11    1    1    2    0    0 -0.17617494163E+02  0.27661717332E+02 -0.78496036386E+01  0.33721847275E+02  0.00000000000E+00 0. -1.
         11    1    1    2    0    0  0.32762658209E+01 -0.63077386789E+02 -0.12757243419E+02  0.64437860777E+02  0.00000000000E+00 0.  1.
</event>
<event>
 7    1  0.4966153E-006  0.9821665E+02  0.7561462E-02  0.1284091E+00
         -1   -1    0    0    0  501 -0.00000000000E+00  0.00000000000E+00  0.23794096981E+03  0.23794096981E+03  0.00000000000E+00 0.  1.
          1   -1    0    0  501    0  0.00000000000E+00 -0.00000000000E+00 -0.69307809350E+02  0.69307809350E+02  0.00000000000E+00 0. -1.
         23    2    1    2    0    0  0.45944418049E+02  0.13619254624E+02  0.15186928537E+03  0.20250568305E+03  0.12509155920E+03 0.  0.
          5    1    3    3  502    0 -0.55459784536E+00  0.40798352646E+02  0.14172391523E+03  0.14753966824E+03  0.41800000000E+01 0.  1.
         -5    1    3    3    0  502  0.46499015895E+02 -0.27179098022E+02  0.10145370137E+02  0.54966014806E+02  0.41800000000E+01 0.  1.
        -11    1    1    2    0    0 -0.13491028823E+02 -0.50499137183E+02  0.18870328131E+02  0.55572115298E+02  0.00000000000E+00 0.  1.
         11    1    1    2    0    0 -0.32453389226E+02  0.36879882559E+02 -0.21064530370E+01  0.49170980814E+02  0.00000000000E+00 0. -1.
</event>
<event>
 7    1  0.4966153E-006  0.8177499E+02  0.7561462E-02  0.1324088E+00
         -3   -1    0    0    0  501 -0.00000000000E+00  0.00000000000E+00  0.24248615154E+03  0.24248615154E+03  0.00000000000E+00 0.  1.
          3   -1    0    0  501    0  0.00000000000E+00 -0.00000000000E+00 -0.53388990455E+02  0.53388990455E+02  0.00000000000E+00 0. -1.
         23    2    1    2    0    0 -0.16431276365E+02  0.84776387961E-01  0.13865754983E+03  0.18746419425E+03  0.12508762516E+03 0.  0.
          5    1    3    3  502    0  0.38409455520E+02 -0.12847219187E+02  0.33732787476E+01  0.40855706134E+02  0.41800000000E+01 0.  1.
         -5    1    3    3    0  502 -0.54840731885E+02  0.12931995575E+02  0.13528427109E+03  0.14660848811E+03  0.41800000000E+01 0.  1.
        -11    1    1    2    0    0 -0.24921482056E+02  0.13321304376E+01 -0.16355175706E+02  0.29838676441E+02  0.00000000000E+00 0. -1.
         11    1    1    2    0    0  0.41352758421E+02 -0.14169068256E+01  0.66794786961E+02  0.78572271312E+02  0.00000000000E+00 0.  1.
</event>
<event>
 7    1  0.4966153E-006  0.1252611E+03  0.7561462E-02  0.1234662E+00
          2   -1    0    0  501    0  0.00000000000E+00  0.00000000000E+00  0.23170696219E+03  0.23170696219E+03  0.00000000000E+00 0. -1.
         -2   -1    0    0    0  501 -0.00000000000E+00 -0.00000000000E+00 -0.12276429383E+03  0.12276429383E+03  0.00000000000E+00 0.  1.
         23    2    1    2    0    0 -0.72815239645E+02  0.99171675506E+02  0.14671362403E+02  0.17606738785E+03  0.12508955129E+03 0.  0.
          5    1    3    3  502    0 -0.70698135964E+02  0.99920215897E+02  0.55856777335E+02  0.13460953884E+03  0.41800000000E+01 0. -1.
         -5    1    3    3    0  502 -0.21171036806E+01 -0.74854039096E+00 -0.41185414932E+02  0.41457849001E+02  0.41800000000E+01 0. -1.
        -11    1    1    2    0    0  0.75363492133E+01 -0.14984308833E+02 -0.17331299557E+02  0.24118457973E+02  0.00000000000E+00 0.  1.
         11    1    1    2    0    0  0.65278890432E+02 -0.84187366673E+02  0.11160260551E+03  0.15428541020E+03  0.00000000000E+00 0. -1.
</event>
<event>
 7    1  0.4966153E-006  0.1161909E+03  0.7561462E-02  0.1249516E+00
         -1   -1    0    0    0  501 -0.00000000000E+00  0.00000000000E+00  0.24180491698E+03  0.24180491698E+03  0.00000000000E+00 0.  1.
          1   -1    0    0  501    0  0.00000000000E+00 -0.00000000000E+00 -0.28285384676E+03  0.28285384676E+03  0.00000000000E+00 0. -1.
         23    2    1    2    0    0  0.44591525476E+02  0.55537448765E+02  0.21005189281E+03  0.24826404818E+03  0.11153666477E+03 0.  0.
          5    1    3    3  502    0  0.72705406062E+02  0.34149684420E+01  0.11959289860E+03  0.14006309962E+03  0.41800000000E+01 0. -1.
         -5    1    3    3    0  502 -0.28113880585E+02  0.52122480323E+02  0.90458994206E+02  0.10820094856E+03  0.41800000000E+01 0.  1.
        -11    1    1    2    0    0 -0.29348662600E+02 -0.71952014545E+02 -0.23817815529E+03  0.25053396985E+03  0.00000000000E+00 0. -1.
         11    1    1    2    0    0 -0.15242862876E+02  0.16414565780E+02 -0.12922667295E+02  0.25860745705E+02  0.00000000000E+00 0.  1.
</event>
<event>
 7    1  0.4966153E-006  0.1062308E+03  0.7561462E-02  0.1267713E+00
         -1   -1    0    0    0  501 -0.00000000000E+00  0.00000000000E+00  0.78467002880E+03  0.78467002880E+03  0.00000000000E+00 0.  1.
          1   -1    0    0  501    0  0.00000000000E+00 -0.00000000000E+00 -0.21760391472E+02  0.21760391472E+02  0.00000000000E+00 0. -1.
         23    2    1    2    0    0  0.51218954159E+02 -0.22561823157E+02  0.56707277466E+03  0.58339856621E+03  0.12509971289E+03 0.  0.
          5    1    3    3  502    0  0.77629095204E+02 -0.54834247476E+02  0.39571078833E+03  0.40698595985E+03  0.41800000000E+01 0.  1.
         -5    1    3    3    0  502 -0.26410141045E+02  0.32272424320E+02  0.17136198633E+03  0.17641260635E+03  0.41800000000E+01 0.  1.
        -11    1    1    2    0    0 -0.36622577627E+02 -0.11478400260E+02  0.17768989461E+03  0.18178741847E+03  0.00000000000E+00 0. -1.
         11    1    1    2    0    0 -0.14596376532E+02  0.34040223417E+02  0.18146968053E+02  0.41244435596E+02  0.00000000000E+00 0.  1.
</event>
<event>
 7    1  0.4966153E-006  0.1454605E+03  0.7561462E-02  0.1206165E+00
          1   -1    0    0  501    0  0.00000000000E+00  0.00000000000E+00  0.40680566363E+03  0.40680566363E+03  0.00000000000E+00 0. -1.
         -1   -1    0    0    0  501 -0.00000000000E+00 -0.00000000000E+00 -0.62059704611E+02  0.62059704611E+02  0.00000000000E+00 0.  1.
         23    2    1    2    0    0 -0.74628195372E+02 -0.78009678348E+02  0.12647339628E+03  0.20808085472E+03  0.12508894706E+03 0.  0.
          5    1    3    3  502    0  0.31122983857E+02 -0.13980179038E+02  0.50401952267E+01  0.34741351414E+02  0.41800000000E+01 0. -1.
         -5    1    3    3    0  502 -0.10575117923E+03 -0.64029499310E+02  0.12143320105E+03  0.17333950331E+03  0.41800000000E+01 0. -1.
        -11    1    1    2    0    0  0.37259257926E+02  0.86803452599E+02  0.10526770660E+03  0.14143684717E+03  0.00000000000E+00 0. -1.
         11    1    1    2    0    0  0.37368937446E+02 -0.87937742516E+01  0.11300485615E+03  0.11934766635E+03  0.00000000000E+00 0.  1.
</event>
<event>
 7    1  0.4966153E-006  0.8284917E+02  0.7561462E-02  0.1321155E+00
          1   -1    0    0  501    0  0.00000000000E+00  0.00000000000E+00  0.27913283622E+03  0.27913283622E+03  0.00000000000E+00 0. -1.
         -1   -1    0    0    0  501 -0.00000000000E+00 -0.00000000000E+00 -0.57106443253E+02  0.57106443253E+02  0.00000000000E+00 0.  1.
         23    2    1    2    0    0 -0.44023223005E+02 -0.24323224692E+02  0.68532203636E+02  0.15126834244E+03  0.12512307967E+03 0.  0.
          5    1    3    3  502    0 -0.60274250272E+02 -0.22216525188E+02 -0.14952537311E+02  0.66087896088E+02  0.41800000000E+01 0. -1.
         -5    1    3    3    0  502  0.16251027267E+02 -0.21066995047E+01  0.83484740947E+02  0.85180446353E+02  0.41800000000E+01 0. -1.
        -11    1    1    2    0    0  0.61444289973E+02  0.26385049930E+02  0.59989645310E+02  0.89835010850E+02  0.00000000000E+00 0.  1.
         11    1    1    2    0    0 -0.17421066968E+02 -0.20618252378E+01  0.93504544018E+02  0.95135926177E+02  0.00000000000E+00 0. -1.
</event>
<event>
 7    1  0.4966153E-006  0.8664323E+02  0.7561462E-02  0.1311190E+00
          1   -1    0    0  501    0  0.00000000000E+00  0.00000000000E+00  0.28493339741E+03  0.28493339741E+03  0.00000000000E+00 0. -1.
         -1   -1    0    0    0  501 -0.00000000000E+00 -0.00000000000E+00 -0.57727426303E+02  0.57727426303E+02  0.00000000000E+00 0.  1.
         23    2    1    2    0    0 -0.74751346546E+01  0.53108421355E+02  0.56694858034E+02  0.14258001719E+03  0.11932465092E+03 0.  0.
          5    1    3    3  502    0  0.12405238025E+02  0.51201361586E+02  0.89504982312E+02  0.10394269391E+03  0.41800000000E+01 0. -1.
         -5    1    3    3    0  502 -0.19880372679E+02  0.19070597694E+01 -0.32810124278E+02  0.38637323276E+02  0.41800000000E+01 0.  1.
        -11    1    1    2    0    0  0.43929125604E+02 -0.44597316805E+02  0.13345526010E+03  0.14740758186E+03  0.00000000000E+00 0.  1.
         11    1    1    2    0    0 -0.36453990950E+02 -0.85111045496E+01  0.37055852977E+02  0.52673224665E+02  0.00000000000E+00 0. -1.
</event>
<event>
 7    1  0.4966153E-006  0.1468472E+03  0.7561462E-02  0.1204402E+00
          2   -1    0    0  501    0  0.00000000000E+00  0.00000000000E+00  0.39112682300E+03  0.39112682300E+03  0.00000000000E+00 0. -1.
         -2   -1    0    0    0  501 -0.00000000000E+00 -0.00000000000E+00 -0.80572440241E+02  0.80572440241E+02  0.00000000000E+00 0.  1.
         23    2    1    2    0    0 -0.46742659979E+02 -0.12418949148E+03  0.10408698883E+03  0.20997487063E+03  0.12508972378E+03 0.  0.
          5    1    3    3  502    0 -0.17650011695E+02  0.10900529335E+02 -0.16255300241E+02  0.26684295729E+02  0.41800000000E+01 0.  1.
         -5    1    3    3    0  502 -0.29092648283E+02 -0.13509002081E+03  0.12034228907E+03  0.18329057490E+03  0.41800000000E+01 0.  1.
        -11    1    1    2    0    0  0.16629496758E+02  0.20990112070E+02  0.12228502665E+03  0.12518287706E+03  0.00000000000E+00 0. -1.
         11    1    1    2    0    0  0.30113163221E+02  0.10319937941E+03  0.84182367277E+02  0.13654151555E+03  0.00000000000E+00 0.  1.
</event>
<event>
 7    1  0.4966153E-006  0.1492485E+03  0.7561462E-02  0.1201400E+00
          2   -1    0    0  501    0  0.00000000000E+00  0.00000000000E+00  0.68240568353E+03  0.68240568353E+03  0.00000000000E+00 0. -1.
         -2   -1    0    0    0  501 -0.00000000000E+00 -0.00000000000E+00 -0.35924027483E+02  0.35924027483E+02  0.00000000000E+00 0.  1.
         23    2    1    2    0    0  0.12840100592E+02  0.10346157331E+03  0.24548834407E+03  0.29458543542E+03  0.12508751479E+03 0.  0.
          5    1    3    3  502    0 -0.55380163997E+02  0.56623070903E+02  0.13339769974E+03  0.15519521068E+03  0.41800000000E+01 0. -1.
         -5    1    3    3    0  502  0.68220264589E+02  0.46838502403E+02  0.11209064433E+03  0.13939022474E+03  0.41800000000E+01 0. -1.
        -11    1    1    2    0    0  0.27258418706E+02 -0.21207345428E+01  0.64962127195E+02  0.70481181000E+02  0.00000000000E+00 0. -1.
         11    1    1    2    0    0 -0.40098519299E+02 -0.10134083876E+03  0.33603118478E+03  0.35326309459E+03  0.00000000000E+00 0.  1.
</event>
<event>
 7    1  0.4966153E-006  0.8769472E+02  0.7561462E-02  0.1308532E+00
          2   -1    0    0  501    0  0.00000000000E+00  0.00000000000E+00  0.24901870857E+02  0.24901870857E+02  0.00000000000E+00 0. -1.
         -2   -1    0    0    0  501 -0.00000000000E+00 -0.00000000000E+00 -0.48293114397E+03  0.48293114397E+03  0.00000000000E+00 0.  1.
         23    2    1    2    0    0 -0.70877418289E+01  0.16294012889E+02 -0.29461874498E+03  0.32056429825E+03  0.12508210697E+03 0.  0.
          5    1    3    3  502    0 -0.16472505525E+02  0.51737452160E+02 -0.27174492698E+03  0.27714776768E+03  0.41800000000E+01 0. -1.
         -5    1    3    3    0  502  0.93847636963E+01 -0.35443439270E+02 -0.22873818001E+02  0.43416530572E+02  0.41800000000E+01 0. -1.
        -11    1    1    2    0    0 -0.36968463802E+02  0.25151453419E+00 -0.36662416359E+02  0.52065951914E+02  0.00000000000E+00 0. -1.
         11    1    1    2    0    0  0.44056205631E+02 -0.16545527423E+02 -0.12674811178E+03  0.13520276466E+03  0.00000000000E+00 0.  1.
</event>
<event>
 7    1  0.4966153E-006  0.8694015E+02  0.7561462E-02  0.1310435E+00
          1   -1    0    0  501    0  0.00000000000E+00  0.00000000000E+00  0.41430393586E+03  0.41430393586E+03  0.00000000000E+00 0. -1.
         -1   -1    0    0    0  501 -0.00000000000E+00 -0.00000000000E+00 -0.43096342969E+02  0.43096342969E+02  0.00000000000E+00 0.  1.
         23    2    1    2    0    0 -0.35941064728E+02  0.42174900432E+02  0.11265614273E+03  0.17722593227E+03  0.12508853750E+03 0.  0.
          5    1    3    3  502    0 -0.44050627365E+02  0.16880327067E+02  0.13449215854E+03  0.14258687289E+03  0.41800000000E+01 0. -1.
         -5    1    3    3    0  502  0.81095626363E+01  0.25294573364E+02 -0.21836015812E+02  0.34639059375E+02  0.41800000000E+01 0. -1.
        -11    1    1    2    0    0 -0.17322614834E+02 -0.43003693098E+02  0.67881039789E+02  0.82202348918E+02  0.00000000000E+00 0.  1.
         11    1    1    2    0    0  0.53263679562E+02  0.82879266586E+00  0.19067041037E+03  0.19797199764E+03  0.00000000000E+00 0. -1.
</event>
<event>
 7    1  0.4966153E-006  0.1062893E+03  0.7561462E-02  0.1267600E+00
         -1   -1    0    0    0  501 -0.00000000000E+00  0.00000000000E+00  0.17465132526E+03  0.17465132526E+03  0.00000000000E+00 0.  1.
          1   -1    0    0  501    0  0.00000000000E+00 -0.00000000000E+00 -0.98059581719E+02  0.98059581719E+02  0.00000000000E+00 0. -1.
         23    2    1    2    0    0 -0.26876155970E+01 -0.16602057430E+02  0.11548633719E+03  0.17111737321E+03  0.12514475517E+03 0.  0.
          5    1    3    3  502    0  0.44784276542E+02 -0.50329854514E+02  0.55224832767E+02  0.87212271126E+02  0.41800000000E+01 0.  1.
         -5    1    3    3    0  502 -0.47471892139E+02  0.33727797084E+02  0.60261504426E+02  0.83905102080E+02  0.41800000000E+01 0.  1.
        -11    1    1    2    0    0  0.20380944020E+02  0.47165287121E+02 -0.41691927868E+02  0.66167696331E+02  0.00000000000E+00 0. -1.
         11    1    1    2    0    0 -0.17693328423E+02 -0.30563229691E+02  0.27973342174E+01  0.35425837443E+02  0.00000000000E+00 0.  1.
</event>
<event>
 7    1  0.4966153E-006  0.1432772E+03  0.7561462E-02  0.1208986E+00
         -2   -1    0    0    0  501 -0.00000000000E+00  0.00000000000E+00  0.43311795187E+02  0.43311795187E+02  0.00000000000E+00 0.  1.
          2   -1    0    0  501    0  0.00000000000E+00 -0.00000000000E+00 -0.50966894256E+03  0.50966894256E+03  0.00000000000E+00 0. -1.
         23    2    1    2    0    0 -0.42996019644E+02  0.90140357996E+02 -0.21434401844E+03  0.26751520373E+03  0.12508830536E+03 0.  0.
          5    1    3    3  502    0 -0.49656670038E+02 -0.13499300230E+02 -0.43369698888E+02  0.67427139696E+02  0.41800000000E+01 0.  1.
         -5    1    3    3    0  502  0.66606503943E+01  0.10363965823E+03 -0.17097431956E+03  0.20008806403E+03  0.41800000000E+01 0.  1.
        -11    1    1    2    0    0  0.63377967813E+02 -0.35439041814E+02 -0.16942276002E+03  0.18432787120E+03  0.00000000000E+00 0. -1.
         11    1    1    2    0    0 -0.20381948169E+02 -0.54701316183E+02 -0.82590368903E+02  0.10113766281E+03  0.00000000000E+00 0.  1.
</event>
<event>
 7    1  0.4966153E-006  0.3144784E+03  0.7561462E-02  0.1078219E+00
          1   -1    0    0  501    0  0.00000000000E+00  0.00000000000E+00  0.12711891075E+04  0.12711891075E+04  0.00000000000E+00 0. -1.
         -1   -1    0    0    0  501 -0.00000000000E+00 -0.00000000000E+00 -0.88383011805E+02  0.88383011805E+02  0.00000000000E+00 0.  1.
         23    2    1    2    0    0 -0.13311386321E+03  0.28257497706E+03  0.49380201980E+03  0.59754072345E+03  0.12508622299E+03 0.  0.
          5    1    3    3  502    0 -0.37732402946E+02  0.13117813343E+03  0.32059828093E+03  0.34847118540E+03  0.41800000000E+01 0. -1.
         -5    1    3    3    0  502 -0.95381460265E+02  0.15139684363E+03  0.17320373887E+03  0.24906953804E+03  0.41800000000E+01 0. -1.
        -11    1    1    2    0    0  0.36281381970E+01 -0.23496204151E+02  0.14192126434E+02  0.27688471410E+02  0.00000000000E+00 0.  1.
         11    1    1    2    0    0  0.12948572501E+03 -0.25907877291E+03  0.67481194950E+03  0.73434292448E+03  0.00000000000E+00 0. -1.
</event>
<event>
 7    1  0.4966153E-006  0.1106333E+03  0.7561462E-02  0.1259402E+00
          1   -1    0    0  501    0  0.00000000000E+00  0.00000000000E+00  0.28526272758E+03  0.28526272758E+03  0.00000000000E+00 0. -1.
         -1   -1    0    0    0  501 -0.00000000000E+00 -0.00000000000E+00 -0.50416514832E+02  0.50416514832E+02  0.00000000000E+00 0.  1.
         23    2    1    2    0    0  0.48814537803E+02 -0.11393475556E+02  0.11084044629E+03  0.17448839820E+03  0.12509167113E+03 0.  0.
          5    1    3    3  502    0  0.90902048544E+02 -0.17949299746E+00  0.75681089333E+02  0.11835672490E+03  0.41800000000E+01 0.  1.
         -5    1    3    3    0  502 -0.42087510741E+02 -0.11213982558E+02  0.35159356961E+02  0.56131673297E+02  0.41800000000E+01 0.  1.
        -11    1    1    2    0    0  0.16626900294E+02 -0.77272086819E+01  0.75050258252E+02  0.77257393375E+02  0.00000000000E+00 0. -1.
         11    1    1    2    0    0 -0.65441438097E+02  0.19120684237E+02  0.48955508200E+02  0.83933450835E+02  0.00000000000E+00 0.  1.
</event>
<event>
 7    1  0.4966153E-006  0.1093562E+03  0.7561462E-02  0.1261767E+00
          2   -1    0    0  501    0  0.00000000000E+00  0.00000000000E+00  0.12918194850E+03  0.12918194850E+03  0.00000000000E+00 0. -1.
         -2   -1    0    0    0  501 -0.00000000000E+00 -0.00000000000E+00 -0.13934128071E+03  0.13934128071E+03  0.00000000000E+00 0.  1.
         23    2    1    2    0    0  0.66735082645E+02  0.58822849346E+01 -0.43234918423E+02  0.14833967605E+03  0.12508888355E+03 0.  0.
          5    1    3    3  502    0 -0.18464395281E+02  0.24599610293E+02  0.23082110527E+02  0.38682437178E+02  0.41800000000E+01 0. -1.
         -5    1    3    3    0  502  0.85199477926E+02 -0.18717325359E+02 -0.66317028950E+02  0.10965723887E+03  0.41800000000E+01 0. -1.
        -11    1    1    2    0    0 -0.81752416842E+01  0.30380715337E+02 -0.16302330223E+02  0.35434282999E+02  0.00000000000E+00 0.  1.
         11    1    1    2    0    0 -0.58559840961E+02 -0.36263000272E+02  0.49377916431E+02  0.84749270163E+02  0.00000000000E+00 0. -1.
</event>
<event>
 7    1  0.4966153E-006  0.1035857E+03  0.7561462E-02  0.1272931E+00
         -2   -1    0    0    0  501 -0.00000000000E+00  0.00000000000E+00  0.16942154302E+03  0.16942154302E+03  0.00000000000E+00 0.  1.
          2   -1    0    0  501    0  0.00000000000E+00 -0.00000000000E+00 -0.10964588087E+03  0.10964588087E+03  0.00000000000E+00 0. -1.
         23    2    1    2    0    0 -0.10998728562E+02 -0.88030621602E+01  0.11686693181E+03  0.17176783568E+03  0.12509134138E+03 0.  0.
          5    1    3    3  502    0 -0.67519586514E+02 -0.11868436029E+02  0.56790600126E+02  0.89120138013E+02  0.41800000000E+01 0. -1.
         -5    1    3    3    0  502  0.56520857953E+02  0.30653738684E+01  0.60076331681E+02  0.82647697663E+02  0.41800000000E+01 0. -1.
        -11    1    1    2    0    0 -0.12821028781E+02 -0.32006419158E+02 -0.17408040484E+01  0.34522746777E+02  0.00000000000E+00 0.  1.
         11    1    1    2    0    0  0.23819757343E+02  0.40809481318E+02 -0.55350465614E+02  0.72776841433E+02  0.00000000000E+00 0. -1.
</event>
<event>
 7    1  0.4966153E-006  0.7045003E+02  0.7561462E-02  0.1358569E+00
          1   -1    0    0  501    0  0.00000000000E+00  0.00000000000E+00  0.90094892774E+02  0.90094892774E+02  0.00000000000E+00 0. -1.
         -1   -1    0    0    0  501 -0.00000000000E+00 -0.00000000000E+00 -0.15323743793E+03  0.15323743793E+03  0.00000000000E+00 0.  1.
         23    2    1    2    0    0  0.43242582183E+02  0.30339602789E+01 -0.44190704431E+02  0.13956933707E+03  0.12509058983E+03 0.  0.
          5    1    3    3  502    0 -0.41579762538E+00 -0.20799613132E+02  0.37933690641E+02  0.43465320427E+02  0.41800000000E+01 0.  1.
         -5    1    3    3    0  502  0.43658379809E+02  0.23833573411E+02 -0.82124395072E+02  0.96104016643E+02  0.41800000000E+01 0.  1.
        -11    1    1    2    0    0 -0.13698490641E+01  0.21293928373E+02 -0.44250168027E+02  0.49126217465E+02  0.00000000000E+00 0.  1.
         11    1    1    2    0    0 -0.41872733119E+02 -0.24327888652E+02  0.25298327306E+02  0.54636776165E+02  0.00000000000E+00 0. -1.
</event>
<event>
 7    1  0.4966153E-006  0.1492661E+03  0.7561462E-02  0.1201378E+00
         -2   -1    0    0    0  501 -0.00000000000E+00  0.00000000000E+00  0.30498649847E+03  0.30498649847E+03  0.00000000000E+00 0.  1.
          2   -1    0    0  501    0  0.00000000000E+00 -0.00000000000E+00 -0.92266601914E+02  0.92266601914E+02  0.00000000000E+00 0. -1.
         23    2    1    2    0    0 -0.11754482730E+03  0.29363896183E+02  0.15791627064E+03  0.23509571125E+03  0.12511362871E+03 0.  0.
          5    1    3    3  502    0  0.16866770380E+02 -0.13370747286E+02 -0.17732102043E+01  0.21997306664E+02  0.41800000000E+01 0. -1.
         -5    1    3    3    0  502 -0.13441159768E+03  0.42734643469E+02  0.15968948084E+03  0.21309840459E+03  0.41800000000E+01 0. -1.
        -11    1    1    2    0    0  0.57615676897E+02  0.16619863943E+02  0.62028314119E+02  0.86274549284E+02  0.00000000000E+00 0.  1.
         11    1    1    2    0    0  0.59929150408E+02 -0.45983760126E+02 -0.72246882038E+01  0.75882839849E+02  0.00000000000E+00 0. -1.
</event>
<event>
 7    1  0.4966153E-006  0.1043402E+03  0.7561462E-02  0.1271425E+00
          4   -1    0    0  501    0  0.00000000000E+00  0.00000000000E+00  0.50928497349E+02  0.50928497349E+02  0.00000000000E+00 0. -1.
         -4   -1    0    0    0  501 -0.00000000000E+00 -0.00000000000E+00 -0.28233473508E+03  0.28233473508E+03  0.00000000000E+00 0.  1.
         23    2    1    2    0    0  0.69918557068E+00 -0.48125914166E+02 -0.16366373585E+03  0.21153548193E+03  0.12507937163E+03 0.  0.
          5    1    3    3  502    0 -0.50854058897E+02 -0.29046459587E+02 -0.27899932910E+02  0.65005467288E+02  0.41800000000E+01 0.  1.
         -5    1    3    3    0  502  0.51553244468E+02 -0.19079454578E+02 -0.13576380294E+03  0.14653001464E+03  0.41800000000E+01 0.  1.
        -11    1    1    2    0    0  0.33820868213E+02  0.49888935803E+02 -0.21494830392E+02  0.63990505357E+02  0.00000000000E+00 0. -1.
         11    1    1    2    0    0 -0.34520053784E+02 -0.17630216374E+01 -0.46247671495E+02  0.57737245147E+02  0.00000000000E+00 0.  1.
</event>
<event>
 7    1  0.4966153E-006  0.6423599E+02  0.7561462E-02  0.1380869E+00
          2   -1    0    0  501    0  0.00000000000E+00  0.00000000000E+00  0.38136957529E+03  0.38136957529E+03  0.00000000000E+00 0. -1.
         -2   -1    0    0    0  501 -0.00000000000E+00 -0.00000000000E+00 -0.38224267469E+02  0.38224267469E+02  0.00000000000E+00 0.  1.
         23    2    1    2    0    0 -0.24172069125E+02  0.22499479803E+02  0.11871475897E+03  0.17558613165E+03  0.12508709011E+03 0.  0.
          5    1    3    3  502    0 -0.23290766712E+02  0.35064218527E+02  0.14233773831E+03  0.14849061715E+03  0.41800000000E+01 0.  1.
         -5    1    3    3    0  502 -0.88130241339E+00 -0.12564738723E+02 -0.23622979336E+02  0.27095514497E+02  0.41800000000E+01 0.  1.
        -11    1    1    2    0    0  0.46188409581E+02 -0.89498995478E+01  0.20827586424E+03  0.21352354790E+03  0.00000000000E+00 0. -1.
         11    1    1    2    0    0 -0.22016340456E+02 -0.13549580255E+02  0.16154684612E+02  0.30484163217E+02  0.00000000000E+00 0.  1.
</event>
<event>
 7    1  0.4966153E-006  0.7710800E+02  0.7561462E-02  0.1337465E+00
          1   -1    0    0  501    0  0.00000000000E+00  0.00000000000E+00  0.21209084417E+03  0.21209084417E+03  0.00000000000E+00 0. -1.
         -1   -1    0    0    0  501 -0.00000000000E+00 -0.00000000000E+00 -0.62881677065E+02  0.62881677065E+02  0.00000000000E+00 0.  1.
         23    2    1    2    0    0  0.22117531226E+02  0.28708552908E+02  0.65908873257E+02  0.14596324667E+03  0.12509166082E+03 0.  0.
          5    1    3    3  502    0  0.62067509380E+02  0.25175341262E+02  0.78917637865E+02  0.10359362671E+03  0.41800000000E+01 0.  1.
         -5    1    3    3    0  502 -0.39949978154E+02  0.35332116464E+01 -0.13008764608E+02  0.42369619962E+02  0.41800000000E+01 0.  1.
        -11    1    1    2    0    0 -0.29490217965E+02 -0.21725004580E+02  0.10164391464E+03  0.10804227952E+03  0.00000000000E+00 0. -1.
         11    1    1    2    0    0  0.73726867394E+01 -0.69835483283E+01 -0.18343620800E+02  0.20966995042E+02  0.00000000000E+00 0.  1.
</event>
<event>
 7    1  0.4966153E-006  0.1182781E+03  0.7561462E-02  0.1245965E+00
          2   -1    0    0  501    0  0.00000000000E+00  0.00000000000E+00  0.54053494401E+03  0.54053494401E+03  0.00000000000E+00 0. -1.
         -2   -1    0    0    0  501 -0.00000000000E+00 -0.00000000000E+00 -0.27301452649E+02  0.27301452649E+02  0.00000000000E+00 0.  1.
         23    2    1    2    0    0  0.38472350920E+02 -0.32341433001E+02  0.23532420690E+03  0.27120080458E+03  0.12508518689E+03 0.  0.
          5    1    3    3  502    0 -0.19159571440E+02 -0.64959233401E+02  0.10622525678E+03  0.12604788280E+03  0.41800000000E+01 0. -1.
         -5    1    3    3    0  502  0.57631922361E+02  0.32617800401E+02  0.12909895012E+03  0.14515292178E+03  0.41800000000E+01 0. -1.
        -11    1    1    2    0    0 -0.14181000891E+02  0.62234190174E+02  0.14903978288E+03  0.16213282238E+03  0.00000000000E+00 0.  1.
         11    1    1    2    0    0 -0.24291350030E+02 -0.29892757173E+02  0.12886950158E+03  0.13450276969E+03  0.00000000000E+00 0. -1.
</event>
<event>
 7    1  0.4966153E-006  0.9761524E+02  0.7561462E-02  0.1285392E+00
          2   -1    0    0  501    0  0.00000000000E+00  0.00000000000E+00  0.55451701590E+03  0.55451701590E+03  0.00000000000E+00 0. -1.
         -2   -1    0    0    0  501 -0.00000000000E+00 -0.00000000000E+00 -0.22757578727E+02  0.22757578727E+02  0.00000000000E+00 0.  1.
         23    2    1    2    0    0  0.40808512871E+02 -0.10772121566E+02  0.31300292050E+03  0.33971295347E+03  0.12511070773E+03 0.  0.
          5    1    3    3  502    0 -0.28795479951E+02  0.13534974700E+02  0.20610314436E+02  0.38139646916E+02  0.41800000000E+01 0. -1.
         -5    1    3    3    0  502  0.69603992822E+02 -0.24307096265E+02  0.29239260606E+03  0.30157330655E+03  0.41800000000E+01 0. -1.
        -11    1    1    2    0    0 -0.29389870617E+02 -0.32922742085E+02  0.76601527710E+02  0.88405121394E+02  0.00000000000E+00 0.  1.
         11    1    1    2    0    0 -0.11418642254E+02  0.43694863651E+02  0.14215498896E+03  0.14915651976E+03  0.00000000000E+00 0. -1.
</event>
<event>
 7    1  0.4966153E-006  0.1085901E+03  0.7561462E-02  0.1263203E+00
          2   -1    0    0  501    0  0.00000000000E+00  0.00000000000E+00  0.24826668102E+02  0.24826668102E+02  0.00000000000E+00 0. -1.
         -2   -1    0    0    0  501 -0.00000000000E+00 -0.00000000000E+00 -0.77656331730E+03  0.77656331730E+03  0.00000000000E+00 0.  1.
         23    2    1    2    0    0  0.81171732801E+01  0.57142694836E+02 -0.59657045651E+03  0.61226969741E+03  0.12508675674E+03 0.  0.
          5    1    3    3  502    0 -0.39572185039E+02  0.57039431187E+02 -0.49639314775E+03  0.50124154265E+03  0.41800000000E+01 0. -1.
         -5    1    3    3    0  502  0.47689358319E+02  0.10326364868E+00 -0.10017730875E+03  0.11102815476E+03  0.41800000000E+01 0. -1.
        -11    1    1    2    0    0 -0.44781679835E+02 -0.35825722133E+02 -0.12358331764E+03  0.13624139464E+03  0.00000000000E+00 0.  1.
         11    1    1    2    0    0  0.36664506555E+02 -0.21316972703E+02 -0.31582875058E+02  0.52878893361E+02  0.00000000000E+00 0. -1.
</event>
<event>
 7    1  0.4966153E-006  0.1598754E+03  0.7561462E-02  0.1188838E+00
          2   -1    0    0  501    0  0.00000000000E+00  0.00000000000E+00  0.66898434559E+03  0.66898434559E+03  0.00000000000E+00 0. -1.
         -2   -1    0    0    0  501 -0.00000000000E+00 -0.00000000000E+00 -0.69652487337E+02  0.69652487337E+02  0.00000000000E+00 0.  1.
         23    2    1    2    0    0 -0.88330340211E+02  0.10306916755E+03  0.93178227957E+02  0.20677355050E+03  0.12509043417E+03 0.  0.
          5    1    3    3  502    0 -0.88475064504E+02  0.80947838505E+01  0.53231473160E+02  0.10365531679E+03  0.41800000000E+01 0.  1.
         -5    1    3    3    0  502  0.14472429286E+00  0.94974383699E+02  0.39946754798E+02  0.10311823371E+03  0.41800000000E+01 0.  1.
        -11    1    1    2    0    0  0.27165970804E+02 -0.32040202242E+02  0.46143253993E+02  0.62400035405E+02  0.00000000000E+00 0.  1.
         11    1    1    2    0    0  0.61164369408E+02 -0.71028965307E+02  0.46001037630E+03  0.46946324702E+03  0.00000000000E+00 0. -1.
</event>
<event>
 7    1  0.4966153E-006  0.1029951E+03  0.7561462E-02  0.1274121E+00
          2   -1    0    0  501    0  0.00000000000E+00  0.00000000000E+00  0.99183173044E+03  0.99183173044E+03  0.00000000000E+00 0. -1.
         -2   -1    0    0    0  501 -0.00000000000E+00 -0.00000000000E+00 -0.15197451711E+02  0.15197451711E+02  0.00000000000E+00 0.  1.
         23    2    1    2    0    0 -0.18919849865E+01  0.58718222866E+02  0.50744816200E+03  0.52592995884E+03  0.12508906900E+03 0.  0.
          5    1    3    3  502    0  0.71679504168E+01 -0.21957069279E+02  0.32902713974E+03  0.32986334063E+03  0.41800000000E+01 0. -1.
         -5    1    3    3    0  502 -0.90599354033E+01  0.80675292145E+02  0.17842102227E+03  0.19606661822E+03  0.41800000000E+01 0. -1.
        -11    1    1    2    0    0  0.34879986530E+02 -0.58651620018E+02  0.37843982909E+03  0.38454301480E+03  0.00000000000E+00 0. -1.
         11    1    1    2    0    0 -0.32988001543E+02 -0.66602848111E-01  0.90746287642E+02  0.96556208514E+02  0.00000000000E+00 0.  1.
</event>
<event>
 7    1  0.4966153E-006  0.7978023E+02  0.7561462E-02  0.1329676E+00
         -1   -1    0    0    0  501 -0.00000000000E+00  0.00000000000E+00  0.21536335732E+03  0.21536335732E+03  0.00000000000E+00 0.  1.
          1   -1    0    0  501    0  0.00000000000E+00 -0.00000000000E+00 -0.82287747152E+02  0.82287747152E+02  0.00000000000E+00 0. -1.
         23    2    1    2    0    0  0.14162791232E+02  0.26657090281E+02  0.15053257897E+03  0.19803666735E+03  0.12508908491E+03 0.  0.
          5    1    3    3  502    0  0.62094487968E+02  0.45334721518E+02  0.86867816065E+02  0.11607950844E+03  0.41800000000E+01 0.  1.
         -5    1    3    3    0  502 -0.47931696736E+02 -0.18677631237E+02  0.63664762905E+02  0.81957158908E+02  0.41800000000E+01 0.  1.
        -11    1    1    2    0    0 -0.79833387821E+01 -0.80140504101E+01  0.38596318927E+02  0.40219827658E+02  0.00000000000E+00 0.  1.
         11    1    1    2    0    0 -0.61794524499E+01 -0.18643039871E+02 -0.56053287731E+02  0.59394609466E+02  0.00000000000E+00 0. -1.
</event>
<event>
 7    1  0.4966153E-006  0.1676463E+03  0.7561462E-02  0.1180325E+00
         -1   -1    0    0    0  501 -0.00000000000E+00  0.00000000000E+00  0.97242000863E+03  0.97242000863E+03  0.00000000000E+00 0.  1.
          1   -1    0    0  501    0  0.00000000000E+00 -0.00000000000E+00 -0.45262786549E+02  0.45262786549E+02  0.00000000000E+00 0. -1.
         23    2    1    2    0    0 -0.23357828747E+02 -0.14363131069E+03  0.73863799339E+03  0.76315731205E+03  0.12508979204E+03 0.  0.
          5    1    3    3  502    0  0.12943494254E+02  0.26782752277E+01  0.59072444017E+01  0.15069012513E+02  0.41800000000E+01 0.  1.
         -5    1    3    3    0  502 -0.36301323001E+02 -0.14630958591E+03  0.73273074899E+03  0.74808829953E+03  0.41800000000E+01 0.  1.
        -11    1    1    2    0    0  0.36430561513E+02  0.12012926629E+02  0.35510415889E+02  0.52273184856E+02  0.00000000000E+00 0. -1.
         11    1    1    2    0    0 -0.13072732766E+02  0.13161838406E+03  0.15300881280E+03  0.20225229827E+03  0.00000000000E+00 0.  1.
</event>
<event>
 7    1  0.4966153E-006  0.9054610E+02  0.7561462E-02  0.1301535E+00
         -1   -1    0    0    0  501 -0.00000000000E+00  0.00000000000E+00  0.44916505368E+02  0.44916505368E+02  0.00000000000E+00 0.  1.
          1   -1    0    0  501    0  0.00000000000E+00 -0.00000000000E+00 -0.28250389318E+03  0.28250389318E+03  0.00000000000E+00 0. -1.
         23    2    1    2    0    0 -0.17688077037E+02 -0.36916576353E+01 -0.10229925108E+03  0.16259910965E+03  0.12508731863E+03 0.  0.
          5    1    3    3  502    0  0.39052157967E+01  0.53760469368E+02 -0.15558894682E+02  0.56258247225E+02  0.41800000000E+01 0.  1.
         -5    1    3    3    0  502 -0.21593292834E+02 -0.57452127004E+02 -0.86740356401E+02  0.10634086242E+03  0.41800000000E+01 0.  1.
        -11    1    1    2    0    0 -0.15282075401E+02 -0.19811089242E+02 -0.11829197580E+03  0.12090910894E+03  0.00000000000E+00 0. -1.
         11    1    1    2    0    0  0.32970152439E+02  0.23502746877E+02 -0.16996160930E+02  0.43912179961E+02  0.00000000000E+00 0.  1.
</event>
<event>
 7    1  0.4966153E-006  0.1193261E+03  0.7561462E-02  0.1244213E+00
          3   -1    0    0  501    0  0.00000000000E+00  0.00000000000E+00  0.10054141274E+03  0.10054141274E+03  0.00000000000E+00 0. -1.
         -3   -1    0    0    0  501 -0.00000000000E+00 -0.00000000000E+00 -0.18919292706E+03  0.18919292706E+03  0.00000000000E+00 0.  1.
         23    2    1    2    0    0  0.51129151218E+02 -0.62555726805E+02 -0.75122721288E+02  0.16678707437E+03  0.12508835223E+03 0.  0.
          5    1    3    3  502    0  0.36385282892E+02  0.26960170387E+02  0.49032877929E+01  0.45741165591E+02  0.41800000000E+01 0.  1.
         -5    1    3    3    0  502  0.14743868326E+02 -0.89515897192E+02 -0.80026009081E+02  0.12104590878E+03  0.41800000000E+01 0.  1.
        -11    1    1    2    0    0 -0.59243865193E+02  0.25631159153E+02  0.24762599893E+02  0.69137386674E+02  0.00000000000E+00 0. -1.
         11    1    1    2    0    0  0.81147139753E+01  0.36924567653E+02 -0.38291392926E+02  0.53809878753E+02  0.00000000000E+00 0.  1.
</event>
<event>
 7    1  0.4966153E-006  0.1819558E+03  0.7561462E-02  0.1165924E+00
         -1   -1    0    0    0  501 -0.00000000000E+00  0.00000000000E+00  0.54470661664E+02  0.54470661664E+02  0.00000000000E+00 0.  1.
          1   -1    0    0  501    0  0.00000000000E+00 -0.00000000000E+00 -0.76292580167E+03  0.76292580167E+03  0.00000000000E+00 0. -1.
         23    2    1    2    0    0  0.59480768536E+02 -0.16030423450E+03 -0.35641553606E+03  0.41462623180E+03  0.12508984102E+03 0.  0.
          5    1    3    3  502    0 -0.41104686018E+01  0.56897188166E+01 -0.11242337491E+03  0.11271981405E+03  0.41800000000E+01 0.  1.
         -5    1    3    3    0  502  0.63591237138E+02 -0.16599395331E+03 -0.24399216115E+03  0.30190641775E+03  0.41800000000E+01 0.  1.
        -11    1    1    2    0    0 -0.54072902479E+01  0.85299572886E+02 -0.86548929560E+02  0.12163869915E+03  0.00000000000E+00 0. -1.
         11    1    1    2    0    0 -0.54073478288E+02  0.75004661610E+02 -0.26549067439E+03  0.28113153239E+03  0.00000000000E+00 0.  1.
</event>
<event>
 7    1  0.4966153E-006  0.6358811E+02  0.7561462E-02  0.1383363E+00
          2   -1    0    0  501    0  0.00000000000E+00  0.00000000000E+00  0.75250747286E+02  0.75250747286E+02  0.00000000000E+00 0. -1.
         -2   -1    0    0    0  501 -0.00000000000E+00 -0.00000000000E+00 -0.55203624507E+03  0.55203624507E+03  0.00000000000E+00 0.  1.
         23    2    1    2    0    0  0.95854170974E+01  0.36277303879E+02 -0.50672873186E+03  0.52391032318E+03  0.12767182950E+03 0.  0.
          5    1    3    3  502    0  0.66997945004E+01  0.10781639130E+02  0.28534203797E+01  0.13665481936E+02  0.41800000000E+01 0. -1.
         -5    1    3    3    0  502  0.28856225970E+01  0.25495664748E+02 -0.50958215224E+03  0.51024484124E+03  0.41800000000E+01 0.  1.
        -11    1    1    2    0    0 -0.38609097237E+02  0.32848647451E+01 -0.10101078576E+02  0.40043532740E+02  0.00000000000E+00 0.  1.
         11    1    1    2    0    0  0.29023680140E+02 -0.39562168624E+02  0.40044312649E+02  0.63333136434E+02  0.00000000000E+00 0. -1.
</event>
<event>
 7    1  0.4966153E-006  0.2170093E+03  0.7561462E-02  0.1136133E+00
          1   -1    0    0  501    0  0.00000000000E+00  0.00000000000E+00  0.64677945907E+03  0.64677945907E+03  0.00000000000E+00 0. -1.
         -1   -1    0    0    0  501 -0.00000000000E+00 -0.00000000000E+00 -0.10004545604E+03  0.10004545604E+03  0.00000000000E+00 0.  1.
         23    2    1    2    0    0 -0.12875960474E+03 -0.16651757448E+03  0.14672336852E+03  0.28545199323E+03  0.12509178688E+03 0.  0.
          5    1    3    3  502    0 -0.49420089276E+02 -0.11234431090E+03  0.14399766597E+03  0.18925218525E+03  0.41800000000E+01 0. -1.
         -5    1    3    3    0  502 -0.79339515468E+02 -0.54173263580E+02  0.27257025471E+01  0.96199807983E+02  0.41800000000E+01 0. -1.
        -11    1    1    2    0    0  0.47381363614E+02  0.97281153812E+02  0.11954236870E+03  0.16124203676E+03  0.00000000000E+00 0.  1.
         11    1    1    2    0    0  0.81378241131E+02  0.69236420667E+02  0.28046826581E+03  0.30013088512E+03  0.00000000000E+00 0. -1.
</event>
<event>
 7    1  0.4966153E-006  0.1415794E+03  0.7561462E-02  0.1211219E+00
         -2   -1    0    0    0  501 -0.00000000000E+00  0.00000000000E+00  0.15726294262E+03  0.15726294262E+03  0.00000000000E+00 0.  1.
          2   -1    0    0  501    0  0.00000000000E+00 -0.00000000000E+00 -0.17974615186E+03  0.17974615186E+03  0.00000000000E+00 0. -1.
         23    2    1    2    0    0 -0.11052485643E+03  0.53150042489E+02  0.25126278911E+02  0.17697370339E+03  0.12509073065E+03 0.  0.
          5    1    3    3  502    0  0.10069958643E+02  0.20879377721E+01  0.43293239085E+02  0.44693853064E+02  0.41800000000E+01 0.  1.
         -5    1    3    3    0  502 -0.12059481507E+03  0.51062104717E+02 -0.18166960174E+02  0.13227985033E+03  0.41800000000E+01 0.  1.
        -11    1    1    2    0    0  0.54072911823E+02 -0.63748783899E+02 -0.57894400269E+02  0.10168357205E+03  0.00000000000E+00 0. -1.
         11    1    1    2    0    0  0.56451944605E+02  0.10598741410E+02  0.10284912115E+02  0.58351819050E+02  0.00000000000E+00 0.  1.
</event>
<event>
 7    1  0.4966153E-006  0.9786225E+02  0.7561462E-02  0.1284857E+00
         -2   -1    0    0    0  501 -0.00000000000E+00  0.00000000000E+00  0.51303229332E+02  0.51303229332E+02  0.00000000000E+00 0.  1.
          2   -1    0    0  501    0  0.00000000000E+00 -0.00000000000E+00 -0.30380356414E+03  0.30380356414E+03  0.00000000000E+00 0. -1.
         23    2    1    2    0    0 -0.48091433045E+02  0.35945821159E+02 -0.15216255891E+03  0.20592729148E+03  0.12509083520E+03 0.  0.
          5    1    3    3  502    0 -0.21102411415E+02 -0.40033620332E+02 -0.99893918953E+02  0.10974638932E+03  0.41800000000E+01 0. -1.
         -5    1    3    3    0  502 -0.26989021630E+02  0.75979441491E+02 -0.52268639962E+02  0.96180902165E+02  0.41800000000E+01 0. -1.
        -11    1    1    2    0    0  0.29551031499E+02 -0.40795551772E+02 -0.11467134365E+03  0.12524798426E+03  0.00000000000E+00 0. -1.
         11    1    1    2    0    0  0.18540401546E+02  0.48497306132E+01  0.14333567751E+02  0.23931517733E+02  0.00000000000E+00 0.  1.
</event>
<event>
 7    1  0.4966153E-006  0.1016779E+03  0.7561462E-02  0.1276807E+00
          1   -1    0    0  501    0  0.00000000000E+00  0.00000000000E+00  0.54196994777E+03  0.54196994777E+03  0.00000000000E+00 0. -1.
         -1   -1    0    0    0  501 -0.00000000000E+00 -0.00000000000E+00 -0.25103266238E+02  0.25103266238E+02  0.00000000000E+00 0.  1.
         23    2    1    2    0    0  0.21554715792E+02  0.98024063393E+01  0.20681515689E+03  0.24285874698E+03  0.12508864426E+03 0.  0.
          5    1    3    3  502    0 -0.41779404949E+02 -0.78104781056E+01  0.25018661867E+02  0.49496748254E+02  0.41800000000E+01 0. -1.
         -5    1    3    3    0  502  0.63334120741E+02  0.17612884445E+02  0.18179649502E+03  0.19336199872E+03  0.41800000000E+01 0. -1.
        -11    1    1    2    0    0  0.35180725431E+02  0.64342181079E+01  0.11796107158E+03  0.12326352670E+03  0.00000000000E+00 0.  1.
         11    1    1    2    0    0 -0.56735441223E+02 -0.16236624447E+02  0.19209045306E+03  0.20095094033E+03  0.00000000000E+00 0. -1.
</event>
<event>
 7    1  0.4966153E-006  0.3472846E+03  0.7561462E-02  0.1063735E+00
         -2   -1    0    0    0  501 -0.00000000000E+00  0.00000000000E+00  0.81861754834E+03  0.81861754834E+03  0.00000000000E+00 0.  1.
          2   -1    0    0  501    0  0.00000000000E+00 -0.00000000000E+00 -0.17851762415E+03  0.17851762415E+03  0.00000000000E+00 0. -1.
         23    2    1    2    0    0 -0.26770019523E+03 -0.21602586142E+03  0.48833086359E+03  0.61028010621E+03  0.12507680989E+03 0.  0.
          5    1    3    3  502    0  0.25426839844E+01 -0.84093583973E+01 -0.47911806400E+01  0.10844831139E+02  0.41800000000E+01 0. -1.
         -5    1    3    3    0  502 -0.27024287921E+03 -0.20761650303E+03  0.49312204423E+03  0.59943527507E+03  0.41800000000E+01 0. -1.
        -11    1    1    2    0    0  0.98482209459E+02  0.76427633539E+02  0.87136831385E+01  0.12496342274E+03  0.00000000000E+00 0.  1.
         11    1    1    2    0    0  0.16921798577E+03  0.13959822788E+03  0.14305537746E+03  0.26189164354E+03  0.00000000000E+00 0. -1.
</event>
<event>
 7    1  0.4966153E-006  0.2448199E+03  0.7561462E-02  0.1116623E+00
          2   -1    0    0  501    0  0.00000000000E+00  0.00000000000E+00  0.45574478553E+03  0.45574478553E+03  0.00000000000E+00 0. -1.
         -2   -1    0    0    0  501 -0.00000000000E+00 -0.00000000000E+00 -0.15554122479E+03  0.15554122479E+03  0.00000000000E+00 0.  1.
         23    2    1    2    0    0 -0.79676075246E+02  0.22913483489E+03  0.14620188953E+03  0.30963385562E+03  0.12508829888E+03 0.  0.
          5    1    3    3  502    0 -0.75503933298E+02  0.18987227379E+03  0.16779899680E+03  0.26443581456E+03  0.41800000000E+01 0.  1.
         -5    1    3    3    0  502 -0.41721419475E+01  0.39262561103E+02 -0.21597107272E+02  0.45198041056E+02  0.41800000000E+01 0.  1.
        -11    1    1    2    0    0  0.37664121993E+02 -0.56625297691E+02  0.21828703173E+01  0.68042452535E+02  0.00000000000E+00 0.  1.
         11    1    1    2    0    0  0.42011953253E+02 -0.17250953720E+03  0.15181880089E+03  0.23360970216E+03  0.00000000000E+00 0. -1.
</event>
<event>
 7    1  0.4966153E-006  0.1794818E+03  0.7561462E-02  0.1168305E+00
         -2   -1    0    0    0  501 -0.00000000000E+00  0.00000000000E+00  0.44765217957E+03  0.44765217957E+03  0.00000000000E+00 0. -1.
          2   -1    0    0  501    0  0.00000000000E+00 -0.00000000000E+00 -0.94642804357E+02  0.94642804357E+02  0.00000000000E+00 0.  1.
         23    2    1    2    0    0 -0.44723620739E+02  0.16703710412E+03  0.15609712134E+03  0.26441616753E+03  0.12509197398E+03 0.  0.
          5    1    3    3  502    0 -0.17060751841E+02  0.40696814812E+02  0.12315364975E+03  0.13088771461E+03  0.41800000000E+01 0.  1.
         -5    1    3    3    0  502 -0.27662868898E+02  0.12634028931E+03  0.32943471591E+02  0.13352845292E+03  0.41800000000E+01 0.  1.
        -11    1    1    2    0    0  0.57418368527E+02 -0.87262151283E+02  0.64486375952E+02  0.12276011068E+03  0.00000000000E+00 0.  1.
         11    1    1    2    0    0 -0.12694747788E+02 -0.79774952835E+02  0.13242587792E+03  0.15511870572E+03  0.00000000000E+00 0. -1.
</event>
<event>
 7    1  0.4966153E-006  0.1062212E+03  0.7561462E-02  0.1267732E+00
         -1   -1    0    0    0  501 -0.00000000000E+00  0.00000000000E+00  0.19304742919E+03  0.19304742919E+03  0.00000000000E+00 0.  1.
          1   -1    0    0  501    0  0.00000000000E+00 -0.00000000000E+00 -0.67361939558E+02  0.67361939558E+02  0.00000000000E+00 0. -1.
         23    2    1    2    0    0  0.28568877316E+02 -0.35947393292E+01  0.77261924258E+02  0.14981870299E+03  0.12508851235E+03 0.  0.
          5    1    3    3  502    0  0.25861431456E+02  0.57763904602E+02  0.22120916425E+02  0.67173578550E+02  0.41800000000E+01 0.  1.
         -5    1    3    3    0  502  0.27074458597E+01 -0.61358643931E+02  0.55141007833E+02  0.82645124436E+02  0.41800000000E+01 0.  1.
        -11    1    1    2    0    0 -0.34570385468E+02 -0.34529749354E+02  0.52574746338E+02  0.71774083724E+02  0.00000000000E+00 0.  1.
         11    1    1    2    0    0  0.60015081520E+01  0.38124488684E+02 -0.41511809662E+01  0.38816582035E+02  0.00000000000E+00 0. -1.
</event>
<event>
 7    1  0.4966153E-006  0.8862706E+02  0.7561462E-02  0.1306211E+00
         -2   -1    0    0    0  501 -0.00000000000E+00  0.00000000000E+00  0.62288875560E+02  0.62288875560E+02  0.00000000000E+00 0.  1.
          2   -1    0    0  501    0  0.00000000000E+00 -0.00000000000E+00 -0.19780114222E+03  0.19780114222E+03  0.00000000000E+00 0. -1.
         23    2    1    2    0    0  0.24175619057E+02 -0.44509518587E+01 -0.85391038689E+02  0.15343928861E+03  0.12509082408E+03 0.  0.
          5    1    3    3  502    0 -0.42981607391E+02 -0.26929788085E+02 -0.13977291258E+02  0.52777543815E+02  0.41800000000E+01 0.  1.
         -5    1    3    3    0  502  0.67157226447E+02  0.22478836227E+02 -0.71413747431E+02  0.10066174479E+03  0.41800000000E+01 0.  1.
        -11    1    1    2    0    0  0.13616568778E+02  0.10435228316E+02  0.20255972384E+02  0.26544478758E+02  0.00000000000E+00 0.  1.
         11    1    1    2    0    0 -0.37792187834E+02 -0.59842764575E+01 -0.70377200354E+02  0.80106250416E+02  0.00000000000E+00 0. -1.
</event>
<event>
 7    1  0.4966153E-006  0.1158274E+03  0.7561462E-02  0.1250144E+00
         -2   -1    0    0    0  501 -0.00000000000E+00  0.00000000000E+00  0.23219345491E+02  0.23219345491E+02  0.00000000000E+00 0.  1.
          2   -1    0    0  501    0  0.00000000000E+00 -0.00000000000E+00 -0.66196224392E+03  0.66196224392E+03  0.00000000000E+00 0. -1.
         23    2    1    2    0    0 -0.17439737422E+02  0.52778451611E+02 -0.41211777804E+03  0.43425593660E+03  0.12508975217E+03 0.  0.
          5    1    3    3  502    0  0.31886311317E+02 -0.27517278166E+02 -0.13953947030E+03  0.14581726105E+03  0.41800000000E+01 0.  1.
         -5    1    3    3    0  502 -0.49326048739E+02  0.80295729777E+02 -0.27257830774E+03  0.28843867555E+03  0.41800000000E+01 0.  1.
        -11    1    1    2    0    0  0.42514594734E+02 -0.73976750385E+01 -0.16420695237E+03  0.16978262446E+03  0.00000000000E+00 0. -1.
         11    1    1    2    0    0 -0.25074857312E+02 -0.45380776572E+02 -0.62418168021E+02  0.81143028355E+02  0.00000000000E+00 0.  1.
</event>
<event>
 7    1  0.4966153E-006  0.8947083E+02  0.7561462E-02  0.1304138E+00
          2   -1    0    0  501    0  0.00000000000E+00  0.00000000000E+00  0.38378192885E+03  0.38378192885E+03  0.00000000000E+00 0. -1.
         -2   -1    0    0    0  501 -0.00000000000E+00 -0.00000000000E+00 -0.46039566193E+02  0.46039566193E+02  0.00000000000E+00 0.  1.
         23    2    1    2    0    0  0.47279288795E+01  0.58242651809E+02  0.10936017609E+03  0.17613112144E+03  0.12509182237E+03 0.  0.
          5    1    3    3  502    0  0.31675095151E+02  0.30832701875E+02 -0.14236927562E+02  0.46627563352E+02  0.41800000000E+01 0.  1.
         -5    1    3    3    0  502 -0.26947166271E+02  0.27409949934E+02  0.12359710365E+03  0.12950355809E+03  0.41800000000E+01 0.  1.
        -11    1    1    2    0    0 -0.12037090361E+02  0.16695721855E+02  0.10379830411E+02  0.23051671349E+02  0.00000000000E+00 0. -1.
         11    1    1    2    0    0  0.73091614811E+01 -0.74938373664E+02  0.21800235615E+03  0.23063870225E+03  0.00000000000E+00 0.  1.
</event>
<event>
 6    1  0.4966153E-006  0.1168805E+03  0.7561462E-02  0.1248334E+00
         -1   -1    0    0    0  501 -0.00000000000E+00  0.00000000000E+00  0.39151240550E+03  0.39151240550E+03  0.00000000000E+00 0.  1.
          1   -1    0    0  501    0  0.00000000000E+00 -0.00000000000E+00 -0.49260574354E+02  0.49260574354E+02  0.00000000000E+00 0. -1.
          5    1    1    2  502    0 -0.56587576254E+02  0.21061662605E+02  0.11156128066E+03  0.12692178364E+03  0.41800000000E+01 0. -1.
         -5    1    1    2    0  502  0.38649758701E+02 -0.71835004683E+02  0.17878496069E+03  0.19655942184E+03  0.41800000000E+01 0.  1.
        -11    1    1    2    0    0 -0.41050987023E+01 -0.18453923277E+02 -0.10404895012E+02  0.21579178851E+02  0.00000000000E+00 0. -1.
         11    1    1    2    0    0  0.22042916255E+02  0.69227265355E+02  0.62310484800E+02  0.95712595522E+02  0.00000000000E+00 0.  1.
</event>
<event>
 7    1  0.4966153E-006  0.8484751E+02  0.7561462E-02  0.1315832E+00
         -2   -1    0    0    0  501 -0.00000000000E+00  0.00000000000E+00  0.47082245732E+03  0.47082245732E+03  0.00000000000E+00 0. -1.
          2   -1    0    0  501    0  0.00000000000E+00 -0.00000000000E+00 -0.26389006639E+02  0.26389006639E+02  0.00000000000E+00 0.  1.
         23    2    1    2    0    0 -0.17569507144E+01 -0.41401619334E+02  0.25545468554E+03  0.28743930718E+03  0.12508828078E+03 0.  0.
          5    1    3    3  502    0 -0.31606805783E+02 -0.62905841278E+01  0.51608862215E+01  0.32903932395E+02  0.41800000000E+01 0.  1.
         -5    1    3    3    0  502  0.29849855068E+02 -0.35111035206E+02  0.25029379932E+03  0.25453537479E+03  0.41800000000E+01 0.  1.
        -11    1    1    2    0    0  0.40995329037E+02  0.27185906581E+02  0.96576759331E+02  0.10838247535E+03  0.00000000000E+00 0.  1.
         11    1    1    2    0    0 -0.39238378323E+02  0.14215712753E+02  0.92402005808E+02  0.10138968143E+03  0.00000000000E+00 0. -1.
</event>
<event>
 7    1  0.4966153E-006  0.1025310E+03  0.7561462E-02  0.1275062E+00
         -1   -1    0    0    0  501 -0.00000000000E+00  0.00000000000E+00  0.53275309262E+03  0.53275309262E+03  0.00000000000E+00 0.  1.
          1   -1    0    0  501    0  0.00000000000E+00 -0.00000000000E+00 -0.27474523877E+02  0.27474523877E+02  0.00000000000E+00 0. -1.
         23    2    1    2    0    0 -0.25020642268E+02 -0.46815071672E+01  0.39659711187E+03  0.41663463493E+03  0.12508877179E+03 0.  0.
          5    1    3    3  502    0 -0.20324656839E+01 -0.63429645154E+02  0.17517929274E+03  0.18636713178E+03  0.41800000000E+01 0.  1.
         -5    1    3    3    0  502 -0.22988176584E+02  0.58748137987E+02  0.22141781913E+03  0.23026750316E+03  0.41800000000E+01 0.  1.
        -11    1    1    2    0    0  0.22117361845E+02  0.38443472998E+02  0.98794916788E+02  0.10829364660E+03  0.00000000000E+00 0.  1.
         11    1    1    2    0    0  0.29032804231E+01 -0.33761965831E+02  0.98865400768E+01  0.35299334961E+02  0.00000000000E+00 0. -1.
</event>
<event>
 7    1  0.4966153E-006  0.1309372E+03  0.7561462E-02  0.1226072E+00
          2   -1    0    0  501    0  0.00000000000E+00  0.00000000000E+00  0.40710466804E+03  0.40710466804E+03  0.00000000000E+00 0. -1.
         -2   -1    0    0    0  501 -0.00000000000E+00 -0.00000000000E+00 -0.65282147696E+02  0.65282147696E+02  0.00000000000E+00 0.  1.
         23    2    1    2    0    0  0.60812334374E+02  0.81183204667E+02  0.87868407170E+02  0.18355223400E+03  0.12522664611E+03 0.  0.
          5    1    3    3  502    0  0.56293084393E+02  0.10037802244E+03  0.10594118036E+03  0.15647895972E+03  0.41800000000E+01 0.  1.
         -5    1    3    3    0  502  0.45192499808E+01 -0.19194817773E+02 -0.18072773186E+02  0.27073274282E+02  0.41800000000E+01 0.  1.
        -11    1    1    2    0    0 -0.10273732760E+02  0.14837178034E+02  0.74857245425E+01  0.19537848109E+02  0.00000000000E+00 0.  1.
         11    1    1    2    0    0 -0.50538601614E+02 -0.96020382700E+02  0.24646838863E+03  0.26929673362E+03  0.00000000000E+00 0. -1.
</event>
<event>
 7    1  0.4966153E-006  0.1028350E+03  0.7561462E-02  0.1274445E+00
         -1   -1    0    0    0  501 -0.00000000000E+00  0.00000000000E+00  0.46531050515E+03  0.46531050515E+03  0.00000000000E+00 0.  1.
          1   -1    0    0  501    0  0.00000000000E+00 -0.00000000000E+00 -0.34259863908E+02  0.34259863908E+02  0.00000000000E+00 0. -1.
         23    2    1    2    0    0 -0.52064129362E+02 -0.32055201959E+02  0.28689368565E+03  0.31889522086E+03  0.12509182820E+03 0.  0.
          5    1    3    3  502    0 -0.37694330727E+02  0.29981635574E+02  0.22449681537E+03  0.22964331811E+03  0.41800000000E+01 0.  1.
         -5    1    3    3    0  502 -0.14369798634E+02 -0.62036837533E+02  0.62396870278E+02  0.89251902750E+02  0.41800000000E+01 0.  1.
        -11    1    1    2    0    0  0.33585151305E+02  0.54757310513E+02  0.48078088800E+02  0.80236077082E+02  0.00000000000E+00 0. -1.
         11    1    1    2    0    0  0.18478978057E+02 -0.22702108554E+02  0.96078866787E+02  0.10043907111E+03  0.00000000000E+00 0.  1.
</event>
<event>
 7    1  0.4966153E-006  0.8770930E+02  0.7561462E-02  0.1308496E+00
          2   -1    0    0  501    0  0.00000000000E+00  0.00000000000E+00  0.42343436366E+03  0.42343436366E+03  0.00000000000E+00 0. -1.
         -2   -1    0    0    0  501 -0.00000000000E+00 -0.00000000000E+00 -0.23685530777E+02  0.23685530777E+02  0.00000000000E+00 0.  1.
         23    2    1    2    0    0 -0.24947333954E+02 -0.52475550762E+02  0.24818297450E+03  0.28191493906E+03  0.12043749888E+03 0.  0.
          5    1    3    3  502    0  0.16275018568E+02 -0.64744447061E+02  0.22091323477E+03  0.23081778387E+03  0.41800000000E+01 0. -1.
         -5    1    3    3    0  502 -0.41222352522E+02  0.12268896299E+02  0.27269739724E+02  0.51097155190E+02  0.41800000000E+01 0.  1.
        -11    1    1    2    0    0  0.31834028852E+02  0.40639112338E+02  0.11168625638E+03  0.12303967941E+03  0.00000000000E+00 0. -1.
         11    1    1    2    0    0 -0.68866948976E+01  0.11836438424E+02  0.39879602007E+02  0.42165275968E+02  0.00000000000E+00 0.  1.
</event>
<event>
 7    1  0.4966153E-006  0.1222841E+03  0.7561462E-02  0.1239376E+00
          2   -1    0    0  501    0  0.00000000000E+00  0.00000000000E+00  0.19477578571E+03  0.19477578571E+03  0.00000000000E+00 0. -1.
         -2   -1    0    0    0  501 -0.00000000000E+00 -0.00000000000E+00 -0.10143758157E+03  0.10143758157E+03  0.00000000000E+00 0.  1.
         23    2    1    2    0    0  0.85590115314E+02 -0.33521950332E+02  0.44398856741E+02  0.16145773239E+03  0.12509177382E+03 0.  0.
          5    1    3    3  502    0  0.37816792987E+02  0.43999089154E+02 -0.38979956157E+01  0.58298340011E+02  0.41800000000E+01 0.  1.
         -5    1    3    3    0  502  0.47773322327E+02 -0.77521039486E+02  0.48296852356E+02  0.10315939238E+03  0.41800000000E+01 0.  1.
        -11    1    1    2    0    0 -0.60291848802E+02  0.10821552385E+02 -0.14352570401E+02  0.62914301277E+02  0.00000000000E+00 0.  1.
         11    1    1    2    0    0 -0.25298266512E+02  0.22700397947E+02  0.63291917803E+02  0.71841333608E+02  0.00000000000E+00 0. -1.
</event>
<event>
 7    1  0.4966153E-006  0.1233358E+03  0.7561462E-02  0.1237693E+00
          2   -1    0    0  501    0  0.00000000000E+00  0.00000000000E+00  0.84991377367E+03  0.84991377367E+03  0.00000000000E+00 0. -1.
         -2   -1    0    0    0  501 -0.00000000000E+00 -0.00000000000E+00 -0.21650002335E+02  0.21650002335E+02  0.00000000000E+00 0.  1.
         23    2    1    2    0    0 -0.62963690139E+02  0.51347060292E+02  0.38148388100E+03  0.40960732939E+03  0.12508903208E+03 0.  0.
          5    1    3    3  502    0 -0.88021592552E+02  0.55621525834E+02  0.19267850729E+03  0.21905258378E+03  0.41800000000E+01 0. -1.
         -5    1    3    3    0  502  0.25057902413E+02 -0.42744655418E+01  0.18880537371E+03  0.19055474560E+03  0.41800000000E+01 0. -1.
        -11    1    1    2    0    0  0.61024334480E+02  0.41569529167E+01  0.20828227901E+03  0.21707776811E+03  0.00000000000E+00 0.  1.
         11    1    1    2    0    0  0.19393556598E+01 -0.55504013209E+02  0.23849761132E+03  0.24487867851E+03  0.00000000000E+00 0. -1.
</event>
<event>
 7    1  0.4966153E-006  0.1950696E+03  0.7561462E-02  0.1153967E+00
         -2   -1    0    0    0  501 -0.00000000000E+00  0.00000000000E+00  0.18702311899E+03  0.18702311899E+03  0.00000000000E+00 0.  1.
          2   -1    0    0  501    0  0.00000000000E+00 -0.00000000000E+00 -0.26568042127E+03  0.26568042127E+03  0.00000000000E+00 0. -1.
         23    2    1    2    0    0 -0.54401260594E+02  0.17225223050E+03  0.32087105319E+02  0.22205241584E+03  0.12508942794E+03 0.  0.
          5    1    3    3  502    0 -0.18970519596E+02  0.16958894819E+03 -0.46666629428E+01  0.17076165291E+03  0.41800000000E+01 0.  1.
         -5    1    3    3    0  502 -0.35430740998E+02  0.26632823178E+01  0.36753768262E+02  0.51290762929E+02  0.41800000000E+01 0.  1.
        -11    1    1    2    0    0  0.75656356952E+01 -0.78518310565E+02 -0.96913823234E+02  0.12495860543E+03  0.00000000000E+00 0. -1.
         11    1    1    2    0    0  0.46835624899E+02 -0.93733919940E+02 -0.13830584368E+02  0.10569251899E+03  0.00000000000E+00 0.  1.
</event>
<event>
 7    1  0.4966153E-006  0.1003321E+03  0.7561462E-02  0.1279599E+00
          1   -1    0    0  501    0  0.00000000000E+00  0.00000000000E+00  0.62846633402E+03  0.62846633402E+03  0.00000000000E+00 0. -1.
         -1   -1    0    0    0  501 -0.00000000000E+00 -0.00000000000E+00 -0.26899503050E+02  0.26899503050E+02  0.00000000000E+00 0.  1.
         23    2    1    2    0    0  0.39203203243E+02  0.59727662859E+02  0.32291001784E+03  0.35358506567E+03  0.12508890516E+03 0.  0.
          5    1    3    3  502    0  0.53006414770E+02  0.29686770650E+02  0.31292838152E+03  0.31879872760E+03  0.41800000000E+01 0.  1.
         -5    1    3    3    0  502 -0.13803211528E+02  0.30040892209E+02  0.99816363172E+01  0.34786338076E+02  0.41800000000E+01 0.  1.
        -11    1    1    2    0    0 -0.51833443274E+02 -0.70950905666E+01  0.77768063257E+02  0.93727892404E+02  0.00000000000E+00 0.  1.
         11    1    1    2    0    0  0.12630240031E+02 -0.52632572292E+02  0.20088874987E+03  0.20805287899E+03  0.00000000000E+00 0. -1.
</event>
<event>
 7    1  0.4966153E-006  0.2685121E+03  0.7561462E-02  0.1102134E+00
          1   -1    0    0  501    0  0.00000000000E+00  0.00000000000E+00  0.78399410009E+03  0.78399410009E+03  0.00000000000E+00 0. -1.
         -1   -1    0    0    0  501 -0.00000000000E+00 -0.00000000000E+00 -0.99658139670E+02  0.99658139670E+02  0.00000000000E+00 0.  1.
         23    2    1    2    0    0 -0.15953412881E+03  0.19676876987E+03  0.28857560835E+03  0.40384700681E+03  0.12508971231E+03 0.  0.
          5    1    3    3  502    0 -0.13369121851E+02 -0.17878595292E+02  0.20590753673E+02  0.30656632651E+02  0.41800000000E+01 0. -1.
         -5    1    3    3    0  502 -0.14616500696E+03  0.21464736516E+03  0.26798485468E+03  0.37319037416E+03  0.41800000000E+01 0. -1.
        -11    1    1    2    0    0  0.50484266021E+02 -0.81845850354E+02  0.23586463618E+03  0.25471460684E+03  0.00000000000E+00 0. -1.
         11    1    1    2    0    0  0.10904986279E+03 -0.11492291951E+03  0.15989571589E+03  0.22509062611E+03  0.00000000000E+00 0.  1.
</event>
<event>
 7    1  0.4966153E-006  0.1107958E+03  0.7561462E-02  0.1259103E+00
         -2   -1    0    0    0  501 -0.00000000000E+00  0.00000000000E+00  0.36611911976E+02  0.36611911976E+02  0.00000000000E+00 0.  1.
          2   -1    0    0  501    0  0.00000000000E+00 -0.00000000000E+00 -0.47728093379E+03  0.47728093379E+03  0.00000000000E+00 0. -1.
         23    2    1    2    0    0 -0.19876719762E+02  0.59401767644E+02 -0.16455922472E+03  0.21598945538E+03  0.12509217565E+03 0.  0.
          5    1    3    3  502    0 -0.16595522977E+02  0.92395126399E+02 -0.15495134863E+03  0.18121717250E+03  0.41800000000E+01 0.  1.
         -5    1    3    3    0  502 -0.32811967851E+01 -0.32993358755E+02 -0.96078760916E+01  0.34772282888E+02  0.41800000000E+01 0.  1.
        -11    1    1    2    0    0 -0.17974063462E+02  0.57381901663E+01 -0.10039448949E+02  0.21372513163E+02  0.00000000000E+00 0.  1.
         11    1    1    2    0    0  0.37850783224E+02 -0.65139957811E+02 -0.26607034814E+03  0.27653087721E+03  0.00000000000E+00 0. -1.
</event>
<event>
 7    1  0.4966153E-006  0.1428469E+03  0.7561462E-02  0.1209549E+00
         -1   -1    0    0    0  501 -0.00000000000E+00  0.00000000000E+00  0.13836783573E+04  0.13836783573E+04  0.00000000000E+00 0.  1.
          1   -1    0    0  501    0  0.00000000000E+00 -0.00000000000E+00 -0.19509358656E+02  0.19509358656E+02  0.00000000000E+00 0. -1.
         23    2    1    2    0    0  0.23696149714E+02 -0.11511389918E+03  0.80965201270E+03  0.82764661467E+03  0.12509923984E+03 0.  0.
          5    1    3    3  502    0 -0.19003508726E+02 -0.74959615797E+02  0.69011545789E+03  0.69444718659E+03  0.41800000000E+01 0.  1.
         -5    1    3    3    0  502  0.42699658440E+02 -0.40154283379E+02  0.11953655481E+03  0.13319942808E+03  0.41800000000E+01 0.  1.
        -11    1    1    2    0    0  0.17659703186E+02  0.10557944135E+03  0.32626441852E+03  0.34337640330E+03  0.00000000000E+00 0. -1.
         11    1    1    2    0    0 -0.41355852900E+02  0.95344578256E+01  0.22825256744E+03  0.23216469800E+03  0.00000000000E+00 0.  1.
</event>
<event>
 7    1  0.4966153E-006  0.1133112E+03  0.7561462E-02  0.1254558E+00
          1   -1    0    0  501    0  0.00000000000E+00  0.00000000000E+00  0.62975812673E+02  0.62975812673E+02  0.00000000000E+00 0. -1.
         -1   -1    0    0    0  501 -0.00000000000E+00 -0.00000000000E+00 -0.39741268690E+03  0.39741268690E+03  0.00000000000E+00 0.  1.
         23    2    1    2    0    0 -0.32261985997E+02  0.23389951788E+02 -0.33614533957E+03  0.36087280334E+03  0.12509022860E+03 0.  0.
          5    1    3    3  502    0 -0.73709352016E+02  0.37930252811E+02 -0.25931137618E+03  0.27227125237E+03  0.41800000000E+01 0. -1.
         -5    1    3    3    0  502  0.41447366018E+02 -0.14540301024E+02 -0.76833963388E+02  0.88601550966E+02  0.41800000000E+01 0. -1.
        -11    1    1    2    0    0 -0.27068891266E+02  0.12861874300E+02  0.20020668237E+00  0.29969864324E+02  0.00000000000E+00 0.  1.
         11    1    1    2    0    0  0.59330877263E+02 -0.36251826088E+02  0.15082586599E+01  0.69545831908E+02  0.00000000000E+00 0. -1.
</event>
<event>
 7    1  0.9547403E-006  0.2453500E+03  0.7561462E-02  0.1116279E+00
          2   -1    0    0  501    0  0.00000000000E+00  0.00000000000E+00  0.86746490826E+03  0.86746490826E+03  0.00000000000E+00 0. -1.
         -2   -1    0    0    0  501 -0.00000000000E+00 -0.00000000000E+00 -0.78316411256E+02  0.78316411256E+02  0.00000000000E+00 0.  1.
         23    2    1    2    0    0  0.15810210722E+03 -0.17327843618E+03  0.46316954300E+03  0.53403668384E+03  0.12508981322E+03 0.  0.
          5    1    3    3  502    0  0.94066187456E+02 -0.29850470746E+02  0.11211500128E+03  0.14942136439E+03  0.41800000000E+01 0.  1.
         -5    1    3    3    0  502  0.64035919769E+02 -0.14342796544E+03  0.35105454172E+03  0.38461531945E+03  0.41800000000E+01 0.  1.
        -11    1    1    2    0    0 -0.75827272217E+02  0.90748419471E+02  0.23788880568E+03  0.26566169223E+03  0.00000000000E+00 0. -1.
         11    1    1    2    0    0 -0.82274835008E+02  0.82530016713E+02  0.88090148324E+02  0.14608294345E+03  0.00000000000E+00 0.  1.
</event>
<event>
 7    1  0.4966153E-006  0.9578361E+02  0.7561462E-02  0.1289421E+00
         -1   -1    0    0    0  501 -0.00000000000E+00  0.00000000000E+00  0.24785625818E+02  0.24785625818E+02  0.00000000000E+00 0.  1.
          1   -1    0    0  501    0  0.00000000000E+00 -0.00000000000E+00 -0.62424268484E+03  0.62424268484E+03  0.00000000000E+00 0. -1.
         23    2    1    2    0    0 -0.13045947072E+02 -0.53605035845E+02 -0.27501737069E+03  0.30712525804E+03  0.12509066049E+03 0.  0.
          5    1    3    3  502    0 -0.15710387896E+01 -0.82908984897E+02 -0.10346756206E+03  0.13266264259E+03  0.41800000000E+01 0.  1.
         -5    1    3    3    0  502 -0.11474908283E+02  0.29303949052E+02 -0.17154980863E+03  0.17446261545E+03  0.41800000000E+01 0.  1.
        -11    1    1    2    0    0  0.70383771051E+01  0.64214383873E+02 -0.32326285525E+03  0.32965421191E+03  0.00000000000E+00 0. -1.
         11    1    1    2    0    0  0.60075699672E+01 -0.10609348028E+02 -0.11768330822E+01  0.12248840704E+02  0.00000000000E+00 0.  1.
</event>
<event>
 7    1  0.4966153E-006  0.1128470E+03  0.7561462E-02  0.1255387E+00
          3   -1    0    0  501    0  0.00000000000E+00  0.00000000000E+00  0.13479139765E+02  0.13479139765E+02  0.00000000000E+00 0. -1.
         -3   -1    0    0    0  501 -0.00000000000E+00 -0.00000000000E+00 -0.11651308618E+04  0.11651308618E+04  0.00000000000E+00 0.  1.
         23    2    1    2    0    0  0.44264485359E+02  0.28002700225E+02 -0.79463090414E+03  0.80611929182E+03  0.12508614207E+03 0.  0.
          5    1    3    3  502    0  0.10997033409E+02 -0.46888539176E+02 -0.19512865387E+03  0.20102769413E+03  0.41800000000E+01 0. -1.
         -5    1    3    3    0  502  0.33267451950E+02  0.74891239401E+02 -0.59950225028E+03  0.60509159768E+03  0.41800000000E+01 0. -1.
        -11    1    1    2    0    0 -0.55452031282E+00 -0.47452643338E+02 -0.26022946131E+03  0.26452113978E+03  0.00000000000E+00 0.  1.
         11    1    1    2    0    0 -0.43709965046E+02  0.19449943113E+02 -0.96791356572E+02  0.10796956997E+03  0.00000000000E+00 0. -1.
</event>
<event>
 7    1  0.4966153E-006  0.1272544E+03  0.7561462E-02  0.1231588E+00
         -2   -1    0    0    0  501 -0.00000000000E+00  0.00000000000E+00  0.29770655959E+02  0.29770655959E+02  0.00000000000E+00 0.  1.
          2   -1    0    0  501    0  0.00000000000E+00 -0.00000000000E+00 -0.60719082502E+03  0.60719082502E+03  0.00000000000E+00 0. -1.
         23    2    1    2    0    0  0.57001564380E+01  0.67056363130E+02 -0.21916858352E+03  0.26117298479E+03  0.12508961731E+03 0.  0.
          5    1    3    3  502    0 -0.22569589784E+02  0.97092102548E+02 -0.14155692560E+03  0.17318226914E+03  0.41800000000E+01 0. -1.
         -5    1    3    3    0  502  0.28269746222E+02 -0.30035739418E+02 -0.77611657924E+02  0.87990715644E+02  0.41800000000E+01 0. -1.
        -11    1    1    2    0    0  0.28971171782E+02 -0.72602927433E+02 -0.25668809480E+03  0.26832683779E+03  0.00000000000E+00 0.  1.
         11    1    1    2    0    0 -0.34671328220E+02  0.55465643032E+01 -0.10156349074E+03  0.10746165841E+03  0.00000000000E+00 0. -1.
</event>
<event>
 7    1  0.4966153E-006  0.1541971E+03  0.7561462E-02  0.1195408E+00
         -3   -1    0    0    0  501 -0.00000000000E+00  0.00000000000E+00  0.44647864031E+03  0.44647864031E+03  0.00000000000E+00 0.  1.
          3   -1    0    0  501    0  0.00000000000E+00 -0.00000000000E+00 -0.56213346170E+02  0.56213346170E+02  0.00000000000E+00 0. -1.
         23    2    1    2    0    0  0.12902482058E+01  0.11159211758E+03  0.26174978339E+03  0.31082944680E+03  0.12509008932E+03 0.  0.
          5    1    3    3  502    0 -0.39780161773E+02 -0.77635804888E+01  0.75598905813E+02  0.85880157270E+02  0.41800000000E+01 0. -1.
         -5    1    3    3    0  502  0.41070409978E+02  0.11935569807E+03  0.18615087758E+03  0.22494928953E+03  0.41800000000E+01 0. -1.
        -11    1    1    2    0    0  0.42552780206E+02 -0.48442597996E+02  0.70590734876E+02  0.95605837972E+02  0.00000000000E+00 0.  1.
         11    1    1    2    0    0 -0.43843028412E+02 -0.63149519581E+02  0.57924775867E+02  0.96256701704E+02  0.00000000000E+00 0. -1.
</event>
<event>
 7    1  0.4966153E-006  0.1343819E+03  0.7561462E-02  0.1221095E+00
         -1   -1    0    0    0  501 -0.00000000000E+00  0.00000000000E+00  0.54352009779E+02  0.54352009779E+02  0.00000000000E+00 0.  1.
          1   -1    0    0  501    0  0.00000000000E+00 -0.00000000000E+00 -0.47267471101E+03  0.47267471101E+03  0.00000000000E+00 0. -1.
         23    2    1    2    0    0  0.13525900690E+02  0.11630067759E+03 -0.19418119257E+03  0.25896299798E+03  0.12508677458E+03 0.  0.
          5    1    3    3  502    0 -0.27277804924E+02  0.26122110928E+02 -0.14199172238E+03  0.14698831567E+03  0.41800000000E+01 0. -1.
         -5    1    3    3    0  502  0.40803705615E+02  0.90178566665E+02 -0.52189470197E+02  0.11197468230E+03  0.41800000000E+01 0. -1.
        -11    1    1    2    0    0  0.16025468701E+02 -0.53767002236E+01 -0.76890177263E+00  0.16920867658E+02  0.00000000000E+00 0.  1.
         11    1    1    2    0    0 -0.29551369391E+02 -0.11092397737E+03 -0.22337260688E+03  0.25114285515E+03  0.00000000000E+00 0. -1.
</event>
<event>
 7    1  0.4966153E-006  0.1036628E+03  0.7561462E-02  0.1272777E+00
          2   -1    0    0  501    0  0.00000000000E+00  0.00000000000E+00  0.58491142279E+03  0.58491142279E+03  0.00000000000E+00 0. -1.
         -2   -1    0    0    0  501 -0.00000000000E+00 -0.00000000000E+00 -0.29828974018E+02  0.29828974018E+02  0.00000000000E+00 0.  1.
         23    2    1    2    0    0 -0.65232562428E+02 -0.20752653868E+02  0.24449529111E+03  0.28304191742E+03  0.12509524290E+03 0.  0.
          5    1    3    3  502    0 -0.64518548240E+02 -0.38627891445E+02  0.56500635619E+02  0.94151746080E+02  0.41800000000E+01 0.  1.
         -5    1    3    3    0  502 -0.71401418802E+00  0.17875237577E+02  0.18799465549E+03  0.18889017134E+03  0.41800000000E+01 0.  1.
        -11    1    1    2    0    0  0.80097490443E+01 -0.33706314621E+02  0.13102909711E+03  0.13553190035E+03  0.00000000000E+00 0.  1.
         11    1    1    2    0    0  0.57222813383E+02  0.54458968489E+02  0.17955806056E+03  0.19616657904E+03  0.00000000000E+00 0. -1.
</event>
<event>
 7    1  0.4966153E-006  0.6725318E+02  0.7561462E-02  0.1369691E+00
          3   -1    0    0  501    0  0.00000000000E+00  0.00000000000E+00  0.15851562685E+03  0.15851562685E+03  0.00000000000E+00 0. -1.
         -3   -1    0    0    0  501 -0.00000000000E+00 -0.00000000000E+00 -0.19089864771E+03  0.19089864771E+03  0.00000000000E+00 0.  1.
         23    2    1    2    0    0  0.25508951475E+02 -0.52535155380E+02 -0.14539307240E+03  0.19189205423E+03  0.11078251586E+03 0.  0.
          5    1    3    3  502    0  0.46793490947E+01  0.72666731095E+01  0.15893839487E+02  0.18568451192E+02  0.41800000000E+01 0. -1.
         -5    1    3    3    0  502  0.20829602380E+02 -0.59801828489E+02 -0.16128691188E+03  0.17332360304E+03  0.41800000000E+01 0.  1.
        -11    1    1    2    0    0 -0.54098276093E+01  0.32907535944E+02  0.12320331045E+03  0.12763709439E+03  0.00000000000E+00 0. -1.
         11    1    1    2    0    0 -0.20099123866E+02  0.19627619436E+02 -0.10193258927E+02  0.29885125940E+02  0.00000000000E+00 0.  1.
</event>
<event>
 7    1  0.4966153E-006  0.7819204E+02  0.7561462E-02  0.1334262E+00
          2   -1    0    0  501    0  0.00000000000E+00  0.00000000000E+00  0.73974376804E+02  0.73974376804E+02  0.00000000000E+00 0. -1.
         -2   -1    0    0    0  501 -0.00000000000E+00 -0.00000000000E+00 -0.18293949884E+03  0.18293949884E+03  0.00000000000E+00 0.  1.
         23    2    1    2    0    0  0.38444365179E+02 -0.15362049398E+02 -0.93174759803E+02  0.15590248178E+03  0.11794102843E+03 0.  0.
          5    1    3    3  502    0  0.10080241368E+02  0.12914398397E+02  0.25492070494E+02  0.30589393751E+02  0.41800000000E+01 0. -1.
         -5    1    3    3    0  502  0.28364123810E+02 -0.28276447795E+02 -0.11866683030E+03  0.12531308803E+03  0.41800000000E+01 0.  1.
        -11    1    1    2    0    0 -0.33093641660E+02  0.52296550560E+02 -0.46421457272E+01  0.62061806578E+02  0.00000000000E+00 0.  1.
         11    1    1    2    0    0 -0.53507235192E+01 -0.36934501162E+02 -0.11148216509E+02  0.38949587284E+02  0.00000000000E+00 0. -1.
</event>
<event>
 7    1  0.4966153E-006  0.1078419E+03  0.7561462E-02  0.1264619E+00
          2   -1    0    0  501    0  0.00000000000E+00  0.00000000000E+00  0.11203233283E+03  0.11203233283E+03  0.00000000000E+00 0. -1.
         -2   -1    0    0    0  501 -0.00000000000E+00 -0.00000000000E+00 -0.20833903150E+03  0.20833903150E+03  0.00000000000E+00 0.  1.
         23    2    1    2    0    0 -0.68023977340E+02  0.42002101035E+02 -0.12080712443E+03  0.19139595736E+03  0.12508642291E+03 0.  0.
          5    1    3    3  502    0 -0.60645836145E+02  0.17361726346E+02 -0.14352053555E+03  0.15682781484E+03  0.41800000000E+01 0.  1.
         -5    1    3    3    0  502 -0.73781411946E+01  0.24640374689E+02  0.22713411124E+02  0.34568142518E+02  0.41800000000E+01 0.  1.
        -11    1    1    2    0    0  0.24212955020E+02  0.32167735342E+02  0.42602309840E+01  0.40486787423E+02  0.00000000000E+00 0. -1.
         11    1    1    2    0    0  0.43811022320E+02 -0.74169836377E+02  0.20240194779E+02  0.88488619548E+02  0.00000000000E+00 0.  1.
</event>
<event>
 7    1  0.4966153E-006  0.1150669E+03  0.7561462E-02  0.1251464E+00
          1   -1    0    0  501    0  0.00000000000E+00  0.00000000000E+00  0.30100813415E+02  0.30100813415E+02  0.00000000000E+00 0. -1.
         -1   -1    0    0    0  501 -0.00000000000E+00 -0.00000000000E+00 -0.44876752927E+03  0.44876752927E+03  0.00000000000E+00 0.  1.
         23    2    1    2    0    0  0.27340015149E+02  0.25091632285E+02 -0.21160303738E+03  0.24859758621E+03  0.12509135863E+03 0.  0.
          5    1    3    3  502    0 -0.54490986217E+01 -0.48551926457E+02 -0.67576791493E+02  0.83492978070E+02  0.41800000000E+01 0.  1.
         -5    1    3    3    0  502  0.32789113771E+02  0.73643558741E+02 -0.14402624589E+03  0.16510460814E+03  0.41800000000E+01 0.  1.
        -11    1    1    2    0    0 -0.28817420257E+02 -0.59408246938E+02 -0.12665694063E+03  0.14283474411E+03  0.00000000000E+00 0. -1.
         11    1    1    2    0    0  0.14774051082E+01  0.34316614654E+02 -0.80406737845E+02  0.87436012364E+02  0.00000000000E+00 0.  1.
</event>
<event>
 6    1  0.4966153E-006  0.1524856E+03  0.7561462E-02  0.1197452E+00
         -2   -1    0    0    0  501 -0.00000000000E+00  0.00000000000E+00  0.19633935321E+03  0.19633935321E+03  0.00000000000E+00 0.  1.
          2   -1    0    0  501    0  0.00000000000E+00 -0.00000000000E+00 -0.15679001245E+03  0.15679001245E+03  0.00000000000E+00 0. -1.
          5    1    1    2  502    0 -0.44335043647E+02  0.50436138715E+02  0.78792206089E+02  0.10361025202E+03  0.41800000000E+01 0. -1.
         -5    1    1    2    0  502  0.75167215075E+02 -0.10277045800E+03  0.11887216188E+02  0.12794786270E+03  0.41800000000E+01 0.  1.
        -11    1    1    2    0    0 -0.63141993097E+02  0.24777718997E+02 -0.31765914402E+02  0.74899398989E+02  0.00000000000E+00 0. -1.
         11    1    1    2    0    0  0.32309821669E+02  0.27556600290E+02 -0.19364167114E+02  0.46671851944E+02  0.00000000000E+00 0.  1.
</event>
<event>
 7    1  0.4966153E-006  0.1154890E+03  0.7561462E-02  0.1250730E+00
          1   -1    0    0  501    0  0.00000000000E+00  0.00000000000E+00  0.65412969789E+02  0.65412969789E+02  0.00000000000E+00 0. -1.
         -1   -1    0    0    0  501 -0.00000000000E+00 -0.00000000000E+00 -0.25467060348E+03  0.25467060348E+03  0.00000000000E+00 0.  1.
         23    2    1    2    0    0  0.26892460446E+01 -0.69805477732E+02 -0.10500180802E+03  0.17763239538E+03  0.12509137234E+03 0.  0.
          5    1    3    3  502    0  0.58104607148E+02 -0.63125711748E+02 -0.75491896790E+02  0.11435689632E+03  0.41800000000E+01 0. -1.
         -5    1    3    3    0  502 -0.55415361104E+02 -0.66797659842E+01 -0.29509911226E+02  0.63275499053E+02  0.41800000000E+01 0. -1.
        -11    1    1    2    0    0  0.21459433705E+02  0.82612989936E+01  0.11797617150E+02  0.25844537651E+02  0.00000000000E+00 0. -1.
         11    1    1    2    0    0 -0.24148679749E+02  0.61544178739E+02 -0.96053442824E+02  0.11660664024E+03  0.00000000000E+00 0.  1.
</event>
<event>
 7    1  0.4966153E-006  0.6305225E+02  0.7561462E-02  0.1385452E+00
          1   -1    0    0  501    0  0.00000000000E+00  0.00000000000E+00  0.98607586181E+02  0.98607586181E+02  0.00000000000E+00 0. -1.
         -1   -1    0    0    0  501 -0.00000000000E+00 -0.00000000000E+00 -0.16598798374E+03  0.16598798374E+03  0.00000000000E+00 0.  1.
         23    2    1    2    0    0 -0.14815672131E+02 -0.34165295086E+02 -0.98003159390E+02  0.16321286058E+03  0.12508815722E+03 0.  0.
          5    1    3    3  502    0 -0.18758073270E+02 -0.21813819176E+02 -0.12747336228E+03  0.13074646653E+03  0.41800000000E+01 0. -1.
         -5    1    3    3    0  502  0.39424011385E+01 -0.12351475910E+02  0.29470202889E+02  0.32466394044E+02  0.41800000000E+01 0. -1.
        -11    1    1    2    0    0  0.33785400842E+02 -0.10090392970E+02  0.38926699385E+02  0.52521969359E+02  0.00000000000E+00 0. -1.
         11    1    1    2    0    0 -0.18969728711E+02  0.44255688057E+02 -0.83039375508E+01  0.48860739982E+02  0.00000000000E+00 0.  1.
</event>
<event>
 7    1  0.4966153E-006  0.2396145E+03  0.7561462E-02  0.1120050E+00
         -1   -1    0    0    0  501 -0.00000000000E+00  0.00000000000E+00  0.27901629809E+02  0.27901629809E+02  0.00000000000E+00 0.  1.
          1   -1    0    0  501    0  0.00000000000E+00 -0.00000000000E+00 -0.23931499292E+04  0.23931499292E+04  0.00000000000E+00 0. -1.
         23    2    1    2    0    0  0.55910496642E+02 -0.22303681125E+03 -0.14274518536E+04  0.14512532915E+04  0.12508364702E+03 0.  0.
          5    1    3    3  502    0  0.38019591982E+02 -0.43764532339E+02 -0.14522490074E+03  0.15642431991E+03  0.41800000000E+01 0.  1.
         -5    1    3    3    0  502  0.17890904660E+02 -0.17927227891E+03 -0.12822269529E+04  0.12948289716E+04  0.41800000000E+01 0. -1.
        -11    1    1    2    0    0 -0.57860865014E+02  0.84887234662E+02 -0.29666749542E+03  0.31395115090E+03  0.00000000000E+00 0.  1.
         11    1    1    2    0    0  0.19503683720E+01  0.13814957659E+03 -0.64112895031E+03  0.65584711662E+03  0.00000000000E+00 0. -1.
</event>
<event>
 7    1  0.4966153E-006  0.1135691E+03  0.7561462E-02  0.1254100E+00
          1   -1    0    0  501    0  0.00000000000E+00  0.00000000000E+00  0.50460393969E+02  0.50460393969E+02  0.00000000000E+00 0. -1.
         -1   -1    0    0    0  501 -0.00000000000E+00 -0.00000000000E+00 -0.41950400469E+03  0.41950400469E+03  0.00000000000E+00 0.  1.
         23    2    1    2    0    0  0.14987744159E+02 -0.74820634974E+02 -0.29775076647E+03  0.33185547177E+03  0.12509906203E+03 0.  0.
          5    1    3    3  502    0 -0.14332860118E+02 -0.77789406420E+02 -0.81808905325E+02  0.11387182277E+03  0.41800000000E+01 0.  1.
         -5    1    3    3    0  502  0.29320604277E+02  0.29687714464E+01 -0.21594186114E+03  0.21798364901E+03  0.41800000000E+01 0.  1.
        -11    1    1    2    0    0  0.12675432654E+02 -0.17601369214E+02 -0.10707274522E+02  0.24189264538E+02  0.00000000000E+00 0.  1.
         11    1    1    2    0    0 -0.27663176814E+02  0.92422004188E+02 -0.60585569728E+02  0.11391966234E+03  0.00000000000E+00 0. -1.
</event>
<event>
 7    1  0.4966153E-006  0.1139480E+03  0.7561462E-02  0.1253429E+00
          2   -1    0    0  501    0  0.00000000000E+00  0.00000000000E+00  0.56240982711E+03  0.56240982711E+03  0.00000000000E+00 0.  1.
         -2   -1    0    0    0  501 -0.00000000000E+00 -0.00000000000E+00 -0.28677722143E+02  0.28677722143E+02  0.00000000000E+00 0. -1.
         23    2    1    2    0    0 -0.38976241596E+02 -0.75233928034E+01  0.17526162045E+03  0.21895474489E+03  0.12509514722E+03 0.  0.
          5    1    3    3  502    0 -0.63199188792E+01 -0.63935843544E+02  0.70280846415E+02  0.95313185012E+02  0.41800000000E+01 0.  1.
         -5    1    3    3    0  502 -0.32656322717E+02  0.56412450740E+02  0.10498077403E+03  0.12364155987E+03  0.41800000000E+01 0.  1.
        -11    1    1    2    0    0  0.65407464668E+02 -0.10444190083E+02  0.27189322317E+03  0.27984485406E+03  0.00000000000E+00 0.  1.
         11    1    1    2    0    0 -0.26431223072E+02  0.17967582886E+02  0.86577261357E+02  0.92287950307E+02  0.00000000000E+00 0. -1.
</event>
<event>
 7    1  0.4966153E-006  0.1440945E+03  0.7561462E-02  0.1207923E+00
          1   -1    0    0  501    0  0.00000000000E+00  0.00000000000E+00  0.81969073482E+03  0.81969073482E+03  0.00000000000E+00 0. -1.
         -1   -1    0    0    0  501 -0.00000000000E+00 -0.00000000000E+00 -0.28189606296E+02  0.28189606296E+02  0.00000000000E+00 0.  1.
         23    2    1    2    0    0  0.80752215852E+02  0.68155799196E+02  0.40012840993E+03  0.43233907744E+03  0.12509276606E+03 0.  0.
          5    1    3    3  502    0  0.47331948955E+02  0.97257093860E+02  0.34443797174E+03  0.36104604204E+03  0.41800000000E+01 0.  1.
         -5    1    3    3    0  502  0.33420266897E+02 -0.29101294664E+02  0.55690438194E+02  0.71293035403E+02  0.41800000000E+01 0.  1.
        -11    1    1    2    0    0 -0.71685130850E+02 -0.88067570547E+02  0.28205105294E+03  0.30405172492E+03  0.00000000000E+00 0.  1.
         11    1    1    2    0    0 -0.90670850015E+01  0.19911771351E+02  0.10932166565E+03  0.11148953875E+03  0.00000000000E+00 0. -1.
</event>
<event>
 7    1  0.4966153E-006  0.9931634E+02  0.7561462E-02  0.1281740E+00
         -2   -1    0    0    0  501 -0.00000000000E+00  0.00000000000E+00  0.55679232313E+02  0.55679232313E+02  0.00000000000E+00 0.  1.
          2   -1    0    0  501    0  0.00000000000E+00 -0.00000000000E+00 -0.32504746457E+03  0.32504746457E+03  0.00000000000E+00 0. -1.
         23    2    1    2    0    0  0.44609339003E+02 -0.14503583274E+02 -0.60790860650E+02  0.14678110023E+03  0.12509522610E+03 0.  0.
          5    1    3    3  502    0 -0.10190393141E+02  0.34326536393E+02  0.16904078136E+02  0.39816773736E+02  0.41800000000E+01 0. -1.
         -5    1    3    3    0  502  0.54799732145E+02 -0.48830119668E+02 -0.77694938786E+02  0.10696432650E+03  0.41800000000E+01 0. -1.
        -11    1    1    2    0    0 -0.47813906971E+02  0.40628220721E+02 -0.19392235344E+03  0.20382026686E+03  0.00000000000E+00 0. -1.
         11    1    1    2    0    0  0.32045679681E+01 -0.26124637447E+02 -0.14655018167E+02  0.30125329792E+02  0.00000000000E+00 0.  1.
</event>
<event>
 7    1  0.4966153E-006  0.7771134E+02  0.7561462E-02  0.1335675E+00
         -1   -1    0    0    0  501 -0.00000000000E+00  0.00000000000E+00  0.19804986379E+04  0.19804986379E+04  0.00000000000E+00 0.  1.
          1   -1    0    0  501    0  0.00000000000E+00 -0.00000000000E+00 -0.69773493984E+01  0.69773493984E+01  0.00000000000E+00 0. -1.
         23    2    1    2    0    0  0.12488494814E+02 -0.41654881044E+02  0.18314247611E+04  0.18352987438E+04  0.11096725665E+03 0.  0.
          5    1    3    3  502    0  0.36989018188E+02  0.15896719492E+02  0.31654055027E+03  0.31911798057E+03  0.41800000000E+01 0. -1.
         -5    1    3    3    0  502 -0.24500523374E+02 -0.57551600536E+02  0.15148842108E+04  0.15161807633E+04  0.41800000000E+01 0.  1.
        -11    1    1    2    0    0  0.39645185748E+01  0.33787862141E+02  0.11132948838E+03  0.11641130537E+03  0.00000000000E+00 0. -1.
         11    1    1    2    0    0 -0.16453013389E+02  0.78670189026E+01  0.30767039108E+02  0.35765938147E+02  0.00000000000E+00 0.  1.
</event>
<event>
 7    1  0.4966153E-006  0.1284966E+03  0.7561462E-02  0.1229704E+00
          1   -1    0    0  501    0  0.00000000000E+00  0.00000000000E+00  0.60218391449E+03  0.60218391449E+03  0.00000000000E+00 0. -1.
         -1   -1    0    0    0  501 -0.00000000000E+00 -0.00000000000E+00 -0.72209018498E+02  0.72209018498E+02  0.00000000000E+00 0.  1.
         23    2    1    2    0    0 -0.49196976217E+02  0.63507970540E+02  0.21176507826E+02  0.15016254119E+03  0.12508692778E+03 0.  0.
          5    1    3    3  502    0  0.37675073106E+02  0.21159007760E+02 -0.16371012839E+02  0.46396090399E+02  0.41800000000E+01 0. -1.
         -5    1    3    3    0  502 -0.86872049322E+02  0.42348962780E+02  0.37547520665E+02  0.10376645079E+03  0.41800000000E+01 0. -1.
        -11    1    1    2    0    0  0.73143825080E+02 -0.54683755792E+02  0.46186084400E+03  0.47080332573E+03  0.00000000000E+00 0. -1.
         11    1    1    2    0    0 -0.23946848864E+02 -0.88242147475E+01  0.46937544166E+02  0.53427066069E+02  0.00000000000E+00 0.  1.
</event>
<event>
 7    1  0.4966153E-006  0.1151942E+03  0.7561462E-02  0.1251243E+00
          2   -1    0    0  501    0  0.00000000000E+00  0.00000000000E+00  0.22645999559E+03  0.22645999559E+03  0.00000000000E+00 0. -1.
         -2   -1    0    0    0  501 -0.00000000000E+00 -0.00000000000E+00 -0.79723941735E+02  0.79723941735E+02  0.00000000000E+00 0.  1.
         23    2    1    2    0    0 -0.64034259345E+02 -0.37403009869E+02  0.55729329371E+02  0.15685250118E+03  0.12648153010E+03 0.  0.
          5    1    3    3  502    0  0.25737016934E+02 -0.11736211516E+02  0.56570968723E+02  0.63386746277E+02  0.41800000000E+01 0. -1.
         -5    1    3    3    0  502 -0.89771276278E+02 -0.25666798353E+02 -0.84163935189E+00  0.93465754900E+02  0.41800000000E+01 0.  1.
        -11    1    1    2    0    0 -0.13193483840E+02  0.27463041262E+02  0.12307182129E+01  0.30492643679E+02  0.00000000000E+00 0.  1.
         11    1    1    2    0    0  0.77227743185E+02  0.99399686071E+01  0.89776006268E+02  0.11883879247E+03  0.00000000000E+00 0. -1.
</event>
<event>
 7    1  0.4966153E-006  0.7131875E+02  0.7561462E-02  0.1355665E+00
          4   -1    0    0  501    0  0.00000000000E+00  0.00000000000E+00  0.39987562976E+02  0.39987562976E+02  0.00000000000E+00 0. -1.
         -4   -1    0    0    0  501 -0.00000000000E+00 -0.00000000000E+00 -0.31246275910E+03  0.31246275910E+03  0.00000000000E+00 0.  1.
         23    2    1    2    0    0 -0.11153194821E+02  0.11984654542E+02 -0.21371729064E+03  0.24204260126E+03  0.11243449118E+03 0.  0.
          5    1    3    3  502    0  0.38253410708E+02 -0.19264188216E+01 -0.23846072455E+02  0.45311611005E+02  0.41800000000E+01 0. -1.
         -5    1    3    3    0  502 -0.49406605529E+02  0.13911073364E+02 -0.18987121819E+03  0.19673099026E+03  0.41800000000E+01 0.  1.
        -11    1    1    2    0    0 -0.20035870862E+02 -0.44377091947E+01  0.17946357648E+02  0.27261715591E+02  0.00000000000E+00 0.  1.
         11    1    1    2    0    0  0.31189065683E+02 -0.75469453473E+01 -0.76704263127E+02  0.83146005220E+02  0.00000000000E+00 0. -1.
</event>
<event>
 7    1  0.4966153E-006  0.1152319E+03  0.7561462E-02  0.1251177E+00
          2   -1    0    0  501    0  0.00000000000E+00  0.00000000000E+00  0.34266245414E+03  0.34266245414E+03  0.00000000000E+00 0. -1.
         -2   -1    0    0    0  501 -0.00000000000E+00 -0.00000000000E+00 -0.12309404366E+03  0.12309404366E+03  0.00000000000E+00 0.  1.
         23    2    1    2    0    0 -0.52362210275E+01  0.48440990471E+02 -0.74523692855E+02  0.15353844815E+03  0.12508527769E+03 0.  0.
          5    1    3    3  502    0 -0.55283829709E+02 -0.78645388964E+00 -0.60061223805E+02  0.81741931357E+02  0.41800000000E+01 0. -1.
         -5    1    3    3    0  502  0.50047608681E+02  0.49227444360E+02 -0.14462469050E+02  0.71796516795E+02  0.41800000000E+01 0. -1.
        -11    1    1    2    0    0 -0.22945004270E+02  0.20150304806E+02  0.78585273218E+02  0.84309864023E+02  0.00000000000E+00 0.  1.
         11    1    1    2    0    0  0.28181225298E+02 -0.68591295277E+02  0.21550683011E+03  0.22790818562E+03  0.00000000000E+00 0. -1.
</event>
<event>
 7    1  0.4966153E-006  0.1020718E+03  0.7561462E-02  0.1275999E+00
          2   -1    0    0  501    0  0.00000000000E+00  0.00000000000E+00  0.95227378562E+02  0.95227378562E+02  0.00000000000E+00 0. -1.
         -2   -1    0    0    0  501 -0.00000000000E+00 -0.00000000000E+00 -0.13656840059E+03  0.13656840059E+03  0.00000000000E+00 0.  1.
         23    2    1    2    0    0 -0.14736233704E+02  0.29231927865E+02 -0.48872829479E+02  0.13823300094E+03  0.12509255332E+03 0.  0.
          5    1    3    3  502    0 -0.89939995081E+01  0.69550758086E+02 -0.63559205128E+02  0.94738824850E+02  0.41800000000E+01 0. -1.
         -5    1    3    3    0  502 -0.57422341963E+01 -0.40318830221E+02  0.14686375650E+02  0.43494176089E+02  0.41800000000E+01 0. -1.
        -11    1    1    2    0    0  0.41999143897E+02 -0.44919552059E+02  0.85797204977E+01  0.62091109259E+02  0.00000000000E+00 0. -1.
         11    1    1    2    0    0 -0.27262910193E+02  0.15687624194E+02 -0.10479130487E+01  0.31471668954E+02  0.00000000000E+00 0.  1.
</event>
<event>
 7    1  0.4966153E-006  0.9363752E+02  0.7561462E-02  0.1294275E+00
         -1   -1    0    0    0  501 -0.00000000000E+00  0.00000000000E+00  0.59505392456E+02  0.59505392456E+02  0.00000000000E+00 0.  1.
          1   -1    0    0  501    0  0.00000000000E+00 -0.00000000000E+00 -0.25884018691E+03  0.25884018691E+03  0.00000000000E+00 0. -1.
         23    2    1    2    0    0 -0.54764909309E+02  0.12358618322E+02 -0.11962935222E+03  0.18196607486E+03  0.12509412355E+03 0.  0.
          5    1    3    3  502    0 -0.66960330966E+02 -0.25110479630E+02 -0.19441909422E+02  0.74227234573E+02  0.41800000000E+01 0. -1.
         -5    1    3    3    0  502  0.12195421657E+02  0.37469097952E+02 -0.10018744280E+03  0.10773884029E+03  0.41800000000E+01 0. -1.
        -11    1    1    2    0    0  0.23513142928E+02  0.20116576415E+02 -0.85510348263E+02  0.90937144210E+02  0.00000000000E+00 0. -1.
         11    1    1    2    0    0  0.31251766381E+02 -0.32475194737E+02  0.58049060361E+01  0.45442360295E+02  0.00000000000E+00 0.  1.
</event>
<event>
 7    1  0.4966153E-006  0.1055985E+03  0.7561462E-02  0.1268945E+00
         -2   -1    0    0    0  501 -0.00000000000E+00  0.00000000000E+00  0.91511901015E+02  0.91511901015E+02  0.00000000000E+00 0.  1.
          2   -1    0    0  501    0  0.00000000000E+00 -0.00000000000E+00 -0.18435501657E+03  0.18435501657E+03  0.00000000000E+00 0. -1.
         23    2    1    2    0    0  0.48499225992E+02 -0.55704713426E+02 -0.45799488489E+02  0.15231550158E+03  0.12508888382E+03 0.  0.
          5    1    3    3  502    0  0.47029253572E+02 -0.56960253875E+01  0.33702670845E+02  0.58288402096E+02  0.41800000000E+01 0. -1.
         -5    1    3    3    0  502  0.14699724202E+01 -0.50008688039E+02 -0.79502159334E+02  0.94027099482E+02  0.41800000000E+01 0. -1.
        -11    1    1    2    0    0 -0.63403471499E+02  0.85452227741E+01 -0.33770573761E+02  0.72342744505E+02  0.00000000000E+00 0.  1.
         11    1    1    2    0    0  0.14904245507E+02  0.47159490652E+02 -0.13273053301E+02  0.51208671498E+02  0.00000000000E+00 0. -1.
</event>
<event>
 7    1  0.4966153E-006  0.1594462E+03  0.7561462E-02  0.1189323E+00
         -1   -1    0    0    0  501 -0.00000000000E+00  0.00000000000E+00  0.42619666627E+03  0.42619666627E+03  0.00000000000E+00 0.  1.
          1   -1    0    0  501    0  0.00000000000E+00 -0.00000000000E+00 -0.68580283223E+02  0.68580283223E+02  0.00000000000E+00 0. -1.
         23    2    1    2    0    0  0.66353257195E+02  0.10243533928E+03  0.26164962043E+03  0.31464924614E+03  0.12509144955E+03 0.  0.
          5    1    3    3  502    0 -0.26653055988E+02 -0.55583111653E+01  0.19893139973E+02  0.33977781482E+02  0.41800000000E+01 0. -1.
         -5    1    3    3    0  502  0.93006313183E+02  0.10799365044E+03  0.24175648046E+03  0.28067146465E+03  0.41800000000E+01 0. -1.
        -11    1    1    2    0    0  0.55328632529E+01 -0.69449804311E+02  0.25476547265E+02  0.74181819573E+02  0.00000000000E+00 0. -1.
         11    1    1    2    0    0 -0.71886120448E+02 -0.32985534965E+02  0.70490215348E+02  0.10594588378E+03  0.00000000000E+00 0.  1.
</event>
<event>
 7    1  0.4966153E-006  0.1327958E+03  0.7561462E-02  0.1223365E+00
         -1   -1    0    0    0  501 -0.00000000000E+00  0.00000000000E+00  0.32851042004E+03  0.32851042004E+03  0.00000000000E+00 0.  1.
          1   -1    0    0  501    0  0.00000000000E+00 -0.00000000000E+00 -0.10747810204E+03  0.10747810204E+03  0.00000000000E+00 0. -1.
         23    2    1    2    0    0 -0.89092675518E+02  0.19598808690E+02  0.25880133536E+03  0.30157557654E+03  0.12509228215E+03 0.  0.
          5    1    3    3  502    0 -0.40370671561E+02 -0.53231036309E+02  0.11881035264E+03  0.13636974240E+03  0.41800000000E+01 0.  1.
         -5    1    3    3    0  502 -0.48722003957E+02  0.72829844999E+02  0.13999098272E+03  0.16520583414E+03  0.41800000000E+01 0.  1.
        -11    1    1    2    0    0 -0.53434338361E+01  0.10525652229E+02  0.17357265434E+02  0.20990862377E+02  0.00000000000E+00 0.  1.
         11    1    1    2    0    0  0.94436109354E+02 -0.30124460919E+02 -0.55126282791E+02  0.11342208317E+03  0.00000000000E+00 0. -1.
</event>
<event>
 6    1  0.4966153E-006  0.1750203E+03  0.7561462E-02  0.1172711E+00
          2   -1    0    0  501    0  0.00000000000E+00  0.00000000000E+00  0.51047392562E+03  0.51047392562E+03  0.00000000000E+00 0. -1.
         -2   -1    0    0    0  501 -0.00000000000E+00 -0.00000000000E+00 -0.93873271804E+02  0.93873271804E+02  0.00000000000E+00 0.  1.
          5    1    1    2  502    0 -0.40967119816E+02  0.68476252369E+02  0.28743653032E+03  0.29833627571E+03  0.41800000000E+01 0. -1.
         -5    1    1    2    0  502  0.10603239958E+03 -0.10772445007E+03  0.38469275904E+02  0.15602815288E+03  0.41800000000E+01 0.  1.
        -11    1    1    2    0    0 -0.24609738799E+01 -0.27384987902E+02  0.15225821267E+02  0.31429597326E+02  0.00000000000E+00 0. -1.
         11    1    1    2    0    0 -0.62604305888E+02  0.66633185598E+02  0.75469026328E+02  0.11855317150E+03  0.00000000000E+00 0.  1.
</event>
<event>
 7    1  0.4966153E-006  0.1927345E+03  0.7561462E-02  0.1156018E+00
          2   -1    0    0  501    0  0.00000000000E+00  0.00000000000E+00  0.15569761633E+04  0.15569761633E+04  0.00000000000E+00 0. -1.
         -2   -1    0    0    0  501 -0.00000000000E+00 -0.00000000000E+00 -0.28285878207E+02  0.28285878207E+02  0.00000000000E+00 0.  1.
         23    2    1    2    0    0 -0.56495724917E+02  0.16579334547E+03  0.94413399136E+03  0.96835688419E+03  0.12508741414E+03 0.  0.
          5    1    3    3  502    0 -0.17743649405E+02  0.16157045638E+03  0.86376585129E+03  0.87893615680E+03  0.41800000000E+01 0.  1.
         -5    1    3    3    0  502 -0.38752075512E+02  0.42228890846E+01  0.80368140068E+02  0.89420727389E+02  0.41800000000E+01 0.  1.
        -11    1    1    2    0    0  0.56265512064E+02 -0.79617934388E+02  0.19601105692E+03  0.21891815310E+03  0.00000000000E+00 0.  1.
         11    1    1    2    0    0  0.23021285317E+00 -0.86175411081E+02  0.38854523684E+03  0.39798700424E+03  0.00000000000E+00 0. -1.
</event>
<event>
 7    1  0.4966153E-006  0.2654830E+03  0.7561462E-02  0.1103893E+00
         -1   -1    0    0    0  501 -0.00000000000E+00  0.00000000000E+00  0.43512931767E+03  0.43512931767E+03  0.00000000000E+00 0.  1.
          1   -1    0    0  501    0  0.00000000000E+00 -0.00000000000E+00 -0.16332672818E+03  0.16332672818E+03  0.00000000000E+00 0. -1.
         23    2    1    2    0    0  0.77146781954E+02 -0.23009120189E+03  0.15941908810E+03  0.31615326886E+03  0.12507940121E+03 0.  0.
          5    1    3    3  502    0  0.28987140648E+02 -0.22087736853E+03  0.11979760911E+03  0.25297431846E+03  0.41800000000E+01 0. -1.
         -5    1    3    3    0  502  0.48159641306E+02 -0.92138333578E+01  0.39621478994E+02  0.63178950399E+02  0.41800000000E+01 0. -1.
        -11    1    1    2    0    0  0.20560697918E+02  0.49843131712E+02  0.21837101782E+02  0.58171634771E+02  0.00000000000E+00 0. -1.
         11    1    1    2    0    0 -0.97707479872E+02  0.18024807018E+03  0.90546399610E+02  0.22413114221E+03  0.00000000000E+00 0.  1.
</event>
<event>
 7    1  0.4966153E-006  0.8077800E+02  0.7561462E-02  0.1326858E+00
          1   -1    0    0  501    0  0.00000000000E+00  0.00000000000E+00  0.66811784538E+03  0.66811784538E+03  0.00000000000E+00 0. -1.
         -1   -1    0    0    0  501 -0.00000000000E+00 -0.00000000000E+00 -0.20125108761E+02  0.20125108761E+02  0.00000000000E+00 0.  1.
         23    2    1    2    0    0 -0.38308425225E+02  0.13766647701E+02  0.40522737392E+03  0.42604438114E+03  0.12509010391E+03 0.  0.
          5    1    3    3  502    0 -0.13988683499E+02  0.46062771820E+02  0.53960543820E+02  0.72433934748E+02  0.41800000000E+01 0. -1.
         -5    1    3    3    0  502 -0.24319741726E+02 -0.32296124119E+02  0.35126683010E+03  0.35361044639E+03  0.41800000000E+01 0. -1.
        -11    1    1    2    0    0  0.37928814148E+02 -0.34847203912E+02  0.23359595731E+03  0.23920701042E+03  0.00000000000E+00 0. -1.
         11    1    1    2    0    0  0.37961107677E+00  0.21080556210E+02  0.91694053942E+01  0.22991562583E+02  0.00000000000E+00 0.  1.
</event>
<event>
 7    1  0.4966153E-006  0.1430624E+03  0.7561462E-02  0.1209267E+00
         -1   -1    0    0    0  501 -0.00000000000E+00  0.00000000000E+00  0.59438662651E+02  0.59438662651E+02  0.00000000000E+00 0.  1.
          1   -1    0    0  501    0  0.00000000000E+00 -0.00000000000E+00 -0.40508520160E+03  0.40508520160E+03  0.00000000000E+00 0. -1.
         23    2    1    2    0    0  0.91256739650E+02 -0.19671488562E+02 -0.99235519823E+02  0.18496181579E+03  0.12509366455E+03 0.  0.
          5    1    3    3  502    0  0.10309560582E+03  0.27840956348E+02 -0.65325866338E+02  0.12525479632E+03  0.41800000000E+01 0.  1.
         -5    1    3    3    0  502 -0.11838866167E+02 -0.47512444911E+02 -0.33909653485E+02  0.59707019462E+02  0.41800000000E+01 0.  1.
        -11    1    1    2    0    0 -0.91872145672E+01 -0.31890919941E+02 -0.43721120497E+02  0.54890546214E+02  0.00000000000E+00 0.  1.
         11    1    1    2    0    0 -0.82069525083E+02  0.51562408503E+02 -0.20268989863E+03  0.22467150225E+03  0.00000000000E+00 0. -1.
</event>
<event>
 7    1  0.4966153E-006  0.7334407E+02  0.7561462E-02  0.1349077E+00
         -1   -1    0    0    0  501 -0.00000000000E+00  0.00000000000E+00  0.96644509851E+02  0.96644509851E+02  0.00000000000E+00 0.  1.
          1   -1    0    0  501    0  0.00000000000E+00 -0.00000000000E+00 -0.18954010925E+03  0.18954010925E+03  0.00000000000E+00 0. -1.
         23    2    1    2    0    0 -0.28926309344E+02 -0.38607952306E+02  0.18164008105E+02  0.13529422357E+03  0.12508912978E+03 0.  0.
          5    1    3    3  502    0 -0.11429522509E+02 -0.36138395639E+02  0.70360641759E+02  0.80029431666E+02  0.41800000000E+01 0.  1.
         -5    1    3    3    0  502 -0.17496786835E+02 -0.24695566673E+01 -0.52196633653E+02  0.55264791906E+02  0.41800000000E+01 0.  1.
        -11    1    1    2    0    0  0.14939660083E+02 -0.22887439161E+02 -0.54295000091E+01  0.27865889275E+02  0.00000000000E+00 0.  1.
         11    1    1    2    0    0  0.13986649261E+02  0.61495391467E+02 -0.10563010749E+03  0.12302450625E+03  0.00000000000E+00 0. -1.
</event>
<event>
 7    1  0.4966153E-006  0.9180214E+02  0.7561462E-02  0.1298545E+00
         -1   -1    0    0    0  501 -0.00000000000E+00  0.00000000000E+00  0.38054228911E+02  0.38054228911E+02  0.00000000000E+00 0.  1.
          1   -1    0    0  501    0  0.00000000000E+00 -0.00000000000E+00 -0.34388763427E+03  0.34388763427E+03  0.00000000000E+00 0. -1.
         23    2    1    2    0    0 -0.47966938994E+01  0.20824464901E+02 -0.12013403231E+03  0.17474634985E+03  0.12508970564E+03 0.  0.
          5    1    3    3  502    0 -0.41037861378E+02  0.55453112198E+02 -0.97691501055E+02  0.11966726995E+03  0.41800000000E+01 0.  1.
         -5    1    3    3    0  502  0.36241167479E+02 -0.34628647296E+02 -0.22442531258E+02  0.55079079904E+02  0.41800000000E+01 0.  1.
        -11    1    1    2    0    0  0.24485597685E+02  0.10941315852E+02 -0.15904803467E+03  0.16129331734E+03  0.00000000000E+00 0. -1.
         11    1    1    2    0    0 -0.19688903786E+02 -0.31765780754E+02 -0.26651338377E+02  0.45902195987E+02  0.00000000000E+00 0.  1.
</event>
<event>
 7    1  0.4966153E-006  0.8042435E+02  0.7561462E-02  0.1327851E+00
          2   -1    0    0  501    0  0.00000000000E+00  0.00000000000E+00  0.13583431929E+03  0.13583431929E+03  0.00000000000E+00 0. -1.
         -2   -1    0    0    0  501 -0.00000000000E+00 -0.00000000000E+00 -0.94867335728E+02  0.94867335728E+02  0.00000000000E+00 0.  1.
         23    2    1    2    0    0 -0.16111091771E+02  0.28698908218E+02  0.14939777120E+02  0.13020687004E+03  0.12508971762E+03 0.  0.
          5    1    3    3  502    0 -0.26979101870E+02  0.68648905242E+02 -0.19255837381E+02  0.76346603081E+02  0.41800000000E+01 0. -1.
         -5    1    3    3    0  502  0.10868010099E+02 -0.39949997025E+02  0.34195614501E+02  0.53860266959E+02  0.41800000000E+01 0. -1.
        -11    1    1    2    0    0  0.39362581708E+01 -0.32395915320E+02 -0.29218319491E+02  0.43802963960E+02  0.00000000000E+00 0.  1.
         11    1    1    2    0    0  0.12174833601E+02  0.36970071023E+01  0.55245525930E+02  0.56691821015E+02  0.00000000000E+00 0. -1.
</event>
<event>
 7    1  0.4966153E-006  0.1630970E+03  0.7561462E-02  0.1185244E+00
          2   -1    0    0  501    0  0.00000000000E+00  0.00000000000E+00  0.10897454234E+04  0.10897454234E+04  0.00000000000E+00 0. -1.
         -2   -1    0    0    0  501 -0.00000000000E+00 -0.00000000000E+00 -0.29573349801E+02  0.29573349801E+02  0.00000000000E+00 0.  1.
         23    2    1    2    0    0  0.87934818550E+02 -0.11698261960E+03  0.47625644976E+03  0.51369778645E+03  0.12509094398E+03 0.  0.
          5    1    3    3  502    0 -0.22371586194E+01 -0.82558727442E+02  0.31538586049E+03  0.32604702384E+03  0.41800000000E+01 0. -1.
         -5    1    3    3    0  502  0.90171977169E+02 -0.34423892154E+02  0.16087058927E+03  0.18765076262E+03  0.41800000000E+01 0. -1.
        -11    1    1    2    0    0 -0.14476771374E+02  0.27846094908E+02  0.47648764375E+02  0.57055995807E+02  0.00000000000E+00 0. -1.
         11    1    1    2    0    0 -0.73458047176E+02  0.89136524688E+02  0.53626685942E+03  0.54856499090E+03  0.00000000000E+00 0.  1.
</event>
<event>
 7    1  0.4966153E-006  0.1201014E+03  0.7561462E-02  0.1242930E+00
         -1   -1    0    0    0  501 -0.00000000000E+00  0.00000000000E+00  0.27630403721E+03  0.27630403721E+03  0.00000000000E+00 0.  1.
          1   -1    0    0  501    0  0.00000000000E+00 -0.00000000000E+00 -0.87059443540E+02  0.87059443540E+02  0.00000000000E+00 0. -1.
         23    2    1    2    0    0  0.61265786478E+02 -0.79506507594E+02  0.15624150953E+03  0.22390473616E+03  0.12508852958E+03 0.  0.
          5    1    3    3  502    0 -0.11164829115E+02 -0.21577633625E+02  0.12276052120E+03  0.12521128403E+03  0.41800000000E+01 0.  1.
         -5    1    3    3    0  502  0.72430615593E+02 -0.57928873969E+02  0.33480988322E+02  0.98693452131E+02  0.41800000000E+01 0.  1.
        -11    1    1    2    0    0 -0.72454582670E+02  0.42390494668E+02  0.49362823764E+02  0.97382282567E+02  0.00000000000E+00 0.  1.
         11    1    1    2    0    0  0.11188796193E+02  0.37116012925E+02 -0.16359739621E+02  0.42076462021E+02  0.00000000000E+00 0. -1.
</event>
<event>
 6    1  0.4966153E-006  0.1048388E+03  0.7561462E-02  0.1270438E+00
          1   -1    0    0  501    0  0.00000000000E+00  0.00000000000E+00  0.21759456004E+02  0.21759456004E+02  0.00000000000E+00 0. -1.
         -1   -1    0    0    0  501 -0.00000000000E+00 -0.00000000000E+00 -0.11353830800E+04  0.11353830800E+04  0.00000000000E+00 0.  1.
          5    1    1    2  502    0  0.22574509876E+02 -0.85547022976E+01 -0.23058829561E+02  0.33644813096E+02  0.41800000000E+01 0. -1.
         -5    1    1    2    0  502 -0.75233567587E+02  0.28529985271E+02 -0.90405051911E+03  0.90763366137E+03  0.41800000000E+01 0.  1.
        -11    1    1    2    0    0  0.14377042760E+02 -0.52463469057E+02 -0.12593998558E+03  0.13718598657E+03  0.00000000000E+00 0.  1.
         11    1    1    2    0    0  0.38282014951E+02  0.32488186084E+02 -0.60574289796E+02  0.78678075014E+02  0.00000000000E+00 0. -1.
</event>
<event>
 6    1  0.4966153E-006  0.1234267E+03  0.7561462E-02  0.1237549E+00
         -4   -1    0    0    0  501 -0.00000000000E+00  0.00000000000E+00  0.18312908443E+03  0.18312908443E+03  0.00000000000E+00 0.  1.
          4   -1    0    0  501    0  0.00000000000E+00 -0.00000000000E+00 -0.17121635852E+03  0.17121635852E+03  0.00000000000E+00 0. -1.
          5    1    1    2  502    0  0.28315966647E+01  0.80277123011E+02  0.24764745412E+02  0.84161745668E+02  0.41800000000E+01 0. -1.
         -5    1    1    2    0  502 -0.27049748344E+02 -0.77282736055E+02  0.95693769988E+02  0.12601222239E+03  0.41800000000E+01 0.  1.
        -11    1    1    2    0    0 -0.10558699397E+02  0.32840103025E+02 -0.13959911306E+02  0.37213406499E+02  0.00000000000E+00 0. -1.
         11    1    1    2    0    0  0.34776851076E+02 -0.35834489981E+02 -0.94585878182E+02  0.10695806839E+03  0.00000000000E+00 0.  1.
</event>
<event>
 7    1  0.4966153E-006  0.1053611E+03  0.7561462E-02  0.1269410E+00
          1   -1    0    0  501    0  0.00000000000E+00  0.00000000000E+00  0.34586563724E+02  0.34586563724E+02  0.00000000000E+00 0. -1.
         -1   -1    0    0    0  501 -0.00000000000E+00 -0.00000000000E+00 -0.35018905556E+03  0.35018905556E+03  0.00000000000E+00 0.  1.
         23    2    1    2    0    0  0.13653099082E+02  0.10518233743E+02 -0.18412494473E+03  0.22326332212E+03  0.12508986919E+03 0.  0.
          5    1    3    3  502    0  0.69132805712E+02  0.13052373798E+02 -0.98449380212E+02  0.12107626585E+03  0.41800000000E+01 0. -1.
         -5    1    3    3    0  502 -0.55479706630E+02 -0.25341400557E+01 -0.85675564522E+02  0.10218705627E+03  0.41800000000E+01 0. -1.
        -11    1    1    2    0    0 -0.38813616073E+02  0.21071256157E+02 -0.33172121284E+02  0.55234810212E+02  0.00000000000E+00 0.  1.
         11    1    1    2    0    0  0.25160516990E+02 -0.31589489900E+02 -0.98305425813E+02  0.10627748695E+03  0.00000000000E+00 0. -1.
</event>
<event>
 7    1  0.4966153E-006  0.1393583E+03  0.7561462E-02  0.1214195E+00
         -1   -1    0    0    0  501 -0.00000000000E+00  0.00000000000E+00  0.40094176792E+02  0.40094176792E+02  0.00000000000E+00 0.  1.
          1   -1    0    0  501    0  0.00000000000E+00 -0.00000000000E+00 -0.77744370032E+03  0.77744370032E+03  0.00000000000E+00 0. -1.
         23    2    1    2    0    0 -0.47856358803E+02 -0.12007721731E+03 -0.26942421586E+03  0.32394753666E+03  0.12507529421E+03 0.  0.
          5    1    3    3  502    0 -0.53435399791E+02 -0.91612321450E+02 -0.27440865086E+03  0.29422056260E+03  0.41800000000E+01 0.  1.
         -5    1    3    3    0  502  0.55790409879E+01 -0.28464895856E+02  0.49844349954E+01  0.29726974058E+02  0.41800000000E+01 0.  1.
        -11    1    1    2    0    0  0.52089740713E+02  0.47269595595E+02 -0.33164722708E+03  0.33902454039E+03  0.00000000000E+00 0.  1.
         11    1    1    2    0    0 -0.42333819099E+01  0.72807621710E+02 -0.13627808058E+03  0.15456580006E+03  0.00000000000E+00 0. -1.
</event>
<event>
 7    1  0.4966153E-006  0.6723262E+02  0.7561462E-02  0.1369765E+00
          2   -1    0    0  501    0  0.00000000000E+00  0.00000000000E+00  0.45286175662E+03  0.45286175662E+03  0.00000000000E+00 0. -1.
         -2   -1    0    0    0  501 -0.00000000000E+00 -0.00000000000E+00 -0.28202881021E+02  0.28202881021E+02  0.00000000000E+00 0.  1.
         23    2    1    2    0    0 -0.22878246851E+02  0.30635524125E+02  0.22302313131E+03  0.25855232461E+03  0.12509211785E+03 0.  0.
          5    1    3    3  502    0 -0.20089483817E+02 -0.84878398543E+01 -0.84373829570E+01  0.23754844066E+02  0.41800000000E+01 0.  1.
         -5    1    3    3    0  502 -0.27887630346E+01  0.39123363979E+02  0.23146051427E+03  0.23479748055E+03  0.41800000000E+01 0.  1.
        -11    1    1    2    0    0  0.42093198369E+02 -0.32956495884E+02  0.19477388170E+03  0.20197730804E+03  0.00000000000E+00 0. -1.
         11    1    1    2    0    0 -0.19214951517E+02  0.23209717587E+01  0.68618625924E+01  0.20535004990E+02  0.00000000000E+00 0.  1.
</event>
<event>
 7    1  0.4966153E-006  0.1869259E+03  0.7561462E-02  0.1161264E+00
          1   -1    0    0  501    0  0.00000000000E+00  0.00000000000E+00  0.40492617429E+03  0.40492617429E+03  0.00000000000E+00 0. -1.
         -1   -1    0    0    0  501 -0.00000000000E+00 -0.00000000000E+00 -0.26207509288E+03  0.26207509288E+03  0.00000000000E+00 0.  1.
         23    2    1    2    0    0 -0.15483780275E+03 -0.25014036019E+02 -0.19926280193E+03  0.28290589881E+03  0.12541784638E+03 0.  0.
          5    1    3    3  502    0 -0.17330705191E+03 -0.38287238654E+02 -0.17252599204E+03  0.24755592745E+03  0.41800000000E+01 0. -1.
         -5    1    3    3    0  502  0.18469249153E+02  0.13273202635E+02 -0.26736809888E+02  0.35349971364E+02  0.41800000000E+01 0. -1.
        -11    1    1    2    0    0  0.15534756847E+03  0.38216546969E+02  0.30045937335E+03  0.34039566173E+03  0.00000000000E+00 0.  1.
         11    1    1    2    0    0 -0.50976571461E+00 -0.13202510950E+02  0.41654509995E+02  0.43699706628E+02  0.00000000000E+00 0. -1.
</event>
<event>
 6    1  0.4966153E-006  0.7211841E+02  0.7561462E-02  0.1353034E+00
          4   -1    0    0  501    0  0.00000000000E+00  0.00000000000E+00  0.12687002213E+02  0.12687002213E+02  0.00000000000E+00 0. -1.
         -4   -1    0    0    0  501 -0.00000000000E+00 -0.00000000000E+00 -0.13306666820E+04  0.13306666820E+04  0.00000000000E+00 0.  1.
          5    1    1    2  502    0  0.50344418710E+01 -0.66209269036E+01  0.24528867156E+01  0.96265949980E+01  0.41800000000E+01 0. -1.
         -5    1    1    2    0  502 -0.16805843083E+02  0.38350343347E+02 -0.96560171825E+03  0.96651815083E+03  0.41800000000E+01 0.  1.
        -11    1    1    2    0    0 -0.13155318546E+02  0.26457410183E+02 -0.14748118704E+03  0.15041195927E+03  0.00000000000E+00 0.  1.
         11    1    1    2    0    0  0.24926719759E+02 -0.58186826626E+02 -0.20734966125E+03  0.21679697915E+03  0.00000000000E+00 0. -1.
</event>
<event>
 7    1  0.4966153E-006  0.9814077E+02  0.7561462E-02  0.1284255E+00
          1   -1    0    0  501    0  0.00000000000E+00  0.00000000000E+00  0.27753120002E+03  0.27753120002E+03  0.00000000000E+00 0. -1.
         -1   -1    0    0    0  501 -0.00000000000E+00 -0.00000000000E+00 -0.80215874281E+02  0.80215874281E+02  0.00000000000E+00 0.  1.
         23    2    1    2    0    0  0.74747815220E+01 -0.49510174986E+02 -0.18314655577E+01  0.13354968182E+03  0.12379431919E+03 0.  0.
          5    1    3    3  502    0  0.41066066230E+02  0.27597181097E+01 -0.42390767897E+02  0.59232486379E+02  0.41800000000E+01 0. -1.
         -5    1    3    3    0  502 -0.33591284708E+02 -0.52269893096E+02  0.40559302340E+02  0.74317195445E+02  0.41800000000E+01 0.  1.
        -11    1    1    2    0    0  0.26578191986E+02  0.52098591164E+02  0.16831710047E+03  0.17818897216E+03  0.00000000000E+00 0. -1.
         11    1    1    2    0    0 -0.34052973508E+02 -0.25884161779E+01  0.30829690824E+02  0.46008420309E+02  0.00000000000E+00 0.  1.
</event>
<event>
 7    1  0.4966153E-006  0.1289562E+03  0.7561462E-02  0.1229013E+00
          3   -1    0    0  501    0  0.00000000000E+00  0.00000000000E+00  0.13202010923E+03  0.13202010923E+03  0.00000000000E+00 0. -1.
         -3   -1    0    0    0  501 -0.00000000000E+00 -0.00000000000E+00 -0.13831034661E+03  0.13831034661E+03  0.00000000000E+00 0.  1.
         23    2    1    2    0    0 -0.71361444276E+01 -0.78216380571E+02  0.98048600157E+01  0.14801460197E+03  0.12507381968E+03 0.  0.
          5    1    3    3  502    0 -0.54605182568E+02 -0.58034814980E+01  0.24178211676E+02  0.60145362918E+02  0.41800000000E+01 0. -1.
         -5    1    3    3    0  502  0.47469038140E+02 -0.72412899073E+02 -0.14373351660E+02  0.87869239055E+02  0.41800000000E+01 0. -1.
        -11    1    1    2    0    0  0.13661849635E+02  0.96126863148E+02 -0.26438579006E+02  0.10062811940E+03  0.00000000000E+00 0.  1.
         11    1    1    2    0    0 -0.65257052075E+01 -0.17910482576E+02  0.10343481604E+02  0.21687734466E+02  0.00000000000E+00 0. -1.
</event>
<event>
 7    1  0.4966153E-006  0.1373176E+03  0.7561462E-02  0.1216985E+00
         -2   -1    0    0    0  501 -0.00000000000E+00  0.00000000000E+00  0.66654766114E+03  0.66654766114E+03  0.00000000000E+00 0.  1.
          2   -1    0    0  501    0  0.00000000000E+00 -0.00000000000E+00 -0.38664660726E+02  0.38664660726E+02  0.00000000000E+00 0. -1.
         23    2    1    2    0    0  0.93041318518E+02 -0.42640963011E+02  0.46222922892E+03  0.48967163579E+03  0.12509001621E+03 0.  0.
          5    1    3    3  502    0  0.49783626365E+01  0.33854393429E+02  0.19557475552E+03  0.19858968112E+03  0.41800000000E+01 0. -1.
         -5    1    3    3    0  502  0.88062955881E+02 -0.76495356440E+02  0.26665447340E+03  0.29108195468E+03  0.41800000000E+01 0. -1.
        -11    1    1    2    0    0 -0.85687462065E+02  0.58122335485E+01  0.15380644570E+03  0.17616056867E+03  0.00000000000E+00 0.  1.
         11    1    1    2    0    0 -0.73538564524E+01  0.36828729462E+02  0.11847325796E+02  0.39380117408E+02  0.00000000000E+00 0. -1.
</event>
<event>
 7    1  0.4966153E-006  0.8728043E+02  0.7561462E-02  0.1309574E+00
         -2   -1    0    0    0  501 -0.00000000000E+00  0.00000000000E+00  0.10552115121E+03  0.10552115121E+03  0.00000000000E+00 0. -1.
          2   -1    0    0  501    0  0.00000000000E+00 -0.00000000000E+00 -0.13477797765E+03  0.13477797765E+03  0.00000000000E+00 0.  1.
         23    2    1    2    0    0 -0.36224317293E+02  0.44121615963E+01  0.67970599450E+01  0.13030328396E+03  0.12490427316E+03 0.  0.
          5    1    3    3  502    0 -0.69953694228E+02  0.28626038823E+02  0.31294634229E+02  0.81913344251E+02  0.41800000000E+01 0.  1.
         -5    1    3    3    0  502  0.33729376935E+02 -0.24213877226E+02 -0.24497574284E+02  0.48389939704E+02  0.41800000000E+01 0.  1.
        -11    1    1    2    0    0  0.43581834541E+02  0.64032111671E+01  0.22873274626E+02  0.49634303735E+02  0.00000000000E+00 0. -1.
         11    1    1    2    0    0 -0.73575172474E+01 -0.10815372763E+02 -0.58927161009E+02  0.60361541172E+02  0.00000000000E+00 0.  1.
</event>
<event>
 7    1  0.4966153E-006  0.1537749E+03  0.7561462E-02  0.1195910E+00
          1   -1    0    0  501    0  0.00000000000E+00  0.00000000000E+00  0.59911439991E+03  0.59911439991E+03  0.00000000000E+00 0. -1.
         -1   -1    0    0    0  501 -0.00000000000E+00 -0.00000000000E+00 -0.92012781708E+02  0.92012781708E+02  0.00000000000E+00 0.  1.
         23    2    1    2    0    0  0.13907344122E+03 -0.23191877655E+01  0.32529682490E+02  0.18987333044E+03  0.12508757207E+03 0.  0.
          5    1    3    3  502    0 -0.13178905882E+01  0.40012356718E+01  0.48057713768E+02  0.48422752660E+02  0.41800000000E+01 0.  1.
         -5    1    3    3    0  502  0.14039133181E+03 -0.63204234372E+01 -0.15528031278E+02  0.14145057778E+03  0.41800000000E+01 0.  1.
        -11    1    1    2    0    0 -0.12702632941E+03  0.30269837482E+02  0.37149402679E+03  0.39377628593E+03  0.00000000000E+00 0. -1.
         11    1    1    2    0    0 -0.12047111812E+02 -0.27950649717E+02  0.10307790893E+03  0.10747756525E+03  0.00000000000E+00 0.  1.
</event>
<event>
 7    1  0.4966153E-006  0.1276246E+03  0.7561462E-02  0.1231024E+00
          1   -1    0    0  501    0  0.00000000000E+00  0.00000000000E+00  0.49080425219E+03  0.49080425219E+03  0.00000000000E+00 0. -1.
         -1   -1    0    0    0  501 -0.00000000000E+00 -0.00000000000E+00 -0.35904757815E+02  0.35904757815E+02  0.00000000000E+00 0.  1.
         23    2    1    2    0    0  0.29347656724E+02  0.71845351871E+02  0.21629981704E+03  0.26164097711E+03  0.12508937011E+03 0.  0.
          5    1    3    3  502    0  0.61180493678E+01  0.10413947825E+03  0.13170421908E+03  0.16806527060E+03  0.41800000000E+01 0. -1.
         -5    1    3    3    0  502  0.23229607356E+02 -0.32294126375E+02  0.84595597954E+02  0.93575706513E+02  0.41800000000E+01 0. -1.
        -11    1    1    2    0    0  0.17465990029E+02 -0.60093513551E+02  0.96690467871E+02  0.11517524802E+03  0.00000000000E+00 0.  1.
         11    1    1    2    0    0 -0.46813646753E+02 -0.11751838319E+02  0.14190920946E+03  0.14989278487E+03  0.00000000000E+00 0. -1.
</event>
<event>
 7    1  0.4966153E-006  0.1557128E+03  0.7561462E-02  0.1193624E+00
          3   -1    0    0  501    0  0.00000000000E+00  0.00000000000E+00  0.60407881228E+02  0.60407881228E+02  0.00000000000E+00 0. -1.
         -3   -1    0    0    0  501 -0.00000000000E+00 -0.00000000000E+00 -0.44224157617E+03  0.44224157617E+03  0.00000000000E+00 0.  1.
         23    2    1    2    0    0 -0.12135808955E+03 -0.10189550081E+02 -0.20482562093E+03  0.26913162242E+03  0.12508669941E+03 0.  0.
          5    1    3    3  502    0 -0.73225001903E+02  0.44907766744E+02 -0.16416333960E+03  0.18532588294E+03  0.41800000000E+01 0.  1.
         -5    1    3    3    0  502 -0.48133087644E+02 -0.55097316825E+02 -0.40662281327E+02  0.83805739483E+02  0.41800000000E+01 0.  1.
        -11    1    1    2    0    0  0.91412094375E+01 -0.31220618200E+02 -0.33483618554E+02  0.46684488026E+02  0.00000000000E+00 0. -1.
         11    1    1    2    0    0  0.11221688011E+03  0.41410168281E+02 -0.14352445546E+03  0.18683334695E+03  0.00000000000E+00 0.  1.
</event>
<event>
 6    1  0.4966153E-006  0.1358016E+03  0.7561462E-02  0.1219092E+00
         -1   -1    0    0    0  501 -0.00000000000E+00  0.00000000000E+00  0.30196218680E+03  0.30196218680E+03  0.00000000000E+00 0.  1.
          1   -1    0    0  501    0  0.00000000000E+00 -0.00000000000E+00 -0.36992625547E+03  0.36992625547E+03  0.00000000000E+00 0. -1.
          5    1    1    2  502    0 -0.47203235316E+02  0.23858293423E+02  0.10284216262E+03  0.11572098514E+03  0.41800000000E+01 0. -1.
         -5    1    1    2    0  502  0.10437702483E+03 -0.38632741977E+02  0.16718934566E+03  0.20089002406E+03  0.41800000000E+01 0.  1.
        -11    1    1    2    0    0 -0.66024202985E+02 -0.21809722285E+02 -0.18266920341E+03  0.19545561450E+03  0.00000000000E+00 0. -1.
         11    1    1    2    0    0  0.88504134748E+01  0.36584170839E+02 -0.15532637354E+03  0.15982181857E+03  0.00000000000E+00 0.  1.
</event>
<event>
 7    1  0.4966153E-006  0.1443994E+03  0.7561462E-02  0.1207529E+00
          1   -1    0    0  501    0  0.00000000000E+00  0.00000000000E+00  0.60680151817E+02  0.60680151817E+02  0.00000000000E+00 0.  1.
         -1   -1    0    0    0  501 -0.00000000000E+00 -0.00000000000E+00 -0.38612558860E+03  0.38612558860E+03  0.00000000000E+00 0. -1.
         23    2    1    2    0    0  0.73936290088E+02  0.74990984899E+02 -0.17434502623E+03  0.23902630945E+03  0.12508863110E+03 0.  0.
          5    1    3    3  502    0  0.89551200812E+02  0.24093194401E+02 -0.54070442978E+02  0.10742897555E+03  0.41800000000E+01 0.  1.
         -5    1    3    3    0  502 -0.15614910724E+02  0.50897790498E+02 -0.12027458325E+03  0.13159733390E+03  0.41800000000E+01 0.  1.
        -11    1    1    2    0    0 -0.69968461722E+02 -0.25483468065E+01 -0.71305518947E+02  0.99932761092E+02  0.00000000000E+00 0.  1.
         11    1    1    2    0    0 -0.39678283659E+01 -0.72442638093E+02 -0.79794891603E+02  0.10784666987E+03  0.00000000000E+00 0. -1.
</event>
<event>
 7    1  0.4966153E-006  0.8608629E+02  0.7561462E-02  0.1312616E+00
          1   -1    0    0  501    0  0.00000000000E+00  0.00000000000E+00  0.12933770828E+03  0.12933770828E+03  0.00000000000E+00 0. -1.
         -1   -1    0    0    0  501 -0.00000000000E+00 -0.00000000000E+00 -0.11633835625E+03  0.11633835625E+03  0.00000000000E+00 0.  1.
         23    2    1    2    0    0 -0.36930653197E+02 -0.36396365793E+02 -0.20683992678E+02  0.13697758913E+03  0.12508582567E+03 0.  0.
          5    1    3    3  502    0  0.15606717588E+02 -0.28854669889E+02  0.42823238625E+02  0.54106041942E+02  0.41800000000E+01 0.  1.
         -5    1    3    3    0  502 -0.52537370786E+02 -0.75416959040E+01 -0.63507231303E+02  0.82871547192E+02  0.41800000000E+01 0.  1.
        -11    1    1    2    0    0 -0.69537022828E+01  0.41138779492E+02 -0.13725983692E+02  0.43922155934E+02  0.00000000000E+00 0.  1.
         11    1    1    2    0    0  0.43884355480E+02 -0.47424136995E+01  0.47409328397E+02  0.64776319459E+02  0.00000000000E+00 0. -1.
</event>
<event>
 7    1  0.4966153E-006  0.1220525E+03  0.7561462E-02  0.1239749E+00
          2   -1    0    0  501    0  0.00000000000E+00  0.00000000000E+00  0.14818789001E+02  0.14818789001E+02  0.00000000000E+00 0. -1.
         -2   -1    0    0    0  501 -0.00000000000E+00 -0.00000000000E+00 -0.10754981902E+04  0.10754981902E+04  0.00000000000E+00 0.  1.
         23    2    1    2    0    0 -0.31379023965E+02  0.48693082969E+02 -0.70926717295E+03  0.72253934164E+03  0.12509004003E+03 0.  0.
          5    1    3    3  502    0 -0.44074694074E+02 -0.32567328760E+02 -0.31572049074E+03  0.32046857917E+03  0.41800000000E+01 0.  1.
         -5    1    3    3    0  502  0.12695670109E+02  0.81260411730E+02 -0.39354668221E+03  0.40207076246E+03  0.41800000000E+01 0.  1.
        -11    1    1    2    0    0  0.62845518039E+02 -0.26076133836E+02 -0.25359436261E+03  0.26256356305E+03  0.00000000000E+00 0.  1.
         11    1    1    2    0    0 -0.31466494074E+02 -0.22616949134E+02 -0.97817865595E+02  0.10521407447E+03  0.00000000000E+00 0. -1.
</event>
<event>
 7    1  0.4966153E-006  0.1211513E+03  0.7561462E-02  0.1241210E+00
          1   -1    0    0  501    0  0.00000000000E+00  0.00000000000E+00  0.17090792886E+03  0.17090792886E+03  0.00000000000E+00 0. -1.
         -1   -1    0    0    0  501 -0.00000000000E+00 -0.00000000000E+00 -0.12558651198E+03  0.12558651198E+03  0.00000000000E+00 0.  1.
         23    2    1    2    0    0 -0.43965608627E+02  0.87207850803E+02  0.42135715891E+02  0.16421360321E+03  0.12510997139E+03 0.  0.
          5    1    3    3  502    0 -0.36791922409E+02 -0.12571756734E+02  0.50351136945E+02  0.63752678482E+02  0.41800000000E+01 0.  1.
         -5    1    3    3    0  502 -0.71736862176E+01  0.99779607537E+02 -0.82154210541E+01  0.10046092473E+03  0.41800000000E+01 0.  1.
        -11    1    1    2    0    0 -0.51026319279E+01 -0.14375786348E+02 -0.33729312271E+02  0.37018462853E+02  0.00000000000E+00 0.  1.
         11    1    1    2    0    0  0.49068240555E+02 -0.72832064455E+02  0.36915013258E+02  0.95262374775E+02  0.00000000000E+00 0. -1.
</event>
<event>
 7    1  0.4966153E-006  0.2316261E+03  0.7561462E-02  0.1125500E+00
          2   -1    0    0  501    0  0.00000000000E+00  0.00000000000E+00  0.59125214393E+03  0.59125214393E+03  0.00000000000E+00 0. -1.
         -2   -1    0    0    0  501 -0.00000000000E+00 -0.00000000000E+00 -0.13148100231E+03  0.13148100231E+03  0.00000000000E+00 0.  1.
         23    2    1    2    0    0  0.17674326797E+03 -0.14691456244E+03  0.88344415863E+02  0.27618155769E+03  0.12509774404E+03 0.  0.
          5    1    3    3  502    0  0.10858558586E+03 -0.74870437209E+02 -0.15090354958E+02  0.13282169641E+03  0.41800000000E+01 0. -1.
         -5    1    3    3    0  502  0.68157682106E+02 -0.72044125227E+02  0.10343477082E+03  0.14335986127E+03  0.41800000000E+01 0. -1.
        -11    1    1    2    0    0 -0.20666723402E+02  0.32463606436E+02  0.15662340765E+02  0.41548864212E+02  0.00000000000E+00 0.  1.
         11    1    1    2    0    0 -0.15607654457E+03  0.11445095600E+03  0.35576438500E+03  0.40500272434E+03  0.00000000000E+00 0. -1.
</event>
<event>
 7    1  0.4966153E-006  0.6288289E+02  0.7561462E-02  0.1386117E+00
          3   -1    0    0  501    0  0.00000000000E+00  0.00000000000E+00  0.48625833913E+02  0.48625833913E+02  0.00000000000E+00 0. -1.
         -3   -1    0    0    0  501 -0.00000000000E+00 -0.00000000000E+00 -0.26534808688E+03  0.26534808688E+03  0.00000000000E+00 0.  1.
         23    2    1    2    0    0 -0.67558569128E+01 -0.35457609907E+02 -0.13970124058E+03  0.19097239451E+03  0.12510449689E+03 0.  0.
          5    1    3    3  502    0  0.27048129965E+02 -0.42638768868E+02 -0.39405720717E+01  0.50819941494E+02  0.41800000000E+01 0.  1.
         -5    1    3    3    0  502 -0.33803986878E+02  0.71811589618E+01 -0.13576066851E+03  0.14015245302E+03  0.41800000000E+01 0.  1.
        -11    1    1    2    0    0  0.12783961421E+02  0.27304425664E+02 -0.96468218113E+02  0.10106967120E+03  0.00000000000E+00 0.  1.
         11    1    1    2    0    0 -0.60281045083E+01  0.81531842430E+01  0.19447205721E+02  0.21931855088E+02  0.00000000000E+00 0. -1.
</event>
<event>
 7    1  0.4966153E-006  0.2244951E+03  0.7561462E-02  0.1130575E+00
         -2   -1    0    0    0  501 -0.00000000000E+00  0.00000000000E+00  0.16955391570E+03  0.16955391570E+03  0.00000000000E+00 0.  1.
          2   -1    0    0  501    0  0.00000000000E+00 -0.00000000000E+00 -0.43567478735E+03  0.43567478735E+03  0.00000000000E+00 0. -1.
         23    2    1    2    0    0 -0.25192723060E+02  0.21447621333E+03  0.21433818616E+01  0.24957189885E+03  0.12508724646E+03 0.  0.
          5    1    3    3  502    0 -0.17869530304E+02  0.98662607417E+02 -0.60954138617E+02  0.11741596838E+03  0.41800000000E+01 0.  1.
         -5    1    3    3    0  502 -0.73231927566E+01  0.11581360591E+03  0.63097520479E+02  0.13215593047E+03  0.41800000000E+01 0.  1.
        -11    1    1    2    0    0  0.54222570825E+02 -0.93316720098E+02 -0.10826056158E+03  0.15286741520E+03  0.00000000000E+00 0.  1.
         11    1    1    2    0    0 -0.29029847764E+02 -0.12115949323E+03 -0.16000369192E+03  0.20278938900E+03  0.00000000000E+00 0. -1.
</event>
<event>
 7    1  0.4966153E-006  0.1457413E+03  0.7561462E-02  0.1205806E+00
          1   -1    0    0  501    0  0.00000000000E+00  0.00000000000E+00  0.91214197968E+03  0.91214197968E+03  0.00000000000E+00 0. -1.
         -1   -1    0    0    0  501 -0.00000000000E+00 -0.00000000000E+00 -0.29049433430E+02  0.29049433430E+02  0.00000000000E+00 0.  1.
         23    2    1    2    0    0  0.45469131711E+02  0.11168657656E+03  0.33252995544E+03  0.37518654013E+03  0.12508970903E+03 0.  0.
          5    1    3    3  502    0  0.68702030323E+02  0.28641406905E+02  0.85148725717E+02  0.11317277522E+03  0.41800000000E+01 0. -1.
         -5    1    3    3    0  502 -0.23232898612E+02  0.83045169659E+02  0.24738122973E+03  0.26201376491E+03  0.41800000000E+01 0. -1.
        -11    1    1    2    0    0 -0.96935702354E+01 -0.86025661191E+02  0.33612056805E+03  0.34708992488E+03  0.00000000000E+00 0.  1.
         11    1    1    2    0    0 -0.35775561476E+02 -0.25660915373E+02  0.21444202276E+03  0.21891494810E+03  0.00000000000E+00 0. -1.
</event>
<event>
 6    1  0.4966153E-006  0.1164132E+03  0.7561462E-02  0.1249134E+00
          2   -1    0    0  501    0  0.00000000000E+00  0.00000000000E+00  0.42319220627E+02  0.42319220627E+02  0.00000000000E+00 0. -1.
         -2   -1    0    0    0  501 -0.00000000000E+00 -0.00000000000E+00 -0.35582797511E+03  0.35582797511E+03  0.00000000000E+00 0.  1.
          5    1    1    2  502    0 -0.32972216758E+02  0.74680151266E+02 -0.84850147032E+02  0.11781897947E+03  0.41800000000E+01 0. -1.
         -5    1    1    2    0  502  0.26200788005E+02 -0.50867727176E+02 -0.13971703689E+03  0.15103751110E+03  0.41800000000E+01 0.  1.
        -11    1    1    2    0    0  0.44818420786E+02  0.62109602001E+01 -0.46274763067E+02  0.64719553191E+02  0.00000000000E+00 0.  1.
         11    1    1    2    0    0 -0.38046992033E+02 -0.30023384290E+02 -0.42666807491E+02  0.64571151983E+02  0.00000000000E+00 0. -1.
</event>
<event>
 7    1  0.4966153E-006  0.1515996E+03  0.7561462E-02  0.1198521E+00
         -1   -1    0    0    0  501 -0.00000000000E+00  0.00000000000E+00  0.67202467216E+02  0.67202467216E+02  0.00000000000E+00 0.  1.
          1   -1    0    0  501    0  0.00000000000E+00 -0.00000000000E+00 -0.40387534262E+03  0.40387534262E+03  0.00000000000E+00 0. -1.
         23    2    1    2    0    0 -0.10640734350E+03 -0.60319292035E+02 -0.19631948356E+03  0.26296304072E+03  0.12508909393E+03 0.  0.
          5    1    3    3  502    0 -0.77071905970E+02 -0.99437172052E+02 -0.14119951342E+03  0.18916290563E+03  0.41800000000E+01 0. -1.
         -5    1    3    3    0  502 -0.29335437530E+02  0.39117880017E+02 -0.55119970135E+02  0.73800135093E+02  0.41800000000E+01 0. -1.
        -11    1    1    2    0    0  0.65091953440E+02  0.14760217328E+02 -0.14886354115E+02  0.68384427738E+02  0.00000000000E+00 0.  1.
         11    1    1    2    0    0  0.41315390060E+02  0.45559074706E+02 -0.12546703773E+03  0.13973034138E+03  0.00000000000E+00 0. -1.
</event>
<event>
 7    1  0.4966153E-006  0.1113660E+03  0.7561462E-02  0.1258061E+00
         -2   -1    0    0    0  501 -0.00000000000E+00  0.00000000000E+00  0.34032172520E+03  0.34032172520E+03  0.00000000000E+00 0.  1.
          2   -1    0    0  501    0  0.00000000000E+00 -0.00000000000E+00 -0.41443488688E+02  0.41443488688E+02  0.00000000000E+00 0. -1.
         23    2    1    2    0    0 -0.35659726664E+02  0.27892940617E+02  0.18806587743E+03  0.23036020148E+03  0.12508963159E+03 0.  0.
          5    1    3    3  502    0 -0.79150899210E+02 -0.76368228598E+00  0.12987982545E+03  0.15215679254E+03  0.41800000000E+01 0. -1.
         -5    1    3    3    0  502  0.43491172546E+02  0.28656622903E+02  0.58186051975E+02  0.78203408941E+02  0.41800000000E+01 0. -1.
        -11    1    1    2    0    0  0.56871418195E+02 -0.89025607551E+00  0.10062521453E+03  0.11558799489E+03  0.00000000000E+00 0.  1.
         11    1    1    2    0    0 -0.21211691531E+02 -0.27002684541E+02  0.10187144563E+02  0.35817017525E+02  0.00000000000E+00 0. -1.
</event>
<event>
 6    1  0.4966153E-006  0.1535085E+03  0.7561462E-02  0.1196227E+00
          1   -1    0    0  501    0  0.00000000000E+00  0.00000000000E+00  0.30851214934E+03  0.30851214934E+03  0.00000000000E+00 0. -1.
         -1   -1    0    0    0  501 -0.00000000000E+00 -0.00000000000E+00 -0.89729308040E+02  0.89729308040E+02  0.00000000000E+00 0.  1.
          5    1    1    2  502    0 -0.25725278883E+02 -0.10663918886E+03  0.73137157495E+02  0.13190990403E+03  0.41800000000E+01 0. -1.
         -5    1    1    2    0  502  0.61954126187E+02  0.71461728990E+02  0.93374072741E+01  0.95130184675E+02  0.41800000000E+01 0.  1.
        -11    1    1    2    0    0 -0.46164876711E+02 -0.17193840927E+02  0.53562629979E+02  0.72772105493E+02  0.00000000000E+00 0. -1.
         11    1    1    2    0    0  0.99360294068E+01  0.52371300798E+02  0.82745646546E+02  0.98429263179E+02  0.00000000000E+00 0.  1.
</event>
<event>
 7    1  0.4966153E-006  0.6052684E+02  0.7561462E-02  0.1395634E+00
         -1   -1    0    0    0  501 -0.00000000000E+00  0.00000000000E+00  0.26403698752E+03  0.26403698752E+03  0.00000000000E+00 0.  1.
          1   -1    0    0  501    0  0.00000000000E+00 -0.00000000000E+00 -0.54449113477E+02  0.54449113477E+02  0.00000000000E+00 0. -1.
         23    2    1    2    0    0  0.12060246298E+02  0.21122086861E+02  0.17481149914E+03  0.21632388656E+03  0.12508145973E+03 0.  0.
          5    1    3    3  502    0 -0.49239868150E+01 -0.11101884846E+02  0.17896417732E+03  0.17942448734E+03  0.41800000000E+01 0.  1.
         -5    1    3    3    0  502  0.16984233113E+02  0.32223971707E+02 -0.41526781735E+01  0.36899399223E+02  0.41800000000E+01 0.  1.
        -11    1    1    2    0    0 -0.21491198573E+02 -0.42806287770E+02 -0.12324846187E+02  0.49458585931E+02  0.00000000000E+00 0. -1.
         11    1    1    2    0    0  0.94309522749E+01  0.21684200909E+02  0.47101221083E+02  0.52703628503E+02  0.00000000000E+00 0.  1.
</event>
<event>
 7    1  0.4966153E-006  0.2247262E+03  0.7561462E-02  0.1130408E+00
          3   -1    0    0  501    0  0.00000000000E+00  0.00000000000E+00  0.17849098864E+03  0.17849098864E+03  0.00000000000E+00 0. -1.
         -3   -1    0    0    0  501 -0.00000000000E+00 -0.00000000000E+00 -0.30448888950E+03  0.30448888950E+03  0.00000000000E+00 0.  1.
         23    2    1    2    0    0 -0.12958382859E+03  0.16076974182E+03 -0.91554551278E+02  0.25820344432E+03  0.12509158357E+03 0.  0.
          5    1    3    3  502    0 -0.15385273548E+03  0.13587942382E+03 -0.86663281293E+02  0.22284945312E+03  0.41800000000E+01 0.  1.
         -5    1    3    3    0  502  0.24268906884E+02  0.24890317999E+02 -0.48912699848E+01  0.35353991196E+02  0.41800000000E+01 0.  1.
        -11    1    1    2    0    0  0.44042951823E+02 -0.80833220075E+02 -0.53026211865E+02  0.10623356446E+03  0.00000000000E+00 0.  1.
         11    1    1    2    0    0  0.85540876771E+02 -0.79936521745E+02  0.18582862280E+02  0.11854286937E+03  0.00000000000E+00 0. -1.
</event>
<event>
 7    1  0.4966153E-006  0.8001150E+02  0.7561462E-02  0.1329019E+00
          2   -1    0    0  501    0  0.00000000000E+00  0.00000000000E+00  0.12242314369E+03  0.12242314369E+03  0.00000000000E+00 0. -1.
         -2   -1    0    0    0  501 -0.00000000000E+00 -0.00000000000E+00 -0.15263864167E+03  0.15263864167E+03  0.00000000000E+00 0.  1.
         23    2    1    2    0    0 -0.92534877684E+01 -0.48164220801E+02 -0.85320930502E+02  0.15916313294E+03  0.12509125671E+03 0.  0.
          5    1    3    3  502    0 -0.11000525741E+02 -0.60968940765E+02 -0.11265831300E+03  0.12863744087E+03  0.41800000000E+01 0. -1.
         -5    1    3    3    0  502  0.17470379723E+01  0.12804719965E+02  0.27337382497E+02  0.30525692078E+02  0.41800000000E+01 0. -1.
        -11    1    1    2    0    0  0.20577666189E+02  0.62659508036E+02  0.66983660001E+02  0.94002473373E+02  0.00000000000E+00 0. -1.
         11    1    1    2    0    0 -0.11324178421E+02 -0.14495287235E+02 -0.11878227476E+02  0.21896179048E+02  0.00000000000E+00 0.  1.
</event>
<event>
 7    1  0.4966153E-006  0.1092214E+03  0.7561462E-02  0.1262019E+00
         -1   -1    0    0    0  501 -0.00000000000E+00  0.00000000000E+00  0.19273335251E+02  0.19273335251E+02  0.00000000000E+00 0.  1.
          1   -1    0    0  501    0  0.00000000000E+00 -0.00000000000E+00 -0.73152190812E+03  0.73152190812E+03  0.00000000000E+00 0. -1.
         23    2    1    2    0    0 -0.39319814634E+02  0.19136933976E+02 -0.33815009997E+03  0.36318797231E+03  0.12509093912E+03 0.  0.
          5    1    3    3  502    0  0.24295665720E+02 -0.31523803312E+02 -0.18965561088E+03  0.19383176387E+03  0.41800000000E+01 0. -1.
         -5    1    3    3    0  502 -0.63615480355E+02  0.50660737288E+02 -0.14849448910E+03  0.16935620843E+03  0.41800000000E+01 0. -1.
        -11    1    1    2    0    0  0.58109494644E+02  0.13203835502E+02 -0.17080468397E+03  0.18090133970E+03  0.00000000000E+00 0.  1.
         11    1    1    2    0    0 -0.18789680010E+02 -0.32340769478E+02 -0.20329378892E+03  0.20670593136E+03  0.00000000000E+00 0. -1.
</event>
<event>
 7    1  0.4966153E-006  0.7901853E+02  0.7561462E-02  0.1331860E+00
         -1   -1    0    0    0  501 -0.00000000000E+00  0.00000000000E+00  0.13535862892E+03  0.13535862892E+03  0.00000000000E+00 0.  1.
          1   -1    0    0  501    0  0.00000000000E+00 -0.00000000000E+00 -0.91717730212E+02  0.91717730212E+02  0.00000000000E+00 0. -1.
         23    2    1    2    0    0  0.19251952877E+02 -0.21478731610E+01  0.33883355736E+02  0.13103582011E+03  0.12508818212E+03 0.  0.
          5    1    3    3  502    0  0.34341682120E+02  0.48163851779E+02  0.48216604766E+02  0.76429190263E+02  0.41800000000E+01 0.  1.
         -5    1    3    3    0  502 -0.15089729243E+02 -0.50311724941E+02 -0.14333249030E+02  0.54606629844E+02  0.41800000000E+01 0.  1.
        -11    1    1    2    0    0 -0.29216614634E+01 -0.19057241260E+02  0.46641384908E+02  0.50469132510E+02  0.00000000000E+00 0.  1.
         11    1    1    2    0    0 -0.16330291414E+02  0.21205114421E+02 -0.36883841939E+02  0.45571406512E+02  0.00000000000E+00 0. -1.
</event>
<event>
 7    1  0.4966153E-006  0.8077280E+02  0.7561462E-02  0.1326873E+00
          2   -1    0    0  501    0  0.00000000000E+00  0.00000000000E+00  0.90082112020E+02  0.90082112020E+02  0.00000000000E+00 0. -1.
         -2   -1    0    0    0  501 -0.00000000000E+00 -0.00000000000E+00 -0.15134886697E+03  0.15134886697E+03  0.00000000000E+00 0.  1.
         23    2    1    2    0    0  0.31453061195E+02 -0.30930702640E+02 -0.40657864088E+02  0.13873186790E+03  0.12508983106E+03 0.  0.
          5    1    3    3  502    0 -0.34206988803E+02 -0.10084991861E+02 -0.57407560260E+02  0.67712078087E+02  0.41800000000E+01 0.  1.
         -5    1    3    3    0  502  0.65660049998E+02 -0.20845710778E+02  0.16749696173E+02  0.71019789816E+02  0.41800000000E+01 0.  1.
        -11    1    1    2    0    0 -0.28749633275E+02  0.33893584629E+01  0.32064150521E+02  0.43198829994E+02  0.00000000000E+00 0. -1.
         11    1    1    2    0    0 -0.27034279200E+01  0.27541344177E+02 -0.52673041386E+02  0.59500281095E+02  0.00000000000E+00 0.  1.
</event>
<event>
 7    1  0.4966153E-006  0.1053671E+03  0.7561462E-02  0.1269398E+00
          1   -1    0    0  501    0  0.00000000000E+00  0.00000000000E+00  0.26814827158E+02  0.26814827158E+02  0.00000000000E+00 0. -1.
         -1   -1    0    0    0  501 -0.00000000000E+00 -0.00000000000E+00 -0.10675183325E+04  0.10675183325E+04  0.00000000000E+00 0.  1.
         23    2    1    2    0    0  0.36536975180E+02 -0.83207032611E+02 -0.85024298810E+03  0.86418681591E+03  0.12508938067E+03 0.  0.
          5    1    3    3  502    0 -0.14870428128E+02 -0.14484103076E+02 -0.58479916259E+03  0.58518240904E+03  0.41800000000E+01 0.  1.
         -5    1    3    3    0  502  0.51407403307E+02 -0.68722929535E+02 -0.26544382550E+03  0.27900440688E+03  0.41800000000E+01 0.  1.
        -11    1    1    2    0    0 -0.47004053102E+02  0.49162901249E+02 -0.18090603844E+03  0.19327019069E+03  0.00000000000E+00 0.  1.
         11    1    1    2    0    0  0.10467077922E+02  0.34044131362E+02 -0.95544788390E+01  0.36876153084E+02  0.00000000000E+00 0. -1.
</event>
<event>
 7    1  0.4966153E-006  0.1038665E+03  0.7561462E-02  0.1272369E+00
         -4   -1    0    0    0  501 -0.00000000000E+00  0.00000000000E+00  0.87645400363E+02  0.87645400363E+02  0.00000000000E+00 0.  1.
          4   -1    0    0  501    0  0.00000000000E+00 -0.00000000000E+00 -0.20460305647E+03  0.20460305647E+03  0.00000000000E+00 0. -1.
         23    2    1    2    0    0  0.34801709870E+02 -0.65048797571E+02 -0.60039499089E+02  0.15714387205E+03  0.12508776918E+03 0.  0.
          5    1    3    3  502    0 -0.22464782022E+02 -0.13541066208E+02 -0.74117995570E+02  0.78733579701E+02  0.41800000000E+01 0. -1.
         -5    1    3    3    0  502  0.57266491892E+02 -0.51507731363E+02  0.14078496481E+02  0.78410292353E+02  0.41800000000E+01 0. -1.
        -11    1    1    2    0    0 -0.15628425843E+02  0.78867801928E+02 -0.71280114523E+02  0.10744874407E+03  0.00000000000E+00 0. -1.
         11    1    1    2    0    0 -0.19173284028E+02 -0.13819004358E+02  0.14361957507E+02  0.27655840708E+02  0.00000000000E+00 0.  1.
</event>
<event>
 7    1  0.4966153E-006  0.1235436E+03  0.7561462E-02  0.1237363E+00
          2   -1    0    0  501    0  0.00000000000E+00  0.00000000000E+00  0.16625206140E+03  0.16625206140E+03  0.00000000000E+00 0.  1.
         -2   -1    0    0    0  501 -0.00000000000E+00 -0.00000000000E+00 -0.12385041421E+03  0.12385041421E+03  0.00000000000E+00 0. -1.
         23    2    1    2    0    0  0.10771341462E+03 -0.10096324320E+02  0.17736054858E+02  0.16633154913E+03  0.12508997219E+03 0.  0.
          5    1    3    3  502    0  0.31369451863E+02 -0.44631980202E+02 -0.37098565313E+02  0.66104705697E+02  0.41800000000E+01 0.  1.
         -5    1    3    3    0  502  0.76343962753E+02  0.34535655882E+02  0.54834620171E+02  0.10022684344E+03  0.41800000000E+01 0.  1.
        -11    1    1    2    0    0 -0.91855686346E+02  0.11429885615E+02 -0.21497747082E+01  0.92589043253E+02  0.00000000000E+00 0. -1.
         11    1    1    2    0    0 -0.15857728270E+02 -0.13335612946E+01  0.26815367047E+02  0.31181883225E+02  0.00000000000E+00 0.  1.
</event>
<event>
 7    1  0.4966153E-006  0.1291998E+03  0.7561462E-02  0.1228648E+00
         -2   -1    0    0    0  501 -0.00000000000E+00  0.00000000000E+00  0.67591919553E+03  0.67591919553E+03  0.00000000000E+00 0. -1.
          2   -1    0    0  501    0  0.00000000000E+00 -0.00000000000E+00 -0.56277962676E+02  0.56277962676E+02  0.00000000000E+00 0.  1.
         23    2    1    2    0    0  0.77308875273E+02  0.67262977161E+02  0.60005956869E+03  0.61899900888E+03  0.11219321157E+03 0.  0.
          5    1    3    3  502    0 -0.11399696184E+02  0.60791427689E+02  0.28028749550E+03  0.28706114904E+03  0.41800000000E+01 0.  1.
         -5    1    3    3    0  502  0.88708571457E+02  0.64715494719E+01  0.31977207319E+03  0.33193785984E+03  0.41800000000E+01 0. -1.
        -11    1    1    2    0    0 -0.13133628979E+02 -0.30966257386E+02 -0.78352751503E+01  0.34536833140E+02  0.00000000000E+00 0.  1.
         11    1    1    2    0    0 -0.64175246293E+02 -0.36296719775E+02  0.27416939314E+02  0.78661316189E+02  0.00000000000E+00 0. -1.
</event>
<event>
 7    1  0.4966153E-006  0.1297865E+03  0.7561462E-02  0.1227773E+00
         -3   -1    0    0    0  501 -0.00000000000E+00  0.00000000000E+00  0.11614254366E+03  0.11614254366E+03  0.00000000000E+00 0.  1.
          3   -1    0    0  501    0  0.00000000000E+00 -0.00000000000E+00 -0.18327524504E+03  0.18327524504E+03  0.00000000000E+00 0. -1.
         23    2    1    2    0    0 -0.34250012199E+02 -0.64184648391E+02  0.29880161262E+02  0.14776374091E+03  0.12509423115E+03 0.  0.
          5    1    3    3  502    0 -0.37386713348E+02  0.31342092989E+02  0.78464328580E+01  0.49589636381E+02  0.41800000000E+01 0. -1.
         -5    1    3    3    0  502  0.31367011489E+01 -0.95526741380E+02  0.22033728404E+02  0.98174104529E+02  0.41800000000E+01 0. -1.
        -11    1    1    2    0    0  0.63406812595E+02  0.56149619600E+02 -0.82011038483E+02  0.11789407999E+03  0.00000000000E+00 0.  1.
         11    1    1    2    0    0 -0.29156800396E+02  0.80350287912E+01 -0.15001824161E+02  0.33759967790E+02  0.00000000000E+00 0. -1.
</event>
<event>
 6    1  0.4966153E-006  0.1381524E+03  0.7561462E-02  0.1215837E+00
          1   -1    0    0  501    0  0.00000000000E+00  0.00000000000E+00  0.57928595546E+03  0.57928595546E+03  0.00000000000E+00 0. -1.
         -1   -1    0    0    0  501 -0.00000000000E+00 -0.00000000000E+00 -0.24884359382E+03  0.24884359382E+03  0.00000000000E+00 0.  1.
          5    1    1    2  502    0  0.33863198918E+02 -0.10066684110E+03 -0.13093188161E+03  0.16864506859E+03  0.41800000000E+01 0. -1.
         -5    1    1    2    0  502  0.24099067126E+02  0.44326664508E+02 -0.85692087888E+02  0.99530018333E+02  0.41800000000E+01 0.  1.
        -11    1    1    2    0    0 -0.35373661693E+01  0.64286615624E+02  0.28612300007E+03  0.29327743363E+03  0.00000000000E+00 0. -1.
         11    1    1    2    0    0 -0.54424899875E+02 -0.79464390296E+01  0.26094333107E+03  0.26667702873E+03  0.00000000000E+00 0.  1.
</event>
<event>
 7    1  0.4966153E-006  0.1207408E+03  0.7561462E-02  0.1241880E+00
          1   -1    0    0  501    0  0.00000000000E+00  0.00000000000E+00  0.90333089642E+02  0.90333089642E+02  0.00000000000E+00 0. -1.
         -1   -1    0    0    0  501 -0.00000000000E+00 -0.00000000000E+00 -0.20084914422E+03  0.20084914422E+03  0.00000000000E+00 0.  1.
         23    2    1    2    0    0 -0.81518151378E+02  0.28201587760E+01 -0.54350492029E+02  0.15891387667E+03  0.12508589814E+03 0.  0.
          5    1    3    3  502    0 -0.44931665345E+02 -0.45716740728E+02 -0.71008402556E+02  0.95752496401E+02  0.41800000000E+01 0. -1.
         -5    1    3    3    0  502 -0.36586486034E+02  0.48536899504E+02  0.16657910527E+02  0.63161380265E+02  0.41800000000E+01 0. -1.
        -11    1    1    2    0    0  0.40922314249E+02 -0.42889113527E+02 -0.44308534154E+02  0.74009175523E+02  0.00000000000E+00 0. -1.
         11    1    1    2    0    0  0.40595837129E+02  0.40068954751E+02 -0.11857028397E+02  0.58259181675E+02  0.00000000000E+00 0.  1.
</event>
<event>
 7    1  0.4966153E-006  0.2927635E+03  0.7561462E-02  0.1088915E+00
         -2   -1    0    0    0  501 -0.00000000000E+00  0.00000000000E+00  0.10988225038E+03  0.10988225038E+03  0.00000000000E+00 0.  1.
          2   -1    0    0  501    0  0.00000000000E+00 -0.00000000000E+00 -0.82389591018E+03  0.82389591018E+03  0.00000000000E+00 0. -1.
         23    2    1    2    0    0 -0.12077408935E+02  0.27896590415E+03 -0.40009589833E+03  0.50368005592E+03  0.12509608862E+03 0.  0.
          5    1    3    3  502    0  0.54967490849E+02  0.16020760968E+03 -0.21515649832E+03  0.27385706933E+03  0.41800000000E+01 0. -1.
         -5    1    3    3    0  502 -0.67044899784E+02  0.11875829447E+03 -0.18493940001E+03  0.22982298659E+03  0.41800000000E+01 0. -1.
        -11    1    1    2    0    0 -0.21094931601E+01 -0.13064195874E+03 -0.81416445575E+02  0.15394937141E+03  0.00000000000E+00 0.  1.
         11    1    1    2    0    0  0.14186902095E+02 -0.14832394541E+03 -0.23250131590E+03  0.27614873323E+03  0.00000000000E+00 0. -1.
</event>
<event>
 7    1  0.4966153E-006  0.1150318E+03  0.7561462E-02  0.1251526E+00
          4   -1    0    0  501    0  0.00000000000E+00  0.00000000000E+00  0.27881688334E+03  0.27881688334E+03  0.00000000000E+00 0. -1.
         -4   -1    0    0    0  501 -0.00000000000E+00 -0.00000000000E+00 -0.61969036272E+02  0.61969036272E+02  0.00000000000E+00 0.  1.
         23    2    1    2    0    0  0.61709412254E+02 -0.40842092320E+02  0.10093872196E+03  0.17695411309E+03  0.12509198408E+03 0.  0.
          5    1    3    3  502    0  0.39394855658E+02 -0.69287491128E+02  0.11811670629E+02  0.80682705967E+02  0.41800000000E+01 0.  1.
         -5    1    3    3    0  502  0.22314556596E+02  0.28445398808E+02  0.89127051336E+02  0.96271407122E+02  0.41800000000E+01 0.  1.
        -11    1    1    2    0    0 -0.14908990407E+02 -0.27349467539E+02  0.45908183012E+02  0.55478217681E+02  0.00000000000E+00 0. -1.
         11    1    1    2    0    0 -0.46800421846E+02  0.68191559859E+02  0.70000942090E+02  0.10835358884E+03  0.00000000000E+00 0.  1.
</event>
<event>
 7    1  0.4966153E-006  0.1108794E+03  0.7561462E-02  0.1258950E+00
          2   -1    0    0  501    0  0.00000000000E+00  0.00000000000E+00  0.57932796597E+02  0.57932796597E+02  0.00000000000E+00 0. -1.
         -2   -1    0    0    0  501 -0.00000000000E+00 -0.00000000000E+00 -0.32317970433E+03  0.32317970433E+03  0.00000000000E+00 0.  1.
         23    2    1    2    0    0  0.80873131945E+02  0.78271756326E+01 -0.14011956583E+03  0.20465273657E+03  0.12509005439E+03 0.  0.
          5    1    3    3  502    0  0.90329357348E+01 -0.48230365910E+02 -0.18458315697E+02  0.52592242224E+02  0.41800000000E+01 0. -1.
         -5    1    3    3    0  502  0.71840196210E+02  0.56057541542E+02 -0.12166125014E+03  0.15206049434E+03  0.41800000000E+01 0. -1.
        -11    1    1    2    0    0 -0.58099043561E+02 -0.44422172456E+01 -0.13820111016E+03  0.14998259568E+03  0.00000000000E+00 0.  1.
         11    1    1    2    0    0 -0.22774088384E+02 -0.33849583870E+01  0.13073768259E+02  0.26477168683E+02  0.00000000000E+00 0. -1.
</event>
<event>
 7    1  0.4966153E-006  0.1494899E+03  0.7561462E-02  0.1201101E+00
         -1   -1    0    0    0  501 -0.00000000000E+00  0.00000000000E+00  0.95541297878E+02  0.95541297878E+02  0.00000000000E+00 0.  1.
          1   -1    0    0  501    0  0.00000000000E+00 -0.00000000000E+00 -0.28658766349E+03  0.28658766349E+03  0.00000000000E+00 0. -1.
         23    2    1    2    0    0 -0.69307530271E+01  0.12355286946E+03 -0.84510230210E+02  0.19519926934E+03  0.12508968324E+03 0.  0.
          5    1    3    3  502    0 -0.29320437872E+02  0.14250982057E+03 -0.76826644289E+02  0.16458597361E+03  0.41800000000E+01 0.  1.
         -5    1    3    3    0  502  0.22389684845E+02 -0.18956951113E+02 -0.76835859205E+01  0.30613295731E+02  0.41800000000E+01 0.  1.
        -11    1    1    2    0    0  0.71824072068E+00 -0.40598676985E+02  0.11795892544E+02  0.42283702813E+02  0.00000000000E+00 0.  1.
         11    1    1    2    0    0  0.62125123064E+01 -0.82954192472E+02 -0.11833202794E+03  0.14464598921E+03  0.00000000000E+00 0. -1.
</event>
<event>
 7    1  0.4966153E-006  0.2427127E+03  0.7561462E-02  0.1117999E+00
          2   -1    0    0  501    0  0.00000000000E+00  0.00000000000E+00  0.15637552891E+04  0.15637552891E+04  0.00000000000E+00 0. -1.
         -2   -1    0    0    0  501 -0.00000000000E+00 -0.00000000000E+00 -0.49297989077E+02  0.49297989077E+02  0.00000000000E+00 0.  1.
         23    2    1    2    0    0 -0.22006298916E+03  0.79189621090E+02  0.47661420610E+03  0.54544250285E+03  0.12509079573E+03 0.  0.
          5    1    3    3  502    0 -0.86088343524E+02  0.56478198235E+02  0.32901166012E+03  0.34477113374E+03  0.41800000000E+01 0.  1.
         -5    1    3    3    0  502 -0.13397464563E+03  0.22711422856E+02  0.14760254598E+03  0.20067136911E+03  0.41800000000E+01 0.  1.
        -11    1    1    2    0    0  0.45292394755E+02  0.15229739821E+02  0.13602828260E+03  0.14417711214E+03  0.00000000000E+00 0.  1.
         11    1    1    2    0    0  0.17477059440E+03 -0.94419360911E+02  0.90181481134E+03  0.92343366320E+03  0.00000000000E+00 0. -1.
</event>
<event>
 7    1  0.4966153E-006  0.9010169E+02  0.7561462E-02  0.1302606E+00
         -1   -1    0    0    0  501 -0.00000000000E+00  0.00000000000E+00  0.29184420205E+02  0.29184420205E+02  0.00000000000E+00 0.  1.
          1   -1    0    0  501    0  0.00000000000E+00 -0.00000000000E+00 -0.49289691427E+03  0.49289691427E+03  0.00000000000E+00 0. -1.
         23    2    1    2    0    0  0.80061450317E+01  0.28916677501E+02 -0.16512296772E+03  0.20931744970E+03  0.12509167711E+03 0.  0.
          5    1    3    3  502    0 -0.63947803685E+01 -0.31900696371E+02 -0.13661246395E+03  0.14049549940E+03  0.41800000000E+01 0. -1.
         -5    1    3    3    0  502  0.14400925400E+02  0.60817373872E+02 -0.28510503768E+02  0.68821950293E+02  0.41800000000E+01 0. -1.
        -11    1    1    2    0    0  0.30976104907E+01 -0.55690651988E+02 -0.12650565347E+03  0.13825600988E+03  0.00000000000E+00 0.  1.
         11    1    1    2    0    0 -0.11103755522E+02  0.26773974486E+02 -0.17208387287E+03  0.17450787489E+03  0.00000000000E+00 0. -1.
</event>
<event>
 7    1  0.4966153E-006  0.1152746E+03  0.7561462E-02  0.1251103E+00
         -1   -1    0    0    0  501 -0.00000000000E+00  0.00000000000E+00  0.91752617361E+03  0.91752617361E+03  0.00000000000E+00 0.  1.
          1   -1    0    0  501    0  0.00000000000E+00 -0.00000000000E+00 -0.15570700937E+02  0.15570700937E+02  0.00000000000E+00 0. -1.
         23    2    1    2    0    0  0.16625923718E+02  0.42511416645E+02  0.42711461817E+03  0.44739419175E+03  0.12510405219E+03 0.  0.
          5    1    3    3  502    0  0.20148260404E+02 -0.41095104113E+02  0.20280801730E+03  0.20795029276E+03  0.41800000000E+01 0. -1.
         -5    1    3    3    0  502 -0.35223366861E+01  0.83606520759E+02  0.22430660087E+03  0.23944389899E+03  0.41800000000E+01 0. -1.
        -11    1    1    2    0    0 -0.53728130118E+02 -0.19560452660E+02  0.22966894074E+03  0.23667941527E+03  0.00000000000E+00 0.  1.
         11    1    1    2    0    0  0.37102206401E+02 -0.22950963985E+02  0.24517191376E+03  0.24902326752E+03  0.00000000000E+00 0. -1.
</event>
<event>
 7    1  0.4966153E-006  0.1113340E+03  0.7561462E-02  0.1258119E+00
         -1   -1    0    0    0  501 -0.00000000000E+00  0.00000000000E+00  0.11035998198E+03  0.11035998198E+03  0.00000000000E+00 0.  1.
          1   -1    0    0  501    0  0.00000000000E+00 -0.00000000000E+00 -0.13200032429E+03  0.13200032429E+03  0.00000000000E+00 0. -1.
         23    2    1    2    0    0 -0.24450509351E+02 -0.39355968291E+02 -0.13995932641E+02  0.13412913112E+03  0.12509203827E+03 0.  0.
          5    1    3    3  502    0  0.23694468310E+02  0.27721943796E+02 -0.32932556354E+02  0.49314903065E+02  0.41800000000E+01 0. -1.
         -5    1    3    3    0  502 -0.48144977660E+02 -0.67077912087E+02  0.18936623713E+02  0.84814228060E+02  0.41800000000E+01 0. -1.
        -11    1    1    2    0    0 -0.34056245744E+02  0.25171278110E+01  0.12262074357E+02  0.36283912056E+02  0.00000000000E+00 0.  1.
         11    1    1    2    0    0  0.58506755094E+02  0.36838840480E+02 -0.19906484030E+02  0.71947263089E+02  0.00000000000E+00 0. -1.
</event>
<event>
 7    1  0.4966153E-006  0.6927966E+02  0.7561462E-02  0.1362560E+00
         -4   -1    0    0    0  501 -0.00000000000E+00  0.00000000000E+00  0.13558861446E+03  0.13558861446E+03  0.00000000000E+00 0.  1.
          4   -1    0    0  501    0  0.00000000000E+00 -0.00000000000E+00 -0.10123438856E+03  0.10123438856E+03  0.00000000000E+00 0. -1.
         23    2    1    2    0    0  0.82666424171E+00  0.24931556472E+02  0.58637909508E+02  0.14038666590E+03  0.12509094951E+03 0.  0.
          5    1    3    3  502    0 -0.39127418811E+02  0.21111350261E+02 -0.22324569303E+02  0.49924971780E+02  0.41800000000E+01 0. -1.
         -5    1    3    3    0  502  0.39954083052E+02  0.38202062113E+01  0.80962478811E+02  0.90461694121E+02  0.41800000000E+01 0. -1.
        -11    1    1    2    0    0  0.72667086286E+01  0.12930777222E+02 -0.48534791255E+02  0.50750724290E+02  0.00000000000E+00 0. -1.
         11    1    1    2    0    0 -0.80933728703E+01 -0.37862333694E+02  0.24251107654E+02  0.45685612830E+02  0.00000000000E+00 0.  1.
</event>
<event>
 7    1  0.4966153E-006  0.1782332E+03  0.7561462E-02  0.1169524E+00
         -1   -1    0    0    0  501 -0.00000000000E+00  0.00000000000E+00  0.21559138522E+03  0.21559138522E+03  0.00000000000E+00 0.  1.
          1   -1    0    0  501    0  0.00000000000E+00 -0.00000000000E+00 -0.21595511510E+03  0.21595511510E+03  0.00000000000E+00 0. -1.
         23    2    1    2    0    0 -0.95724353339E+02  0.12889608895E+03  0.10189528052E+03  0.22761162037E+03  0.12508816078E+03 0.  0.
          5    1    3    3  502    0  0.94470202119E+01 -0.12526991915E+02 -0.97508800244E+01  0.18940004714E+02  0.41800000000E+01 0. -1.
         -5    1    3    3    0  502 -0.10517137355E+03  0.14142308087E+03  0.11164616054E+03  0.20867161566E+03  0.41800000000E+01 0. -1.
        -11    1    1    2    0    0  0.75790421204E+02 -0.12039879833E+03 -0.56074812419E+02  0.15291972788E+03  0.00000000000E+00 0. -1.
         11    1    1    2    0    0  0.19933932135E+02 -0.84972906192E+01 -0.46184197980E+02  0.51015152075E+02  0.00000000000E+00 0.  1.
</event>
<event>
 7    1  0.4966153E-006  0.9816500E+02  0.7561462E-02  0.1284203E+00
         -2   -1    0    0    0  501 -0.00000000000E+00  0.00000000000E+00  0.76100504784E+03  0.76100504784E+03  0.00000000000E+00 0.  1.
          2   -1    0    0  501    0  0.00000000000E+00 -0.00000000000E+00 -0.23238408876E+02  0.23238408876E+02  0.00000000000E+00 0. -1.
         23    2    1    2    0    0  0.50667169884E+02  0.12871118815E+01  0.56963108842E+03  0.58540222831E+03  0.12508946103E+03 0.  0.
          5    1    3    3  502    0  0.25446258905E+02  0.51735719389E+02  0.13161615018E+03  0.14375110483E+03  0.41800000000E+01 0.  1.
         -5    1    3    3    0  502  0.25220910980E+02 -0.50448607507E+02  0.43801493824E+03  0.44165112348E+03  0.41800000000E+01 0.  1.
        -11    1    1    2    0    0 -0.16309466284E+02  0.30866750971E+02  0.13881471097E+02  0.37569272628E+02  0.00000000000E+00 0. -1.
         11    1    1    2    0    0 -0.34357703601E+02 -0.32153862852E+02  0.15425407945E+03  0.16127195577E+03  0.00000000000E+00 0.  1.
</event>
<event>
 7    1  0.4966153E-006  0.1993988E+03  0.7561462E-02  0.1150247E+00
         -1   -1    0    0    0  501 -0.00000000000E+00  0.00000000000E+00  0.14943496151E+03  0.14943496151E+03  0.00000000000E+00 0.  1.
          1   -1    0    0  501    0  0.00000000000E+00 -0.00000000000E+00 -0.29998090756E+03  0.29998090756E+03  0.00000000000E+00 0. -1.
         23    2    1    2    0    0 -0.15040196558E+03  0.10037617769E+03 -0.58745091680E+02  0.22758384920E+03  0.12508914550E+03 0.  0.
          5    1    3    3  502    0  0.20357380377E+02  0.17568511399E+02 -0.20186522039E+02  0.33882792102E+02  0.41800000000E+01 0.  1.
         -5    1    3    3    0  502 -0.17075934595E+03  0.82807666288E+02 -0.38558569641E+02  0.19370105709E+03  0.41800000000E+01 0.  1.
        -11    1    1    2    0    0  0.87666531109E+01 -0.11830150037E+02  0.16997294752E+02  0.22488100977E+02  0.00000000000E+00 0.  1.
         11    1    1    2    0    0  0.14163531247E+03 -0.88546027650E+02 -0.10879814912E+03  0.19934391890E+03  0.00000000000E+00 0. -1.
</event>
<event>
 7    1  0.4966153E-006  0.8783765E+02  0.7561462E-02  0.1308174E+00
         -2   -1    0    0    0  501 -0.00000000000E+00  0.00000000000E+00  0.16489688152E+03  0.16489688152E+03  0.00000000000E+00 0. -1.
          2   -1    0    0  501    0  0.00000000000E+00 -0.00000000000E+00 -0.62247867176E+02  0.62247867176E+02  0.00000000000E+00 0.  1.
         23    2    1    2    0    0 -0.94164483338E+01  0.20686821431E+02  0.77556231350E+02  0.14892734785E+03  0.12509105418E+03 0.  0.
          5    1    3    3  502    0  0.45340501910E+02  0.46496770462E+02  0.29162930233E+02  0.71313811261E+02  0.41800000000E+01 0.  1.
         -5    1    3    3    0  502 -0.54756950244E+02 -0.25809949031E+02  0.48393301118E+02  0.77613536590E+02  0.41800000000E+01 0.  1.
        -11    1    1    2    0    0  0.25703007052E+02 -0.21645554484E+02  0.42618958560E+02  0.54272923536E+02  0.00000000000E+00 0. -1.
         11    1    1    2    0    0 -0.16286558718E+02  0.95873305335E+00 -0.17526175562E+02  0.23944477313E+02  0.00000000000E+00 0.  1.
</event>
<event>
 7    1  0.4966153E-006  0.1331255E+03  0.7561462E-02  0.1222890E+00
          1   -1    0    0  501    0  0.00000000000E+00  0.00000000000E+00  0.17616017860E+03  0.17616017860E+03  0.00000000000E+00 0. -1.
         -1   -1    0    0    0  501 -0.00000000000E+00 -0.00000000000E+00 -0.10557611824E+04  0.10557611824E+04  0.00000000000E+00 0.  1.
         23    2    1    2    0    0  0.12037897573E+03  0.55302984559E+02 -0.10084890725E+04  0.10248158338E+04  0.12509103129E+03 0.  0.
          5    1    3    3  502    0  0.50220454977E+02  0.30593165189E+02 -0.12514545487E+03  0.13833615988E+03  0.41800000000E+01 0. -1.
         -5    1    3    3    0  502  0.70158520757E+02  0.24709819370E+02 -0.88334361759E+03  0.88647967396E+03  0.41800000000E+01 0. -1.
        -11    1    1    2    0    0 -0.15856309375E+02 -0.10859109010E+02 -0.14578567632E+02  0.24122135678E+02  0.00000000000E+00 0.  1.
         11    1    1    2    0    0 -0.10452266636E+03 -0.44443875549E+02  0.14346663625E+03  0.18298339152E+03  0.00000000000E+00 0. -1.
</event>
<event>
 7    1  0.4966153E-006  0.1017091E+03  0.7561462E-02  0.1276742E+00
          2   -1    0    0  501    0  0.00000000000E+00  0.00000000000E+00  0.42321837540E+03  0.42321837540E+03  0.00000000000E+00 0. -1.
         -2   -1    0    0    0  501 -0.00000000000E+00 -0.00000000000E+00 -0.48481209319E+02  0.48481209319E+02  0.00000000000E+00 0.  1.
         23    2    1    2    0    0  0.10325553020E+02  0.12285313366E+02  0.52810308840E+02  0.13672536072E+03  0.12508936636E+03 0.  0.
          5    1    3    3  502    0  0.23456877986E+02 -0.53436192737E+02  0.30399173277E+02  0.65933557123E+02  0.41800000000E+01 0.  1.
         -5    1    3    3    0  502 -0.13131324966E+02  0.65721506103E+02  0.22411135563E+02  0.70791803600E+02  0.41800000000E+01 0.  1.
        -11    1    1    2    0    0  0.32996146989E+02 -0.10853055835E+01  0.53669776952E+02  0.63010860670E+02  0.00000000000E+00 0.  1.
         11    1    1    2    0    0 -0.43321700008E+02 -0.11200007782E+02  0.26825708029E+03  0.27196336332E+03  0.00000000000E+00 0. -1.
</event>
<event>
 7    1  0.4966153E-006  0.8371998E+02  0.7561462E-02  0.1318814E+00
         -3   -1    0    0    0  501 -0.00000000000E+00  0.00000000000E+00  0.29049749733E+02  0.29049749733E+02  0.00000000000E+00 0.  1.
          3   -1    0    0  501    0  0.00000000000E+00 -0.00000000000E+00 -0.47738841932E+03  0.47738841932E+03  0.00000000000E+00 0. -1.
         23    2    1    2    0    0  0.41847940062E+02 -0.16966917559E+02 -0.23992853146E+03  0.27432118422E+03  0.12508911033E+03 0.  0.
          5    1    3    3  502    0  0.56159108914E+02  0.31282722833E+02 -0.62164086510E+02  0.89522624590E+02  0.41800000000E+01 0. -1.
         -5    1    3    3    0  502 -0.14311168852E+02 -0.48249640392E+02 -0.17776444495E+03  0.18479855963E+03  0.41800000000E+01 0. -1.
        -11    1    1    2    0    0 -0.21790780377E+01  0.12398335850E+02  0.60530605073E+01  0.13968058364E+02  0.00000000000E+00 0.  1.
         11    1    1    2    0    0 -0.39668862024E+02  0.45685817092E+01 -0.21446319863E+03  0.21814892647E+03  0.00000000000E+00 0. -1.
</event>
<event>
 7    1  0.4966153E-006  0.2480727E+03  0.7561462E-02  0.1114529E+00
          1   -1    0    0  501    0  0.00000000000E+00  0.00000000000E+00  0.27527124026E+03  0.27527124026E+03  0.00000000000E+00 0. -1.
         -1   -1    0    0    0  501 -0.00000000000E+00 -0.00000000000E+00 -0.22856126358E+03  0.22856126358E+03  0.00000000000E+00 0.  1.
         23    2    1    2    0    0 -0.22459576166E+03  0.21638388212E+02  0.45433312665E+01  0.25800755132E+03  0.12504310729E+03 0.  0.
          5    1    3    3  502    0 -0.19423985552E+03  0.61485990397E+02 -0.14398250935E+02  0.20429006466E+03  0.41800000000E+01 0.  1.
         -5    1    3    3    0  502 -0.30355906143E+02 -0.39847602185E+02  0.18941582202E+02  0.53717486668E+02  0.41800000000E+01 0.  1.
        -11    1    1    2    0    0  0.81907103145E+02 -0.50905249598E+02  0.19991484487E+02  0.98487448105E+02  0.00000000000E+00 0.  1.
         11    1    1    2    0    0  0.14268865852E+03  0.29266861386E+02  0.22175160925E+02  0.14733750441E+03  0.00000000000E+00 0. -1.
</event>
<event>
 7    1  0.4966153E-006  0.1736146E+03  0.7561462E-02  0.1174130E+00
         -2   -1    0    0    0  501 -0.00000000000E+00  0.00000000000E+00  0.51315675660E+02  0.51315675660E+02  0.00000000000E+00 0.  1.
          2   -1    0    0  501    0  0.00000000000E+00 -0.00000000000E+00 -0.82991841611E+03  0.82991841611E+03  0.00000000000E+00 0. -1.
         23    2    1    2    0    0 -0.10979752551E+03 -0.11464282897E+03 -0.24785395844E+03  0.31980263150E+03  0.12507463195E+03 0.  0.
          5    1    3    3  502    0 -0.12303618435E+03 -0.92690379441E+02 -0.13780344300E+03  0.20672849442E+03  0.41800000000E+01 0. -1.
         -5    1    3    3    0  502  0.13238658844E+02 -0.21952449531E+02 -0.11005051543E+03  0.11307413708E+03  0.41800000000E+01 0. -1.
        -11    1    1    2    0    0  0.92404701488E+02  0.60900886591E+02 -0.22777533825E+03  0.25323734235E+03  0.00000000000E+00 0.  1.
         11    1    1    2    0    0  0.17392824021E+02  0.53741942381E+02 -0.30297344377E+03  0.30819411793E+03  0.00000000000E+00 0. -1.
</event>
<event>
 7    1  0.4966153E-006  0.1043678E+03  0.7561462E-02  0.1271370E+00
          2   -1    0    0  501    0  0.00000000000E+00  0.00000000000E+00  0.48900851737E+02  0.48900851737E+02  0.00000000000E+00 0. -1.
         -2   -1    0    0    0  501 -0.00000000000E+00 -0.00000000000E+00 -0.68064229421E+03  0.68064229421E+03  0.00000000000E+00 0.  1.
         23    2    1    2    0    0 -0.54110113380E+02  0.61736765884E+02 -0.52868119745E+03  0.54944536264E+03  0.12508823030E+03 0.  0.
          5    1    3    3  502    0 -0.20564146045E+02 -0.21059581314E+02 -0.33267234220E+03  0.33399812834E+03  0.41800000000E+01 0. -1.
         -5    1    3    3    0  502 -0.33545967335E+02  0.82796347198E+02 -0.19600885525E+03  0.21544723431E+03  0.41800000000E+01 0. -1.
        -11    1    1    2    0    0  0.31132712812E+02 -0.95687173296E+01  0.24251232820E+02  0.40607000033E+02  0.00000000000E+00 0. -1.
         11    1    1    2    0    0  0.22977400569E+02 -0.52168048554E+02 -0.12731147784E+03  0.13949078327E+03  0.00000000000E+00 0.  1.
</event>
<event>
 7    1  0.4966153E-006  0.2071669E+03  0.7561462E-02  0.1143829E+00
         -1   -1    0    0    0  501 -0.00000000000E+00  0.00000000000E+00  0.44400534304E+02  0.44400534304E+02  0.00000000000E+00 0.  1.
          1   -1    0    0  501    0  0.00000000000E+00 -0.00000000000E+00 -0.10468705171E+04  0.10468705171E+04  0.00000000000E+00 0. -1.
         23    2    1    2    0    0  0.11511542941E+01  0.18562459323E+03 -0.54974593464E+03  0.59356850105E+03  0.12508060605E+03 0.  0.
          5    1    3    3  502    0 -0.46019879069E+02  0.88597992254E+02 -0.15575988809E+03  0.18505687947E+03  0.41800000000E+01 0. -1.
         -5    1    3    3    0  502  0.47171033363E+02  0.97026600977E+02 -0.39398604655E+03  0.40851162158E+03  0.41800000000E+01 0. -1.
        -11    1    1    2    0    0  0.43571237350E+02 -0.11352602299E+03 -0.28005099965E+03  0.30531159988E+03  0.00000000000E+00 0. -1.
         11    1    1    2    0    0 -0.44722391644E+02 -0.72098570247E+02 -0.17267304855E+03  0.19239095051E+03  0.00000000000E+00 0.  1.
</event>
<event>
 7    1  0.4966153E-006  0.1384332E+03  0.7561462E-02  0.1215453E+00
         -2   -1    0    0    0  501 -0.00000000000E+00  0.00000000000E+00  0.24415686945E+03  0.24415686945E+03  0.00000000000E+00 0.  1.
          2   -1    0    0  501    0  0.00000000000E+00 -0.00000000000E+00 -0.19397893271E+03  0.19397893271E+03  0.00000000000E+00 0. -1.
         23    2    1    2    0    0  0.57258218982E+02  0.83295342879E+02  0.18548775639E+03  0.24549952121E+03  0.12509072449E+03 0.  0.
          5    1    3    3  502    0  0.89684180967E+01 -0.28693103167E+02  0.74903034343E+02  0.80818708517E+02  0.41800000000E+01 0.  1.
         -5    1    3    3    0  502  0.48289800885E+02  0.11198844605E+03  0.11058472205E+03  0.16468081269E+03  0.41800000000E+01 0.  1.
        -11    1    1    2    0    0 -0.55569522993E+00 -0.64861291308E+02 -0.29660296698E+02  0.71323412057E+02  0.00000000000E+00 0.  1.
         11    1    1    2    0    0 -0.56702523752E+02 -0.18434051572E+02 -0.10564952296E+03  0.12131286890E+03  0.00000000000E+00 0. -1.
</event>
<event>
 7    1  0.4966153E-006  0.1152842E+03  0.7561462E-02  0.1251086E+00
         -1   -1    0    0    0  501 -0.00000000000E+00  0.00000000000E+00  0.45363187764E+02  0.45363187764E+02  0.00000000000E+00 0.  1.
          1   -1    0    0  501    0  0.00000000000E+00 -0.00000000000E+00 -0.52491851628E+03  0.52491851628E+03  0.00000000000E+00 0. -1.
         23    2    1    2    0    0 -0.53000014851E+02 -0.81584992119E+02 -0.15378316393E+03  0.21752366160E+03  0.11917285485E+03 0.  0.
          5    1    3    3  502    0 -0.47537056654E+02 -0.61119840841E+02 -0.17238673715E+03  0.18902398326E+03  0.41800000000E+01 0. -1.
         -5    1    3    3    0  502 -0.54629581965E+01 -0.20465151278E+02  0.18603573222E+02  0.28499678344E+02  0.41800000000E+01 0.  1.
        -11    1    1    2    0    0  0.73041662475E+02  0.35563725137E+02 -0.15835789534E+03  0.17798057765E+03  0.00000000000E+00 0. -1.
         11    1    1    2    0    0 -0.20041647624E+02  0.46021266982E+02 -0.16741426924E+03  0.17477746479E+03  0.00000000000E+00 0.  1.
</event>
<event>
 7    1  0.4966153E-006  0.1862280E+03  0.7561462E-02  0.1161908E+00
          1   -1    0    0  501    0  0.00000000000E+00  0.00000000000E+00  0.13621722021E+03  0.13621722021E+03  0.00000000000E+00 0. -1.
         -1   -1    0    0    0  501 -0.00000000000E+00 -0.00000000000E+00 -0.36209643004E+03  0.36209643004E+03  0.00000000000E+00 0.  1.
         23    2    1    2    0    0 -0.16698142316E+03 -0.19558678723E+01 -0.22625779372E+03  0.30777797929E+03  0.12509226281E+03 0.  0.
          5    1    3    3  502    0 -0.79217377434E+02 -0.60597192504E+02 -0.13682339223E+03  0.16936801849E+03  0.41800000000E+01 0.  1.
         -5    1    3    3    0  502 -0.87764045729E+02  0.58641324631E+02 -0.89434401494E+02  0.13840996080E+03  0.41800000000E+01 0.  1.
        -11    1    1    2    0    0  0.20622922172E+02  0.60022675818E+00  0.34544005346E+02  0.40236221199E+02  0.00000000000E+00 0. -1.
         11    1    1    2    0    0  0.14635850099E+03  0.13556411141E+01 -0.34165421462E+02  0.15029944976E+03  0.00000000000E+00 0.  1.
</event>
<event>
 7    1  0.4966153E-006  0.1305127E+03  0.7561462E-02  0.1226697E+00
          1   -1    0    0  501    0  0.00000000000E+00  0.00000000000E+00  0.63123095726E+02  0.63123095726E+02  0.00000000000E+00 0. -1.
         -1   -1    0    0    0  501 -0.00000000000E+00 -0.00000000000E+00 -0.28398214286E+03  0.28398214286E+03  0.00000000000E+00 0.  1.
         23    2    1    2    0    0  0.68469183696E+02 -0.36107759490E+02 -0.13728462834E+03  0.20120742934E+03  0.12508221709E+03 0.  0.
          5    1    3    3  502    0  0.10124575832E+03 -0.53693613719E+01 -0.87243294820E+02  0.13382226463E+03  0.41800000000E+01 0. -1.
         -5    1    3    3    0  502 -0.32776574624E+02 -0.30738398118E+02 -0.50041333524E+02  0.67385164716E+02  0.41800000000E+01 0. -1.
        -11    1    1    2    0    0 -0.35287544837E+02  0.62667743263E+02 -0.72180986953E+02  0.10189480725E+03  0.00000000000E+00 0. -1.
         11    1    1    2    0    0 -0.33181638858E+02 -0.26559983773E+02 -0.11393431835E+02  0.44003001992E+02  0.00000000000E+00 0.  1.
</event>
<event>
 7    1  0.4966153E-006  0.5566233E+02  0.7561462E-02  0.1416992E+00
          1   -1    0    0  501    0  0.00000000000E+00  0.00000000000E+00  0.26248023896E+03  0.26248023896E+03  0.00000000000E+00 0. -1.
         -1   -1    0    0    0  501 -0.00000000000E+00 -0.00000000000E+00 -0.44181977406E+02  0.44181977406E+02  0.00000000000E+00 0.  1.
         23    2    1    2    0    0 -0.15632669963E+02  0.93558436273E+01  0.67015492002E+02  0.13086723172E+03  0.11091998913E+03 0.  0.
          5    1    3    3  502    0 -0.85373878804E+01 -0.17245030366E+01  0.97198175603E+02  0.97677114223E+02  0.41800000000E+01 0. -1.
         -5    1    3    3    0  502 -0.70952820824E+01  0.11080346664E+02 -0.30182683600E+02  0.33190117495E+02  0.41800000000E+01 0.  1.
        -11    1    1    2    0    0  0.17343640689E+02 -0.47039944984E+02  0.10272153385E+03  0.11430341995E+03  0.00000000000E+00 0. -1.
         11    1    1    2    0    0 -0.17109707262E+01  0.37684101356E+02  0.48561235709E+02  0.61491564701E+02  0.00000000000E+00 0.  1.
</event>
<event>
 7    1  0.4966153E-006  0.7663980E+02  0.7561462E-02  0.1338867E+00
         -2   -1    0    0    0  501 -0.00000000000E+00  0.00000000000E+00  0.14381877028E+03  0.14381877028E+03  0.00000000000E+00 0.  1.
          2   -1    0    0  501    0  0.00000000000E+00 -0.00000000000E+00 -0.10850311010E+03  0.10850311010E+03  0.00000000000E+00 0. -1.
         23    2    1    2    0    0 -0.41284008133E+02  0.15067413516E+02  0.50473630427E+02  0.14187065427E+03  0.12509316087E+03 0.  0.
          5    1    3    3  502    0 -0.47317710336E+02  0.31983583786E+02  0.85138798584E+02  0.10260605619E+03  0.41800000000E+01 0. -1.
         -5    1    3    3    0  502  0.60337022037E+01 -0.16916170270E+02 -0.34665168157E+02  0.39264598078E+02  0.41800000000E+01 0. -1.
        -11    1    1    2    0    0 -0.11187064073E+02 -0.21966334380E+02 -0.43810840043E+02  0.50269871235E+02  0.00000000000E+00 0. -1.
         11    1    1    2    0    0  0.52471072205E+02  0.68989208641E+01  0.28652869790E+02  0.60181354876E+02  0.00000000000E+00 0.  1.
</event>
<event>
 7    1  0.4966153E-006  0.1373780E+03  0.7561462E-02  0.1216901E+00
         -1   -1    0    0    0  501 -0.00000000000E+00  0.00000000000E+00  0.32181577317E+03  0.32181577317E+03  0.00000000000E+00 0.  1.
          1   -1    0    0  501    0  0.00000000000E+00 -0.00000000000E+00 -0.80513355619E+02  0.80513355619E+02  0.00000000000E+00 0. -1.
         23    2    1    2    0    0  0.13577359544E+02  0.85690528699E+02  0.22798669768E+03  0.27413994064E+03  0.12509021278E+03 0.  0.
          5    1    3    3  502    0 -0.51845070470E+02  0.57916008400E+02  0.90970704791E+02  0.11973018371E+03  0.41800000000E+01 0. -1.
         -5    1    3    3    0  502  0.65422430013E+02  0.27774520299E+02  0.13701599289E+03  0.15440975693E+03  0.41800000000E+01 0. -1.
        -11    1    1    2    0    0  0.37845642798E+02 -0.51708260055E+02 -0.38883207156E+01  0.64196229443E+02  0.00000000000E+00 0. -1.
         11    1    1    2    0    0 -0.51423002341E+02 -0.33982268644E+02  0.17204040586E+02  0.63992958710E+02  0.00000000000E+00 0.  1.
</event>
<event>
 6    1  0.4966153E-006  0.9276964E+02  0.7561462E-02  0.1296280E+00
         -1   -1    0    0    0  501 -0.00000000000E+00  0.00000000000E+00  0.10682305834E+04  0.10682305834E+04  0.00000000000E+00 0.  1.
          1   -1    0    0  501    0  0.00000000000E+00 -0.00000000000E+00 -0.15637447757E+02  0.15637447757E+02  0.00000000000E+00 0. -1.
          5    1    1    2  502    0  0.56351763191E+02  0.40760712252E+02  0.17920649699E+03  0.19227427764E+03  0.41800000000E+01 0. -1.
         -5    1    1    2    0  502 -0.23249115649E+02 -0.11028314246E+02  0.64118809348E+03  0.64171784198E+03  0.41800000000E+01 0.  1.
        -11    1    1    2    0    0 -0.40230049161E+02 -0.52384039782E+02  0.14209397165E+03  0.15669473909E+03  0.00000000000E+00 0.  1.
         11    1    1    2    0    0  0.71274016185E+01  0.22651641776E+02  0.90104573515E+02  0.93181172440E+02  0.00000000000E+00 0. -1.
</event>
<event>
 7    1  0.4966153E-006  0.1433943E+03  0.7561462E-02  0.1208833E+00
         -4   -1    0    0    0  501 -0.00000000000E+00  0.00000000000E+00  0.50842948537E+03  0.50842948537E+03  0.00000000000E+00 0.  1.
          4   -1    0    0  501    0  0.00000000000E+00 -0.00000000000E+00 -0.62267845369E+02  0.62267845369E+02  0.00000000000E+00 0. -1.
         23    2    1    2    0    0  0.80154805601E+02  0.63010452693E+02  0.38377898754E+03  0.41632852407E+03  0.12509204076E+03 0.  0.
          5    1    3    3  502    0  0.11096937878E+03  0.56183039058E+02  0.34101605968E+03  0.36301537469E+03  0.41800000000E+01 0. -1.
         -5    1    3    3    0  502 -0.30814573174E+02  0.68274136352E+01  0.42762927865E+02  0.53313149376E+02  0.41800000000E+01 0. -1.
        -11    1    1    2    0    0 -0.94622422393E+02 -0.66455285237E+02  0.31109245890E+02  0.11973927065E+03  0.00000000000E+00 0. -1.
         11    1    1    2    0    0  0.14467616791E+02  0.34448325440E+01  0.31273406567E+02  0.34629536024E+02  0.00000000000E+00 0.  1.
</event>
<event>
 7    1  0.4966153E-006  0.1120878E+03  0.7561462E-02  0.1256752E+00
         -1   -1    0    0    0  501 -0.00000000000E+00  0.00000000000E+00  0.65088115757E+02  0.65088115757E+02  0.00000000000E+00 0.  1.
          1   -1    0    0  501    0  0.00000000000E+00 -0.00000000000E+00 -0.23836265781E+03  0.23836265781E+03  0.00000000000E+00 0. -1.
         23    2    1    2    0    0 -0.19072626151E+02  0.58706586877E+02 -0.95900487691E+02  0.16928128025E+03  0.12509604268E+03 0.  0.
          5    1    3    3  502    0 -0.64127974221E+02  0.60565563448E+02 -0.38938218472E+02  0.96510319713E+02  0.41800000000E+01 0.  1.
         -5    1    3    3    0  502  0.45055348069E+02 -0.18589765709E+01 -0.56962269219E+02  0.72770960541E+02  0.41800000000E+01 0.  1.
        -11    1    1    2    0    0 -0.24931103261E+02 -0.22865860494E+02  0.49391408567E+01  0.34187755094E+02  0.00000000000E+00 0.  1.
         11    1    1    2    0    0  0.44003729412E+02 -0.35840726383E+02 -0.82313195214E+02  0.99981738214E+02  0.00000000000E+00 0. -1.
</event>
<event>
 7    1  0.4966153E-006  0.9829920E+02  0.7561462E-02  0.1283914E+00
         -1   -1    0    0    0  501 -0.00000000000E+00  0.00000000000E+00  0.91306090488E+02  0.91306090488E+02  0.00000000000E+00 0.  1.
          1   -1    0    0  501    0  0.00000000000E+00 -0.00000000000E+00 -0.20128051124E+03  0.20128051124E+03  0.00000000000E+00 0. -1.
         23    2    1    2    0    0 -0.65600589882E+02 -0.33337899267E+02 -0.24801063333E+02  0.14723197022E+03  0.12508919775E+03 0.  0.
          5    1    3    3  502    0 -0.55900043850E+01 -0.28885239857E+02 -0.67215969076E+02  0.73491932410E+02  0.41800000000E+01 0. -1.
         -5    1    3    3    0  502 -0.60010585497E+02 -0.44526594103E+01  0.42414905743E+02  0.73740037813E+02  0.41800000000E+01 0. -1.
        -11    1    1    2    0    0  0.43909433665E+02  0.58624824891E+02 -0.26518015926E+02  0.77898097711E+02  0.00000000000E+00 0.  1.
         11    1    1    2    0    0  0.21691156218E+02 -0.25286925624E+02 -0.58655341490E+02  0.67456533790E+02  0.00000000000E+00 0. -1.
</event>
<event>
 7    1  0.6983003E-006  0.2510224E+03  0.7561462E-02  0.1112660E+00
          2   -1    0    0  501    0  0.00000000000E+00  0.00000000000E+00  0.12459752656E+04  0.12459752656E+04  0.00000000000E+00 0. -1.
         -2   -1    0    0    0  501 -0.00000000000E+00 -0.00000000000E+00 -0.60218556877E+02  0.60218556877E+02  0.00000000000E+00 0.  1.
         23    2    1    2    0    0 -0.19101305798E+03  0.14603501858E+03  0.43585738449E+03  0.51325645634E+03  0.12509322679E+03 0.  0.
          5    1    3    3  502    0 -0.10942123029E+03  0.48442877487E+02  0.10681907528E+03  0.16046029186E+03  0.41800000000E+01 0.  1.
         -5    1    3    3    0  502 -0.81591827684E+02  0.97592141094E+02  0.32903830921E+03  0.35279616449E+03  0.41800000000E+01 0.  1.
        -11    1    1    2    0    0  0.90182343355E+02 -0.12140741663E+03  0.38751139059E+03  0.41597799666E+03  0.00000000000E+00 0.  1.
         11    1    1    2    0    0  0.10083071462E+03 -0.24627601956E+02  0.36238793363E+03  0.37695936947E+03  0.00000000000E+00 0. -1.
</event>
<event>
 7    1  0.4966153E-006  0.1127664E+03  0.7561462E-02  0.1255531E+00
         -1   -1    0    0    0  501 -0.00000000000E+00  0.00000000000E+00  0.43615313994E+02  0.43615313994E+02  0.00000000000E+00 0.  1.
          1   -1    0    0  501    0  0.00000000000E+00 -0.00000000000E+00 -0.40477562484E+03  0.40477562484E+03  0.00000000000E+00 0. -1.
         23    2    1    2    0    0 -0.69822639446E+02 -0.34417150117E+02 -0.20663318018E+03  0.25377965375E+03  0.12508836999E+03 0.  0.
          5    1    3    3  502    0  0.11571947425E+02  0.36820839688E+02 -0.48030809800E+02  0.61758524048E+02  0.41800000000E+01 0. -1.
         -5    1    3    3    0  502 -0.81394586871E+02 -0.71237989806E+02 -0.15860237038E+03  0.19202112970E+03  0.41800000000E+01 0. -1.
        -11    1    1    2    0    0  0.39112623730E+02  0.24674686744E+02 -0.15564863524E+03  0.16237344349E+03  0.00000000000E+00 0. -1.
         11    1    1    2    0    0  0.30710015716E+02  0.97424633738E+01  0.11215045677E+01  0.32237841590E+02  0.00000000000E+00 0.  1.
</event>
<event>
 7    1  0.4966153E-006  0.1271057E+03  0.7561462E-02  0.1231815E+00
          4   -1    0    0  501    0  0.00000000000E+00  0.00000000000E+00  0.15108319509E+03  0.15108319509E+03  0.00000000000E+00 0. -1.
         -4   -1    0    0    0  501 -0.00000000000E+00 -0.00000000000E+00 -0.11681247867E+03  0.11681247867E+03  0.00000000000E+00 0.  1.
         23    2    1    2    0    0  0.55518110515E+02 -0.41805006595E+02 -0.48325336443E+01  0.14318192612E+03  0.12509113244E+03 0.  0.
          5    1    3    3  502    0  0.26832952480E+02  0.44177689211E+02  0.40246479200E+01  0.52012938330E+02  0.41800000000E+01 0. -1.
         -5    1    3    3    0  502  0.28685158035E+02 -0.85982695806E+02 -0.88571815642E+01  0.91168987791E+02  0.41800000000E+01 0. -1.
        -11    1    1    2    0    0 -0.89357389775E+01 -0.27048253257E+02 -0.74386921916E+01  0.29441290339E+02  0.00000000000E+00 0.  1.
         11    1    1    2    0    0 -0.46582371538E+02  0.68853259852E+02  0.46541942265E+02  0.95272457301E+02  0.00000000000E+00 0. -1.
</event>
<event>
 7    1  0.4966153E-006  0.1029429E+03  0.7561462E-02  0.1274226E+00
         -1   -1    0    0    0  501 -0.00000000000E+00  0.00000000000E+00  0.12459204157E+03  0.12459204157E+03  0.00000000000E+00 0.  1.
          1   -1    0    0  501    0  0.00000000000E+00 -0.00000000000E+00 -0.14442041425E+03  0.14442041425E+03  0.00000000000E+00 0. -1.
         23    2    1    2    0    0 -0.57480751636E+02 -0.52825978249E+02 -0.27860629409E+01  0.14747758821E+03  0.12508899268E+03 0.  0.
          5    1    3    3  502    0 -0.56873979416E+02 -0.19225685529E+00  0.47757052233E+02  0.74383431861E+02  0.41800000000E+01 0. -1.
         -5    1    3    3    0  502 -0.60677221972E+00 -0.52633721394E+02 -0.50543115174E+02  0.73094156345E+02  0.41800000000E+01 0. -1.
        -11    1    1    2    0    0  0.48781265318E+02  0.68458714356E+01 -0.45255568155E+02  0.66892034285E+02  0.00000000000E+00 0. -1.
         11    1    1    2    0    0  0.86994863177E+01  0.45980106814E+02  0.28213258415E+02  0.54642833338E+02  0.00000000000E+00 0.  1.
</event>
<event>
 7    1  0.4966153E-006  0.1168554E+03  0.7561462E-02  0.1248377E+00
         -2   -1    0    0    0  501 -0.00000000000E+00  0.00000000000E+00  0.21844494068E+02  0.21844494068E+02  0.00000000000E+00 0.  1.
          2   -1    0    0  501    0  0.00000000000E+00 -0.00000000000E+00 -0.76249303028E+03  0.76249303028E+03  0.00000000000E+00 0. -1.
         23    2    1    2    0    0 -0.64347148828E+02 -0.23200711644E+02 -0.41388121431E+03  0.43774879049E+03  0.12509002931E+03 0.  0.
          5    1    3    3  502    0 -0.66738870706E+02 -0.67654247014E+02 -0.31860079230E+03  0.33249828760E+03  0.41800000000E+01 0. -1.
         -5    1    3    3    0  502  0.23917218777E+01  0.44453535370E+02 -0.95280422010E+02  0.10525050289E+03  0.41800000000E+01 0. -1.
        -11    1    1    2    0    0 -0.88847203892E+01  0.18460933416E+02 -0.12796312522E+02  0.24155536283E+02  0.00000000000E+00 0.  1.
         11    1    1    2    0    0  0.73231869218E+02  0.47397782286E+01 -0.31397100938E+03  0.32243319757E+03  0.00000000000E+00 0. -1.
</event>
<event>
 7    1  0.4966153E-006  0.1934708E+03  0.7561462E-02  0.1155368E+00
          2   -1    0    0  501    0  0.00000000000E+00  0.00000000000E+00  0.20239857516E+04  0.20239857516E+04  0.00000000000E+00 0. -1.
         -2   -1    0    0    0  501 -0.00000000000E+00 -0.00000000000E+00 -0.23966731570E+02  0.23966731570E+02  0.00000000000E+00 0.  1.
         23    2    1    2    0    0  0.19061387731E+03 -0.93428173306E+00  0.10787829531E+04  0.11026138848E+04  0.12510074262E+03 0.  0.
          5    1    3    3  502    0  0.16667665787E+03 -0.16067439376E+02  0.59903437620E+03  0.62201199921E+03  0.41800000000E+01 0. -1.
         -5    1    3    3    0  502  0.23937219440E+02  0.15133157643E+02  0.47974857695E+03  0.48060188557E+03  0.41800000000E+01 0. -1.
        -11    1    1    2    0    0 -0.16295743204E+03 -0.22623867643E+01  0.88371400296E+03  0.89861598143E+03  0.00000000000E+00 0. -1.
         11    1    1    2    0    0 -0.27656445269E+02  0.31966684974E+01  0.37522063913E+02  0.46722616951E+02  0.00000000000E+00 0.  1.
</event>
<event>
 7    1  0.4966153E-006  0.1593212E+03  0.7561462E-02  0.1189465E+00
         -2   -1    0    0    0  501 -0.00000000000E+00  0.00000000000E+00  0.74682780660E+02  0.74682780660E+02  0.00000000000E+00 0. -1.
          2   -1    0    0  501    0  0.00000000000E+00 -0.00000000000E+00 -0.40206493758E+03  0.40206493758E+03  0.00000000000E+00 0.  1.
         23    2    1    2    0    0  0.18317712271E+02  0.13341866747E+03 -0.18059425903E+03  0.25767765183E+03  0.12508959367E+03 0.  0.
          5    1    3    3  502    0 -0.44573095185E+02  0.15158616230E+02 -0.67048724183E+02  0.82033823969E+02  0.41800000000E+01 0. -1.
         -5    1    3    3    0  502  0.62890807456E+02  0.11826005124E+03 -0.11354553484E+03  0.17564382786E+03  0.41800000000E+01 0. -1.
        -11    1    1    2    0    0 -0.25069887970E+02 -0.89920924128E+02 -0.36341138296E+02  0.10017459863E+03  0.00000000000E+00 0. -1.
         11    1    1    2    0    0  0.67521756985E+01 -0.43497743344E+02 -0.11044675960E+03  0.11889546778E+03  0.00000000000E+00 0.  1.
</event>
<event>
 7    1  0.4966153E-006  0.1014590E+03  0.7561462E-02  0.1277257E+00
         -1   -1    0    0    0  501 -0.00000000000E+00  0.00000000000E+00  0.87590500905E+02  0.87590500905E+02  0.00000000000E+00 0.  1.
          1   -1    0    0  501    0  0.00000000000E+00 -0.00000000000E+00 -0.18423795553E+03  0.18423795553E+03  0.00000000000E+00 0. -1.
         23    2    1    2    0    0 -0.37597957418E+02 -0.23509873871E+02 -0.25022130683E+01  0.13273798402E+03  0.12508713268E+03 0.  0.
          5    1    3    3  502    0 -0.16127777889E+02  0.41762372950E+02 -0.34646598364E+02  0.56763193993E+02  0.41800000000E+01 0. -1.
         -5    1    3    3    0  502 -0.21470179529E+02 -0.65272246822E+02  0.32144385296E+02  0.75974790031E+02  0.41800000000E+01 0. -1.
        -11    1    1    2    0    0 -0.22941157544E+02  0.16313144118E+02 -0.66376307133E+02  0.72098748457E+02  0.00000000000E+00 0. -1.
         11    1    1    2    0    0  0.60539114962E+02  0.71967297530E+01 -0.27768934428E+02  0.66991723957E+02  0.00000000000E+00 0.  1.
</event>
<event>
 7    1  0.4966153E-006  0.1091695E+03  0.7561462E-02  0.1262116E+00
          1   -1    0    0  501    0  0.00000000000E+00  0.00000000000E+00  0.65156602351E+03  0.65156602351E+03  0.00000000000E+00 0. -1.
         -1   -1    0    0    0  501 -0.00000000000E+00 -0.00000000000E+00 -0.19208937181E+02  0.19208937181E+02  0.00000000000E+00 0.  1.
         23    2    1    2    0    0 -0.16873484501E+02 -0.69989682626E+01  0.30582014066E+03  0.33091913593E+03  0.12509123095E+03 0.  0.
          5    1    3    3  502    0  0.48271030159E+02 -0.27871912494E+02  0.16693991840E+03  0.17604926758E+03  0.41800000000E+01 0.  1.
         -5    1    3    3    0  502 -0.65144514660E+02  0.20872944231E+02  0.13888022225E+03  0.15486986836E+03  0.41800000000E+01 0.  1.
        -11    1    1    2    0    0 -0.25065224441E+02 -0.29217848620E+02  0.14742378204E+03  0.15236705571E+03  0.00000000000E+00 0.  1.
         11    1    1    2    0    0  0.41938708942E+02  0.36216816883E+02  0.17911316362E+03  0.18748876904E+03  0.00000000000E+00 0. -1.
</event>
<event>
 6    1  0.4966153E-006  0.1136016E+03  0.7561462E-02  0.1254042E+00
          2   -1    0    0  501    0  0.00000000000E+00  0.00000000000E+00  0.43357228289E+03  0.43357228289E+03  0.00000000000E+00 0. -1.
         -2   -1    0    0    0  501 -0.00000000000E+00 -0.00000000000E+00 -0.35289333244E+02  0.35289333244E+02  0.00000000000E+00 0.  1.
          5    1    1    2  502    0 -0.34122046890E+02 -0.84866658622E+02  0.77619431047E+02  0.12003712886E+03  0.41800000000E+01 0. -1.
         -5    1    1    2    0  502 -0.42277334439E+01  0.43102333517E+02  0.82322473903E+02  0.93113624106E+02  0.41800000000E+01 0.  1.
        -11    1    1    2    0    0 -0.20227407827E+02  0.70523010487E-01  0.64171377112E+02  0.67283866129E+02  0.00000000000E+00 0. -1.
         11    1    1    2    0    0  0.58577188161E+02  0.41693802095E+02  0.17416966759E+03  0.18842699704E+03  0.00000000000E+00 0.  1.
</event>
<event>
 7    1  0.4966153E-006  0.1868335E+03  0.7561462E-02  0.1161349E+00
          2   -1    0    0  501    0  0.00000000000E+00  0.00000000000E+00  0.93484845776E+03  0.93484845776E+03  0.00000000000E+00 0. -1.
         -2   -1    0    0    0  501 -0.00000000000E+00 -0.00000000000E+00 -0.53301468822E+02  0.53301468822E+02  0.00000000000E+00 0.  1.
         23    2    1    2    0    0  0.31149432643E+02  0.17757845623E+03  0.28834533156E+03  0.36234453685E+03  0.12508452294E+03 0.  0.
          5    1    3    3  502    0  0.89616918258E+01  0.14818065173E+03  0.28937947690E+03  0.32526261931E+03  0.41800000000E+01 0.  1.
         -5    1    3    3    0  502  0.22187740817E+02  0.29397804501E+02 -0.10341453358E+01  0.37081917543E+02  0.41800000000E+01 0.  1.
        -11    1    1    2    0    0  0.97794261905E+01 -0.99078995455E+02  0.20852849446E+03  0.23107664858E+03  0.00000000000E+00 0.  1.
         11    1    1    2    0    0 -0.40928858833E+02 -0.78499460774E+02  0.38467316292E+03  0.39472874116E+03  0.00000000000E+00 0. -1.
</event>
<event>
 7    1  0.4966153E-006  0.3040425E+03  0.7561462E-02  0.1083237E+00
          2   -1    0    0  501    0  0.00000000000E+00  0.00000000000E+00  0.34935401440E+03  0.34935401440E+03  0.00000000000E+00 0. -1.
         -2   -1    0    0    0  501 -0.00000000000E+00 -0.00000000000E+00 -0.28648749866E+03  0.28648749866E+03  0.00000000000E+00 0.  1.
         23    2    1    2    0    0 -0.16026217420E+03  0.24554059486E+03  0.78546858487E+02  0.32831611085E+03  0.12509081286E+03 0.  0.
          5    1    3    3  502    0 -0.43151896585E+02  0.15414987230E+02 -0.22234369509E+02  0.51103303197E+02  0.41800000000E+01 0.  1.
         -5    1    3    3    0  502 -0.11711027761E+03  0.23012560763E+03  0.10078122800E+03  0.27721280765E+03  0.41800000000E+01 0.  1.
        -11    1    1    2    0    0  0.72981864937E+02 -0.18135050415E+03  0.11506785355E+02  0.19582329809E+03  0.00000000000E+00 0. -1.
         11    1    1    2    0    0  0.87280309259E+02 -0.64190090713E+02 -0.27187128097E+02  0.11170210412E+03  0.00000000000E+00 0.  1.
</event>
<event>
 7    1  0.4966153E-006  0.1011613E+03  0.7561462E-02  0.1277873E+00
         -2   -1    0    0    0  501 -0.00000000000E+00  0.00000000000E+00  0.64179046787E+02  0.64179046787E+02  0.00000000000E+00 0. -1.
          2   -1    0    0  501    0  0.00000000000E+00 -0.00000000000E+00 -0.20991456479E+03  0.20991456479E+03  0.00000000000E+00 0.  1.
         23    2    1    2    0    0  0.37121304609E+02 -0.16008276885E+02 -0.76838342162E+02  0.15226024669E+03  0.12507915778E+03 0.  0.
          5    1    3    3  502    0  0.71155735269E+02 -0.36524872835E+02 -0.19602579884E+02  0.82455676186E+02  0.41800000000E+01 0.  1.
         -5    1    3    3    0  502 -0.34034430660E+02  0.20516595950E+02 -0.57235762278E+02  0.69804570504E+02  0.41800000000E+01 0.  1.
        -11    1    1    2    0    0 -0.37887704302E+02  0.41830382771E+02 -0.97277620584E+01  0.57270310063E+02  0.00000000000E+00 0.  1.
         11    1    1    2    0    0  0.76639969276E+00 -0.25822105886E+02 -0.59169413784E+02  0.64563054826E+02  0.00000000000E+00 0. -1.
</event>
<event>
 7    1  0.4966153E-006  0.2044041E+03  0.7561462E-02  0.1146076E+00
         -1   -1    0    0    0  501 -0.00000000000E+00  0.00000000000E+00  0.34104642942E+02  0.34104642942E+02  0.00000000000E+00 0.  1.
          1   -1    0    0  501    0  0.00000000000E+00 -0.00000000000E+00 -0.15008093738E+04  0.15008093738E+04  0.00000000000E+00 0. -1.
         23    2    1    2    0    0  0.84022620519E+02  0.13851152877E+03 -0.40690146880E+03  0.45548131187E+03  0.12509666577E+03 0.  0.
          5    1    3    3  502    0  0.10916577410E+03  0.14117224094E+03 -0.34391980501E+03  0.38748557718E+03  0.41800000000E+01 0.  1.
         -5    1    3    3    0  502 -0.25143153582E+02 -0.26607121692E+01 -0.62981663796E+02  0.67995734688E+02  0.41800000000E+01 0.  1.
        -11    1    1    2    0    0 -0.86134178046E+02 -0.23009428915E+02 -0.43571113534E+03  0.44473893904E+03  0.00000000000E+00 0.  1.
         11    1    1    2    0    0  0.21115575261E+01 -0.11550209986E+03 -0.62409212668E+03  0.63469376579E+03  0.00000000000E+00 0. -1.
</event>
<event>
 7    1  0.4966153E-006  0.1393095E+03  0.7561462E-02  0.1214261E+00
          2   -1    0    0  501    0  0.00000000000E+00  0.00000000000E+00  0.15095807199E+03  0.15095807199E+03  0.00000000000E+00 0.  1.
         -2   -1    0    0    0  501 -0.00000000000E+00 -0.00000000000E+00 -0.15227316784E+03  0.15227316784E+03  0.00000000000E+00 0. -1.
         23    2    1    2    0    0  0.68029452493E+02  0.64316479366E+02  0.20168020250E+02  0.15754494333E+03  0.12509613984E+03 0.  0.
          5    1    3    3  502    0  0.92282991664E+01  0.76763201069E+02  0.48082148302E+02  0.91143381160E+02  0.41800000000E+01 0. -1.
         -5    1    3    3    0  502  0.58801153327E+02 -0.12446721703E+02 -0.27914128053E+02  0.66401562170E+02  0.41800000000E+01 0. -1.
        -11    1    1    2    0    0  0.28105104637E+02 -0.22946900223E+02 -0.19095301542E+02  0.41001069224E+02  0.00000000000E+00 0. -1.
         11    1    1    2    0    0 -0.96134557130E+02 -0.41369579142E+02 -0.23878145590E+01  0.10468522728E+03  0.00000000000E+00 0.  1.
</event>
<event>
 7    1  0.4966153E-006  0.1777360E+03  0.7561462E-02  0.1170012E+00
         -1   -1    0    0    0  501 -0.00000000000E+00  0.00000000000E+00  0.14718978235E+03  0.14718978235E+03  0.00000000000E+00 0.  1.
          1   -1    0    0  501    0  0.00000000000E+00 -0.00000000000E+00 -0.24774020151E+03  0.24774020151E+03  0.00000000000E+00 0. -1.
         23    2    1    2    0    0 -0.31135719928E+02 -0.15294050740E+03 -0.16727057540E+02  0.19344849898E+03  0.11305881409E+03 0.  0.
          5    1    3    3  502    0 -0.58045730561E+02 -0.91966586488E+02 -0.48911015606E+02  0.11931856400E+03  0.41800000000E+01 0. -1.
         -5    1    3    3    0  502  0.26910010633E+02 -0.60973920909E+02  0.32183958066E+02  0.74129934979E+02  0.41800000000E+01 0.  1.
        -11    1    1    2    0    0  0.61001038672E+02  0.12439429173E+03 -0.80016272673E+02  0.15999271992E+03  0.00000000000E+00 0.  1.
         11    1    1    2    0    0 -0.29865318743E+02  0.28546215669E+02 -0.38070889402E+01  0.41488764971E+02  0.00000000000E+00 0. -1.
</event>
<event>
 6    1  0.4966153E-006  0.1246766E+03  0.7561462E-02  0.1235576E+00
         -1   -1    0    0    0  501 -0.00000000000E+00  0.00000000000E+00  0.15963785444E+03  0.15963785444E+03  0.00000000000E+00 0.  1.
          1   -1    0    0  501    0  0.00000000000E+00 -0.00000000000E+00 -0.10620737098E+03  0.10620737098E+03  0.00000000000E+00 0. -1.
          5    1    1    2  502    0 -0.48039672616E+02 -0.51135073879E+02  0.22824020764E+02  0.73898675560E+02  0.41800000000E+01 0. -1.
         -5    1    1    2    0  502  0.41060422313E+02  0.81928300697E+02  0.27392840747E+02  0.95739463440E+02  0.41800000000E+01 0.  1.
        -11    1    1    2    0    0 -0.32145187961E+02  0.70383267938E+01 -0.18338075755E+02  0.37671423858E+02  0.00000000000E+00 0.  1.
         11    1    1    2    0    0  0.39124438264E+02 -0.37831553612E+02  0.21551697697E+02  0.58535662564E+02  0.00000000000E+00 0. -1.
</event>
<event>
 7    1  0.4966153E-006  0.1076071E+03  0.7561462E-02  0.1265066E+00
         -2   -1    0    0    0  501 -0.00000000000E+00  0.00000000000E+00  0.60878253458E+03  0.60878253458E+03  0.00000000000E+00 0.  1.
          2   -1    0    0  501    0  0.00000000000E+00 -0.00000000000E+00 -0.36125747194E+02  0.36125747194E+02  0.00000000000E+00 0. -1.
         23    2    1    2    0    0  0.69207255754E+02  0.44676632429E+02  0.43613013396E+03  0.46113232989E+03  0.12509151123E+03 0.  0.
          5    1    3    3  502    0  0.71556819756E+02  0.26286435565E+02  0.43547409642E+03  0.44211595334E+03  0.41800000000E+01 0.  1.
         -5    1    3    3    0  502 -0.23495640017E+01  0.18390196864E+02  0.65603754620E+00  0.19016376547E+02  0.41800000000E+01 0.  1.
        -11    1    1    2    0    0 -0.48579799329E+02  0.19579065920E+02  0.80625681912E+02  0.96144876665E+02  0.00000000000E+00 0.  1.
         11    1    1    2    0    0 -0.20627456425E+02 -0.64255698349E+02  0.55900971513E+02  0.87631075224E+02  0.00000000000E+00 0. -1.
</event>
<event>
 7    1  0.4966153E-006  0.1210044E+03  0.7561462E-02  0.1241449E+00
          2   -1    0    0  501    0  0.00000000000E+00  0.00000000000E+00  0.33396768553E+02  0.33396768553E+02  0.00000000000E+00 0. -1.
         -2   -1    0    0    0  501 -0.00000000000E+00 -0.00000000000E+00 -0.49080905713E+03  0.49080905713E+03  0.00000000000E+00 0.  1.
         23    2    1    2    0    0 -0.56131823626E+02  0.63312865435E+01 -0.33079351094E+03  0.35813561982E+03  0.12508360600E+03 0.  0.
          5    1    3    3  502    0 -0.61860018964E+02  0.56556050733E+02 -0.17096400995E+03  0.19045055505E+03  0.41800000000E+01 0. -1.
         -5    1    3    3    0  502  0.57281953381E+01 -0.50224764190E+02 -0.15982950100E+03  0.16768506477E+03  0.41800000000E+01 0. -1.
        -11    1    1    2    0    0  0.18096260530E+02  0.42075849590E+02 -0.57430845160E+02  0.73458517135E+02  0.00000000000E+00 0. -1.
         11    1    1    2    0    0  0.38035563096E+02 -0.48407136134E+02 -0.69187932475E+02  0.92611688727E+02  0.00000000000E+00 0.  1.
</event>
<event>
 7    1  0.4966153E-006  0.1156207E+03  0.7561462E-02  0.1250502E+00
          2   -1    0    0  501    0  0.00000000000E+00  0.00000000000E+00  0.89884872336E+02  0.89884872336E+02  0.00000000000E+00 0. -1.
         -2   -1    0    0    0  501 -0.00000000000E+00 -0.00000000000E+00 -0.24797198925E+03  0.24797198925E+03  0.00000000000E+00 0.  1.
         23    2    1    2    0    0 -0.79796638195E+02 -0.50086973224E+02 -0.12459177935E+03  0.20011409121E+03  0.12508528956E+03 0.  0.
          5    1    3    3  502    0 -0.62903484010E+02  0.10516692110E+02 -0.40064644634E+01  0.64038841893E+02  0.41800000000E+01 0. -1.
         -5    1    3    3    0  502 -0.16893154185E+02 -0.60603665334E+02 -0.12058531488E+03  0.13607524932E+03  0.41800000000E+01 0. -1.
        -11    1    1    2    0    0  0.75578067342E+02  0.26157465383E+02 -0.61336825635E+02  0.10078920298E+03  0.00000000000E+00 0.  1.
         11    1    1    2    0    0  0.42185708525E+01  0.23929507841E+02  0.27841488069E+02  0.36953567398E+02  0.00000000000E+00 0. -1.
</event>
<event>
 7    1  0.6353222E-006  0.1856698E+03  0.7561462E-02  0.1162426E+00
         -1   -1    0    0    0  501 -0.00000000000E+00  0.00000000000E+00  0.20247362125E+03  0.20247362125E+03  0.00000000000E+00 0.  1.
          1   -1    0    0  501    0  0.00000000000E+00 -0.00000000000E+00 -0.23455696848E+03  0.23455696848E+03  0.00000000000E+00 0. -1.
         23    2    1    2    0    0  0.70589473096E+02 -0.16547318445E+03  0.40582769884E+02  0.22284293660E+03  0.12509102565E+03 0.  0.
          5    1    3    3  502    0  0.33556454913E+02 -0.14278403978E+03  0.77271348351E+02  0.16583621848E+03  0.41800000000E+01 0.  1.
         -5    1    3    3    0  502  0.37033018184E+02 -0.22689144673E+02 -0.36688578467E+02  0.57006718128E+02  0.41800000000E+01 0.  1.
        -11    1    1    2    0    0 -0.40538827418E+02  0.70088612943E+02  0.13616030311E+02  0.82104850491E+02  0.00000000000E+00 0.  1.
         11    1    1    2    0    0 -0.30050645678E+02  0.95384571510E+02 -0.86282147424E+02  0.13208280264E+03  0.00000000000E+00 0. -1.
</event>
<event>
 7    1  0.4966153E-006  0.8467640E+02  0.7561462E-02  0.1316281E+00
         -2   -1    0    0    0  501 -0.00000000000E+00  0.00000000000E+00  0.90857693895E+02  0.90857693895E+02  0.00000000000E+00 0.  1.
          2   -1    0    0  501    0  0.00000000000E+00 -0.00000000000E+00 -0.13227260651E+03  0.13227260651E+03  0.00000000000E+00 0. -1.
         23    2    1    2    0    0  0.40553582908E+01  0.14032506725E+02 -0.22247440567E+02  0.12789562596E+03  0.12509590462E+03 0.  0.
          5    1    3    3  502    0 -0.36003000948E+02  0.15131304008E+02  0.38501378773E+02  0.55000009143E+02  0.41800000000E+01 0.  1.
         -5    1    3    3    0  502  0.40058359239E+02 -0.10987972831E+01 -0.60748819340E+02  0.72895616820E+02  0.41800000000E+01 0.  1.
        -11    1    1    2    0    0  0.42119566957E+02 -0.25084867531E+01  0.38499621198E+01  0.42369477632E+02  0.00000000000E+00 0.  1.
         11    1    1    2    0    0 -0.46174925248E+02 -0.11524019972E+02 -0.23017434166E+02  0.52865196808E+02  0.00000000000E+00 0. -1.
</event>
<event>
 6    1  0.4966153E-006  0.1631652E+03  0.7561462E-02  0.1185169E+00
          2   -1    0    0  501    0  0.00000000000E+00  0.00000000000E+00  0.20342242381E+03  0.20342242381E+03  0.00000000000E+00 0. -1.
         -2   -1    0    0    0  501 -0.00000000000E+00 -0.00000000000E+00 -0.46063958908E+03  0.46063958908E+03  0.00000000000E+00 0.  1.
          5    1    1    2  502    0  0.10602889422E+03  0.26133013773E+02 -0.15634495244E+03  0.19075187384E+03  0.41800000000E+01 0. -1.
         -5    1    1    2    0  502 -0.23352518398E+02  0.73375191610E+02 -0.24647796938E+03  0.25825979294E+03  0.41800000000E+01 0.  1.
        -11    1    1    2    0    0 -0.79853927009E+02 -0.58897569386E+02  0.14326938941E+03  0.17427475801E+03  0.00000000000E+00 0. -1.
         11    1    1    2    0    0 -0.28224488149E+01 -0.40610635997E+02  0.23363671482E+01  0.40775588100E+02  0.00000000000E+00 0.  1.
</event>
<event>
 7    1  0.4966153E-006  0.1057399E+03  0.7561462E-02  0.1268669E+00
         -1   -1    0    0    0  501 -0.00000000000E+00  0.00000000000E+00  0.96315432129E+01  0.96315432129E+01  0.00000000000E+00 0.  1.
          1   -1    0    0  501    0  0.00000000000E+00 -0.00000000000E+00 -0.12157425482E+04  0.12157425482E+04  0.00000000000E+00 0. -1.
         23    2    1    2    0    0  0.41210515137E+01 -0.92293927542E+01 -0.74683706569E+03  0.75730839823E+03  0.12509293580E+03 0.  0.
          5    1    3    3  502    0  0.44964881864E+02 -0.47159133308E+02 -0.49853464503E+03  0.50279229225E+03  0.41800000000E+01 0.  1.
         -5    1    3    3    0  502 -0.40843830350E+02  0.37929740554E+02 -0.24830242066E+03  0.25451610598E+03  0.41800000000E+01 0.  1.
        -11    1    1    2    0    0  0.19344858124E+02 -0.35131216972E+02 -0.20610063196E+03  0.20996641740E+03  0.00000000000E+00 0.  1.
         11    1    1    2    0    0 -0.23465909638E+02  0.44360609726E+02 -0.25317330733E+03  0.25809927577E+03  0.00000000000E+00 0. -1.
</event>
<event>
 7    1  0.4966153E-006  0.1108116E+03  0.7561462E-02  0.1259074E+00
          2   -1    0    0  501    0  0.00000000000E+00  0.00000000000E+00  0.42374394305E+02  0.42374394305E+02  0.00000000000E+00 0. -1.
         -2   -1    0    0    0  501 -0.00000000000E+00 -0.00000000000E+00 -0.43574491275E+03  0.43574491275E+03  0.00000000000E+00 0.  1.
         23    2    1    2    0    0  0.45222018800E+02 -0.61449485433E+02 -0.25755679763E+03  0.29631768362E+03  0.12509034885E+03 0.  0.
          5    1    3    3  502    0  0.61091854747E+02 -0.91479067454E+02 -0.17247038987E+03  0.20460728795E+03  0.41800000000E+01 0. -1.
         -5    1    3    3    0  502 -0.15869835947E+02  0.30029582021E+02 -0.85086407758E+02  0.91710395673E+02  0.41800000000E+01 0. -1.
        -11    1    1    2    0    0 -0.68696320574E+01  0.18523256289E+02  0.12041213729E+02  0.23136414939E+02  0.00000000000E+00 0. -1.
         11    1    1    2    0    0 -0.38352386743E+02  0.42926229144E+02 -0.14785493454E+03  0.15866520849E+03  0.00000000000E+00 0.  1.
</event>
<event>
 7    1  0.4966153E-006  0.1386865E+03  0.7561462E-02  0.1215107E+00
          1   -1    0    0  501    0  0.00000000000E+00  0.00000000000E+00  0.40333070239E+03  0.40333070239E+03  0.00000000000E+00 0. -1.
         -1   -1    0    0    0  501 -0.00000000000E+00 -0.00000000000E+00 -0.80321226370E+02  0.80321226370E+02  0.00000000000E+00 0.  1.
         23    2    1    2    0    0 -0.52482666169E+02  0.11493838989E+03  0.81179239036E+02  0.19539692900E+03  0.12499850917E+03 0.  0.
          5    1    3    3  502    0 -0.51700358975E+02  0.11468052304E+03  0.10945589409E+03  0.16680112300E+03  0.41800000000E+01 0.  1.
         -5    1    3    3    0  502 -0.78230719452E+00  0.25786685399E+00 -0.28276655055E+02  0.28595806003E+02  0.41800000000E+01 0.  1.
        -11    1    1    2    0    0 -0.71246350840E+01 -0.75361997062E+02  0.74225505664E+02  0.10601705861E+03  0.00000000000E+00 0.  1.
         11    1    1    2    0    0  0.59607301253E+02 -0.39576392829E+02  0.16760473132E+03  0.18223794115E+03  0.00000000000E+00 0. -1.
</event>
<event>
 7    1  0.8026309E-006  0.1841225E+03  0.7561462E-02  0.1163872E+00
         -2   -1    0    0    0  501 -0.00000000000E+00  0.00000000000E+00  0.46880376726E+02  0.46880376726E+02  0.00000000000E+00 0. -1.
          2   -1    0    0  501    0  0.00000000000E+00 -0.00000000000E+00 -0.86008771282E+03  0.86008771282E+03  0.00000000000E+00 0.  1.
         23    2    1    2    0    0  0.84452706232E+02 -0.13989228152E+03 -0.32934122145E+03  0.38834942341E+03  0.12509006554E+03 0.  0.
          5    1    3    3  502    0 -0.10337005973E+02  0.17506946786E+02 -0.48041973192E+02  0.52334027807E+02  0.41800000000E+01 0. -1.
         -5    1    3    3    0  502  0.94789712204E+02 -0.15739922830E+03 -0.28129924826E+03  0.33601539561E+03  0.41800000000E+01 0. -1.
        -11    1    1    2    0    0 -0.34495027043E+02  0.66620405972E+02 -0.35063974440E+03  0.35857553700E+03  0.00000000000E+00 0.  1.
         11    1    1    2    0    0 -0.49957679189E+02  0.73271875546E+02 -0.13322637025E+03  0.16004312914E+03  0.00000000000E+00 0. -1.
</event>
<event>
 7    1  0.4966153E-006  0.1357287E+03  0.7561462E-02  0.1219195E+00
         -3   -1    0    0    0  501 -0.00000000000E+00  0.00000000000E+00  0.16827923258E+03  0.16827923258E+03  0.00000000000E+00 0.  1.
          3   -1    0    0  501    0  0.00000000000E+00 -0.00000000000E+00 -0.16641302758E+03  0.16641302758E+03  0.00000000000E+00 0. -1.
         23    2    1    2    0    0 -0.70093944890E+02  0.96153788027E+02  0.44484096326E+02  0.17828260581E+03  0.12508853124E+03 0.  0.
          5    1    3    3  502    0 -0.15750154158E+02 -0.18748099928E+02 -0.23399047848E+02  0.34125451603E+02  0.41800000000E+01 0. -1.
         -5    1    3    3    0  502 -0.54343790732E+02  0.11490188795E+03  0.67883144174E+02  0.14415715421E+03  0.41800000000E+01 0. -1.
        -11    1    1    2    0    0  0.28654227890E+02 -0.30879468720E+02  0.28900763775E+02  0.51086793902E+02  0.00000000000E+00 0.  1.
         11    1    1    2    0    0  0.41439717000E+02 -0.65274319307E+02 -0.71518655097E+02  0.10532286045E+03  0.00000000000E+00 0. -1.
</event>
<event>
 7    1  0.4966153E-006  0.1504985E+03  0.7561462E-02  0.1199862E+00
         -1   -1    0    0    0  501 -0.00000000000E+00  0.00000000000E+00  0.83437571266E+03  0.83437571266E+03  0.00000000000E+00 0.  1.
          1   -1    0    0  501    0  0.00000000000E+00 -0.00000000000E+00 -0.36736664798E+02  0.36736664798E+02  0.00000000000E+00 0. -1.
         23    2    1    2    0    0  0.78202314547E+02  0.75359514646E+02  0.62741806442E+03  0.64891632558E+03  0.12507722252E+03 0.  0.
          5    1    3    3  502    0 -0.30262408496E+02  0.17595367621E+02  0.73532721312E+02  0.81547187771E+02  0.41800000000E+01 0. -1.
         -5    1    3    3    0  502  0.10846472304E+03  0.57764147025E+02  0.55388534311E+03  0.56736913781E+03  0.41800000000E+01 0. -1.
        -11    1    1    2    0    0 -0.79301433033E+02 -0.12934357644E+02  0.93523099187E+02  0.12329876305E+03  0.00000000000E+00 0. -1.
         11    1    1    2    0    0  0.10991184858E+01 -0.62425157002E+02  0.76697884252E+02  0.98897288824E+02  0.00000000000E+00 0.  1.
</event>
<event>
 7    1  0.4966153E-006  0.1136012E+03  0.7561462E-02  0.1254043E+00
         -1   -1    0    0    0  501 -0.00000000000E+00  0.00000000000E+00  0.65805770290E+03  0.65805770290E+03  0.00000000000E+00 0.  1.
          1   -1    0    0  501    0  0.00000000000E+00 -0.00000000000E+00 -0.21307699517E+02  0.21307699517E+02  0.00000000000E+00 0. -1.
         23    2    1    2    0    0 -0.47987273596E+02  0.53264444003E+01  0.36825041407E+03  0.39190141997E+03  0.12508879278E+03 0.  0.
          5    1    3    3  502    0 -0.76482445582E+02 -0.35154993985E+02  0.22346146435E+03  0.23882616383E+03  0.41800000000E+01 0. -1.
         -5    1    3    3    0  502  0.28495171986E+02  0.40481438385E+02  0.14478894972E+03  0.15307525614E+03  0.41800000000E+01 0. -1.
        -11    1    1    2    0    0 -0.28895445463E+01 -0.34482781867E+02  0.16423693281E+03  0.16784272940E+03  0.00000000000E+00 0.  1.
         11    1    1    2    0    0  0.50876818142E+02  0.29156337467E+02  0.10426265650E+03  0.11962125304E+03  0.00000000000E+00 0. -1.
</event>
<event>
 7    1  0.4966153E-006  0.1126113E+03  0.7561462E-02  0.1255809E+00
          4   -1    0    0  501    0  0.00000000000E+00  0.00000000000E+00  0.11377592718E+03  0.11377592718E+03  0.00000000000E+00 0. -1.
         -4   -1    0    0    0  501 -0.00000000000E+00 -0.00000000000E+00 -0.18994071178E+03  0.18994071178E+03  0.00000000000E+00 0.  1.
         23    2    1    2    0    0  0.95446570517E+01  0.71030663057E+02 -0.11181866852E+03  0.18244603825E+03  0.12508671661E+03 0.  0.
          5    1    3    3  502    0 -0.26110807180E+02  0.77392545325E+02 -0.20788491353E+02  0.84386101321E+02  0.41800000000E+01 0.  1.
         -5    1    3    3    0  502  0.35655464232E+02 -0.63618822679E+01 -0.91030177171E+02  0.98059936933E+02  0.41800000000E+01 0.  1.
        -11    1    1    2    0    0  0.20848825990E+02 -0.73581208324E+02  0.45780444146E+02  0.89133141029E+02  0.00000000000E+00 0.  1.
         11    1    1    2    0    0 -0.30393483042E+02  0.25505452667E+01 -0.10126560216E+02  0.32137459675E+02  0.00000000000E+00 0. -1.
</event>
<event>
 7    1  0.4966153E-006  0.1074838E+03  0.7561462E-02  0.1265302E+00
         -2   -1    0    0    0  501 -0.00000000000E+00  0.00000000000E+00  0.21634919334E+02  0.21634919334E+02  0.00000000000E+00 0.  1.
          2   -1    0    0  501    0  0.00000000000E+00 -0.00000000000E+00 -0.69085458016E+03  0.69085458016E+03  0.00000000000E+00 0. -1.
         23    2    1    2    0    0 -0.44436514112E+02 -0.18816214153E+02 -0.27486989626E+03  0.30582656673E+03  0.12509106821E+03 0.  0.
          5    1    3    3  502    0 -0.79301603571E+02 -0.72712091879E+01 -0.10427013029E+03  0.13126822648E+03  0.41800000000E+01 0.  1.
         -5    1    3    3    0  502  0.34865089459E+02 -0.11545004965E+02 -0.17059976597E+03  0.17455834025E+03  0.41800000000E+01 0.  1.
        -11    1    1    2    0    0  0.13864307012E+02  0.51601743804E+02 -0.18465821883E+03  0.19223323530E+03  0.00000000000E+00 0. -1.
         11    1    1    2    0    0  0.30572207100E+02 -0.32785529651E+02 -0.20969154574E+03  0.21442969747E+03  0.00000000000E+00 0.  1.
</event>
<event>
 7    1  0.4966153E-006  0.1671392E+03  0.7561462E-02  0.1180865E+00
          2   -1    0    0  501    0  0.00000000000E+00  0.00000000000E+00  0.91769817309E+03  0.91769817309E+03  0.00000000000E+00 0. -1.
         -2   -1    0    0    0  501 -0.00000000000E+00 -0.00000000000E+00 -0.39873505039E+02  0.39873505039E+02  0.00000000000E+00 0.  1.
         23    2    1    2    0    0  0.20690921264E+02  0.14223590930E+03  0.29347394460E+03  0.34990626576E+03  0.12509304753E+03 0.  0.
          5    1    3    3  502    0 -0.17420701847E+02  0.14663436438E+03  0.19886756143E+03  0.24773150195E+03  0.41800000000E+01 0.  1.
         -5    1    3    3    0  502  0.38111623111E+02 -0.43984550747E+01  0.94606383165E+02  0.10217476381E+03  0.41800000000E+01 0.  1.
        -11    1    1    2    0    0  0.66135912895E+01 -0.76438546148E+02  0.44061125074E+03  0.44724139478E+03  0.00000000000E+00 0. -1.
         11    1    1    2    0    0 -0.27304512553E+02 -0.65797363155E+02  0.14373947272E+03  0.16042401760E+03  0.00000000000E+00 0.  1.
</event>
<event>
 7    1  0.4966153E-006  0.8322794E+02  0.7561462E-02  0.1320133E+00
         -2   -1    0    0    0  501 -0.00000000000E+00  0.00000000000E+00  0.33940050060E+02  0.33940050060E+02  0.00000000000E+00 0.  1.
          2   -1    0    0  501    0  0.00000000000E+00 -0.00000000000E+00 -0.38510171604E+03  0.38510171604E+03  0.00000000000E+00 0. -1.
         23    2    1    2    0    0 -0.28144720341E+02  0.78034778342E+01 -0.17214006230E+03  0.21476399348E+03  0.12505339778E+03 0.  0.
          5    1    3    3  502    0 -0.52762616065E+02  0.77750528396E+01 -0.14870295867E+02  0.55524257761E+02  0.41800000000E+01 0. -1.
         -5    1    3    3    0  502  0.24617895724E+02  0.28424994562E-01 -0.15726976643E+03  0.15923973572E+03  0.41800000000E+01 0. -1.
        -11    1    1    2    0    0  0.31047421668E+02  0.34024590508E+02 -0.47207403709E+02  0.65955698134E+02  0.00000000000E+00 0.  1.
         11    1    1    2    0    0 -0.29027013270E+01 -0.41828068342E+02 -0.13181419998E+03  0.13832207449E+03  0.00000000000E+00 0. -1.
</event>
<event>
 7    1  0.4966153E-006  0.9649679E+02  0.7561462E-02  0.1287840E+00
         -2   -1    0    0    0  501 -0.00000000000E+00  0.00000000000E+00  0.24116356359E+02  0.24116356359E+02  0.00000000000E+00 0. -1.
          2   -1    0    0  501    0  0.00000000000E+00 -0.00000000000E+00 -0.59301479567E+03  0.59301479567E+03  0.00000000000E+00 0.  1.
         23    2    1    2    0    0  0.25595184628E+02 -0.92910571287E+01 -0.20906088375E+03  0.24514375487E+03  0.12509024830E+03 0.  0.
          5    1    3    3  502    0  0.32619711088E+02  0.38804069975E+02 -0.18278977051E+03  0.18973500995E+03  0.41800000000E+01 0.  1.
         -5    1    3    3    0  502 -0.70245264597E+01 -0.48095127104E+02 -0.26271113249E+02  0.55408744928E+02  0.41800000000E+01 0.  1.
        -11    1    1    2    0    0  0.27471402309E+01 -0.38059609979E+02 -0.12183686199E+03  0.12767263462E+03  0.00000000000E+00 0. -1.
         11    1    1    2    0    0 -0.28342324859E+02  0.47350667108E+02 -0.23800069357E+03  0.24431476254E+03  0.00000000000E+00 0.  1.
</event>
<event>
 7    1  0.4966153E-006  0.1099043E+03  0.7561462E-02  0.1260747E+00
          2   -1    0    0  501    0  0.00000000000E+00  0.00000000000E+00  0.71562461886E+03  0.71562461886E+03  0.00000000000E+00 0. -1.
         -2   -1    0    0    0  501 -0.00000000000E+00 -0.00000000000E+00 -0.18173762885E+02  0.18173762885E+02  0.00000000000E+00 0.  1.
         23    2    1    2    0    0  0.59286056606E+01 -0.30341940190E+02  0.33874984056E+03  0.36244842163E+03  0.12514640292E+03 0.  0.
          5    1    3    3  502    0 -0.31851199235E+02  0.38092545340E+02  0.11260118589E+03  0.12313423718E+03  0.41800000000E+01 0. -1.
         -5    1    3    3    0  502  0.37779804896E+02 -0.68434485530E+02  0.22614865468E+03  0.23931418445E+03  0.41800000000E+01 0. -1.
        -11    1    1    2    0    0  0.33267452380E+02 -0.10699080493E+02  0.86430533552E+02  0.93227843702E+02  0.00000000000E+00 0.  1.
         11    1    1    2    0    0 -0.39196058040E+02  0.41041020684E+02  0.27227048186E+03  0.27812211641E+03  0.00000000000E+00 0. -1.
</event>
<event>
 7    1  0.4966153E-006  0.9941793E+02  0.7561462E-02  0.1281525E+00
         -1   -1    0    0    0  501 -0.00000000000E+00  0.00000000000E+00  0.40510187000E+02  0.40510187000E+02  0.00000000000E+00 0.  1.
          1   -1    0    0  501    0  0.00000000000E+00 -0.00000000000E+00 -0.47706321455E+03  0.47706321455E+03  0.00000000000E+00 0. -1.
         23    2    1    2    0    0  0.58800825785E+02  0.58184136796E+02 -0.17782286127E+03  0.23261779024E+03  0.12508851049E+03 0.  0.
          5    1    3    3  502    0  0.53113947162E+02  0.76264702480E+02 -0.18868685554E+03  0.21037489889E+03  0.41800000000E+01 0. -1.
         -5    1    3    3    0  502  0.56868786228E+01 -0.18080565684E+02  0.10863994274E+02  0.22242891348E+02  0.41800000000E+01 0. -1.
        -11    1    1    2    0    0 -0.24970280653E+02 -0.42070887349E+02 -0.23624009652E+03  0.24125268430E+03  0.00000000000E+00 0. -1.
         11    1    1    2    0    0 -0.33830545132E+02 -0.16113249448E+02 -0.22490069760E+02  0.43702927013E+02  0.00000000000E+00 0.  1.
</event>
<event>
 7    1  0.4966153E-006  0.1331268E+03  0.7561462E-02  0.1222888E+00
         -1   -1    0    0    0  501 -0.00000000000E+00  0.00000000000E+00  0.10661387458E+03  0.10661387458E+03  0.00000000000E+00 0.  1.
          1   -1    0    0  501    0  0.00000000000E+00 -0.00000000000E+00 -0.17900985630E+03  0.17900985630E+03  0.00000000000E+00 0. -1.
         23    2    1    2    0    0  0.62370290439E+02  0.56979560990E+02 -0.32545280173E+02  0.15441177747E+03  0.12508828186E+03 0.  0.
          5    1    3    3  502    0  0.42972427351E+02  0.95664792660E+02 -0.35593332488E+02  0.11082752269E+03  0.41800000000E+01 0. -1.
         -5    1    3    3    0  502  0.19397863089E+02 -0.38685231670E+02  0.30480523149E+01  0.43584254780E+02  0.41800000000E+01 0. -1.
        -11    1    1    2    0    0 -0.52760403122E+02 -0.78309568512E+02 -0.12544651487E+02  0.95254485139E+02  0.00000000000E+00 0.  1.
         11    1    1    2    0    0 -0.96098873175E+01  0.21330007522E+02 -0.27306050060E+02  0.35957468279E+02  0.00000000000E+00 0. -1.
</event>
<event>
 7    1  0.4966153E-006  0.2486617E+03  0.7561462E-02  0.1114153E+00
         -1   -1    0    0    0  501 -0.00000000000E+00  0.00000000000E+00  0.15846660469E+03  0.15846660469E+03  0.00000000000E+00 0.  1.
          1   -1    0    0  501    0  0.00000000000E+00 -0.00000000000E+00 -0.55519849260E+03  0.55519849260E+03  0.00000000000E+00 0. -1.
         23    2    1    2    0    0  0.29351850725E+02 -0.23314063578E+03 -0.28310464431E+02  0.26770379288E+03  0.12509097142E+03 0.  0.
          5    1    3    3  502    0 -0.25928656464E+02 -0.33383578062E+02 -0.42272942785E+02  0.59926893812E+02  0.41800000000E+01 0.  1.
         -5    1    3    3    0  502  0.55280507189E+02 -0.19975705772E+03  0.13962478354E+02  0.20777689907E+03  0.41800000000E+01 0.  1.
        -11    1    1    2    0    0  0.25599177555E+02  0.10572345237E+03 -0.20066811425E+03  0.22825524824E+03  0.00000000000E+00 0. -1.
         11    1    1    2    0    0 -0.54951028280E+02  0.12741718342E+03 -0.16775330922E+03  0.21770605617E+03  0.00000000000E+00 0.  1.
</event>
<event>
 7    1  0.4966153E-006  0.1513230E+03  0.7561462E-02  0.1198857E+00
         -2   -1    0    0    0  501 -0.00000000000E+00  0.00000000000E+00  0.22143050195E+02  0.22143050195E+02  0.00000000000E+00 0.  1.
          2   -1    0    0  501    0  0.00000000000E+00 -0.00000000000E+00 -0.13658669463E+04  0.13658669463E+04  0.00000000000E+00 0. -1.
         23    2    1    2    0    0 -0.96100760330E+02 -0.95364674960E+02 -0.70513064274E+03  0.72882580989E+03  0.12509220781E+03 0.  0.
          5    1    3    3  502    0 -0.48863780558E+02 -0.27021835669E+02 -0.76976284890E+02  0.95187549023E+02  0.41800000000E+01 0.  1.
         -5    1    3    3    0  502 -0.47236979771E+02 -0.68342839291E+02 -0.62815435785E+03  0.63363826086E+03  0.41800000000E+01 0.  1.
        -11    1    1    2    0    0  0.11527883508E+02 -0.18399162349E+02 -0.85850651890E+02  0.88553688253E+02  0.00000000000E+00 0.  1.
         11    1    1    2    0    0  0.84572876822E+02  0.11376383731E+03 -0.55274260152E+03  0.57063049840E+03  0.00000000000E+00 0. -1.
</event>
<event>
 7    1  0.4966153E-006  0.3748107E+03  0.7561462E-02  0.1052869E+00
          1   -1    0    0  501    0  0.00000000000E+00  0.00000000000E+00  0.35020603634E+03  0.35020603634E+03  0.00000000000E+00 0. -1.
         -1   -1    0    0    0  501 -0.00000000000E+00 -0.00000000000E+00 -0.53794649487E+03  0.53794649487E+03  0.00000000000E+00 0.  1.
         23    2    1    2    0    0 -0.20205181803E+03  0.29968598957E+03 -0.31373895617E+03  0.49468776010E+03  0.12508883986E+03 0.  0.
          5    1    3    3  502    0 -0.49742559182E+02  0.16881469770E+03 -0.10485096267E+03  0.20489978313E+03  0.41800000000E+01 0.  1.
         -5    1    3    3    0  502 -0.15230925885E+03  0.13087129187E+03 -0.20888799351E+03  0.28978797697E+03  0.41800000000E+01 0.  1.
        -11    1    1    2    0    0  0.25213280606E+02 -0.11220511988E+03  0.40735185751E+02  0.12200431879E+03  0.00000000000E+00 0. -1.
         11    1    1    2    0    0  0.17683853742E+03 -0.18748086969E+03  0.85263311887E+02  0.27146045232E+03  0.00000000000E+00 0.  1.
</event>
<event>
 7    1  0.4966153E-006  0.1745774E+03  0.7561462E-02  0.1173157E+00
         -2   -1    0    0    0  501 -0.00000000000E+00  0.00000000000E+00  0.11330244782E+03  0.11330244782E+03  0.00000000000E+00 0. -1.
          2   -1    0    0  501    0  0.00000000000E+00 -0.00000000000E+00 -0.42847413482E+03  0.42847413482E+03  0.00000000000E+00 0.  1.
         23    2    1    2    0    0  0.87663448831E+02  0.12901463539E+03 -0.26795227022E+02  0.20173018571E+03  0.12508967676E+03 0.  0.
          5    1    3    3  502    0  0.70393426384E+02  0.97869126075E+01  0.17486838663E+02  0.73309481399E+02  0.41800000000E+01 0. -1.
         -5    1    3    3    0  502  0.17270022447E+02  0.11922772278E+03 -0.44282065685E+02  0.12842070431E+03  0.41800000000E+01 0. -1.
        -11    1    1    2    0    0 -0.59418739774E+02 -0.68797022032E+02 -0.24322161359E+03  0.25965432828E+03  0.00000000000E+00 0. -1.
         11    1    1    2    0    0 -0.28244709058E+02 -0.60217613358E+02 -0.45154846383E+02  0.80392068639E+02  0.00000000000E+00 0.  1.
</event>
<event>
 7    1  0.4966153E-006  0.2059015E+03  0.7561462E-02  0.1144853E+00
          2   -1    0    0  501    0  0.00000000000E+00  0.00000000000E+00  0.16042565694E+04  0.16042565694E+04  0.00000000000E+00 0. -1.
         -2   -1    0    0    0  501 -0.00000000000E+00 -0.00000000000E+00 -0.27182370035E+02  0.27182370035E+02  0.00000000000E+00 0.  1.
         23    2    1    2    0    0  0.10606239872E+03 -0.13938449435E+03  0.70312450634E+03  0.73532941767E+03  0.12509201170E+03 0.  0.
          5    1    3    3  502    0  0.12808389503E+03 -0.14216275158E+03  0.65023434662E+03  0.67781849343E+03  0.41800000000E+01 0.  1.
         -5    1    3    3    0  502 -0.22021496308E+02  0.27782572280E+01  0.52890159717E+02  0.57510924247E+02  0.41800000000E+01 0.  1.
        -11    1    1    2    0    0 -0.80601682186E+02  0.14996029251E+03  0.76645248783E+03  0.78513319673E+03  0.00000000000E+00 0. -1.
         11    1    1    2    0    0 -0.25460716534E+02 -0.10575798167E+02  0.10749720517E+03  0.11097632501E+03  0.00000000000E+00 0.  1.
</event>
<event>
 7    1  0.4966153E-006  0.1247719E+03  0.7561462E-02  0.1235426E+00
          2   -1    0    0  501    0  0.00000000000E+00  0.00000000000E+00  0.13271087306E+03  0.13271087306E+03  0.00000000000E+00 0. -1.
         -2   -1    0    0    0  501 -0.00000000000E+00 -0.00000000000E+00 -0.16907269892E+03  0.16907269892E+03  0.00000000000E+00 0.  1.
         23    2    1    2    0    0 -0.69009862456E+02  0.19539637655E+02 -0.94527282251E+02  0.17241277451E+03  0.12508636684E+03 0.  0.
          5    1    3    3  502    0 -0.66099345264E+01  0.61137952927E+02 -0.15855419722E+02  0.63642809940E+02  0.41800000000E+01 0.  1.
         -5    1    3    3    0  502 -0.62399927930E+02 -0.41598315272E+02 -0.78671862529E+02  0.10876996457E+03  0.41800000000E+01 0.  1.
        -11    1    1    2    0    0  0.75250086174E+02  0.15816430939E+02  0.26011672761E+02  0.81174762560E+02  0.00000000000E+00 0.  1.
         11    1    1    2    0    0 -0.62402237175E+01 -0.35356068593E+02  0.32153783634E+02  0.48196034903E+02  0.00000000000E+00 0. -1.
</event>
<event>
 7    1  0.4966153E-006  0.8062176E+02  0.7561462E-02  0.1327296E+00
         -2   -1    0    0    0  501 -0.00000000000E+00  0.00000000000E+00  0.15697889949E+03  0.15697889949E+03  0.00000000000E+00 0.  1.
          2   -1    0    0  501    0  0.00000000000E+00 -0.00000000000E+00 -0.90016174866E+02  0.90016174866E+02  0.00000000000E+00 0. -1.
         23    2    1    2    0    0 -0.15877275360E+02 -0.43925588538E+02  0.51831400967E+02  0.14323148455E+03  0.12508884378E+03 0.  0.
          5    1    3    3  502    0  0.88099161443E+01 -0.33011835021E+02  0.89964853393E+02  0.96325194627E+02  0.41800000000E+01 0.  1.
         -5    1    3    3    0  502 -0.24687191504E+02 -0.10913753517E+02 -0.38133452426E+02  0.46906289920E+02  0.41800000000E+01 0.  1.
        -11    1    1    2    0    0 -0.53218132512E+01 -0.25948582718E+02  0.15603651663E+02  0.30742878632E+02  0.00000000000E+00 0.  1.
         11    1    1    2    0    0  0.21199088611E+02  0.69874171256E+02 -0.47232800953E+00  0.73020711174E+02  0.00000000000E+00 0. -1.
</event>
<event>
 7    1  0.4966153E-006  0.1183141E+03  0.7561462E-02  0.1245905E+00
          1   -1    0    0  501    0  0.00000000000E+00  0.00000000000E+00  0.35049476350E+03  0.35049476350E+03  0.00000000000E+00 0. -1.
         -1   -1    0    0    0  501 -0.00000000000E+00 -0.00000000000E+00 -0.40868971735E+02  0.40868971735E+02  0.00000000000E+00 0.  1.
         23    2    1    2    0    0 -0.51828740962E+02  0.71776896432E+01  0.19189215022E+03  0.23496208946E+03  0.12508736367E+03 0.  0.
          5    1    3    3  502    0 -0.29199887525E+02 -0.57904026216E+02  0.11096352745E+03  0.12859193796E+03  0.41800000000E+01 0.  1.
         -5    1    3    3    0  502 -0.22628853437E+02  0.65081715860E+02  0.80928622772E+02  0.10637015150E+03  0.41800000000E+01 0.  1.
        -11    1    1    2    0    0  0.48584271937E+02 -0.44060758573E+02  0.69005468673E+02  0.95202608328E+02  0.00000000000E+00 0.  1.
         11    1    1    2    0    0  0.32444690249E+01  0.36883068930E+02  0.48728172872E+02  0.61199037447E+02  0.00000000000E+00 0. -1.
</event>
<event>
 7    1  0.4966153E-006  0.1050725E+03  0.7561462E-02  0.1269977E+00
          1   -1    0    0  501    0  0.00000000000E+00  0.00000000000E+00  0.72448875558E+03  0.72448875558E+03  0.00000000000E+00 0. -1.
         -1   -1    0    0    0  501 -0.00000000000E+00 -0.00000000000E+00 -0.23869468262E+02  0.23869468262E+02  0.00000000000E+00 0.  1.
         23    2    1    2    0    0  0.64590208683E+02 -0.23609267375E+02  0.29912860088E+03  0.33144223672E+03  0.12508694518E+03 0.  0.
          5    1    3    3  502    0  0.74019208054E+02  0.46591761597E+00  0.29590715530E+03  0.30505340057E+03  0.41800000000E+01 0.  1.
         -5    1    3    3    0  502 -0.94289993715E+01 -0.24075184991E+02  0.32214455734E+01  0.26388836145E+02  0.41800000000E+01 0.  1.
        -11    1    1    2    0    0 -0.80430725385E+02 -0.11301619573E+01  0.32919086668E+03  0.33887609175E+03  0.00000000000E+00 0.  1.
         11    1    1    2    0    0  0.15840516702E+02  0.24739429333E+02  0.72299819755E+02  0.78039895373E+02  0.00000000000E+00 0. -1.
</event>
<event>
 7    1  0.4966153E-006  0.9109381E+02  0.7561462E-02  0.1300224E+00
          2   -1    0    0  501    0  0.00000000000E+00  0.00000000000E+00  0.62531453625E+02  0.62531453625E+02  0.00000000000E+00 0.  1.
         -2   -1    0    0    0  501 -0.00000000000E+00 -0.00000000000E+00 -0.28571300154E+03  0.28571300154E+03  0.00000000000E+00 0. -1.
         23    2    1    2    0    0  0.14193478357E+02  0.30082341934E+02 -0.21596909002E+03  0.25178582256E+03  0.12508817080E+03 0.  0.
          5    1    3    3  502    0 -0.52060774712E+02 -0.67946700281E+01 -0.74725619854E+02  0.91421455178E+02  0.41800000000E+01 0. -1.
         -5    1    3    3    0  502  0.66254253069E+02  0.36877011962E+02 -0.14124347017E+03  0.16036436738E+03  0.41800000000E+01 0. -1.
        -11    1    1    2    0    0  0.10347428223E+02  0.44088198481E+01  0.34948499325E+02  0.36713819855E+02  0.00000000000E+00 0.  1.
         11    1    1    2    0    0 -0.24540906580E+02 -0.34491161782E+02 -0.42160957221E+02  0.59744812751E+02  0.00000000000E+00 0. -1.
</event>
<event>
 7    1  0.4966153E-006  0.9878910E+02  0.7561462E-02  0.1282863E+00
         -1   -1    0    0    0  501 -0.00000000000E+00  0.00000000000E+00  0.40032503897E+02  0.40032503897E+02  0.00000000000E+00 0.  1.
          1   -1    0    0  501    0  0.00000000000E+00 -0.00000000000E+00 -0.38388812279E+03  0.38388812279E+03  0.00000000000E+00 0. -1.
         23    2    1    2    0    0  0.51209459297E+02  0.69904826834E+01 -0.13839832321E+03  0.19358594168E+03  0.12510054108E+03 0.  0.
          5    1    3    3  502    0  0.43240595598E+02 -0.34061688153E+02 -0.70184447680E+01  0.55647809251E+02  0.41800000000E+01 0. -1.
         -5    1    3    3    0  502  0.79688636993E+01  0.41052170837E+02 -0.13137987844E+03  0.13793813243E+03  0.41800000000E+01 0. -1.
        -11    1    1    2    0    0 -0.56629144026E+01  0.36759386022E+02 -0.48287352247E+02  0.60950713262E+02  0.00000000000E+00 0.  1.
         11    1    1    2    0    0 -0.45546544895E+02 -0.43749868705E+02 -0.15716994344E+03  0.16938397175E+03  0.00000000000E+00 0. -1.
</event>
<event>
 7    1  0.4966153E-006  0.1330545E+03  0.7561462E-02  0.1222993E+00
         -1   -1    0    0    0  501 -0.00000000000E+00  0.00000000000E+00  0.53694667736E+02  0.53694667736E+02  0.00000000000E+00 0.  1.
          1   -1    0    0  501    0  0.00000000000E+00 -0.00000000000E+00 -0.42099991659E+03  0.42099991659E+03  0.00000000000E+00 0. -1.
         23    2    1    2    0    0  0.36804435759E+02 -0.96047828043E+02 -0.19827399721E+03  0.25600653233E+03  0.12508802845E+03 0.  0.
          5    1    3    3  502    0  0.65611878239E+02 -0.52387555343E+02 -0.47930765247E+02  0.96768823379E+02  0.41800000000E+01 0. -1.
         -5    1    3    3    0  502 -0.28807442480E+02 -0.43660272699E+02 -0.15034323196E+03  0.15923770895E+03  0.41800000000E+01 0. -1.
        -11    1    1    2    0    0  0.10899516487E+02  0.77697733680E+02 -0.13842381348E+03  0.15911281978E+03  0.00000000000E+00 0. -1.
         11    1    1    2    0    0 -0.47703952247E+02  0.18350094363E+02 -0.30607438159E+02  0.59575232217E+02  0.00000000000E+00 0.  1.
</event>
<event>
 7    1  0.4966153E-006  0.1383161E+03  0.7561462E-02  0.1215613E+00
         -2   -1    0    0    0  501 -0.00000000000E+00  0.00000000000E+00  0.95029672069E+02  0.95029672069E+02  0.00000000000E+00 0.  1.
          2   -1    0    0  501    0  0.00000000000E+00 -0.00000000000E+00 -0.22236383952E+03  0.22236383952E+03  0.00000000000E+00 0. -1.
         23    2    1    2    0    0  0.71421482319E+02  0.59849964984E+02 -0.84034853886E+02  0.17717745810E+03  0.12508776337E+03 0.  0.
          5    1    3    3  502    0  0.97208578382E+02  0.76812121011E+01 -0.50758454127E+02  0.11001091671E+03  0.41800000000E+01 0. -1.
         -5    1    3    3    0  502 -0.25787096063E+02  0.52168752883E+02 -0.33276399759E+02  0.67166541385E+02  0.41800000000E+01 0. -1.
        -11    1    1    2    0    0 -0.33625413305E+02  0.15012482591E+02  0.13175416615E+02  0.39110544057E+02  0.00000000000E+00 0.  1.
         11    1    1    2    0    0 -0.37796069014E+02 -0.74862447575E+02 -0.56474730185E+02  0.10110550944E+03  0.00000000000E+00 0. -1.
</event>
<event>
 7    1  0.4966153E-006  0.1063772E+03  0.7561462E-02  0.1267430E+00
          1   -1    0    0  501    0  0.00000000000E+00  0.00000000000E+00  0.32944142456E+03  0.32944142456E+03  0.00000000000E+00 0. -1.
         -1   -1    0    0    0  501 -0.00000000000E+00 -0.00000000000E+00 -0.38335750625E+02  0.38335750625E+02  0.00000000000E+00 0.  1.
         23    2    1    2    0    0 -0.12973672246E+02  0.25833638134E+01  0.11844935964E+03  0.17277539063E+03  0.12508435101E+03 0.  0.
          5    1    3    3  502    0 -0.88673023905E+01  0.63524685496E+02  0.66448249355E+02  0.92449212876E+02  0.41800000000E+01 0. -1.
         -5    1    3    3    0  502 -0.41063698552E+01 -0.60941321683E+02  0.52001110286E+02  0.80326177755E+02  0.41800000000E+01 0. -1.
        -11    1    1    2    0    0  0.31563674954E+02  0.33893528910E+02  0.64908704091E+02  0.79738176211E+02  0.00000000000E+00 0.  1.
         11    1    1    2    0    0 -0.18590002709E+02 -0.36476892724E+02  0.10774761020E+03  0.11526360834E+03  0.00000000000E+00 0. -1.
</event>
<event>
 7    1  0.4966153E-006  0.1589263E+03  0.7561462E-02  0.1189914E+00
          2   -1    0    0  501    0  0.00000000000E+00  0.00000000000E+00  0.81243530778E+03  0.81243530778E+03  0.00000000000E+00 0.  1.
         -2   -1    0    0    0  501 -0.00000000000E+00 -0.00000000000E+00 -0.32745557046E+02  0.32745557046E+02  0.00000000000E+00 0. -1.
         23    2    1    2    0    0 -0.79872384483E+02 -0.89490945899E+02  0.37975718949E+03  0.41743528564E+03  0.12509383491E+03 0.  0.
          5    1    3    3  502    0  0.33806731675E+02 -0.17931354455E+02  0.97219467902E+02  0.10456350185E+03  0.41800000000E+01 0. -1.
         -5    1    3    3    0  502 -0.11367911616E+03 -0.71559591445E+02  0.28253772159E+03  0.31287178380E+03  0.41800000000E+01 0. -1.
        -11    1    1    2    0    0  0.42414195082E+01 -0.15218400645E+02  0.15255681156E+02  0.21961902585E+02  0.00000000000E+00 0. -1.
         11    1    1    2    0    0  0.75630964975E+02  0.10470934654E+03  0.38467688009E+03  0.40578367660E+03  0.00000000000E+00 0.  1.
</event>
<event>
 7    1  0.4966153E-006  0.1463594E+03  0.7561462E-02  0.1205019E+00
          1   -1    0    0  501    0  0.00000000000E+00  0.00000000000E+00  0.18352912269E+03  0.18352912269E+03  0.00000000000E+00 0. -1.
         -1   -1    0    0    0  501 -0.00000000000E+00 -0.00000000000E+00 -0.31267920174E+03  0.31267920174E+03  0.00000000000E+00 0.  1.
         23    2    1    2    0    0  0.93810853913E+02 -0.52195667547E+02 -0.25200061221E+03  0.30112538452E+03  0.12508926663E+03 0.  0.
          5    1    3    3  502    0  0.10074039422E+02  0.28026777515E+02 -0.82838756677E+01  0.31194254667E+02  0.41800000000E+01 0. -1.
         -5    1    3    3    0  502  0.83736814490E+02 -0.80222445062E+02 -0.24371673654E+03  0.26993112985E+03  0.41800000000E+01 0. -1.
        -11    1    1    2    0    0 -0.21363851595E+02 -0.30134427450E+02  0.54570330610E+02  0.65897032222E+02  0.00000000000E+00 0. -1.
         11    1    1    2    0    0 -0.72447002317E+02  0.82330094998E+02  0.68280202551E+02  0.12918590770E+03  0.00000000000E+00 0.  1.
</event>
<event>
 7    1  0.4966153E-006  0.9105733E+02  0.7561462E-02  0.1300311E+00
          1   -1    0    0  501    0  0.00000000000E+00  0.00000000000E+00  0.18572614939E+02  0.18572614939E+02  0.00000000000E+00 0. -1.
         -1   -1    0    0    0  501 -0.00000000000E+00 -0.00000000000E+00 -0.91586408921E+03  0.91586408921E+03  0.00000000000E+00 0.  1.
         23    2    1    2    0    0 -0.12983234844E+02  0.28517456887E+02 -0.72566873419E+03  0.73703711373E+03  0.12508711165E+03 0.  0.
          5    1    3    3  502    0  0.30137871249E+02  0.30497856847E+02 -0.88847703179E+02  0.98741061954E+02  0.41800000000E+01 0. -1.
         -5    1    3    3    0  502 -0.43121106092E+02 -0.19803999602E+01 -0.63682103101E+03  0.63829605177E+03  0.41800000000E+01 0. -1.
        -11    1    1    2    0    0  0.51532818314E+02 -0.84995113330E+01 -0.74270494856E+02  0.90796362605E+02  0.00000000000E+00 0. -1.
         11    1    1    2    0    0 -0.38549583470E+02 -0.20017945554E+02 -0.97352245228E+02  0.10660322782E+03  0.00000000000E+00 0.  1.
</event>
<event>
 7    1  0.4966153E-006  0.1272082E+03  0.7561462E-02  0.1231658E+00
         -2   -1    0    0    0  501 -0.00000000000E+00  0.00000000000E+00  0.17520539307E+04  0.17520539307E+04  0.00000000000E+00 0.  1.
          2   -1    0    0  501    0  0.00000000000E+00 -0.00000000000E+00 -0.11616258955E+02  0.11616258955E+02  0.00000000000E+00 0. -1.
         23    2    1    2    0    0  0.50605003793E+01  0.72716613886E+02  0.13153654223E+04  0.13233090689E+04  0.12508949976E+03 0.  0.
          5    1    3    3  502    0 -0.14456156976E+02  0.10307870087E+03  0.81580620279E+03  0.82243019884E+03  0.41800000000E+01 0. -1.
         -5    1    3    3    0  502  0.19516657355E+02 -0.30362086984E+02  0.49955921955E+03  0.50087887006E+03  0.41800000000E+01 0. -1.
        -11    1    1    2    0    0 -0.33517961384E+02  0.23799706109E+01  0.99089964438E+02  0.10463239961E+03  0.00000000000E+00 0.  1.
         11    1    1    2    0    0  0.28457461004E+02 -0.75096584497E+02  0.32598228500E+03  0.33572872118E+03  0.00000000000E+00 0. -1.
</event>
<event>
 7    1  0.4966153E-006  0.1750872E+03  0.7561462E-02  0.1172644E+00
          1   -1    0    0  501    0  0.00000000000E+00  0.00000000000E+00  0.31347898545E+03  0.31347898545E+03  0.00000000000E+00 0. -1.
         -1   -1    0    0    0  501 -0.00000000000E+00 -0.00000000000E+00 -0.11432916629E+03  0.11432916629E+03  0.00000000000E+00 0.  1.
         23    2    1    2    0    0  0.75133283241E+02  0.11962855818E+03  0.33430554818E+02  0.19162559069E+03  0.12508702103E+03 0.  0.
          5    1    3    3  502    0 -0.24379251985E+01  0.10977315253E+03  0.12627245715E+02  0.11060293048E+03  0.41800000000E+01 0.  1.
         -5    1    3    3    0  502  0.77571208440E+02  0.98554056529E+01  0.20803309103E+02  0.81022660219E+02  0.41800000000E+01 0.  1.
        -11    1    1    2    0    0 -0.22873473293E+02 -0.10536176144E+03  0.77956398698E+02  0.13304697160E+03  0.00000000000E+00 0.  1.
         11    1    1    2    0    0 -0.52259809948E+02 -0.14266796747E+02  0.87762865646E+02  0.10313558945E+03  0.00000000000E+00 0. -1.
</event>
<event>
 7    1  0.4966153E-006  0.9450949E+02  0.7561462E-02  0.1292285E+00
         -2   -1    0    0    0  501 -0.00000000000E+00  0.00000000000E+00  0.43755198001E+02  0.43755198001E+02  0.00000000000E+00 0.  1.
          2   -1    0    0  501    0  0.00000000000E+00 -0.00000000000E+00 -0.42862142461E+03  0.42862142461E+03  0.00000000000E+00 0. -1.
         23    2    1    2    0    0 -0.75616108305E+02 -0.87337742743E+01 -0.14429969827E+03  0.20558351036E+03  0.12509237451E+03 0.  0.
          5    1    3    3  502    0  0.34340565240E+01 -0.23890473967E+02 -0.11842750223E+03  0.12093425145E+03  0.41800000000E+01 0. -1.
         -5    1    3    3    0  502 -0.79050164829E+02  0.15156699693E+02 -0.25872196042E+02  0.84649258904E+02  0.41800000000E+01 0. -1.
        -11    1    1    2    0    0  0.39557375806E+02  0.22286659840E+02 -0.21685846479E+03  0.22156054463E+03  0.00000000000E+00 0. -1.
         11    1    1    2    0    0  0.36058732499E+02 -0.13552885566E+02 -0.23708063559E+02  0.45232567629E+02  0.00000000000E+00 0.  1.
</event>
<event>
 7    1  0.4966153E-006  0.7891432E+02  0.7561462E-02  0.1332161E+00
          1   -1    0    0  501    0  0.00000000000E+00  0.00000000000E+00  0.76642705690E+02  0.76642705690E+02  0.00000000000E+00 0.  1.
         -1   -1    0    0    0  501 -0.00000000000E+00 -0.00000000000E+00 -0.18780049534E+03  0.18780049534E+03  0.00000000000E+00 0. -1.
         23    2    1    2    0    0 -0.31720486846E+02  0.11734614990E+02 -0.10394601716E+03  0.16609318555E+03  0.12505311403E+03 0.  0.
          5    1    3    3  502    0  0.43397512161E+02  0.61788948876E+01 -0.92044799310E+01  0.44985749461E+02  0.41800000000E+01 0.  1.
         -5    1    3    3    0  502 -0.75117999006E+02  0.55557201021E+01 -0.94741537230E+02  0.12110743609E+03  0.41800000000E+01 0.  1.
        -11    1    1    2    0    0  0.23076598428E+02  0.84539470765E+00  0.41396503337E+02  0.47401630518E+02  0.00000000000E+00 0.  1.
         11    1    1    2    0    0  0.86438884171E+01 -0.12580009697E+02 -0.48608275828E+02  0.50948384959E+02  0.00000000000E+00 0. -1.
</event>
<event>
 7    1  0.6781349E-006  0.1858473E+03  0.7561462E-02  0.1162261E+00
          4   -1    0    0  501    0  0.00000000000E+00  0.00000000000E+00  0.53024261652E+02  0.53024261652E+02  0.00000000000E+00 0. -1.
         -4   -1    0    0    0  501 -0.00000000000E+00 -0.00000000000E+00 -0.69855070662E+03  0.69855070662E+03  0.00000000000E+00 0.  1.
         23    2    1    2    0    0  0.10941111230E+03 -0.11441740059E+03 -0.35474849582E+03  0.40811256507E+03  0.12508891809E+03 0.  0.
          5    1    3    3  502    0  0.61958587125E+02  0.12855195183E+02 -0.14404484364E+03  0.15738650495E+03  0.41800000000E+01 0.  1.
         -5    1    3    3    0  502  0.47452525176E+02 -0.12727259577E+03 -0.21070365218E+03  0.25072606012E+03  0.41800000000E+01 0.  1.
        -11    1    1    2    0    0 -0.39215228896E+02  0.89811694908E+02 -0.21975817862E+03  0.24061926729E+03  0.00000000000E+00 0. -1.
         11    1    1    2    0    0 -0.70195883404E+02  0.24605705682E+02 -0.71019770530E+02  0.10284313592E+03  0.00000000000E+00 0.  1.
</event>
<event>
 7    1  0.4966153E-006  0.1576523E+03  0.7561462E-02  0.1191373E+00
         -2   -1    0    0    0  501 -0.00000000000E+00  0.00000000000E+00  0.18579364543E+03  0.18579364543E+03  0.00000000000E+00 0. -1.
          2   -1    0    0  501    0  0.00000000000E+00 -0.00000000000E+00 -0.17558811124E+03  0.17558811124E+03  0.00000000000E+00 0.  1.
         23    2    1    2    0    0 -0.13040779723E+02  0.14124126380E+03  0.31866589371E+02  0.19178408928E+03  0.12508597382E+03 0.  0.
          5    1    3    3  502    0  0.25856550591E+02  0.40215633994E+02 -0.39412651084E+02  0.62102237412E+02  0.41800000000E+01 0.  1.
         -5    1    3    3    0  502 -0.38897330314E+02  0.10102562981E+03  0.71279240456E+02  0.12968185187E+03  0.41800000000E+01 0.  1.
        -11    1    1    2    0    0 -0.28874891520E+02 -0.39415985882E+02 -0.32908623516E+02  0.58909734383E+02  0.00000000000E+00 0.  1.
         11    1    1    2    0    0  0.41915671243E+02 -0.10182527792E+03  0.11247568333E+02  0.11068793301E+03  0.00000000000E+00 0. -1.
</event>
<event>
 7    1  0.4966153E-006  0.1230499E+03  0.7561462E-02  0.1238149E+00
         -3   -1    0    0    0  501 -0.00000000000E+00  0.00000000000E+00  0.15801540583E+03  0.15801540583E+03  0.00000000000E+00 0.  1.
          3   -1    0    0  501    0  0.00000000000E+00 -0.00000000000E+00 -0.18116765039E+03  0.18116765039E+03  0.00000000000E+00 0. -1.
         23    2    1    2    0    0  0.41688738902E+02 -0.60531902078E+02  0.93800154179E+02  0.17276456484E+03  0.12508822415E+03 0.  0.
          5    1    3    3  502    0  0.75977723713E+02 -0.84295940079E+00  0.50718086410E+02  0.91450105359E+02  0.41800000000E+01 0.  1.
         -5    1    3    3    0  502 -0.34288984811E+02 -0.59688942677E+02  0.43082067769E+02  0.81314459480E+02  0.41800000000E+01 0.  1.
        -11    1    1    2    0    0 -0.39792229214E+02 -0.67954687807E+00 -0.92092841606E+02  0.10032434782E+03  0.00000000000E+00 0.  1.
         11    1    1    2    0    0 -0.18965096878E+01  0.61211448956E+02 -0.24859557134E+02  0.66094143562E+02  0.00000000000E+00 0. -1.
</event>
<event>
 7    1  0.4966153E-006  0.1026340E+03  0.7561462E-02  0.1274852E+00
         -2   -1    0    0    0  501 -0.00000000000E+00  0.00000000000E+00  0.73320682365E+02  0.73320682365E+02  0.00000000000E+00 0.  1.
          2   -1    0    0  501    0  0.00000000000E+00 -0.00000000000E+00 -0.19454657909E+03  0.19454657909E+03  0.00000000000E+00 0. -1.
         23    2    1    2    0    0  0.24195591806E+01  0.36141175726E+02 -0.39174894514E+02  0.13599337925E+03  0.12508991962E+03 0.  0.
          5    1    3    3  502    0 -0.54983964841E+02  0.37808185058E+02 -0.92279822454E+00  0.66865680313E+02  0.41800000000E+01 0.  1.
         -5    1    3    3    0  502  0.57403524022E+02 -0.16670093319E+01 -0.38252096290E+02  0.69127698941E+02  0.41800000000E+01 0.  1.
        -11    1    1    2    0    0 -0.14551094143E+02 -0.55834259139E+02 -0.90432877705E+02  0.10727210357E+03  0.00000000000E+00 0. -1.
         11    1    1    2    0    0  0.12131534963E+02  0.19693083412E+02  0.83818754978E+01  0.24601778629E+02  0.00000000000E+00 0.  1.
</event>
<event>
 7    1  0.4966153E-006  0.1201665E+03  0.7561462E-02  0.1242823E+00
          1   -1    0    0  501    0  0.00000000000E+00  0.00000000000E+00  0.14419290363E+03  0.14419290363E+03  0.00000000000E+00 0. -1.
         -1   -1    0    0    0  501 -0.00000000000E+00 -0.00000000000E+00 -0.10832701258E+03  0.10832701258E+03  0.00000000000E+00 0.  1.
         23    2    1    2    0    0  0.71691408836E+02 -0.28143391653E+01  0.85956661891E+01  0.13943111068E+03  0.11924584078E+03 0.  0.
          5    1    3    3  502    0 -0.29604821868E+02 -0.96114865264E+01 -0.15471799202E+02  0.35009643266E+02  0.41800000000E+01 0. -1.
         -5    1    3    3    0  502  0.10129623070E+03  0.67971473611E+01  0.24067465391E+02  0.10442146742E+03  0.41800000000E+01 0.  1.
        -11    1    1    2    0    0  0.12421281300E+02 -0.16853244172E+02 -0.38218568653E+01  0.21282073634E+02  0.00000000000E+00 0.  1.
         11    1    1    2    0    0 -0.84112690136E+02  0.19667583337E+02  0.31092081721E+02  0.91806731899E+02  0.00000000000E+00 0. -1.
</event>
<event>
 7    1  0.4966153E-006  0.1043920E+03  0.7561462E-02  0.1271322E+00
          1   -1    0    0  501    0  0.00000000000E+00  0.00000000000E+00  0.52108387764E+02  0.52108387764E+02  0.00000000000E+00 0. -1.
         -1   -1    0    0    0  501 -0.00000000000E+00 -0.00000000000E+00 -0.28324141505E+03  0.28324141505E+03  0.00000000000E+00 0.  1.
         23    2    1    2    0    0  0.14290940035E+02  0.51093505978E+02 -0.14276787262E+03  0.19708968059E+03  0.12508756701E+03 0.  0.
          5    1    3    3  502    0 -0.52016912410E+02  0.14274910852E+02 -0.88535587832E+02  0.10375719237E+03  0.41800000000E+01 0.  1.
         -5    1    3    3    0  502  0.66307852445E+02  0.36818595126E+02 -0.54232284790E+02  0.93332488215E+02  0.41800000000E+01 0.  1.
        -11    1    1    2    0    0 -0.20525445508E+02 -0.62466995839E+02 -0.10076228766E+03  0.12031815365E+03  0.00000000000E+00 0.  1.
         11    1    1    2    0    0  0.62345054730E+01  0.11373489861E+02  0.12397132993E+02  0.17941968581E+02  0.00000000000E+00 0. -1.
</event>
<event>
 7    1  0.4966153E-006  0.6418771E+02  0.7561462E-02  0.1381053E+00
          2   -1    0    0  501    0  0.00000000000E+00  0.00000000000E+00  0.13063049411E+03  0.13063049411E+03  0.00000000000E+00 0. -1.
         -2   -1    0    0    0  501 -0.00000000000E+00 -0.00000000000E+00 -0.95553863603E+02  0.95553863603E+02  0.00000000000E+00 0.  1.
         23    2    1    2    0    0 -0.91227674238E+01 -0.56147656615E+01 -0.47893798244E+01  0.12670854430E+03  0.12616404622E+03 0.  0.
          5    1    3    3  502    0  0.90888648109E+01 -0.13838101822E+02  0.58116452557E+02  0.60573054929E+02  0.41800000000E+01 0. -1.
         -5    1    3    3    0  502 -0.18211632235E+02  0.82233361604E+01 -0.62905832382E+02  0.66135489368E+02  0.41800000000E+01 0.  1.
        -11    1    1    2    0    0  0.49862618281E+02  0.53067039292E+01  0.18301664475E+02  0.53379703361E+02  0.00000000000E+00 0. -1.
         11    1    1    2    0    0 -0.40739850857E+02  0.30806173229E+00  0.21564345853E+02  0.46096110052E+02  0.00000000000E+00 0.  1.
</event>
<event>
 7    1  0.4966153E-006  0.1063900E+03  0.7561462E-02  0.1267405E+00
          2   -1    0    0  501    0  0.00000000000E+00  0.00000000000E+00  0.42970973871E+03  0.42970973871E+03  0.00000000000E+00 0. -1.
         -2   -1    0    0    0  501 -0.00000000000E+00 -0.00000000000E+00 -0.32401627790E+02  0.32401627790E+02  0.00000000000E+00 0.  1.
         23    2    1    2    0    0 -0.27305846824E+02 -0.30005156152E+02  0.18008657870E+03  0.22298956979E+03  0.12508898329E+03 0.  0.
          5    1    3    3  502    0 -0.48808022365E+02  0.28902729089E+02  0.40250103962E+02  0.69678792074E+02  0.41800000000E+01 0. -1.
         -5    1    3    3    0  502  0.21502175541E+02 -0.58907885241E+02  0.13983647474E+03  0.15331077771E+03  0.41800000000E+01 0. -1.
        -11    1    1    2    0    0 -0.30384159180E+02  0.97122845187E+01  0.37239408265E+02  0.49033653011E+02  0.00000000000E+00 0.  1.
         11    1    1    2    0    0  0.57690006005E+02  0.20292871634E+02  0.17998212395E+03  0.19008814370E+03  0.00000000000E+00 0. -1.
</event>
<event>
 7    1  0.4966153E-006  0.9352290E+02  0.7561462E-02  0.1294538E+00
          2   -1    0    0  501    0  0.00000000000E+00  0.00000000000E+00  0.12051209124E+03  0.12051209124E+03  0.00000000000E+00 0. -1.
         -2   -1    0    0    0  501 -0.00000000000E+00 -0.00000000000E+00 -0.99957442876E+02  0.99957442876E+02  0.00000000000E+00 0.  1.
         23    2    1    2    0    0 -0.18833428589E+01  0.22388334163E+02  0.73116457634E+01  0.12730412298E+03  0.12509234620E+03 0.  0.
          5    1    3    3  502    0  0.50655752705E+02 -0.15952104333E+02 -0.19638097054E+02  0.56776774923E+02  0.41800000000E+01 0. -1.
         -5    1    3    3    0  502 -0.52539095564E+02  0.38340438496E+02  0.26949742817E+02  0.70527348062E+02  0.41800000000E+01 0. -1.
        -11    1    1    2    0    0  0.10225075925E+02  0.21561758916E+02 -0.24818403268E+02  0.34429852832E+02  0.00000000000E+00 0.  1.
         11    1    1    2    0    0 -0.83417330659E+01 -0.43950093079E+02  0.38061405870E+02  0.58735558301E+02  0.00000000000E+00 0. -1.
</event>
<event>
 7    1  0.4966153E-006  0.1064917E+03  0.7561462E-02  0.1267208E+00
          1   -1    0    0  501    0  0.00000000000E+00  0.00000000000E+00  0.10709499732E+03  0.10709499732E+03  0.00000000000E+00 0. -1.
         -1   -1    0    0    0  501 -0.00000000000E+00 -0.00000000000E+00 -0.21060327180E+03  0.21060327180E+03  0.00000000000E+00 0.  1.
         23    2    1    2    0    0  0.53430685729E+02  0.48478395857E+02 -0.13577476831E+03  0.19821134831E+03  0.12509179768E+03 0.  0.
          5    1    3    3  502    0 -0.38909451562E+02  0.11872124367E+02 -0.62568205284E+02  0.74747210451E+02  0.41800000000E+01 0.  1.
         -5    1    3    3    0  502  0.92340137291E+02  0.36606271490E+02 -0.73206563024E+02  0.12346413786E+03  0.41800000000E+01 0.  1.
        -11    1    1    2    0    0 -0.34170836910E+02 -0.36448717270E+02 -0.26450920553E+02  0.56531462778E+02  0.00000000000E+00 0.  1.
         11    1    1    2    0    0 -0.19259848820E+02 -0.12029678587E+02  0.58717414383E+02  0.62955458026E+02  0.00000000000E+00 0. -1.
</event>
<event>
 7    1  0.4966153E-006  0.8609681E+02  0.7561462E-02  0.1312589E+00
          2   -1    0    0  501    0  0.00000000000E+00  0.00000000000E+00  0.58484264808E+03  0.58484264808E+03  0.00000000000E+00 0. -1.
         -2   -1    0    0    0  501 -0.00000000000E+00 -0.00000000000E+00 -0.34096956197E+02  0.34096956197E+02  0.00000000000E+00 0.  1.
         23    2    1    2    0    0  0.18617334466E+02 -0.13728069442E+02  0.10926632988E+03  0.16769734763E+03  0.12509278366E+03 0.  0.
          5    1    3    3  502    0 -0.19701267210E+02 -0.31924172652E+02 -0.11637851583E+02  0.39499426814E+02  0.41800000000E+01 0. -1.
         -5    1    3    3    0  502  0.38318601676E+02  0.18196103210E+02  0.12090418146E+03  0.12819792082E+03  0.41800000000E+01 0. -1.
        -11    1    1    2    0    0 -0.13775503902E+02 -0.37715085975E+02  0.15352490652E+03  0.15868865473E+03  0.00000000000E+00 0. -1.
         11    1    1    2    0    0 -0.48418305636E+01  0.51443155417E+02  0.28795445548E+03  0.29255360191E+03  0.00000000000E+00 0.  1.
</event>
<event>
 7    1  0.4966153E-006  0.5882636E+02  0.7561462E-02  0.1402824E+00
          2   -1    0    0  501    0  0.00000000000E+00  0.00000000000E+00  0.41421802661E+02  0.41421802661E+02  0.00000000000E+00 0.  1.
         -2   -1    0    0    0  501 -0.00000000000E+00 -0.00000000000E+00 -0.72353864459E+03  0.72353864459E+03  0.00000000000E+00 0. -1.
         23    2    1    2    0    0 -0.20432057006E+02 -0.18950738924E+01 -0.65652040792E+03  0.66863622887E+03  0.12503719559E+03 0.  0.
          5    1    3    3  502    0  0.17719295781E+02 -0.37174419428E+01 -0.10242784947E+02  0.21217442377E+02  0.41800000000E+01 0.  1.
         -5    1    3    3    0  502 -0.38151352786E+02  0.18223680505E+01 -0.64627762298E+03  0.64741878649E+03  0.41800000000E+01 0.  1.
        -11    1    1    2    0    0 -0.58147754500E+01  0.25008306508E+02  0.24326791715E+02  0.35369758312E+02  0.00000000000E+00 0.  1.
         11    1    1    2    0    0  0.26246832456E+02 -0.23113232615E+02 -0.49923225726E+02  0.60954460073E+02  0.00000000000E+00 0. -1.
</event>
<event>
 7    1  0.4966153E-006  0.1373289E+03  0.7561462E-02  0.1216969E+00
          2   -1    0    0  501    0  0.00000000000E+00  0.00000000000E+00  0.91509067753E+03  0.91509067753E+03  0.00000000000E+00 0. -1.
         -2   -1    0    0    0  501 -0.00000000000E+00 -0.00000000000E+00 -0.24479686622E+02  0.24479686622E+02  0.00000000000E+00 0.  1.
         23    2    1    2    0    0  0.14142157864E+02 -0.10081857941E+03  0.51787265211E+03  0.54240000752E+03  0.12506517409E+03 0.  0.
          5    1    3    3  502    0  0.29081477873E+02  0.15485598081E+02  0.49898427730E+02  0.59940483758E+02  0.41800000000E+01 0. -1.
         -5    1    3    3    0  502 -0.14939320009E+02 -0.11630417749E+03  0.46797422438E+03  0.48245952376E+03  0.41800000000E+01 0. -1.
        -11    1    1    2    0    0 -0.42981495170E+02  0.52605948106E+02  0.11662145216E+03  0.13496428345E+03  0.00000000000E+00 0.  1.
         11    1    1    2    0    0  0.28839337306E+02  0.48212631300E+02  0.25611688664E+03  0.26220607318E+03  0.00000000000E+00 0. -1.
</event>
<event>
 7    1  0.5384500E-006  0.1452012E+03  0.7561462E-02  0.1206497E+00
         -2   -1    0    0    0  501 -0.00000000000E+00  0.00000000000E+00  0.59201762755E+02  0.59201762755E+02  0.00000000000E+00 0. -1.
          2   -1    0    0  501    0  0.00000000000E+00 -0.00000000000E+00 -0.46903717940E+03  0.46903717940E+03  0.00000000000E+00 0.  1.
         23    2    1    2    0    0  0.10255047619E+03  0.72456593161E+02 -0.21404524163E+03  0.27790114117E+03  0.12508845166E+03 0.  0.
          5    1    3    3  502    0  0.30967852051E+02 -0.25136946790E+02 -0.11172460055E+02  0.41631360994E+02  0.41800000000E+01 0.  1.
         -5    1    3    3    0  502  0.71582624143E+02  0.97593539950E+02 -0.20287278158E+03  0.23626978017E+03  0.41800000000E+01 0.  1.
        -11    1    1    2    0    0 -0.66025064297E+02 -0.28154741288E+02 -0.35504688332E+02  0.80078595554E+02  0.00000000000E+00 0. -1.
         11    1    1    2    0    0 -0.36525411897E+02 -0.44301851873E+02 -0.16028548669E+03  0.17025920544E+03  0.00000000000E+00 0.  1.
</event>
<event>
 7    1  0.4966153E-006  0.1374587E+03  0.7561462E-02  0.1216790E+00
         -1   -1    0    0    0  501 -0.00000000000E+00  0.00000000000E+00  0.15572455915E+04  0.15572455915E+04  0.00000000000E+00 0.  1.
          1   -1    0    0  501    0  0.00000000000E+00 -0.00000000000E+00 -0.39422145051E+02  0.39422145051E+02  0.00000000000E+00 0. -1.
         23    2    1    2    0    0 -0.51572549221E+02 -0.95243554583E+02  0.14096607726E+04  0.14193380033E+04  0.12508321737E+03 0.  0.
          5    1    3    3  502    0 -0.83679528831E+02 -0.23921668645E+02  0.74399974522E+03  0.74908450996E+03  0.41800000000E+01 0. -1.
         -5    1    3    3    0  502  0.32106979610E+02 -0.71321885938E+02  0.66566102739E+03  0.67025349334E+03  0.41800000000E+01 0. -1.
        -11    1    1    2    0    0  0.23518608026E+02  0.27807251751E+02 -0.10577406441E+02  0.37924262688E+02  0.00000000000E+00 0. -1.
         11    1    1    2    0    0  0.28053941195E+02  0.67436302832E+02  0.11874008027E+03  0.13940547055E+03  0.00000000000E+00 0.  1.
</event>
<event>
 7    1  0.4966153E-006  0.1024328E+03  0.7561462E-02  0.1275262E+00
          1   -1    0    0  501    0  0.00000000000E+00  0.00000000000E+00  0.42894122284E+02  0.42894122284E+02  0.00000000000E+00 0. -1.
         -1   -1    0    0    0  501 -0.00000000000E+00 -0.00000000000E+00 -0.31040954897E+03  0.31040954897E+03  0.00000000000E+00 0.  1.
         23    2    1    2    0    0 -0.14964459264E+02 -0.37475485219E+02 -0.16385845297E+03  0.21005898135E+03  0.12508731352E+03 0.  0.
          5    1    3    3  502    0 -0.61735771206E+02 -0.42110199801E+02 -0.59801347999E+02  0.95803173205E+02  0.41800000000E+01 0.  1.
         -5    1    3    3    0  502  0.46771311942E+02  0.46347145822E+01 -0.10405710497E+03  0.11425580815E+03  0.41800000000E+01 0.  1.
        -11    1    1    2    0    0  0.41934761495E+01  0.58796428466E+02 -0.10378598227E+03  0.11935717556E+03  0.00000000000E+00 0.  1.
         11    1    1    2    0    0  0.10770983115E+02 -0.21320943247E+02  0.12900855489E+00  0.23887514341E+02  0.00000000000E+00 0. -1.
</event>
<event>
 7    1  0.4966153E-006  0.2575235E+03  0.7561462E-02  0.1108640E+00
         -1   -1    0    0    0  501 -0.00000000000E+00  0.00000000000E+00  0.43202481315E+03  0.43202481315E+03  0.00000000000E+00 0.  1.
          1   -1    0    0  501    0  0.00000000000E+00 -0.00000000000E+00 -0.18989315540E+03  0.18989315540E+03  0.00000000000E+00 0. -1.
         23    2    1    2    0    0 -0.23905412803E+03  0.52683770359E+02  0.23397567039E+03  0.36099096705E+03  0.12508960057E+03 0.  0.
          5    1    3    3  502    0 -0.12201395566E+03  0.84168036013E+02  0.16349110960E+03  0.22072262906E+03  0.41800000000E+01 0.  1.
         -5    1    3    3    0  502 -0.11704017237E+03 -0.31484265654E+02  0.70484560786E+02  0.14026833798E+03  0.41800000000E+01 0.  1.
        -11    1    1    2    0    0  0.20161229405E+03 -0.51217492850E+02 -0.26734942199E+02  0.20972721764E+03  0.00000000000E+00 0. -1.
         11    1    1    2    0    0  0.37441833976E+02 -0.14662775085E+01  0.34890929561E+02  0.51199783856E+02  0.00000000000E+00 0.  1.
</event>
<event>
 6    1  0.4966153E-006  0.1098921E+03  0.7561462E-02  0.1260770E+00
          2   -1    0    0  501    0  0.00000000000E+00  0.00000000000E+00  0.10273865329E+03  0.10273865329E+03  0.00000000000E+00 0. -1.
         -2   -1    0    0    0  501 -0.00000000000E+00 -0.00000000000E+00 -0.22759158342E+03  0.22759158342E+03  0.00000000000E+00 0.  1.
          5    1    1    2  502    0  0.53568313188E+02 -0.68851020172E+02  0.35270484304E+00  0.87336269426E+02  0.41800000000E+01 0. -1.
         -5    1    1    2    0  502 -0.88826646510E+01 -0.12245369592E+02 -0.10843928430E+03  0.10956916348E+03  0.41800000000E+01 0.  1.
        -11    1    1    2    0    0  0.19171910628E+02  0.26690395947E+02 -0.34535272615E+02  0.47672051010E+02  0.00000000000E+00 0.  1.
         11    1    1    2    0    0 -0.63857559164E+02  0.54405993817E+02  0.17768921939E+02  0.85752752799E+02  0.00000000000E+00 0. -1.
</event>
<event>
 7    1  0.4966153E-006  0.2275819E+03  0.7561462E-02  0.1128353E+00
          1   -1    0    0  501    0  0.00000000000E+00  0.00000000000E+00  0.32962460666E+03  0.32962460666E+03  0.00000000000E+00 0. -1.
         -1   -1    0    0    0  501 -0.00000000000E+00 -0.00000000000E+00 -0.28695761197E+03  0.28695761197E+03  0.00000000000E+00 0.  1.
         23    2    1    2    0    0  0.20061693774E+03 -0.96142325204E+02 -0.16468697183E+03  0.29916494106E+03  0.11352251261E+03 0.  0.
          5    1    3    3  502    0 -0.38507523935E+01 -0.84347811862E+01  0.11487892198E+02  0.15343333888E+02  0.41800000000E+01 0. -1.
         -5    1    3    3    0  502  0.20446769013E+03 -0.87707544018E+02 -0.17617486402E+03  0.28382160718E+03  0.41800000000E+01 0.  1.
        -11    1    1    2    0    0 -0.70397493964E+02  0.34438453858E+02  0.13517933799E+03  0.15625385653E+03  0.00000000000E+00 0.  1.
         11    1    1    2    0    0 -0.13021944378E+03  0.61703871347E+02  0.72174628519E+02  0.16116342103E+03  0.00000000000E+00 0. -1.
</event>
<event>
 7    1  0.4966153E-006  0.1102402E+03  0.7561462E-02  0.1260126E+00
          2   -1    0    0  501    0  0.00000000000E+00  0.00000000000E+00  0.78029506679E+02  0.78029506679E+02  0.00000000000E+00 0.  1.
         -2   -1    0    0    0  501 -0.00000000000E+00 -0.00000000000E+00 -0.20639575044E+03  0.20639575044E+03  0.00000000000E+00 0. -1.
         23    2    1    2    0    0  0.12931421332E+02 -0.55568649854E+02 -0.10824715834E+03  0.17499203643E+03  0.12509863717E+03 0.  0.
          5    1    3    3  502    0  0.25955092155E+02 -0.91755753508E+02 -0.93434032823E+02  0.13356712170E+03  0.41800000000E+01 0. -1.
         -5    1    3    3    0  502 -0.13023670823E+02  0.36187103654E+02 -0.14813125512E+02  0.41424914726E+02  0.41800000000E+01 0. -1.
        -11    1    1    2    0    0 -0.36181656491E+02  0.14153055043E+02 -0.41935752948E+02  0.57166673935E+02  0.00000000000E+00 0. -1.
         11    1    1    2    0    0  0.23250235159E+02  0.41415594811E+02  0.21816667518E+02  0.52266546759E+02  0.00000000000E+00 0.  1.
</event>
<event>
 7    1  0.4966153E-006  0.9487197E+02  0.7561462E-02  0.1291465E+00
          1   -1    0    0  501    0  0.00000000000E+00  0.00000000000E+00  0.63193533023E+03  0.63193533023E+03  0.00000000000E+00 0. -1.
         -1   -1    0    0    0  501 -0.00000000000E+00 -0.00000000000E+00 -0.32150682633E+02  0.32150682633E+02  0.00000000000E+00 0.  1.
         23    2    1    2    0    0  0.54824431356E+02  0.58729648855E+02  0.21815011720E+03  0.26399190976E+03  0.12508942745E+03 0.  0.
          5    1    3    3  502    0  0.40830779155E+01  0.68209387462E+01 -0.16253700339E+02  0.18570188620E+02  0.41800000000E+01 0.  1.
         -5    1    3    3    0  502  0.50741353441E+02  0.51908710109E+02  0.23440381753E+03  0.24542172114E+03  0.41800000000E+01 0.  1.
        -11    1    1    2    0    0 -0.61250969642E+02 -0.13956606618E+02  0.12948277346E+03  0.14391753463E+03  0.00000000000E+00 0.  1.
         11    1    1    2    0    0  0.64265382854E+01 -0.44773042237E+02  0.25215175694E+03  0.25617656847E+03  0.00000000000E+00 0. -1.
</event>
<event>
 6    1  0.4966153E-006  0.1023113E+03  0.7561462E-02  0.1275509E+00
         -1   -1    0    0    0  501 -0.00000000000E+00  0.00000000000E+00  0.17409605143E+03  0.17409605143E+03  0.00000000000E+00 0.  1.
          1   -1    0    0  501    0  0.00000000000E+00 -0.00000000000E+00 -0.99014680709E+02  0.99014680709E+02  0.00000000000E+00 0. -1.
          5    1    1    2  502    0 -0.59901487135E+02  0.20348767363E+02 -0.20127215107E+02  0.66519453411E+02  0.41800000000E+01 0. -1.
         -5    1    1    2    0  502  0.27159211729E+02  0.26253645448E+02  0.92949502805E+02  0.10041891830E+03  0.41800000000E+01 0.  1.
        -11    1    1    2    0    0 -0.99266285742E+01  0.21026651493E+02 -0.99309567773E+01  0.25284025201E+02  0.00000000000E+00 0.  1.
         11    1    1    2    0    0  0.42668903980E+02 -0.67629064304E+02  0.12190039801E+02  0.80888335227E+02  0.00000000000E+00 0. -1.
</event>
<event>
 7    1  0.4966153E-006  0.1235377E+03  0.7561462E-02  0.1237372E+00
          1   -1    0    0  501    0  0.00000000000E+00  0.00000000000E+00  0.62166236712E+02  0.62166236712E+02  0.00000000000E+00 0. -1.
         -1   -1    0    0    0  501 -0.00000000000E+00 -0.00000000000E+00 -0.32420800010E+03  0.32420800010E+03  0.00000000000E+00 0.  1.
         23    2    1    2    0    0 -0.43063270887E+01 -0.85456332511E+02 -0.11475375220E+03  0.19009771064E+03  0.12508951486E+03 0.  0.
          5    1    3    3  502    0  0.44800971717E+02 -0.91126617333E+02 -0.82777016308E+02  0.13107514746E+03  0.41800000000E+01 0.  1.
         -5    1    3    3    0  502 -0.49107298806E+02  0.56702848221E+01 -0.31976735895E+02  0.59022563181E+02  0.41800000000E+01 0.  1.
        -11    1    1    2    0    0 -0.18798673915E+02  0.50954891858E+02 -0.14483193904E+03  0.15468057962E+03  0.00000000000E+00 0.  1.
         11    1    1    2    0    0  0.23105001004E+02  0.34501440653E+02 -0.24560721389E+01  0.41595946544E+02  0.00000000000E+00 0. -1.
</event>
<event>
 7    1  0.4966153E-006  0.3934075E+02  0.7561462E-02  0.1513120E+00
         -1   -1    0    0    0  501 -0.00000000000E+00  0.00000000000E+00  0.40119976818E+02  0.40119976818E+02  0.00000000000E+00 0.  1.
          1   -1    0    0  501    0  0.00000000000E+00 -0.00000000000E+00 -0.30779316108E+03  0.30779316108E+03  0.00000000000E+00 0. -1.
         23    2    1    2    0    0  0.42567889416E+01  0.13793099128E+02 -0.12513323437E+03  0.17748528785E+03  0.12503731932E+03 0.  0.
          5    1    3    3  502    0 -0.45024109475E+01 -0.65136512335E+01 -0.14630895439E+03  0.14658267937E+03  0.41800000000E+01 0.  1.
         -5    1    3    3    0  502  0.87591998891E+01  0.20306750361E+02  0.21175720014E+02  0.30902608483E+02  0.41800000000E+01 0.  1.
        -11    1    1    2    0    0  0.20381974780E+02 -0.81020189809E+01  0.35034928168E+01  0.22211304991E+02  0.00000000000E+00 0.  1.
         11    1    1    2    0    0 -0.24638763722E+02 -0.56910801470E+01 -0.14604344271E+03  0.14821654506E+03  0.00000000000E+00 0. -1.
</event>
<event>
 7    1  0.4966153E-006  0.1513187E+03  0.7561462E-02  0.1198862E+00
          1   -1    0    0  501    0  0.00000000000E+00  0.00000000000E+00  0.45663682004E+02  0.45663682004E+02  0.00000000000E+00 0. -1.
         -1   -1    0    0    0  501 -0.00000000000E+00 -0.00000000000E+00 -0.71298246350E+03  0.71298246350E+03  0.00000000000E+00 0.  1.
         23    2    1    2    0    0 -0.11366519759E+03 -0.46441133663E+02 -0.51059589395E+03  0.53984441597E+03  0.12508905030E+03 0.  0.
          5    1    3    3  502    0 -0.33372658212E+02 -0.71023630683E+02 -0.34840171519E+03  0.35715447355E+03  0.41800000000E+01 0.  1.
         -5    1    3    3    0  502 -0.80292539378E+02  0.24582497020E+02 -0.16219417876E+03  0.18268994242E+03  0.41800000000E+01 0.  1.
        -11    1    1    2    0    0  0.10051170478E+03  0.63156652377E+02 -0.15784677431E+03  0.19750182201E+03  0.00000000000E+00 0.  1.
         11    1    1    2    0    0  0.13153492807E+02 -0.16715518715E+02  0.11238867588E+01  0.21299907520E+02  0.00000000000E+00 0. -1.
</event>
<event>
 7    1  0.4966153E-006  0.2076780E+03  0.7561462E-02  0.1143418E+00
          2   -1    0    0  501    0  0.00000000000E+00  0.00000000000E+00  0.12768567746E+03  0.12768567746E+03  0.00000000000E+00 0. -1.
         -2   -1    0    0    0  501 -0.00000000000E+00 -0.00000000000E+00 -0.45132502671E+03  0.45132502671E+03  0.00000000000E+00 0.  1.
         23    2    1    2    0    0 -0.31516361112E+02  0.20245182721E+03 -0.96178123113E+02  0.25860815070E+03  0.12509164993E+03 0.  0.
          5    1    3    3  502    0 -0.35574513276E+02  0.16589482183E+03 -0.16213251991E+02  0.17049040983E+03  0.41800000000E+01 0. -1.
         -5    1    3    3    0  502  0.40581521648E+01  0.36557005380E+02 -0.79964871122E+02  0.88117740864E+02  0.41800000000E+01 0. -1.
        -11    1    1    2    0    0  0.18267177973E+02 -0.26592401876E+02  0.40141002046E+00  0.32264636348E+02  0.00000000000E+00 0.  1.
         11    1    1    2    0    0  0.13249183138E+02 -0.17585942533E+03 -0.22786263616E+03  0.28813791713E+03  0.00000000000E+00 0. -1.
</event>
<event>
 7    1  0.4966153E-006  0.3052592E+03  0.7561462E-02  0.1082641E+00
          2   -1    0    0  501    0  0.00000000000E+00  0.00000000000E+00  0.20510884588E+04  0.20510884588E+04  0.00000000000E+00 0. -1.
         -2   -1    0    0    0  501 -0.00000000000E+00 -0.00000000000E+00 -0.50569811216E+02  0.50569811216E+02  0.00000000000E+00 0.  1.
         23    2    1    2    0    0 -0.14318772805E+03 -0.24691262847E+03  0.68926671948E+03  0.75644216787E+03  0.12509025217E+03 0.  0.
          5    1    3    3  502    0 -0.42819775633E+02  0.83890516910E+00  0.73981345146E+02  0.85585914593E+02  0.41800000000E+01 0.  1.
         -5    1    3    3    0  502 -0.10036795241E+03 -0.24775153364E+03  0.61528537433E+03  0.67085625327E+03  0.41800000000E+01 0.  1.
        -11    1    1    2    0    0  0.26988497076E+02  0.13889783425E+03  0.64448480376E+03  0.65983456231E+03  0.00000000000E+00 0. -1.
         11    1    1    2    0    0  0.11619923097E+03  0.10801479422E+03  0.66676712438E+03  0.68538153988E+03  0.00000000000E+00 0.  1.
</event>
<event>
 6    1  0.4966153E-006  0.1381119E+03  0.7561462E-02  0.1215892E+00
          1   -1    0    0  501    0  0.00000000000E+00  0.00000000000E+00  0.17248073302E+03  0.17248073302E+03  0.00000000000E+00 0. -1.
         -1   -1    0    0    0  501 -0.00000000000E+00 -0.00000000000E+00 -0.12385615842E+03  0.12385615842E+03  0.00000000000E+00 0.  1.
          5    1    1    2  502    0 -0.27946872943E+02  0.39652591641E+02 -0.57422859370E+01  0.49028583285E+02  0.41800000000E+01 0. -1.
         -5    1    1    2    0  502 -0.23934629131E+02 -0.10190903624E+03  0.55508692681E+02  0.11856224316E+03  0.41800000000E+01 0.  1.
        -11    1    1    2    0    0  0.11764781394E+02  0.78580616994E+02  0.17878090224E+02  0.81442922089E+02  0.00000000000E+00 0.  1.
         11    1    1    2    0    0  0.40116720680E+02 -0.16324172392E+02 -0.19019922359E+02  0.47303142908E+02  0.00000000000E+00 0. -1.
</event>
<event>
 7    1  0.4966153E-006  0.1184200E+03  0.7561462E-02  0.1245727E+00
         -1   -1    0    0    0  501 -0.00000000000E+00  0.00000000000E+00  0.28618288761E+03  0.28618288761E+03  0.00000000000E+00 0. -1.
          1   -1    0    0  501    0  0.00000000000E+00 -0.00000000000E+00 -0.96164787122E+02  0.96164787122E+02  0.00000000000E+00 0.  1.
         23    2    1    2    0    0  0.49826711596E+02 -0.62079090983E+02  0.21237731426E+03  0.25901392098E+03  0.12509025910E+03 0.  0.
          5    1    3    3  502    0 -0.21797088517E+02  0.25018164660E+02  0.67919191119E+02  0.75706740473E+02  0.41800000000E+01 0.  1.
         -5    1    3    3    0  502  0.71623800113E+02 -0.87097255643E+02  0.14445812314E+03  0.18330718051E+03  0.41800000000E+01 0.  1.
        -11    1    1    2    0    0 -0.41215602404E+02  0.68409633616E+02 -0.49638845201E+02  0.94035199824E+02  0.00000000000E+00 0.  1.
         11    1    1    2    0    0 -0.86111091923E+01 -0.63305426329E+01  0.27279631426E+02  0.29298553928E+02  0.00000000000E+00 0. -1.
</event>
<event>
 7    1  0.4966153E-006  0.1463780E+03  0.7561462E-02  0.1204996E+00
          1   -1    0    0  501    0  0.00000000000E+00  0.00000000000E+00  0.17434491745E+03  0.17434491745E+03  0.00000000000E+00 0. -1.
         -1   -1    0    0    0  501 -0.00000000000E+00 -0.00000000000E+00 -0.16682125745E+03  0.16682125745E+03  0.00000000000E+00 0.  1.
         23    2    1    2    0    0  0.10296859884E+03 -0.53255096152E+01 -0.79433284323E+02  0.18051993488E+03  0.12508759663E+03 0.  0.
          5    1    3    3  502    0  0.91758560344E+01 -0.52388911662E+02 -0.45600993405E+02  0.70183455306E+02  0.41800000000E+01 0.  1.
         -5    1    3    3    0  502  0.93792742810E+02  0.47063402047E+02 -0.33832290918E+02  0.11033647957E+03  0.41800000000E+01 0.  1.
        -11    1    1    2    0    0 -0.95121571760E+02  0.36765683004E+02  0.72720914562E+02  0.12525238631E+03  0.00000000000E+00 0.  1.
         11    1    1    2    0    0 -0.78470270836E+01 -0.31440173389E+02  0.14236029762E+02  0.35393853706E+02  0.00000000000E+00 0. -1.
</event>
<event>
 7    1  0.4966153E-006  0.1693430E+03  0.7561462E-02  0.1178535E+00
         -2   -1    0    0    0  501 -0.00000000000E+00  0.00000000000E+00  0.21201298380E+03  0.21201298380E+03  0.00000000000E+00 0.  1.
          2   -1    0    0  501    0  0.00000000000E+00 -0.00000000000E+00 -0.21393659058E+03  0.21393659058E+03  0.00000000000E+00 0. -1.
         23    2    1    2    0    0 -0.36661529022E+02  0.15684981336E+03  0.86793669386E+02  0.22164597949E+03  0.12509143662E+03 0.  0.
          5    1    3    3  502    0 -0.42900416493E+02  0.14274647155E+03  0.11562095487E+03  0.18868672047E+03  0.41800000000E+01 0. -1.
         -5    1    3    3    0  502  0.62388874718E+01  0.14103341805E+02 -0.28827285480E+02  0.32959259019E+02  0.41800000000E+01 0. -1.
        -11    1    1    2    0    0 -0.18105482507E+02 -0.55726921123E+02 -0.63818806434E+02  0.86637972560E+02  0.00000000000E+00 0. -1.
         11    1    1    2    0    0  0.54767011528E+02 -0.10112289224E+03 -0.24898469728E+02  0.11766562234E+03  0.00000000000E+00 0.  1.
</event>
<event>
 7    1  0.4966153E-006  0.8358286E+02  0.7561462E-02  0.1319181E+00
          2   -1    0    0  501    0  0.00000000000E+00  0.00000000000E+00  0.36710572239E+03  0.36710572239E+03  0.00000000000E+00 0.  1.
         -2   -1    0    0    0  501 -0.00000000000E+00 -0.00000000000E+00 -0.36095803534E+02  0.36095803534E+02  0.00000000000E+00 0. -1.
         23    2    1    2    0    0 -0.96639447854E+01 -0.35001144467E+02  0.17327310311E+03  0.21676871390E+03  0.12508651055E+03 0.  0.
          5    1    3    3  502    0 -0.47691580690E+02  0.60314221971E+01  0.14719725550E+03  0.15490438776E+03  0.41800000000E+01 0.  1.
         -5    1    3    3    0  502  0.38027635905E+02 -0.41032566664E+02  0.26075847610E+02  0.61864326135E+02  0.41800000000E+01 0.  1.
        -11    1    1    2    0    0  0.30377609970E+02  0.14470326690E+02  0.15327993381E+03  0.15692969015E+03  0.00000000000E+00 0.  1.
         11    1    1    2    0    0 -0.20713665185E+02  0.20530817777E+02  0.44568819423E+01  0.29503121879E+02  0.00000000000E+00 0. -1.
</event>
<event>
 7    1  0.4966153E-006  0.1192910E+03  0.7561462E-02  0.1244271E+00
          2   -1    0    0  501    0  0.00000000000E+00  0.00000000000E+00  0.65948014236E+03  0.65948014236E+03  0.00000000000E+00 0. -1.
         -2   -1    0    0    0  501 -0.00000000000E+00 -0.00000000000E+00 -0.37083151963E+02  0.37083151963E+02  0.00000000000E+00 0.  1.
         23    2    1    2    0    0  0.10360424662E+03  0.71205834276E+01  0.21159182812E+03  0.26302341616E+03  0.11672905850E+03 0.  0.
          5    1    3    3  502    0  0.91819376726E+02 -0.10935395914E+01  0.57967744768E+02  0.10867256142E+03  0.41800000000E+01 0. -1.
         -5    1    3    3    0  502  0.11784869890E+02  0.82141230190E+01  0.15362408335E+03  0.15435085474E+03  0.41800000000E+01 0.  1.
        -11    1    1    2    0    0  0.96370893287E+00 -0.25509395950E+02  0.37019991521E+02  0.44968186408E+02  0.00000000000E+00 0.  1.
         11    1    1    2    0    0 -0.10456795555E+03  0.18388812523E+02  0.37378517076E+03  0.38857169175E+03  0.00000000000E+00 0. -1.
</event>
<event>
 7    1  0.4966153E-006  0.1329958E+03  0.7561462E-02  0.1223077E+00
          1   -1    0    0  501    0  0.00000000000E+00  0.00000000000E+00  0.92707097616E+03  0.92707097616E+03  0.00000000000E+00 0. -1.
         -1   -1    0    0    0  501 -0.00000000000E+00 -0.00000000000E+00 -0.25844901545E+02  0.25844901545E+02  0.00000000000E+00 0.  1.
         23    2    1    2    0    0  0.76043273241E+02 -0.16060103917E+02  0.24487516117E+03  0.28574714138E+03  0.12508828046E+03 0.  0.
          5    1    3    3  502    0  0.76075102683E+02 -0.63754035779E+02  0.16190342726E+03  0.18995312708E+03  0.41800000000E+01 0. -1.
         -5    1    3    3    0  502 -0.31829442105E-01  0.47693931862E+02  0.82971733903E+02  0.95794014304E+02  0.41800000000E+01 0. -1.
        -11    1    1    2    0    0 -0.93770886135E+02  0.27440676206E+02  0.56793411225E+03  0.57627695222E+03  0.00000000000E+00 0.  1.
         11    1    1    2    0    0  0.17727612894E+02 -0.11380572289E+02  0.88416801200E+02  0.90891784111E+02  0.00000000000E+00 0. -1.
</event>
<event>
 7    1  0.4966153E-006  0.1086715E+03  0.7561462E-02  0.1263050E+00
          2   -1    0    0  501    0  0.00000000000E+00  0.00000000000E+00  0.32388963146E+03  0.32388963146E+03  0.00000000000E+00 0.  1.
         -2   -1    0    0    0  501 -0.00000000000E+00 -0.00000000000E+00 -0.53081580269E+02  0.53081580269E+02  0.00000000000E+00 0. -1.
         23    2    1    2    0    0  0.29757063074E+02 -0.51241100905E+02  0.84562841952E+02  0.16220814885E+03  0.12509786605E+03 0.  0.
          5    1    3    3  502    0  0.73738729801E+02 -0.10425747043E+02  0.28087906533E+02  0.79702568136E+02  0.41800000000E+01 0. -1.
         -5    1    3    3    0  502 -0.43981666726E+02 -0.40815353862E+02  0.56474935419E+02  0.82505580717E+02  0.41800000000E+01 0. -1.
        -11    1    1    2    0    0  0.72923858219E+01  0.44319628287E+02  0.29944535241E+02  0.53982252021E+02  0.00000000000E+00 0. -1.
         11    1    1    2    0    0 -0.37049448896E+02  0.69214726174E+01  0.15630067400E+03  0.16078081086E+03  0.00000000000E+00 0.  1.
</event>
<event>
 7    1  0.4966153E-006  0.1320032E+03  0.7561462E-02  0.1224513E+00
         -1   -1    0    0    0  501 -0.00000000000E+00  0.00000000000E+00  0.14140418718E+03  0.14140418718E+03  0.00000000000E+00 0.  1.
          1   -1    0    0  501    0  0.00000000000E+00 -0.00000000000E+00 -0.14057296102E+03  0.14057296102E+03  0.00000000000E+00 0. -1.
         23    2    1    2    0    0  0.80784914718E+02  0.23837256951E+02  0.31319067765E+02  0.15402005882E+03  0.12508747838E+03 0.  0.
          5    1    3    3  502    0  0.71645145440E+02 -0.38411804940E+02  0.39426806905E+02  0.90445780037E+02  0.41800000000E+01 0.  1.
         -5    1    3    3    0  502  0.91397692780E+01  0.62249061891E+02 -0.81077391394E+01  0.63574278782E+02  0.41800000000E+01 0.  1.
        -11    1    1    2    0    0 -0.13841112258E+02  0.30394024899E+02  0.67960800453E+01  0.34081664309E+02  0.00000000000E+00 0.  1.
         11    1    1    2    0    0 -0.66943802460E+02 -0.54231281849E+02 -0.37283921649E+02  0.93875425072E+02  0.00000000000E+00 0. -1.
</event>
<event>
 7    1  0.4966153E-006  0.9837096E+02  0.7561462E-02  0.1283759E+00
          1   -1    0    0  501    0  0.00000000000E+00  0.00000000000E+00  0.36240099788E+02  0.36240099788E+02  0.00000000000E+00 0. -1.
         -1   -1    0    0    0  501 -0.00000000000E+00 -0.00000000000E+00 -0.34312482216E+03  0.34312482216E+03  0.00000000000E+00 0.  1.
         23    2    1    2    0    0 -0.17132935775E+02 -0.69224063441E+01 -0.21035004449E+03  0.24542897493E+03  0.12508710293E+03 0.  0.
          5    1    3    3  502    0  0.28388339506E+02 -0.48918540495E+02 -0.58970601277E+02  0.81816414239E+02  0.41800000000E+01 0. -1.
         -5    1    3    3    0  502 -0.45521275281E+02  0.41996134150E+02 -0.15137944321E+03  0.16361256069E+03  0.41800000000E+01 0. -1.
        -11    1    1    2    0    0 -0.27969074969E+01 -0.33113418427E+02 -0.79346908527E+02  0.86024723564E+02  0.00000000000E+00 0.  1.
         11    1    1    2    0    0  0.19929843272E+02  0.40035824771E+02 -0.17187769356E+02  0.47911223459E+02  0.00000000000E+00 0. -1.
</event>
<event>
 7    1  0.4966153E-006  0.1490060E+03  0.7561462E-02  0.1201700E+00
         -1   -1    0    0    0  501 -0.00000000000E+00  0.00000000000E+00  0.39295041295E+02  0.39295041295E+02  0.00000000000E+00 0.  1.
          1   -1    0    0  501    0  0.00000000000E+00 -0.00000000000E+00 -0.73001465638E+03  0.73001465638E+03  0.00000000000E+00 0. -1.
         23    2    1    2    0    0 -0.99936996982E+02  0.82661681598E+02 -0.33975089245E+03  0.38457662912E+03  0.12509259680E+03 0.  0.
          5    1    3    3  502    0  0.42098838044E+01  0.22640733273E+02 -0.19489566475E+03  0.19629599706E+03  0.41800000000E+01 0.  1.
         -5    1    3    3    0  502 -0.10414688079E+03  0.60020948325E+02 -0.14485522771E+03  0.18828063206E+03  0.41800000000E+01 0.  1.
        -11    1    1    2    0    0  0.77582120914E+02 -0.99623216103E+02 -0.31308506895E+03  0.33758855293E+03  0.00000000000E+00 0. -1.
         11    1    1    2    0    0  0.22354876068E+02  0.16961534505E+02 -0.37883653679E+02  0.47144515618E+02  0.00000000000E+00 0.  1.
</event>
<event>
 7    1  0.4966153E-006  0.1402719E+03  0.7561462E-02  0.1212964E+00
         -1   -1    0    0    0  501 -0.00000000000E+00  0.00000000000E+00  0.65495604694E+02  0.65495604694E+02  0.00000000000E+00 0. -1.
          1   -1    0    0  501    0  0.00000000000E+00 -0.00000000000E+00 -0.47433638675E+03  0.47433638675E+03  0.00000000000E+00 0.  1.
         23    2    1    2    0    0  0.11199837851E+03  0.81234254533E+02 -0.21662292569E+03  0.28585751094E+03  0.12508550566E+03 0.  0.
          5    1    3    3  502    0  0.10833123251E+03  0.71631898286E+02 -0.88407413607E+02  0.15716274358E+03  0.41800000000E+01 0.  1.
         -5    1    3    3    0  502  0.36671459951E+01  0.96023562471E+01 -0.12821551208E+03  0.12869476735E+03  0.41800000000E+01 0.  1.
        -11    1    1    2    0    0 -0.64883900680E+02 -0.57765165623E+02 -0.18010669169E+03  0.19996288485E+03  0.00000000000E+00 0.  1.
         11    1    1    2    0    0 -0.47114477830E+02 -0.23469088910E+02 -0.12111164677E+02  0.54011595656E+02  0.00000000000E+00 0. -1.
</event>
<event>
 7    1  0.4966153E-006  0.1185420E+03  0.7561462E-02  0.1245522E+00
          2   -1    0    0  501    0  0.00000000000E+00  0.00000000000E+00  0.60938061251E+03  0.60938061251E+03  0.00000000000E+00 0. -1.
         -2   -1    0    0    0  501 -0.00000000000E+00 -0.00000000000E+00 -0.40771909248E+02  0.40771909248E+02  0.00000000000E+00 0.  1.
         23    2    1    2    0    0  0.60990068979E+02 -0.61267524510E+02  0.15301010300E+03  0.21571477428E+03  0.12508906486E+03 0.  0.
          5    1    3    3  502    0  0.23282217495E+02  0.16205891941E+02 -0.10750774926E+02  0.30622608423E+02  0.41800000000E+01 0. -1.
         -5    1    3    3    0  502  0.37707851483E+02 -0.77473416451E+02  0.16376087793E+03  0.18509216585E+03  0.41800000000E+01 0. -1.
        -11    1    1    2    0    0 -0.13878968095E+02  0.72416317486E+02  0.19230358835E+03  0.20595489527E+03  0.00000000000E+00 0. -1.
         11    1    1    2    0    0 -0.47111100884E+02 -0.11148792976E+02  0.22329501191E+03  0.22848285221E+03  0.00000000000E+00 0.  1.
</event>
<event>
 7    1  0.4966153E-006  0.9102180E+02  0.7561462E-02  0.1300396E+00
         -1   -1    0    0    0  501 -0.00000000000E+00  0.00000000000E+00  0.15255680924E+03  0.15255680924E+03  0.00000000000E+00 0.  1.
          1   -1    0    0  501    0  0.00000000000E+00 -0.00000000000E+00 -0.11160646943E+03  0.11160646943E+03  0.00000000000E+00 0. -1.
         23    2    1    2    0    0  0.15022295780E+02  0.70529420848E+02  0.25011247180E+02  0.14654010706E+03  0.12509345273E+03 0.  0.
          5    1    3    3  502    0  0.12733238595E+02  0.89201036930E+02  0.58777156750E+02  0.10766237463E+03  0.41800000000E+01 0.  1.
         -5    1    3    3    0  502  0.22890571846E+01 -0.18671616082E+02 -0.33765909570E+02  0.38877732432E+02  0.41800000000E+01 0.  1.
        -11    1    1    2    0    0 -0.68966794545E+01 -0.50304123383E+02 -0.35367688801E+02  0.61878448817E+02  0.00000000000E+00 0. -1.
         11    1    1    2    0    0 -0.81256163254E+01 -0.20225297465E+02  0.51306781430E+02  0.55744722790E+02  0.00000000000E+00 0.  1.
</event>
<event>
 7    1  0.4966153E-006  0.1046483E+03  0.7561462E-02  0.1270814E+00
          2   -1    0    0  501    0  0.00000000000E+00  0.00000000000E+00  0.31302036695E+03  0.31302036695E+03  0.00000000000E+00 0. -1.
         -2   -1    0    0    0  501 -0.00000000000E+00 -0.00000000000E+00 -0.35909648928E+02  0.35909648928E+02  0.00000000000E+00 0.  1.
         23    2    1    2    0    0 -0.26283275990E+02 -0.98527433510E+01  0.14184883229E+03  0.19119843037E+03  0.12509141220E+03 0.  0.
          5    1    3    3  502    0  0.22533822407E+02  0.47503811530E+02  0.56544770683E+02  0.77325084893E+02  0.41800000000E+01 0. -1.
         -5    1    3    3    0  502 -0.48817098397E+02 -0.57356554881E+02  0.85304061608E+02  0.11387334548E+03  0.41800000000E+01 0. -1.
        -11    1    1    2    0    0  0.45108019492E+01  0.42027970885E+02  0.68742634946E+02  0.80698497695E+02  0.00000000000E+00 0. -1.
         11    1    1    2    0    0  0.21772474041E+02 -0.32175227534E+02  0.66519250782E+02  0.77033087808E+02  0.00000000000E+00 0.  1.
</event>
<event>
 7    1  0.4966153E-006  0.7106630E+02  0.7561462E-02  0.1356504E+00
          1   -1    0    0  501    0  0.00000000000E+00  0.00000000000E+00  0.53061615826E+03  0.53061615826E+03  0.00000000000E+00 0. -1.
         -1   -1    0    0    0  501 -0.00000000000E+00 -0.00000000000E+00 -0.24127245442E+02  0.24127245442E+02  0.00000000000E+00 0.  1.
         23    2    1    2    0    0 -0.10403153343E+02 -0.32560890265E+02  0.25816768192E+03  0.28890602997E+03  0.12509078700E+03 0.  0.
          5    1    3    3  502    0  0.20188689495E+02  0.38031601142E+01  0.23489342410E+03  0.23582714071E+03  0.41800000000E+01 0.  1.
         -5    1    3    3    0  502 -0.30591842838E+02 -0.36364050380E+02  0.23274257821E+02  0.53078889262E+02  0.41800000000E+01 0.  1.
        -11    1    1    2    0    0 -0.15821327738E+02 -0.13277167577E+02  0.12427750012E+02  0.24104907397E+02  0.00000000000E+00 0.  1.
         11    1    1    2    0    0  0.26224481080E+02  0.45838057843E+02  0.23589348089E+03  0.24173246633E+03  0.00000000000E+00 0. -1.
</event>
<event>
 7    1  0.4966153E-006  0.1260183E+03  0.7561462E-02  0.1233486E+00
         -2   -1    0    0    0  501 -0.00000000000E+00  0.00000000000E+00  0.48163525789E+02  0.48163525789E+02  0.00000000000E+00 0. -1.
          2   -1    0    0  501    0  0.00000000000E+00 -0.00000000000E+00 -0.35918338271E+03  0.35918338271E+03  0.00000000000E+00 0.  1.
         23    2    1    2    0    0  0.39902598405E+02 -0.58063434904E+02 -0.12930789770E+03  0.19321478490E+03  0.12509133009E+03 0.  0.
          5    1    3    3  502    0 -0.35213956455E+02 -0.53956742933E+02 -0.81524251947E+02  0.10399533111E+03  0.41800000000E+01 0.  1.
         -5    1    3    3    0  502  0.75116554860E+02 -0.41066919709E+01 -0.47783645752E+02  0.89219453789E+02  0.41800000000E+01 0.  1.
        -11    1    1    2    0    0 -0.67257166616E+02  0.32551424268E+02 -0.13490070537E+03  0.15421193855E+03  0.00000000000E+00 0.  1.
         11    1    1    2    0    0  0.27354568212E+02  0.25512010636E+02 -0.46811253850E+02  0.59920185044E+02  0.00000000000E+00 0. -1.
</event>
<event>
 7    1  0.4966153E-006  0.1435837E+03  0.7561462E-02  0.1208587E+00
         -1   -1    0    0    0  501 -0.00000000000E+00  0.00000000000E+00  0.70524616185E+02  0.70524616185E+02  0.00000000000E+00 0.  1.
          1   -1    0    0  501    0  0.00000000000E+00 -0.00000000000E+00 -0.36888066749E+03  0.36888066749E+03  0.00000000000E+00 0. -1.
         23    2    1    2    0    0  0.10087628913E+03  0.62499056794E+02 -0.15317684062E+03  0.23063604565E+03  0.12509070007E+03 0.  0.
          5    1    3    3  502    0  0.12002710288E+03  0.23334194297E+02 -0.13766444702E+03  0.18417372891E+03  0.41800000000E+01 0. -1.
         -5    1    3    3    0  502 -0.19150813752E+02  0.39164862496E+02 -0.15512393604E+02  0.46462316742E+02  0.41800000000E+01 0. -1.
        -11    1    1    2    0    0 -0.24659949821E+02 -0.28158172224E+02 -0.11326407198E+03  0.11928849814E+03  0.00000000000E+00 0. -1.
         11    1    1    2    0    0 -0.76216339306E+02 -0.34340884569E+02 -0.31915138705E+02  0.89480739876E+02  0.00000000000E+00 0.  1.
</event>
<event>
 7    1  0.4966153E-006  0.1196441E+03  0.7561462E-02  0.1243685E+00
          2   -1    0    0  501    0  0.00000000000E+00  0.00000000000E+00  0.31108413744E+03  0.31108413744E+03  0.00000000000E+00 0. -1.
         -2   -1    0    0    0  501 -0.00000000000E+00 -0.00000000000E+00 -0.65275370329E+02  0.65275370329E+02  0.00000000000E+00 0.  1.
         23    2    1    2    0    0  0.94291051766E+02 -0.13039698580E+02  0.13648081687E+03  0.20817183508E+03  0.12509062061E+03 0.  0.
          5    1    3    3  502    0  0.28903999791E+02  0.38758446051E+02  0.43298983986E+00  0.48531620872E+02  0.41800000000E+01 0.  1.
         -5    1    3    3    0  502  0.65387051975E+02 -0.51798144631E+02  0.13604782703E+03  0.15964021421E+03  0.41800000000E+01 0.  1.
        -11    1    1    2    0    0 -0.16578350892E+02  0.23566637703E+02 -0.53034095662E+01  0.29297683935E+02  0.00000000000E+00 0.  1.
         11    1    1    2    0    0 -0.77712700875E+02 -0.10526939124E+02  0.11463135980E+03  0.13888998875E+03  0.00000000000E+00 0. -1.
</event>
<event>
 7    1  0.4966153E-006  0.1212625E+03  0.7561462E-02  0.1241029E+00
          1   -1    0    0  501    0  0.00000000000E+00  0.00000000000E+00  0.10307183619E+04  0.10307183619E+04  0.00000000000E+00 0. -1.
         -1   -1    0    0    0  501 -0.00000000000E+00 -0.00000000000E+00 -0.17002899204E+02  0.17002899204E+02  0.00000000000E+00 0.  1.
         23    2    1    2    0    0 -0.61303099742E+02  0.46153180206E+02  0.50355609811E+03  0.52450375636E+03  0.12508900995E+03 0.  0.
          5    1    3    3  502    0 -0.60366408293E+02 -0.17179052554E+02  0.38422640938E+03  0.38934127595E+03  0.41800000000E+01 0.  1.
         -5    1    3    3    0  502 -0.93669144930E+00  0.63332232760E+02  0.11932968874E+03  0.13516248041E+03  0.41800000000E+01 0.  1.
        -11    1    1    2    0    0  0.73125913886E+02 -0.49649802654E+01  0.31748959105E+03  0.32583997719E+03  0.00000000000E+00 0.  1.
         11    1    1    2    0    0 -0.11822814144E+02 -0.41188199940E+02  0.19266977355E+03  0.19737752757E+03  0.00000000000E+00 0. -1.
</event>
<event>
 6    1  0.4966153E-006  0.1467385E+03  0.7561462E-02  0.1204539E+00
          2   -1    0    0  501    0  0.00000000000E+00  0.00000000000E+00  0.33928302470E+03  0.33928302470E+03  0.00000000000E+00 0. -1.
         -2   -1    0    0    0  501 -0.00000000000E+00 -0.00000000000E+00 -0.88262523083E+02  0.88262523083E+02  0.00000000000E+00 0.  1.
          5    1    1    2  502    0 -0.39712756118E+02  0.11785304426E+03  0.16926892073E+03  0.21008541826E+03  0.41800000000E+01 0. -1.
         -5    1    1    2    0  502  0.20287852005E+01 -0.64734153944E+02 -0.18056512274E+02  0.67365693730E+02  0.41800000000E+01 0.  1.
        -11    1    1    2    0    0  0.63482557616E+02 -0.41528317891E+02  0.44431803378E+02  0.87913715993E+02  0.00000000000E+00 0.  1.
         11    1    1    2    0    0 -0.25798586698E+02 -0.11590572426E+02  0.55376289781E+02  0.62180719798E+02  0.00000000000E+00 0. -1.
</event>
<event>
 7    1  0.4966153E-006  0.9161795E+02  0.7561462E-02  0.1298980E+00
         -1   -1    0    0    0  501 -0.00000000000E+00  0.00000000000E+00  0.79168070483E+02  0.79168070483E+02  0.00000000000E+00 0.  1.
          1   -1    0    0  501    0  0.00000000000E+00 -0.00000000000E+00 -0.18719883132E+03  0.18719883132E+03  0.00000000000E+00 0. -1.
         23    2    1    2    0    0 -0.96926633083E+01  0.32937621517E+02 -0.55870143606E+02  0.14122984530E+03  0.12508221946E+03 0.  0.
          5    1    3    3  502    0 -0.26004908114E+00  0.57853428114E+02  0.19488591050E+02  0.61191211389E+02  0.41800000000E+01 0.  1.
         -5    1    3    3    0  502 -0.94326142271E+01 -0.24915806598E+02 -0.75358734657E+02  0.80038633913E+02  0.41800000000E+01 0.  1.
        -11    1    1    2    0    0  0.10474851439E+02  0.31820765176E+02  0.10414560400E+02  0.35081999336E+02  0.00000000000E+00 0.  1.
         11    1    1    2    0    0 -0.78218813099E+00 -0.64758386693E+02 -0.62575177626E+02  0.90055057161E+02  0.00000000000E+00 0. -1.
</event>
<event>
 7    1  0.4966153E-006  0.1765488E+03  0.7561462E-02  0.1171186E+00
         -1   -1    0    0    0  501 -0.00000000000E+00  0.00000000000E+00  0.42462507827E+02  0.42462507827E+02  0.00000000000E+00 0.  1.
          1   -1    0    0  501    0  0.00000000000E+00 -0.00000000000E+00 -0.86859084873E+03  0.86859084873E+03  0.00000000000E+00 0. -1.
         23    2    1    2    0    0 -0.98921352876E+02  0.10879295006E+03 -0.48219625648E+03  0.51940530361E+03  0.12508916668E+03 0.  0.
          5    1    3    3  502    0 -0.11534155515E+03  0.96548096576E+02 -0.29612791033E+03  0.33216625502E+03  0.41800000000E+01 0.  1.
         -5    1    3    3    0  502  0.16420202276E+02  0.12244853487E+02 -0.18606834614E+03  0.18723904859E+03  0.41800000000E+01 0.  1.
        -11    1    1    2    0    0  0.19545925679E+02 -0.99958949188E+02 -0.14422649791E+03  0.17656476838E+03  0.00000000000E+00 0.  1.
         11    1    1    2    0    0  0.79375427196E+02 -0.88340008743E+01 -0.19970558651E+03  0.21508328456E+03  0.00000000000E+00 0. -1.
</event>
<event>
 7    1  0.4966153E-006  0.2583533E+03  0.7561462E-02  0.1108137E+00
          2   -1    0    0  501    0  0.00000000000E+00  0.00000000000E+00  0.34895300956E+03  0.34895300956E+03  0.00000000000E+00 0.  1.
         -2   -1    0    0    0  501 -0.00000000000E+00 -0.00000000000E+00 -0.29549611025E+03  0.29549611025E+03  0.00000000000E+00 0. -1.
         23    2    1    2    0    0  0.17204620423E+03 -0.16944148565E+03 -0.15510144883E+03  0.31307257404E+03  0.12509062207E+03 0.  0.
          5    1    3    3  502    0  0.11187037874E+02 -0.90945105186E+02 -0.38921094068E+02  0.99641788107E+02  0.41800000000E+01 0. -1.
         -5    1    3    3    0  502  0.16085916636E+03 -0.78496380467E+02 -0.11618035477E+03  0.21343078593E+03  0.41800000000E+01 0. -1.
        -11    1    1    2    0    0 -0.32215181460E+02  0.61019304268E+02  0.10712308086E+03  0.12742263482E+03  0.00000000000E+00 0.  1.
         11    1    1    2    0    0 -0.13983102277E+03  0.10842218139E+03  0.10143526728E+03  0.20395391096E+03  0.00000000000E+00 0. -1.
</event>
<event>
 7    1  0.4966153E-006  0.1004890E+03  0.7561462E-02  0.1279271E+00
          3   -1    0    0  501    0  0.00000000000E+00  0.00000000000E+00  0.11441232764E+03  0.11441232764E+03  0.00000000000E+00 0. -1.
         -3   -1    0    0    0  501 -0.00000000000E+00 -0.00000000000E+00 -0.15440506415E+03  0.15440506415E+03  0.00000000000E+00 0.  1.
         23    2    1    2    0    0  0.22544267679E+02  0.63126668441E+02 -0.22091693846E+02  0.14361549514E+03  0.12507656548E+03 0.  0.
          5    1    3    3  502    0  0.37789038746E+02  0.82708384444E+02 -0.51757044938E+02  0.10471366868E+03  0.41800000000E+01 0.  1.
         -5    1    3    3    0  502 -0.15244771068E+02 -0.19581716003E+02  0.29665351093E+02  0.38901826460E+02  0.41800000000E+01 0.  1.
        -11    1    1    2    0    0  0.71060923754E+01 -0.52966442178E+02  0.34879684296E+02  0.63816400105E+02  0.00000000000E+00 0. -1.
         11    1    1    2    0    0 -0.29650360054E+02 -0.10160226264E+02 -0.52780726955E+02  0.61385496552E+02  0.00000000000E+00 0.  1.
</event>
<event>
 7    1  0.4966153E-006  0.7656208E+02  0.7561462E-02  0.1339101E+00
         -1   -1    0    0    0  501 -0.00000000000E+00  0.00000000000E+00  0.11044358469E+03  0.11044358469E+03  0.00000000000E+00 0.  1.
          1   -1    0    0  501    0  0.00000000000E+00 -0.00000000000E+00 -0.14256414657E+03  0.14256414657E+03  0.00000000000E+00 0. -1.
         23    2    1    2    0    0  0.46963947470E+01 -0.15592065379E+02  0.35083246486E+02  0.13093234048E+03  0.12508906816E+03 0.  0.
          5    1    3    3  502    0  0.36444149207E+02 -0.26155386590E+02  0.69451950764E+02  0.82784818198E+02  0.41800000000E+01 0.  1.
         -5    1    3    3    0  502 -0.31747754460E+02  0.10563321211E+02 -0.34368704278E+02  0.48147522283E+02  0.41800000000E+01 0.  1.
        -11    1    1    2    0    0  0.24183364100E+02 -0.17930352059E+02  0.11139832982E+02  0.32100288208E+02  0.00000000000E+00 0.  1.
         11    1    1    2    0    0 -0.28879758847E+02  0.33522417438E+02 -0.78343641349E+02  0.89975102566E+02  0.00000000000E+00 0. -1.
</event>
<event>
 7    1  0.4966153E-006  0.1571463E+03  0.7561462E-02  0.1191957E+00
          1   -1    0    0  501    0  0.00000000000E+00  0.00000000000E+00  0.16664488655E+03  0.16664488655E+03  0.00000000000E+00 0. -1.
         -1   -1    0    0    0  501 -0.00000000000E+00 -0.00000000000E+00 -0.16965498174E+03  0.16965498174E+03  0.00000000000E+00 0.  1.
         23    2    1    2    0    0  0.10989799811E+03  0.45625366791E+02 -0.48667297873E+02  0.17937549326E+03  0.12509123717E+03 0.  0.
          5    1    3    3  502    0  0.13478621525E+03  0.41492144140E+02 -0.22654050786E+02  0.14289716674E+03  0.41800000000E+01 0.  1.
         -5    1    3    3    0  502 -0.24888217135E+02  0.41332226511E+01 -0.26013247086E+02  0.36478326519E+02  0.41800000000E+01 0.  1.
        -11    1    1    2    0    0 -0.27304541579E+02  0.26445958816E+02 -0.42518825147E+00  0.38014569754E+02  0.00000000000E+00 0.  1.
         11    1    1    2    0    0 -0.82593456534E+02 -0.72071325607E+02  0.46082390936E+02  0.11890980528E+03  0.00000000000E+00 0. -1.
</event>
<event>
 7    1  0.4966153E-006  0.1267775E+03  0.7561462E-02  0.1232317E+00
         -2   -1    0    0    0  501 -0.00000000000E+00  0.00000000000E+00  0.32478735340E+03  0.32478735340E+03  0.00000000000E+00 0.  1.
          2   -1    0    0  501    0  0.00000000000E+00 -0.00000000000E+00 -0.67960676198E+02  0.67960676198E+02  0.00000000000E+00 0. -1.
         23    2    1    2    0    0  0.32183580774E+02  0.96132729346E+02  0.15173020831E+03  0.22124013607E+03  0.12509139527E+03 0.  0.
          5    1    3    3  502    0  0.45267048691E+02 -0.61061054680E+01  0.11738387332E+02  0.47346091267E+02  0.41800000000E+01 0.  1.
         -5    1    3    3    0  502 -0.13083467917E+02  0.10223883481E+03  0.13999182098E+03  0.17389404481E+03  0.41800000000E+01 0.  1.
        -11    1    1    2    0    0 -0.32163364698E+02 -0.57399836675E+02  0.71538334643E+01  0.66184594977E+02  0.00000000000E+00 0. -1.
         11    1    1    2    0    0 -0.20216076071E-01 -0.38732892671E+02  0.97942635423E+02  0.10532329855E+03  0.00000000000E+00 0.  1.
</event>
<event>
 6    1  0.4966153E-006  0.1725757E+03  0.7561462E-02  0.1175188E+00
          1   -1    0    0  501    0  0.00000000000E+00  0.00000000000E+00  0.23118729868E+03  0.23118729868E+03  0.00000000000E+00 0. -1.
         -1   -1    0    0    0  501 -0.00000000000E+00 -0.00000000000E+00 -0.42495906274E+03  0.42495906274E+03  0.00000000000E+00 0.  1.
          5    1    1    2  502    0  0.40056399317E+02  0.47988123986E+01 -0.39712493092E+02  0.56763529086E+02  0.41800000000E+01 0. -1.
         -5    1    1    2    0  502 -0.11129095391E+03 -0.10631537763E+03 -0.33067327913E+03  0.36476146434E+03  0.41800000000E+01 0.  1.
        -11    1    1    2    0    0  0.31204136534E+02  0.10585640498E+03  0.10427180065E+03  0.15182847237E+03  0.00000000000E+00 0.  1.
         11    1    1    2    0    0  0.40030418057E+02 -0.43398397484E+01  0.72342207508E+02  0.82792895625E+02  0.00000000000E+00 0. -1.
</event>
<event>
 7    1  0.4966153E-006  0.1007936E+03  0.7561462E-02  0.1278636E+00
          2   -1    0    0  501    0  0.00000000000E+00  0.00000000000E+00  0.55155022797E+03  0.55155022797E+03  0.00000000000E+00 0. -1.
         -2   -1    0    0    0  501 -0.00000000000E+00 -0.00000000000E+00 -0.22317131840E+02  0.22317131840E+02  0.00000000000E+00 0.  1.
         23    2    1    2    0    0  0.21335504771E+02 -0.12827473510E+02  0.27808562384E+03  0.30593957980E+03  0.12509062499E+03 0.  0.
          5    1    3    3  502    0 -0.39177442018E+02 -0.43827509142E+02  0.11570256707E+03  0.12984713684E+03  0.41800000000E+01 0.  1.
         -5    1    3    3    0  502  0.60512946790E+02  0.31000035632E+02  0.16238305677E+03  0.17609244295E+03  0.41800000000E+01 0.  1.
        -11    1    1    2    0    0 -0.46928130389E+02  0.26858921726E+01  0.22535153211E+03  0.23020159961E+03  0.00000000000E+00 0. -1.
         11    1    1    2    0    0  0.25592625618E+02  0.10141581337E+02  0.25795940180E+02  0.37726180403E+02  0.00000000000E+00 0.  1.
</event>
<event>
 7    1  0.4966153E-006  0.1104176E+03  0.7561462E-02  0.1259798E+00
          1   -1    0    0  501    0  0.00000000000E+00  0.00000000000E+00  0.52556015707E+02  0.52556015707E+02  0.00000000000E+00 0. -1.
         -1   -1    0    0    0  501 -0.00000000000E+00 -0.00000000000E+00 -0.24074238091E+03  0.24074238091E+03  0.00000000000E+00 0.  1.
         23    2    1    2    0    0 -0.16340318584E+02 -0.15784712390E+02 -0.10987112747E+03  0.16803533172E+03  0.12509214563E+03 0.  0.
          5    1    3    3  502    0  0.41898790365E+02 -0.42074093855E+02 -0.72825059485E+02  0.94056896062E+02  0.41800000000E+01 0. -1.
         -5    1    3    3    0  502 -0.58239108949E+02  0.26289381465E+02 -0.37046067988E+02  0.73978435658E+02  0.41800000000E+01 0. -1.
        -11    1    1    2    0    0 -0.45573570893E+00  0.54798465009E+02 -0.50261971001E+02  0.74359566911E+02  0.00000000000E+00 0.  1.
         11    1    1    2    0    0  0.16796054293E+02 -0.39013752619E+02 -0.28053266732E+02  0.50903497990E+02  0.00000000000E+00 0. -1.
</event>
<event>
 7    1  0.4966153E-006  0.1241125E+03  0.7561462E-02  0.1236463E+00
          1   -1    0    0  501    0  0.00000000000E+00  0.00000000000E+00  0.49618911152E+03  0.49618911152E+03  0.00000000000E+00 0. -1.
         -1   -1    0    0    0  501 -0.00000000000E+00 -0.00000000000E+00 -0.49344716734E+02  0.49344716734E+02  0.00000000000E+00 0.  1.
         23    2    1    2    0    0 -0.10775133719E+03 -0.90775420037E+01  0.25957852542E+03  0.30776917550E+03  0.12509237426E+03 0.  0.
          5    1    3    3  502    0 -0.10366531286E+03 -0.29347244442E+02  0.10081623752E+03  0.14761146295E+03  0.41800000000E+01 0.  1.
         -5    1    3    3    0  502 -0.40860243285E+01  0.20269702439E+02  0.15876228790E+03  0.16015771256E+03  0.41800000000E+01 0.  1.
        -11    1    1    2    0    0  0.20324823809E+02  0.23096073144E+02  0.16031789445E+00  0.30766097565E+02  0.00000000000E+00 0.  1.
         11    1    1    2    0    0  0.87426513376E+02 -0.14018531141E+02  0.18710555148E+03  0.20699855519E+03  0.00000000000E+00 0. -1.
</event>
<event>
 7    1  0.4966153E-006  0.1895631E+03  0.7561462E-02  0.1158856E+00
         -4   -1    0    0    0  501 -0.00000000000E+00  0.00000000000E+00  0.58895204469E+03  0.58895204469E+03  0.00000000000E+00 0. -1.
          4   -1    0    0  501    0  0.00000000000E+00 -0.00000000000E+00 -0.72269537341E+02  0.72269537341E+02  0.00000000000E+00 0.  1.
         23    2    1    2    0    0 -0.13199257066E+03  0.10335438988E+03  0.34714015116E+03  0.40528699364E+03  0.12508834498E+03 0.  0.
          5    1    3    3  502    0 -0.15126795188E+02 -0.17925495084E+02  0.56295389813E+01  0.24480756030E+02  0.41800000000E+01 0.  1.
         -5    1    3    3    0  502 -0.11686577548E+03  0.12127988496E+03  0.34151061218E+03  0.38080623762E+03  0.41800000000E+01 0.  1.
        -11    1    1    2    0    0  0.68612859561E+02 -0.36844728337E+01  0.35718009897E+02  0.77440790726E+02  0.00000000000E+00 0.  1.
         11    1    1    2    0    0  0.63379711103E+02 -0.99669917046E+02  0.13382434629E+03  0.17849379766E+03  0.00000000000E+00 0. -1.
</event>
<event>
 7    1  0.4966153E-006  0.1353527E+03  0.7561462E-02  0.1219723E+00
          3   -1    0    0  501    0  0.00000000000E+00  0.00000000000E+00  0.53213791859E+02  0.53213791859E+02  0.00000000000E+00 0. -1.
         -3   -1    0    0    0  501 -0.00000000000E+00 -0.00000000000E+00 -0.42218928438E+03  0.42218928438E+03  0.00000000000E+00 0.  1.
         23    2    1    2    0    0  0.56810840822E+02 -0.86728677030E+02 -0.19774009912E+03  0.25592803437E+03  0.12509467183E+03 0.  0.
          5    1    3    3  502    0  0.78247128542E+02 -0.84244155569E+02 -0.20299052389E+03  0.23332877247E+03  0.41800000000E+01 0.  1.
         -5    1    3    3    0  502 -0.21436287719E+02 -0.24845214614E+01  0.52504247686E+01  0.22599261898E+02  0.41800000000E+01 0.  1.
        -11    1    1    2    0    0 -0.77675260550E+01 -0.17133858656E+02 -0.94202476242E+01  0.21039121625E+02  0.00000000000E+00 0.  1.
         11    1    1    2    0    0 -0.49043314767E+02  0.10386253569E+03 -0.16181514577E+03  0.19843592025E+03  0.00000000000E+00 0. -1.
</event>
<event>
 7    1  0.4966153E-006  0.1007834E+03  0.7561462E-02  0.1278657E+00
         -3   -1    0    0    0  501 -0.00000000000E+00  0.00000000000E+00  0.35066479415E+02  0.35066479415E+02  0.00000000000E+00 0.  1.
          3   -1    0    0  501    0  0.00000000000E+00 -0.00000000000E+00 -0.49607450429E+03  0.49607450429E+03  0.00000000000E+00 0. -1.
         23    2    1    2    0    0 -0.15795896144E+02 -0.42741562757E+02 -0.13432376935E+03  0.18912037145E+03  0.12508912169E+03 0.  0.
          5    1    3    3  502    0 -0.75557423976E+01  0.31568957998E+02 -0.10277974586E+03  0.10786490120E+03  0.41800000000E+01 0.  1.
         -5    1    3    3    0  502 -0.82401537461E+01 -0.74310520755E+02 -0.31544023492E+02  0.81255470257E+02  0.41800000000E+01 0.  1.
        -11    1    1    2    0    0 -0.23399959112E+02  0.48964628921E+02 -0.12201858187E+03  0.13354260479E+03  0.00000000000E+00 0.  1.
         11    1    1    2    0    0  0.39195855256E+02 -0.62230661641E+01 -0.20466567366E+03  0.20847800747E+03  0.00000000000E+00 0. -1.
</event>
<event>
 7    1  0.4966153E-006  0.1798310E+03  0.7561462E-02  0.1167967E+00
         -2   -1    0    0    0  501 -0.00000000000E+00  0.00000000000E+00  0.24281005477E+02  0.24281005477E+02  0.00000000000E+00 0. -1.
          2   -1    0    0  501    0  0.00000000000E+00 -0.00000000000E+00 -0.16083375926E+04  0.16083375926E+04  0.00000000000E+00 0.  1.
         23    2    1    2    0    0  0.42416639965E+02  0.16394196748E+03 -0.88512337945E+03  0.90981730414E+03  0.12509192623E+03 0.  0.
          5    1    3    3  502    0 -0.20642067012E+02  0.38094153406E+02 -0.68639874002E+02  0.81278312957E+02  0.41800000000E+01 0.  1.
         -5    1    3    3    0  502  0.63058706977E+02  0.12584781408E+03 -0.81648350545E+03  0.82853899118E+03  0.41800000000E+01 0.  1.
        -11    1    1    2    0    0 -0.51496174742E+02 -0.12249591430E+03 -0.60946051818E+03  0.62377818835E+03  0.00000000000E+00 0.  1.
         11    1    1    2    0    0  0.90795347768E+01 -0.41446053188E+02 -0.89472689454E+02  0.99023105561E+02  0.00000000000E+00 0. -1.
</event>
<event>
 7    1  0.4966153E-006  0.1966887E+03  0.7561462E-02  0.1152563E+00
          2   -1    0    0  501    0  0.00000000000E+00  0.00000000000E+00  0.26141654298E+03  0.26141654298E+03  0.00000000000E+00 0. -1.
         -2   -1    0    0    0  501 -0.00000000000E+00 -0.00000000000E+00 -0.32625505974E+03  0.32625505974E+03  0.00000000000E+00 0.  1.
         23    2    1    2    0    0 -0.17670803504E+01  0.16942406230E+03 -0.24605513065E+03  0.32388056232E+03  0.12509139007E+03 0.  0.
          5    1    3    3  502    0 -0.54804546038E+02  0.10512383852E+03 -0.97771476154E+02  0.15372473334E+03  0.41800000000E+01 0. -1.
         -5    1    3    3    0  502  0.53037465687E+02  0.64300223778E+02 -0.14828365450E+03  0.17015582898E+03  0.41800000000E+01 0. -1.
        -11    1    1    2    0    0  0.43255603417E+02 -0.57675734557E+02  0.60156561102E+02  0.93895417499E+02  0.00000000000E+00 0. -1.
         11    1    1    2    0    0 -0.41488523067E+02 -0.11174832774E+03  0.12106005278E+03  0.16989562290E+03  0.00000000000E+00 0.  1.
</event>
<event>
 7    1  0.4966153E-006  0.1117444E+03  0.7561462E-02  0.1257373E+00
          2   -1    0    0  501    0  0.00000000000E+00  0.00000000000E+00  0.26203356254E+03  0.26203356254E+03  0.00000000000E+00 0. -1.
         -2   -1    0    0    0  501 -0.00000000000E+00 -0.00000000000E+00 -0.52053181824E+02  0.52053181824E+02  0.00000000000E+00 0.  1.
         23    2    1    2    0    0  0.46797291310E+01 -0.39724216929E+02  0.97051084918E+02  0.16330015632E+03  0.12509242460E+03 0.  0.
          5    1    3    3  502    0  0.54220796178E+02  0.14585215657E+02  0.53972606968E+02  0.77994473887E+02  0.41800000000E+01 0.  1.
         -5    1    3    3    0  502 -0.49541067047E+02 -0.54309432587E+02  0.43078477950E+02  0.85305682428E+02  0.41800000000E+01 0.  1.
        -11    1    1    2    0    0  0.26503911699E+02  0.53314683736E+02  0.44374644957E+02  0.74256460677E+02  0.00000000000E+00 0.  1.
         11    1    1    2    0    0 -0.31183640830E+02 -0.13590466807E+02  0.68554650839E+02  0.76530127369E+02  0.00000000000E+00 0. -1.
</event>
<event>
 7    1  0.4966153E-006  0.2970219E+03  0.7561462E-02  0.1086739E+00
         -1   -1    0    0    0  501 -0.00000000000E+00  0.00000000000E+00  0.75637661114E+02  0.75637661114E+02  0.00000000000E+00 0.  1.
          1   -1    0    0  501    0  0.00000000000E+00 -0.00000000000E+00 -0.12350198683E+04  0.12350198683E+04  0.00000000000E+00 0. -1.
         23    2    1    2    0    0  0.16256540080E+03  0.23317096960E+03 -0.64986990335E+03  0.72025972896E+03  0.12508787022E+03 0.  0.
          5    1    3    3  502    0  0.17891084854E+03  0.20970342350E+03 -0.53554065017E+03  0.60233369317E+03  0.41800000000E+01 0. -1.
         -5    1    3    3    0  502 -0.16345447740E+02  0.23467546099E+02 -0.11432925319E+03  0.11792603578E+03  0.41800000000E+01 0. -1.
        -11    1    1    2    0    0 -0.12101652840E+03 -0.12690481992E+03 -0.37525342412E+03  0.41420401468E+03  0.00000000000E+00 0.  1.
         11    1    1    2    0    0 -0.41548872403E+02 -0.10626614968E+03 -0.13425887974E+03  0.17619378580E+03  0.00000000000E+00 0. -1.
</event>
<event>
 7    1  0.4966153E-006  0.1028764E+03  0.7561462E-02  0.1274361E+00
         -2   -1    0    0    0  501 -0.00000000000E+00  0.00000000000E+00  0.40397485902E+03  0.40397485902E+03  0.00000000000E+00 0. -1.
          2   -1    0    0  501    0  0.00000000000E+00 -0.00000000000E+00 -0.46521712887E+02  0.46521712887E+02  0.00000000000E+00 0.  1.
         23    2    1    2    0    0 -0.62976760513E+02  0.33465992604E+02  0.26953276059E+03  0.30558306074E+03  0.12508818072E+03 0.  0.
          5    1    3    3  502    0  0.12847241998E+02 -0.29291644592E+02  0.21670626732E+02  0.38860526667E+02  0.41800000000E+01 0.  1.
         -5    1    3    3    0  502 -0.75824002511E+02  0.62757637196E+02  0.24786213385E+03  0.26672253407E+03  0.41800000000E+01 0.  1.
        -11    1    1    2    0    0  0.14111564211E+02  0.24669703536E+01  0.82814423769E+02  0.84044339318E+02  0.00000000000E+00 0.  1.
         11    1    1    2    0    0  0.48865196302E+02 -0.35932962958E+02  0.51059617817E+01  0.60869171855E+02  0.00000000000E+00 0. -1.
</event>
<event>
 7    1  0.4966153E-006  0.9853965E+02  0.7561462E-02  0.1283397E+00
          4   -1    0    0  501    0  0.00000000000E+00  0.00000000000E+00  0.86826775581E+03  0.86826775581E+03  0.00000000000E+00 0.  1.
         -4   -1    0    0    0  501 -0.00000000000E+00 -0.00000000000E+00 -0.15875560632E+02  0.15875560632E+02  0.00000000000E+00 0. -1.
         23    2    1    2    0    0  0.26980576872E+02  0.35998583495E+02  0.42505066993E+03  0.44535306988E+03  0.12508970902E+03 0.  0.
          5    1    3    3  502    0  0.17857646333E+02 -0.27913828219E+02  0.29548420125E+02  0.44594381600E+02  0.41800000000E+01 0. -1.
         -5    1    3    3    0  502  0.91229305388E+01  0.63912411715E+02  0.39550224980E+03  0.40075868828E+03  0.41800000000E+01 0. -1.
        -11    1    1    2    0    0 -0.92412230551E+01  0.29610511062E+02  0.11261973180E+03  0.11681346909E+03  0.00000000000E+00 0. -1.
         11    1    1    2    0    0 -0.17739353817E+02 -0.65609094558E+02  0.31472179345E+03  0.32197677748E+03  0.00000000000E+00 0.  1.
</event>
<event>
 7    1  0.4966153E-006  0.1263156E+03  0.7561462E-02  0.1233027E+00
         -1   -1    0    0    0  501 -0.00000000000E+00  0.00000000000E+00  0.23484880236E+03  0.23484880236E+03  0.00000000000E+00 0.  1.
          1   -1    0    0  501    0  0.00000000000E+00 -0.00000000000E+00 -0.10524071315E+03  0.10524071315E+03  0.00000000000E+00 0. -1.
         23    2    1    2    0    0  0.91498761471E+02 -0.92892654406E+01  0.14173298772E+03  0.21022376264E+03  0.12508987475E+03 0.  0.
          5    1    3    3  502    0  0.11250916126E+03 -0.80523933846E+01  0.14956833334E+03  0.18738012473E+03  0.41800000000E+01 0. -1.
         -5    1    3    3    0  502 -0.21010399787E+02 -0.12368720559E+01 -0.78353456215E+01  0.22843637904E+02  0.41800000000E+01 0. -1.
        -11    1    1    2    0    0 -0.84035848740E+02 -0.21397979973E+02  0.15277899107E+02  0.88052891045E+02  0.00000000000E+00 0.  1.
         11    1    1    2    0    0 -0.74629127316E+01  0.30687245414E+02 -0.27402797613E+02  0.41812861832E+02  0.00000000000E+00 0. -1.
</event>
<event>
 7    1  0.4966153E-006  0.1278933E+03  0.7561462E-02  0.1230616E+00
         -2   -1    0    0    0  501 -0.00000000000E+00  0.00000000000E+00  0.23714712727E+03  0.23714712727E+03  0.00000000000E+00 0.  1.
          2   -1    0    0  501    0  0.00000000000E+00 -0.00000000000E+00 -0.17442954373E+03  0.17442954373E+03  0.00000000000E+00 0. -1.
         23    2    1    2    0    0 -0.31276843136E+02  0.12029305179E+03  0.15260872288E+03  0.23321082678E+03  0.12509679532E+03 0.  0.
          5    1    3    3  502    0  0.63910169882E+01  0.31424195049E+01  0.98284819368E+02  0.98631120934E+02  0.41800000000E+01 0.  1.
         -5    1    3    3    0  502 -0.37667860124E+02  0.11715063229E+03  0.54323903511E+02  0.13457970584E+03  0.41800000000E+01 0.  1.
        -11    1    1    2    0    0  0.24807764309E+02 -0.86194454000E+02 -0.10704185053E+03  0.13965266498E+03  0.00000000000E+00 0.  1.
         11    1    1    2    0    0  0.64690788275E+01 -0.34098597793E+02  0.17150711203E+02  0.38713179243E+02  0.00000000000E+00 0. -1.
</event>
<event>
 7    1  0.4966153E-006  0.2507693E+03  0.7561462E-02  0.1112820E+00
         -1   -1    0    0    0  501 -0.00000000000E+00  0.00000000000E+00  0.30106623219E+03  0.30106623219E+03  0.00000000000E+00 0.  1.
          1   -1    0    0  501    0  0.00000000000E+00 -0.00000000000E+00 -0.22211557105E+03  0.22211557105E+03  0.00000000000E+00 0. -1.
         23    2    1    2    0    0  0.23119719306E+03 -0.57358568951E+01  0.20157448405E+00  0.26293046021E+03  0.12508934465E+03 0.  0.
          5    1    3    3  502    0  0.17460337089E+03 -0.58663641897E+02 -0.10781771184E+02  0.18455752219E+03  0.41800000000E+01 0.  1.
         -5    1    3    3    0  502  0.56593822166E+02  0.52927785002E+02  0.10983345669E+02  0.78372938025E+02  0.41800000000E+01 0.  1.
        -11    1    1    2    0    0 -0.13873746369E+03  0.34320005627E+02  0.13549703416E+02  0.14356023503E+03  0.00000000000E+00 0. -1.
         11    1    1    2    0    0 -0.92459729363E+02 -0.28584148732E+02  0.65199383236E+02  0.11669110800E+03  0.00000000000E+00 0.  1.
</event>
<event>
 7    1  0.4966153E-006  0.9563659E+02  0.7561462E-02  0.1289749E+00
         -1   -1    0    0    0  501 -0.00000000000E+00  0.00000000000E+00  0.12198699413E+04  0.12198699413E+04  0.00000000000E+00 0.  1.
          1   -1    0    0  501    0  0.00000000000E+00 -0.00000000000E+00 -0.14486276490E+02  0.14486276490E+02  0.00000000000E+00 0. -1.
         23    2    1    2    0    0 -0.26304649113E+02  0.50915918577E+02  0.84881417208E+03  0.85989506848E+03  0.12509862011E+03 0.  0.
          5    1    3    3  502    0  0.47136820881E+01  0.49451261591E+02  0.80208964998E+03  0.80363730941E+03  0.41800000000E+01 0. -1.
         -5    1    3    3    0  502 -0.31018331201E+02  0.14646569863E+01  0.46724522095E+02  0.56257759070E+02  0.41800000000E+01 0. -1.
        -11    1    1    2    0    0  0.65689593784E+00  0.27539839309E+02  0.14022768815E+03  0.14290793814E+03  0.00000000000E+00 0.  1.
         11    1    1    2    0    0  0.25647753175E+02 -0.78455757887E+02  0.21634180457E+03  0.23155321115E+03  0.00000000000E+00 0. -1.
</event>
<event>
 7    1  0.4966153E-006  0.8750181E+02  0.7561462E-02  0.1309017E+00
          1   -1    0    0  501    0  0.00000000000E+00  0.00000000000E+00  0.49157213944E+02  0.49157213944E+02  0.00000000000E+00 0. -1.
         -1   -1    0    0    0  501 -0.00000000000E+00 -0.00000000000E+00 -0.36258675845E+03  0.36258675845E+03  0.00000000000E+00 0.  1.
         23    2    1    2    0    0 -0.77357527060E+02  0.10369394305E+02 -0.17302503644E+03  0.22732580814E+03  0.12509056112E+03 0.  0.
          5    1    3    3  502    0 -0.76790354201E+02  0.22726193680E+02 -0.18981329433E+03  0.20605775279E+03  0.41800000000E+01 0.  1.
         -5    1    3    3    0  502 -0.56717285889E+00 -0.12356799375E+02  0.16788257889E+02  0.21268055360E+02  0.41800000000E+01 0.  1.
        -11    1    1    2    0    0  0.27019947466E+02 -0.15510825163E+02 -0.12878732605E+03  0.13250222114E+03  0.00000000000E+00 0.  1.
         11    1    1    2    0    0  0.50337579594E+02  0.51414308577E+01 -0.11617182020E+02  0.51915943108E+02  0.00000000000E+00 0. -1.
</event>
<event>
 7    1  0.4966153E-006  0.1121078E+03  0.7561462E-02  0.1256716E+00
          2   -1    0    0  501    0  0.00000000000E+00  0.00000000000E+00  0.17258623877E+02  0.17258623877E+02  0.00000000000E+00 0. -1.
         -2   -1    0    0    0  501 -0.00000000000E+00 -0.00000000000E+00 -0.80692076344E+03  0.80692076344E+03  0.00000000000E+00 0.  1.
         23    2    1    2    0    0 -0.24192983154E+01 -0.47596369887E+02 -0.50567903249E+03  0.52309695513E+03  0.12509145908E+03 0.  0.
          5    1    3    3  502    0 -0.52070537189E+02 -0.52606019328E+02 -0.39091380772E+03  0.39788165524E+03  0.41800000000E+01 0. -1.
         -5    1    3    3    0  502  0.49651238873E+02  0.50096494412E+01 -0.11476522477E+03  0.12521529988E+03  0.41800000000E+01 0. -1.
        -11    1    1    2    0    0 -0.17334477957E+02 -0.21797854770E+02 -0.76417684816E+02  0.81334452425E+02  0.00000000000E+00 0.  1.
         11    1    1    2    0    0  0.19753776272E+02  0.69394224658E+02 -0.20756542226E+03  0.21974797977E+03  0.00000000000E+00 0. -1.
</event>
<event>
 7    1  0.4966153E-006  0.1244017E+03  0.7561462E-02  0.1236007E+00
         -3   -1    0    0    0  501 -0.00000000000E+00  0.00000000000E+00  0.26015454945E+03  0.26015454945E+03  0.00000000000E+00 0.  1.
          3   -1    0    0  501    0  0.00000000000E+00 -0.00000000000E+00 -0.10178862315E+03  0.10178862315E+03  0.00000000000E+00 0. -1.
         23    2    1    2    0    0  0.64625236443E+02  0.15723707115E+02  0.19661325426E+03  0.24234040001E+03  0.12509373116E+03 0.  0.
          5    1    3    3  502    0 -0.37565709541E+02 -0.71200620964E+00  0.59533152993E+02  0.70522040466E+02  0.41800000000E+01 0. -1.
         -5    1    3    3    0  502  0.10219094598E+03  0.16435713325E+02  0.13708010127E+03  0.17181835955E+03  0.41800000000E+01 0. -1.
        -11    1    1    2    0    0 -0.60822642760E+02  0.25543444766E+02 -0.44356986520E+01  0.66117598757E+02  0.00000000000E+00 0.  1.
         11    1    1    2    0    0 -0.38025936829E+01 -0.41267151881E+02 -0.33811629314E+02  0.53485173833E+02  0.00000000000E+00 0. -1.
</event>
<event>
 7    1  0.4966153E-006  0.2582967E+03  0.7561462E-02  0.1108171E+00
         -1   -1    0    0    0  501 -0.00000000000E+00  0.00000000000E+00  0.24771513968E+03  0.24771513968E+03  0.00000000000E+00 0.  1.
          1   -1    0    0  501    0  0.00000000000E+00 -0.00000000000E+00 -0.37524037917E+03  0.37524037917E+03  0.00000000000E+00 0. -1.
         23    2    1    2    0    0 -0.19253268666E+02  0.24375144101E+03  0.84331553503E+02  0.28730717946E+03  0.12509257013E+03 0.  0.
          5    1    3    3  502    0 -0.43524834824E+02  0.24230366965E+03  0.89719230809E+02  0.26205436907E+03  0.41800000000E+01 0.  1.
         -5    1    3    3    0  502  0.24271566157E+02  0.14477713618E+01 -0.53876773061E+01  0.25252810386E+02  0.41800000000E+01 0.  1.
        -11    1    1    2    0    0 -0.25257338580E+01 -0.12164861618E+03 -0.49551289208E+02  0.13137768232E+03  0.00000000000E+00 0.  1.
         11    1    1    2    0    0  0.21779002524E+02 -0.12210282483E+03 -0.16230550378E+03  0.20427065707E+03  0.00000000000E+00 0. -1.
</event>
<event>
 7    1  0.4966153E-006  0.6812243E+02  0.7561462E-02  0.1366597E+00
         -2   -1    0    0    0  501 -0.00000000000E+00  0.00000000000E+00  0.59909553807E+02  0.59909553807E+02  0.00000000000E+00 0.  1.
          2   -1    0    0  501    0  0.00000000000E+00 -0.00000000000E+00 -0.20118645809E+03  0.20118645809E+03  0.00000000000E+00 0. -1.
         23    2    1    2    0    0  0.14244467423E+02 -0.13192242842E+01 -0.69284249863E+02  0.14370828674E+03  0.12508844549E+03 0.  0.
          5    1    3    3  502    0 -0.20334225551E+01 -0.31688001879E+02 -0.95166845743E+02  0.10041147942E+03  0.41800000000E+01 0.  1.
         -5    1    3    3    0  502  0.16277889978E+02  0.30368777595E+02  0.25882595880E+02  0.43296807322E+02  0.41800000000E+01 0.  1.
        -11    1    1    2    0    0 -0.38670929605E+02  0.15039901523E+02 -0.14865232121E+01  0.41519262826E+02  0.00000000000E+00 0.  1.
         11    1    1    2    0    0  0.24426462182E+02 -0.13720677238E+02 -0.70506131209E+02  0.75868462332E+02  0.00000000000E+00 0. -1.
</event>
<event>
 7    1  0.4966153E-006  0.8498396E+02  0.7561462E-02  0.1315474E+00
          1   -1    0    0  501    0  0.00000000000E+00  0.00000000000E+00  0.30213772809E+03  0.30213772809E+03  0.00000000000E+00 0. -1.
         -1   -1    0    0    0  501 -0.00000000000E+00 -0.00000000000E+00 -0.12798042345E+03  0.12798042345E+03  0.00000000000E+00 0.  1.
         23    2    1    2    0    0  0.17948713934E+02 -0.63786761097E+02 -0.72784570251E+02  0.15917527897E+03  0.12509303955E+03 0.  0.
          5    1    3    3  502    0  0.23893205246E+02  0.68594625718E+01  0.26844726565E+02  0.36824573698E+02  0.41800000000E+01 0.  1.
         -5    1    3    3    0  502 -0.59444913121E+01 -0.70646223669E+02 -0.99629296816E+02  0.12235070527E+03  0.41800000000E+01 0.  1.
        -11    1    1    2    0    0  0.94118896603E+01  0.12940473025E+02 -0.13192972522E+01  0.16055530334E+02  0.00000000000E+00 0.  1.
         11    1    1    2    0    0 -0.27360603594E+02  0.50846288073E+02  0.24826117214E+03  0.25488734224E+03  0.00000000000E+00 0. -1.
</event>
<event>
 7    1  0.4966153E-006  0.1244029E+03  0.7561462E-02  0.1236005E+00
         -1   -1    0    0    0  501 -0.00000000000E+00  0.00000000000E+00  0.49325127135E+03  0.49325127135E+03  0.00000000000E+00 0.  1.
          1   -1    0    0  501    0  0.00000000000E+00 -0.00000000000E+00 -0.32178306313E+02  0.32178306313E+02  0.00000000000E+00 0. -1.
         23    2    1    2    0    0 -0.28945583223E+02  0.57680465042E+02  0.27965088370E+03  0.31307659006E+03  0.12508977438E+03 0.  0.
          5    1    3    3  502    0 -0.39621414401E+02 -0.30148077659E+02  0.12870605393E+03  0.13806333251E+03  0.41800000000E+01 0. -1.
         -5    1    3    3    0  502  0.10675831178E+02  0.87828542700E+02  0.15094482977E+03  0.17501325755E+03  0.41800000000E+01 0. -1.
        -11    1    1    2    0    0  0.61366250476E+02 -0.41071025035E+02  0.11734775797E+03  0.13864754630E+03  0.00000000000E+00 0. -1.
         11    1    1    2    0    0 -0.32420667253E+02 -0.16609440007E+02  0.64074323370E+02  0.73705441304E+02  0.00000000000E+00 0.  1.
</event>
<event>
 7    1  0.4966153E-006  0.1188305E+03  0.7561462E-02  0.1245039E+00
          1   -1    0    0  501    0  0.00000000000E+00  0.00000000000E+00  0.54939847789E+03  0.54939847789E+03  0.00000000000E+00 0. -1.
         -1   -1    0    0    0  501 -0.00000000000E+00 -0.00000000000E+00 -0.57600276238E+02  0.57600276238E+02  0.00000000000E+00 0.  1.
         23    2    1    2    0    0 -0.30145867592E+01 -0.10776263220E+03  0.10244572471E+03  0.19432956474E+03  0.12508789145E+03 0.  0.
          5    1    3    3  502    0  0.45089518996E+00 -0.78398442040E+02 -0.89325113998E+01  0.79017600448E+02  0.41800000000E+01 0. -1.
         -5    1    3    3    0  502 -0.34654819492E+01 -0.29364190163E+02  0.11137823611E+03  0.11531196429E+03  0.41800000000E+01 0. -1.
        -11    1    1    2    0    0  0.35290091639E+02  0.35070662232E+02  0.88978827188E+02  0.10194397287E+03  0.00000000000E+00 0.  1.
         11    1    1    2    0    0 -0.32275504880E+02  0.72691969971E+02  0.30037364975E+03  0.31072521652E+03  0.00000000000E+00 0. -1.
</event>
<event>
 7    1  0.4966153E-006  0.1180950E+03  0.7561462E-02  0.1246273E+00
         -1   -1    0    0    0  501 -0.00000000000E+00  0.00000000000E+00  0.45850783170E+03  0.45850783170E+03  0.00000000000E+00 0.  1.
          1   -1    0    0  501    0  0.00000000000E+00 -0.00000000000E+00 -0.38960276159E+02  0.38960276159E+02  0.00000000000E+00 0. -1.
         23    2    1    2    0    0  0.43070034653E+02 -0.65230966467E+02  0.22814531575E+03  0.27167278808E+03  0.12508281982E+03 0.  0.
          5    1    3    3  502    0  0.69318547853E+02 -0.70054847775E+02  0.99080002538E+02  0.13981080815E+03  0.41800000000E+01 0.  1.
         -5    1    3    3    0  502 -0.26248513200E+02  0.48238813075E+01  0.12906531321E+03  0.13186197993E+03  0.41800000000E+01 0.  1.
        -11    1    1    2    0    0 -0.56280862588E+02  0.14509517917E+02  0.56452379756E+02  0.81024272808E+02  0.00000000000E+00 0. -1.
         11    1    1    2    0    0  0.13210827936E+02  0.50721448550E+02  0.13494986003E+03  0.14477104697E+03  0.00000000000E+00 0.  1.
</event>
<event>
 7    1  0.4966153E-006  0.1011521E+03  0.7561462E-02  0.1277892E+00
         -1   -1    0    0    0  501 -0.00000000000E+00  0.00000000000E+00  0.80899429833E+02  0.80899429833E+02  0.00000000000E+00 0.  1.
          1   -1    0    0  501    0  0.00000000000E+00 -0.00000000000E+00 -0.20469653257E+03  0.20469653257E+03  0.00000000000E+00 0. -1.
         23    2    1    2    0    0  0.54886369896E+02  0.34095468499E+02 -0.51778125648E+02  0.15000846861E+03  0.12508617744E+03 0.  0.
          5    1    3    3  502    0  0.51324104537E+02 -0.69926121910E+01  0.28784769033E+02  0.59406192103E+02  0.41800000000E+01 0. -1.
         -5    1    3    3    0  502  0.35622653584E+01  0.41088080690E+02 -0.80562894681E+02  0.90602276510E+02  0.41800000000E+01 0. -1.
        -11    1    1    2    0    0  0.18480961156E+02  0.12187634720E+02 -0.34686857365E+02  0.41149270215E+02  0.00000000000E+00 0. -1.
         11    1    1    2    0    0 -0.73367331052E+02 -0.46283103218E+02 -0.37332119724E+02  0.94438223577E+02  0.00000000000E+00 0.  1.
</event>
<event>
 7    1  0.4966153E-006  0.1126166E+03  0.7561462E-02  0.1255800E+00
          1   -1    0    0  501    0  0.00000000000E+00  0.00000000000E+00  0.30380366035E+02  0.30380366035E+02  0.00000000000E+00 0. -1.
         -1   -1    0    0    0  501 -0.00000000000E+00 -0.00000000000E+00 -0.52971645538E+03  0.52971645538E+03  0.00000000000E+00 0.  1.
         23    2    1    2    0    0  0.31507063052E+02 -0.54342502279E+02 -0.32983369048E+03  0.35830537633E+03  0.12508667698E+03 0.  0.
          5    1    3    3  502    0  0.79544696506E+02 -0.27635572966E+02 -0.21454856375E+03  0.23052037273E+03  0.41800000000E+01 0.  1.
         -5    1    3    3    0  502 -0.48037633454E+02 -0.26706929313E+02 -0.11528512673E+03  0.12778500360E+03  0.41800000000E+01 0.  1.
        -11    1    1    2    0    0 -0.33466978314E+02  0.65988480018E+02 -0.17405960120E+03  0.18913292390E+03  0.00000000000E+00 0.  1.
         11    1    1    2    0    0  0.19599152618E+01 -0.11645977739E+02  0.45572023377E+01  0.12658521181E+02  0.00000000000E+00 0. -1.
</event>
<event>
 7    1  0.4966153E-006  0.9103320E+02  0.7561462E-02  0.1300369E+00
          1   -1    0    0  501    0  0.00000000000E+00  0.00000000000E+00  0.54848266047E+03  0.54848266047E+03  0.00000000000E+00 0. -1.
         -1   -1    0    0    0  501 -0.00000000000E+00 -0.00000000000E+00 -0.27415966496E+02  0.27415966496E+02  0.00000000000E+00 0.  1.
         23    2    1    2    0    0 -0.41864342876E+02  0.30976182752E+02  0.32999072342E+03  0.35672556009E+03  0.12508837107E+03 0.  0.
          5    1    3    3  502    0 -0.62904293219E+02  0.10383193021E+02  0.68969766529E+02  0.94016285279E+02  0.41800000000E+01 0.  1.
         -5    1    3    3    0  502  0.21039950342E+02  0.20592989731E+02  0.26102095689E+03  0.26270927481E+03  0.41800000000E+01 0.  1.
        -11    1    1    2    0    0  0.32017648396E+02 -0.54347310650E+02  0.65011163677E+02  0.90582621878E+02  0.00000000000E+00 0.  1.
         11    1    1    2    0    0  0.98466944803E+01  0.23371127898E+02  0.12606480688E+03  0.12859044500E+03  0.00000000000E+00 0. -1.
</event>
<event>
 7    1  0.4966153E-006  0.1499103E+03  0.7561462E-02  0.1200583E+00
          2   -1    0    0  501    0  0.00000000000E+00  0.00000000000E+00  0.85108022372E+02  0.85108022372E+02  0.00000000000E+00 0. -1.
         -2   -1    0    0    0  501 -0.00000000000E+00 -0.00000000000E+00 -0.28845743829E+03  0.28845743829E+03  0.00000000000E+00 0.  1.
         23    2    1    2    0    0  0.53235901020E+01  0.10381192123E+03 -0.14730284303E+03  0.21943185573E+03  0.12508779374E+03 0.  0.
          5    1    3    3  502    0  0.61632634394E+01 -0.28891385949E+02 -0.28780163999E+02  0.41454411563E+02  0.41800000000E+01 0.  1.
         -5    1    3    3    0  502 -0.83967333733E+00  0.13270330717E+03 -0.11852267903E+03  0.17797744417E+03  0.41800000000E+01 0.  1.
        -11    1    1    2    0    0  0.12866009137E+02 -0.11509262538E+03 -0.28528575702E+02  0.11927164894E+03  0.00000000000E+00 0.  1.
         11    1    1    2    0    0 -0.18189599240E+02  0.11280704157E+02 -0.27517997184E+02  0.34861955995E+02  0.00000000000E+00 0. -1.
</event>
<event>
 7    1  0.4966153E-006  0.1333765E+03  0.7561462E-02  0.1222530E+00
          1   -1    0    0  501    0  0.00000000000E+00  0.00000000000E+00  0.65860588871E+02  0.65860588871E+02  0.00000000000E+00 0. -1.
         -1   -1    0    0    0  501 -0.00000000000E+00 -0.00000000000E+00 -0.32466478664E+03  0.32466478664E+03  0.00000000000E+00 0.  1.
         23    2    1    2    0    0 -0.23041226916E+02  0.94152028502E+02 -0.15665462416E+03  0.22267617704E+03  0.12509398843E+03 0.  0.
          5    1    3    3  502    0 -0.61765104277E+02  0.94549719256E+02 -0.86066595484E+02  0.14205459787E+03  0.41800000000E+01 0. -1.
         -5    1    3    3    0  502  0.38723877361E+02 -0.39769075378E+00 -0.70588028677E+02  0.80621579173E+02  0.41800000000E+01 0. -1.
        -11    1    1    2    0    0  0.31982650844E+02 -0.15340365704E+02 -0.76773051720E+02  0.84571379587E+02  0.00000000000E+00 0.  1.
         11    1    1    2    0    0 -0.89414239275E+01 -0.78811662798E+02 -0.25376521891E+02  0.83277818884E+02  0.00000000000E+00 0. -1.
</event>
<event>
 7    1  0.4966153E-006  0.1115989E+03  0.7561462E-02  0.1257637E+00
          2   -1    0    0  501    0  0.00000000000E+00  0.00000000000E+00  0.11167292724E+03  0.11167292724E+03  0.00000000000E+00 0. -1.
         -2   -1    0    0    0  501 -0.00000000000E+00 -0.00000000000E+00 -0.17931452704E+03  0.17931452704E+03  0.00000000000E+00 0.  1.
         23    2    1    2    0    0 -0.42221455836E+02  0.70071887768E+02 -0.74632452653E+02  0.16706374341E+03  0.12509024976E+03 0.  0.
          5    1    3    3  502    0  0.10395080509E+02 -0.81909042040E+01 -0.71266633777E+02  0.72605468804E+02  0.41800000000E+01 0.  1.
         -5    1    3    3    0  502 -0.52616536345E+02  0.78262791972E+02 -0.33658188762E+01  0.94458274602E+02  0.41800000000E+01 0.  1.
        -11    1    1    2    0    0  0.63166882293E+02 -0.69571368417E+02 -0.13121726540E+02  0.94881030925E+02  0.00000000000E+00 0.  1.
         11    1    1    2    0    0 -0.20945426457E+02 -0.50051935114E+00  0.20112579388E+02  0.29042679950E+02  0.00000000000E+00 0. -1.
</event>
<event>
 7    1  0.4966153E-006  0.1646937E+03  0.7561462E-02  0.1183497E+00
          3   -1    0    0  501    0  0.00000000000E+00  0.00000000000E+00  0.74773730387E+03  0.74773730387E+03  0.00000000000E+00 0. -1.
         -3   -1    0    0    0  501 -0.00000000000E+00 -0.00000000000E+00 -0.39910222840E+02  0.39910222840E+02  0.00000000000E+00 0.  1.
         23    2    1    2    0    0 -0.12143467131E+03  0.48291025531E+02  0.39458937030E+03  0.43408030914E+03  0.12508613468E+03 0.  0.
          5    1    3    3  502    0 -0.11727109152E+03 -0.12625201584E+02  0.28667805986E+03  0.31002207506E+03  0.41800000000E+01 0. -1.
         -5    1    3    3    0  502 -0.41635797965E+01  0.60916227115E+02  0.10791131044E+03  0.12405823408E+03  0.41800000000E+01 0. -1.
        -11    1    1    2    0    0  0.46688324992E+02 -0.58364796030E+02  0.22706558782E+03  0.23905026726E+03  0.00000000000E+00 0. -1.
         11    1    1    2    0    0  0.74746346319E+02  0.10073770499E+02  0.86172122915E+02  0.11451695031E+03  0.00000000000E+00 0.  1.
</event>
<event>
 7    1  0.1020564E-005  0.3331534E+03  0.7561462E-02  0.1069750E+00
          2   -1    0    0  501    0  0.00000000000E+00  0.00000000000E+00  0.13354535237E+04  0.13354535237E+04  0.00000000000E+00 0.  1.
         -2   -1    0    0    0  501 -0.00000000000E+00 -0.00000000000E+00 -0.94624207392E+02  0.94624207392E+02  0.00000000000E+00 0. -1.
         23    2    1    2    0    0  0.24515633762E+03 -0.19913003623E+03  0.38616728523E+03  0.51432246902E+03  0.12509208110E+03 0.  0.
          5    1    3    3  502    0  0.39161469673E+02 -0.10405917560E+03  0.15059116220E+03  0.18723542204E+03  0.41800000000E+01 0. -1.
         -5    1    3    3    0  502  0.20599486794E+03 -0.95070860625E+02  0.23557612303E+03  0.32708704698E+03  0.41800000000E+01 0. -1.
        -11    1    1    2    0    0 -0.14192270373E+03  0.58101007142E+02  0.43034732900E+03  0.45685512413E+03  0.00000000000E+00 0.  1.
         11    1    1    2    0    0 -0.10323363389E+03  0.14102902908E+03  0.42431470211E+03  0.45890013798E+03  0.00000000000E+00 0. -1.
</event>
<event>
 7    1  0.4966153E-006  0.1601194E+03  0.7561462E-02  0.1188562E+00
         -1   -1    0    0    0  501 -0.00000000000E+00  0.00000000000E+00  0.22716566748E+02  0.22716566748E+02  0.00000000000E+00 0.  1.
          1   -1    0    0  501    0  0.00000000000E+00 -0.00000000000E+00 -0.11750588050E+04  0.11750588050E+04  0.00000000000E+00 0. -1.
         23    2    1    2    0    0 -0.11168696782E+03 -0.40953727080E+02 -0.71743655567E+03  0.73791163676E+03  0.12508871136E+03 0.  0.
          5    1    3    3  502    0 -0.33338012218E+02 -0.78595481650E+02 -0.36945766664E+03  0.37921644563E+03  0.41800000000E+01 0. -1.
         -5    1    3    3    0  502 -0.78348955598E+02  0.37641754570E+02 -0.34797888903E+03  0.35869519113E+03  0.41800000000E+01 0. -1.
        -11    1    1    2    0    0 -0.65006596879E+01 -0.15465936016E+02 -0.75476475353E+02  0.77318510623E+02  0.00000000000E+00 0. -1.
         11    1    1    2    0    0  0.11818762750E+03  0.56419663095E+02 -0.35942920726E+03  0.38254522440E+03  0.00000000000E+00 0.  1.
</event>
<event>
 7    1  0.4966153E-006  0.1146465E+03  0.7561462E-02  0.1252199E+00
          2   -1    0    0  501    0  0.00000000000E+00  0.00000000000E+00  0.83225785086E+03  0.83225785086E+03  0.00000000000E+00 0. -1.
         -2   -1    0    0    0  501 -0.00000000000E+00 -0.00000000000E+00 -0.16221404813E+02  0.16221404813E+02  0.00000000000E+00 0.  1.
         23    2    1    2    0    0 -0.28909298786E+02  0.13207476587E+02  0.52296327659E+03  0.53865377062E+03  0.12508841251E+03 0.  0.
          5    1    3    3  502    0 -0.74923448751E+02 -0.12359408945E+02  0.29352124416E+03  0.30321357380E+03  0.41800000000E+01 0. -1.
         -5    1    3    3    0  502  0.46014149966E+02  0.25566885533E+02  0.22944203243E+03  0.23544019682E+03  0.41800000000E+01 0. -1.
        -11    1    1    2    0    0  0.40162377581E+02 -0.48745215150E+02  0.18951983969E+03  0.19976706988E+03  0.00000000000E+00 0.  1.
         11    1    1    2    0    0 -0.11253078795E+02  0.35537738563E+02  0.10355332976E+03  0.11005841517E+03  0.00000000000E+00 0. -1.
</event>
<event>
 7    1  0.4966153E-006  0.1047470E+03  0.7561462E-02  0.1270619E+00
          2   -1    0    0  501    0  0.00000000000E+00  0.00000000000E+00  0.24953375794E+03  0.24953375794E+03  0.00000000000E+00 0. -1.
         -2   -1    0    0    0  501 -0.00000000000E+00 -0.00000000000E+00 -0.82229813488E+02  0.82229813488E+02  0.00000000000E+00 0.  1.
         23    2    1    2    0    0  0.40411541599E+02  0.51023511202E+02  0.11256549100E+02  0.14148799554E+03  0.12512254631E+03 0.  0.
          5    1    3    3  502    0  0.14211722117E+02  0.73501597743E+02 -0.35710648774E+02  0.83049267017E+02  0.41800000000E+01 0. -1.
         -5    1    3    3    0  502  0.26199819482E+02 -0.22478086541E+02  0.46967197873E+02  0.58438728524E+02  0.41800000000E+01 0. -1.
        -11    1    1    2    0    0 -0.15251811578E+02 -0.67804609701E+02  0.68215886570E+02  0.97383212279E+02  0.00000000000E+00 0.  1.
         11    1    1    2    0    0 -0.25159730021E+02  0.16781098500E+02  0.87831508785E+02  0.92892363610E+02  0.00000000000E+00 0. -1.
</event>
<event>
 7    1  0.4966153E-006  0.9845975E+02  0.7561462E-02  0.1283569E+00
         -3   -1    0    0    0  501 -0.00000000000E+00  0.00000000000E+00  0.62618910473E+02  0.62618910473E+02  0.00000000000E+00 0.  1.
          3   -1    0    0  501    0  0.00000000000E+00 -0.00000000000E+00 -0.40852116442E+03  0.40852116442E+03  0.00000000000E+00 0. -1.
         23    2    1    2    0    0  0.46954805760E+02  0.65587748755E+02 -0.59325091466E+02  0.16025151269E+03  0.12511824116E+03 0.  0.
          5    1    3    3  502    0  0.55824760985E+02  0.27405716236E+02 -0.90573424533E+02  0.10994769144E+03  0.41800000000E+01 0.  1.
         -5    1    3    3    0  502 -0.88699552245E+01  0.38182032519E+02  0.31248333066E+02  0.50303821251E+02  0.41800000000E+01 0.  1.
        -11    1    1    2    0    0 -0.44610197262E+02 -0.18943058238E+02 -0.49578924227E+02  0.69332379756E+02  0.00000000000E+00 0.  1.
         11    1    1    2    0    0 -0.23446084985E+01 -0.46644690517E+02 -0.23699823826E+03  0.24155618245E+03  0.00000000000E+00 0. -1.
</event>
<event>
 7    1  0.4966153E-006  0.1730098E+03  0.7561462E-02  0.1174745E+00
         -1   -1    0    0    0  501 -0.00000000000E+00  0.00000000000E+00  0.28739581700E+03  0.28739581700E+03  0.00000000000E+00 0.  1.
          1   -1    0    0  501    0  0.00000000000E+00 -0.00000000000E+00 -0.13277553410E+03  0.13277553410E+03  0.00000000000E+00 0. -1.
         23    2    1    2    0    0 -0.13099003418E+03  0.55641561538E+02 -0.31040309610E+01  0.18950005647E+03  0.12508502695E+03 0.  0.
          5    1    3    3  502    0 -0.39114354934E+02 -0.38448228078E+02 -0.16027900523E+02  0.57293673293E+02  0.41800000000E+01 0.  1.
         -5    1    3    3    0  502 -0.91875679248E+02  0.94089789616E+02  0.12923869562E+02  0.13220638317E+03  0.41800000000E+01 0.  1.
        -11    1    1    2    0    0  0.63259863446E+02  0.11243301112E+02  0.10147213984E+03  0.12010336093E+03  0.00000000000E+00 0.  1.
         11    1    1    2    0    0  0.67730170736E+02 -0.66884862650E+02  0.56252174016E+02  0.11056793369E+03  0.00000000000E+00 0. -1.
</event>
<event>
 7    1  0.4966153E-006  0.9970304E+02  0.7561462E-02  0.1280922E+00
          1   -1    0    0  501    0  0.00000000000E+00  0.00000000000E+00  0.30186147962E+03  0.30186147962E+03  0.00000000000E+00 0. -1.
         -1   -1    0    0    0  501 -0.00000000000E+00 -0.00000000000E+00 -0.64043922337E+02  0.64043922337E+02  0.00000000000E+00 0.  1.
         23    2    1    2    0    0 -0.55994664643E+02  0.31309718637E+02  0.55348371839E+02  0.15108025099E+03  0.12508436762E+03 0.  0.
          5    1    3    3  502    0 -0.88350689580E+02  0.42346084992E+02  0.61976967934E+02  0.11600712141E+03  0.41800000000E+01 0. -1.
         -5    1    3    3    0  502  0.32356024938E+02 -0.11036366356E+02 -0.66285960946E+01  0.35073129576E+02  0.41800000000E+01 0. -1.
        -11    1    1    2    0    0  0.36833013809E+02 -0.98411267923E+01  0.18209834399E+03  0.18604656828E+03  0.00000000000E+00 0. -1.
         11    1    1    2    0    0  0.19161650833E+02 -0.21468591844E+02  0.37084145063E+00  0.28778582693E+02  0.00000000000E+00 0.  1.
</event>
<event>
 7    1  0.4966153E-006  0.9005417E+02  0.7561462E-02  0.1302721E+00
          2   -1    0    0  501    0  0.00000000000E+00  0.00000000000E+00  0.17735496971E+03  0.17735496971E+03  0.00000000000E+00 0.  1.
         -2   -1    0    0    0  501 -0.00000000000E+00 -0.00000000000E+00 -0.78028177535E+02  0.78028177535E+02  0.00000000000E+00 0. -1.
         23    2    1    2    0    0 -0.33415885351E+02 -0.17862539888E+02  0.28855568424E+02  0.13385200561E+03  0.12509206151E+03 0.  0.
          5    1    3    3  502    0  0.64600984009E+00  0.44987767815E+02 -0.17601501613E+02  0.48493317485E+02  0.41800000000E+01 0.  1.
         -5    1    3    3    0  502 -0.34061895191E+02 -0.62850307703E+02  0.46457070037E+02  0.85358688127E+02  0.41800000000E+01 0.  1.
        -11    1    1    2    0    0  0.22896594796E+02 -0.15948500328E+02 -0.13056987299E+02  0.30807363297E+02  0.00000000000E+00 0. -1.
         11    1    1    2    0    0  0.10519290555E+02  0.33811040216E+02  0.83528211049E+02  0.90723778335E+02  0.00000000000E+00 0.  1.
</event>
<event>
 7    1  0.4966153E-006  0.1557577E+03  0.7561462E-02  0.1193571E+00
         -3   -1    0    0    0  501 -0.00000000000E+00  0.00000000000E+00  0.30803294831E+03  0.30803294831E+03  0.00000000000E+00 0.  1.
          3   -1    0    0  501    0  0.00000000000E+00 -0.00000000000E+00 -0.14569024278E+03  0.14569024278E+03  0.00000000000E+00 0. -1.
         23    2    1    2    0    0  0.12751264392E+03  0.75581911151E+02  0.19693984952E+03  0.27641544746E+03  0.12509234835E+03 0.  0.
          5    1    3    3  502    0  0.16427106262E+02  0.16260926065E+02  0.13311356376E+03  0.13517011797E+03  0.41800000000E+01 0.  1.
         -5    1    3    3    0  502  0.11108553766E+03  0.59320985086E+02  0.63826285760E+02  0.14124532949E+03  0.41800000000E+01 0.  1.
        -11    1    1    2    0    0 -0.40362136356E+02  0.81404004291E+01  0.18706195516E+02  0.45224881658E+02  0.00000000000E+00 0.  1.
         11    1    1    2    0    0 -0.87150507566E+02 -0.83722311580E+02 -0.53303339496E+02  0.13208286197E+03  0.00000000000E+00 0. -1.
</event>
<event>
 7    1  0.7910743E-006  0.1705056E+03  0.7561462E-02  0.1177322E+00
         -2   -1    0    0    0  501 -0.00000000000E+00  0.00000000000E+00  0.43577689497E+02  0.43577689497E+02  0.00000000000E+00 0.  1.
          2   -1    0    0  501    0  0.00000000000E+00 -0.00000000000E+00 -0.93865018215E+03  0.93865018215E+03  0.00000000000E+00 0. -1.
         23    2    1    2    0    0 -0.13852963994E+03 -0.74725360977E+02 -0.31047279449E+03  0.36988565197E+03  0.12509076183E+03 0.  0.
          5    1    3    3  502    0 -0.90843079072E+02 -0.22199439392E+02 -0.64061859786E+02  0.11343136429E+03  0.41800000000E+01 0.  1.
         -5    1    3    3    0  502 -0.47686560870E+02 -0.52525921584E+02 -0.24641093471E+03  0.25645428768E+03  0.41800000000E+01 0.  1.
        -11    1    1    2    0    0  0.99264695094E+02  0.88667451749E+01 -0.25137663953E+03  0.27041137876E+03  0.00000000000E+00 0.  1.
         11    1    1    2    0    0  0.39264944848E+02  0.65858615802E+02 -0.33322305863E+03  0.34193084092E+03  0.00000000000E+00 0. -1.
</event>
<event>
 7    1  0.4966153E-006  0.1308182E+03  0.7561462E-02  0.1226247E+00
         -1   -1    0    0    0  501 -0.00000000000E+00  0.00000000000E+00  0.21876091739E+02  0.21876091739E+02  0.00000000000E+00 0.  1.
          1   -1    0    0  501    0  0.00000000000E+00 -0.00000000000E+00 -0.88115575098E+03  0.88115575098E+03  0.00000000000E+00 0. -1.
         23    2    1    2    0    0 -0.77902982933E+02  0.39292999033E+02 -0.47531764339E+03  0.49918693709E+03  0.12509165249E+03 0.  0.
          5    1    3    3  502    0 -0.83409442590E+02 -0.12408041915E+02 -0.39121459563E+03  0.40022172212E+03  0.41800000000E+01 0.  1.
         -5    1    3    3    0  502  0.55064596569E+01  0.51701040948E+02 -0.84103047758E+02  0.98965214976E+02  0.41800000000E+01 0.  1.
        -11    1    1    2    0    0  0.47929211200E+01  0.26354102449E+02 -0.75462943154E+02  0.80076005134E+02  0.00000000000E+00 0. -1.
         11    1    1    2    0    0  0.73110061813E+02 -0.65647101483E+02 -0.30849907270E+03  0.32376890049E+03  0.00000000000E+00 0.  1.
</event>
<event>
 7    1  0.4966153E-006  0.9319093E+02  0.7561462E-02  0.1295303E+00
         -2   -1    0    0    0  501 -0.00000000000E+00  0.00000000000E+00  0.23442252717E+02  0.23442252717E+02  0.00000000000E+00 0.  1.
          2   -1    0    0  501    0  0.00000000000E+00 -0.00000000000E+00 -0.70881729415E+03  0.70881729415E+03  0.00000000000E+00 0. -1.
         23    2    1    2    0    0 -0.49178906969E+02  0.35783731994E+02 -0.34443182602E+03  0.37145296190E+03  0.12507989353E+03 0.  0.
          5    1    3    3  502    0 -0.46123006453E+02  0.17549813817E+02 -0.33154002954E+02  0.59598557040E+02  0.41800000000E+01 0. -1.
         -5    1    3    3    0  502 -0.30559005151E+01  0.18233918177E+02 -0.31127782306E+03  0.31185440486E+03  0.41800000000E+01 0. -1.
        -11    1    1    2    0    0  0.27133329759E+02 -0.71193970080E+02 -0.22924163875E+03  0.24157095830E+03  0.00000000000E+00 0. -1.
         11    1    1    2    0    0  0.22045577210E+02  0.35410238086E+02 -0.11170157667E+03  0.11923562666E+03  0.00000000000E+00 0.  1.
</event>
<event>
 7    1  0.4966153E-006  0.1013614E+03  0.7561462E-02  0.1277459E+00
         -2   -1    0    0    0  501 -0.00000000000E+00  0.00000000000E+00  0.28310418732E+02  0.28310418732E+02  0.00000000000E+00 0.  1.
          2   -1    0    0  501    0  0.00000000000E+00 -0.00000000000E+00 -0.52551164006E+03  0.52551164006E+03  0.00000000000E+00 0. -1.
         23    2    1    2    0    0  0.53156692952E+02 -0.10684331219E+02 -0.25122441400E+03  0.28583327257E+03  0.12508862690E+03 0.  0.
          5    1    3    3  502    0 -0.26415913019E+02 -0.15507197683E+02 -0.11198694571E+02  0.32880948902E+02  0.41800000000E+01 0. -1.
         -5    1    3    3    0  502  0.79572605971E+02  0.48228664641E+01 -0.24002571943E+03  0.25295232367E+03  0.41800000000E+01 0. -1.
        -11    1    1    2    0    0 -0.70966195665E+02  0.17190772492E+02 -0.23499354408E+03  0.24607659244E+03  0.00000000000E+00 0. -1.
         11    1    1    2    0    0  0.17809502713E+02 -0.65064412722E+01 -0.10983263248E+02  0.21912193785E+02  0.00000000000E+00 0.  1.
</event>
<event>
 7    1  0.4966153E-006  0.1481592E+03  0.7561462E-02  0.1202753E+00
          1   -1    0    0  501    0  0.00000000000E+00  0.00000000000E+00  0.44281665593E+02  0.44281665593E+02  0.00000000000E+00 0. -1.
         -1   -1    0    0    0  501 -0.00000000000E+00 -0.00000000000E+00 -0.90931488892E+03  0.90931488892E+03  0.00000000000E+00 0.  1.
         23    2    1    2    0    0 -0.97713349649E+02 -0.75019397458E+02 -0.72717069439E+03  0.74806344867E+03  0.12508355514E+03 0.  0.
          5    1    3    3  502    0 -0.76039772284E+02 -0.10612418900E+03 -0.46007109684E+03  0.47825440615E+03  0.41800000000E+01 0.  1.
         -5    1    3    3    0  502 -0.21673577365E+02  0.31104791544E+02 -0.26709959755E+03  0.26980904252E+03  0.41800000000E+01 0.  1.
        -11    1    1    2    0    0  0.71087613792E+02  0.34362890988E+02 -0.13556146651E+03  0.15687947066E+03  0.00000000000E+00 0.  1.
         11    1    1    2    0    0  0.26625735857E+02  0.40656506470E+02 -0.23010624305E+01  0.48653635184E+02  0.00000000000E+00 0. -1.
</event>
<event>
 7    1  0.4966153E-006  0.1317859E+03  0.7561462E-02  0.1224830E+00
         -2   -1    0    0    0  501 -0.00000000000E+00  0.00000000000E+00  0.42717114683E+03  0.42717114683E+03  0.00000000000E+00 0.  1.
          2   -1    0    0  501    0  0.00000000000E+00 -0.00000000000E+00 -0.48224622709E+02  0.48224622709E+02  0.00000000000E+00 0. -1.
         23    2    1    2    0    0 -0.51756643187E+02  0.75658342344E+02  0.21650928216E+03  0.26632346596E+03  0.12509590074E+03 0.  0.
          5    1    3    3  502    0  0.20165716578E+02  0.80242143704E+02  0.11216328388E+03  0.13944006742E+03  0.41800000000E+01 0.  1.
         -5    1    3    3    0  502 -0.71922359766E+02 -0.45838013595E+01  0.10434599827E+03  0.12688339854E+03  0.41800000000E+01 0.  1.
        -11    1    1    2    0    0  0.70045353966E+01  0.98157458670E+01 -0.71078786768E+01  0.13997654172E+02  0.00000000000E+00 0. -1.
         11    1    1    2    0    0  0.44752107791E+02 -0.85474088211E+02  0.16954512064E+03  0.19507464940E+03  0.00000000000E+00 0.  1.
</event>
<event>
 7    1  0.4966153E-006  0.1581301E+03  0.7561462E-02  0.1190824E+00
          2   -1    0    0  501    0  0.00000000000E+00  0.00000000000E+00  0.19883940373E+03  0.19883940373E+03  0.00000000000E+00 0. -1.
         -2   -1    0    0    0  501 -0.00000000000E+00 -0.00000000000E+00 -0.13876842520E+03  0.13876842520E+03  0.00000000000E+00 0.  1.
         23    2    1    2    0    0  0.76617424702E+02  0.98625492477E+02  0.19053619223E+02  0.17778739434E+03  0.12509236446E+03 0.  0.
          5    1    3    3  502    0  0.10210936966E+03  0.66335627710E+02 -0.16884851792E+02  0.12300125811E+03  0.41800000000E+01 0. -1.
         -5    1    3    3    0  502 -0.25491944957E+02  0.32289864766E+02  0.35938471015E+02  0.54786136232E+02  0.41800000000E+01 0. -1.
        -11    1    1    2    0    0 -0.58635236097E+02 -0.62557353860E+01  0.54496872043E+01  0.59219289323E+02  0.00000000000E+00 0.  1.
         11    1    1    2    0    0 -0.17982188605E+02 -0.92369757091E+02  0.35567672105E+02  0.10060114528E+03  0.00000000000E+00 0. -1.
</event>
<event>
 7    1  0.4966153E-006  0.6553260E+02  0.7561462E-02  0.1375979E+00
         -1   -1    0    0    0  501 -0.00000000000E+00  0.00000000000E+00  0.94358864076E+02  0.94358864076E+02  0.00000000000E+00 0.  1.
          1   -1    0    0  501    0  0.00000000000E+00 -0.00000000000E+00 -0.23474849083E+03  0.23474849083E+03  0.00000000000E+00 0. -1.
         23    2    1    2    0    0 -0.37598015757E+02  0.75120989455E+01  0.27653627802E+02  0.13372309842E+03  0.12508837477E+03 0.  0.
          5    1    3    3  502    0 -0.93453396631E+01 -0.16935169990E+02  0.72529572178E+02  0.75180759482E+02  0.41800000000E+01 0. -1.
         -5    1    3    3    0  502 -0.28252676094E+02  0.24447268935E+02 -0.44875944376E+02  0.58542338940E+02  0.41800000000E+01 0. -1.
        -11    1    1    2    0    0 -0.16350149570E+02 -0.10862171624E+02 -0.82469039533E+00  0.19646737072E+02  0.00000000000E+00 0.  1.
         11    1    1    2    0    0  0.53948165327E+02  0.33500726786E+01 -0.16721856416E+03  0.17573751941E+03  0.00000000000E+00 0. -1.
</event>
<event>
 7    1  0.4966153E-006  0.2019617E+03  0.7561462E-02  0.1148094E+00
          2   -1    0    0  501    0  0.00000000000E+00  0.00000000000E+00  0.31741022762E+03  0.31741022762E+03  0.00000000000E+00 0. -1.
         -2   -1    0    0    0  501 -0.00000000000E+00 -0.00000000000E+00 -0.17996378606E+03  0.17996378606E+03  0.00000000000E+00 0.  1.
         23    2    1    2    0    0 -0.62296974128E+01  0.18666379457E+03 -0.40115899363E+02  0.22415414012E+03  0.11727579383E+03 0.  0.
          5    1    3    3  502    0 -0.39794968854E+02  0.16160807982E+02  0.77815046401E+01  0.43850147949E+02  0.41800000000E+01 0. -1.
         -5    1    3    3    0  502  0.33565271441E+02  0.17050298659E+03 -0.47897404003E+02  0.18030399217E+03  0.41800000000E+01 0.  1.
        -11    1    1    2    0    0 -0.89880512430E+00 -0.94566831544E+02  0.14909787860E+03  0.17656123833E+03  0.00000000000E+00 0. -1.
         11    1    1    2    0    0  0.71285025371E+01 -0.92096963029E+02  0.28464462334E+02  0.96658635225E+02  0.00000000000E+00 0.  1.
</event>
<event>
 7    1  0.4966153E-006  0.1123398E+03  0.7561462E-02  0.1256297E+00
         -1   -1    0    0    0  501 -0.00000000000E+00  0.00000000000E+00  0.27038405402E+03  0.27038405402E+03  0.00000000000E+00 0.  1.
          1   -1    0    0  501    0  0.00000000000E+00 -0.00000000000E+00 -0.79141234591E+02  0.79141234591E+02  0.00000000000E+00 0. -1.
         23    2    1    2    0    0  0.39620335267E+02 -0.18227832198E+02  0.20936446527E+03  0.24775474071E+03  0.12508759888E+03 0.  0.
          5    1    3    3  502    0 -0.41372256089E+02  0.36134089646E+01  0.10997515654E+03  0.11762962108E+03  0.41800000000E+01 0.  1.
         -5    1    3    3    0  502  0.80992591356E+02 -0.21841241162E+02  0.99389308723E+02  0.13012511963E+03  0.41800000000E+01 0.  1.
        -11    1    1    2    0    0 -0.62871484211E+02  0.33394071118E+02 -0.58838198358E+01  0.71432533545E+02  0.00000000000E+00 0.  1.
         11    1    1    2    0    0  0.23251148944E+02 -0.15166238921E+02 -0.12237825998E+02  0.30338014361E+02  0.00000000000E+00 0. -1.
</event>
<event>
 7    1  0.4966153E-006  0.1037520E+03  0.7561462E-02  0.1272598E+00
          2   -1    0    0  501    0  0.00000000000E+00  0.00000000000E+00  0.28296414734E+02  0.28296414734E+02  0.00000000000E+00 0. -1.
         -2   -1    0    0    0  501 -0.00000000000E+00 -0.00000000000E+00 -0.52152312260E+03  0.52152312260E+03  0.00000000000E+00 0.  1.
         23    2    1    2    0    0  0.27480572643E+02  0.27544222835E+01 -0.36817805340E+03  0.38982608229E+03  0.12508607721E+03 0.  0.
          5    1    3    3  502    0  0.16444759767E+02 -0.58164575479E+02 -0.12578963468E+03  0.13962110355E+03  0.41800000000E+01 0. -1.
         -5    1    3    3    0  502  0.11035812876E+02  0.60918997763E+02 -0.24238841872E+03  0.25020497874E+03  0.41800000000E+01 0. -1.
        -11    1    1    2    0    0  0.10629850053E+02  0.31732564576E+02 -0.11555816645E+02  0.35404607964E+02  0.00000000000E+00 0. -1.
         11    1    1    2    0    0 -0.38110422696E+02 -0.34486986859E+02 -0.11349283782E+03  0.12458884708E+03  0.00000000000E+00 0.  1.
</event>
<event>
 7    1  0.4966153E-006  0.1002613E+03  0.7561462E-02  0.1279748E+00
         -2   -1    0    0    0  501 -0.00000000000E+00  0.00000000000E+00  0.40810613200E+03  0.40810613200E+03  0.00000000000E+00 0.  1.
          2   -1    0    0  501    0  0.00000000000E+00 -0.00000000000E+00 -0.41515945186E+02  0.41515945186E+02  0.00000000000E+00 0. -1.
         23    2    1    2    0    0 -0.22177246107E+02 -0.31817175310E+02  0.30468378995E+03  0.33163702892E+03  0.12508694655E+03 0.  0.
          5    1    3    3  502    0  0.47503104784E+02  0.75176102797E+01  0.14766759802E+03  0.15535846078E+03  0.41800000000E+01 0. -1.
         -5    1    3    3    0  502 -0.69680350890E+02 -0.39334785590E+02  0.15701619193E+03  0.17627856814E+03  0.41800000000E+01 0. -1.
        -11    1    1    2    0    0  0.43143962992E+02  0.16654741685E+02 -0.47427426415E+01  0.46489521089E+02  0.00000000000E+00 0. -1.
         11    1    1    2    0    0 -0.20966716886E+02  0.15162433625E+02  0.66649139498E+02  0.71495527176E+02  0.00000000000E+00 0.  1.
</event>
<event>
 7    1  0.4966153E-006  0.1073533E+03  0.7561462E-02  0.1265551E+00
          1   -1    0    0  501    0  0.00000000000E+00  0.00000000000E+00  0.43626857187E+02  0.43626857187E+02  0.00000000000E+00 0. -1.
         -1   -1    0    0    0  501 -0.00000000000E+00 -0.00000000000E+00 -0.38563014926E+03  0.38563014926E+03  0.00000000000E+00 0.  1.
         23    2    1    2    0    0  0.13340930794E+02 -0.12646975479E+02 -0.30205182261E+03  0.32745107491E+03  0.12510386282E+03 0.  0.
          5    1    3    3  502    0 -0.10654547362E+02  0.51399466297E+02 -0.86474755465E+02  0.10124613695E+03  0.41800000000E+01 0. -1.
         -5    1    3    3    0  502  0.23995478156E+02 -0.64046441776E+02 -0.21557706714E+03  0.22620493795E+03  0.41800000000E+01 0. -1.
        -11    1    1    2    0    0  0.38805807866E+02 -0.34322610176E+01 -0.19109960401E+02  0.43391954627E+02  0.00000000000E+00 0. -1.
         11    1    1    2    0    0 -0.52146738660E+02  0.16079236496E+02 -0.20841509067E+02  0.58413976918E+02  0.00000000000E+00 0.  1.
</event>
<event>
 7    1  0.4966153E-006  0.9399987E+02  0.7561462E-02  0.1293445E+00
         -1   -1    0    0    0  501 -0.00000000000E+00  0.00000000000E+00  0.10260521917E+04  0.10260521917E+04  0.00000000000E+00 0.  1.
          1   -1    0    0  501    0  0.00000000000E+00 -0.00000000000E+00 -0.42170995898E+02  0.42170995898E+02  0.00000000000E+00 0. -1.
         23    2    1    2    0    0  0.15442690171E+02 -0.65814261452E+02  0.93211365589E+03  0.94331266141E+03  0.12819093565E+03 0.  0.
          5    1    3    3  502    0 -0.54845942832E+01 -0.73985286158E+00 -0.15780608119E+01  0.71127232924E+01  0.41800000000E+01 0. -1.
         -5    1    3    3    0  502  0.20927284455E+02 -0.65074408590E+02  0.93369171670E+03  0.93619993812E+03  0.41800000000E+01 0.  1.
        -11    1    1    2    0    0  0.36119714257E+02  0.12025883849E+02  0.25870253681E+02  0.46027444703E+02  0.00000000000E+00 0.  1.
         11    1    1    2    0    0 -0.51562404429E+02  0.53788377603E+02  0.25897286274E+02  0.78883081532E+02  0.00000000000E+00 0. -1.
</event>
<event>
 7    1  0.4966153E-006  0.9799666E+02  0.7561462E-02  0.1284566E+00
         -4   -1    0    0    0  501 -0.00000000000E+00  0.00000000000E+00  0.46050732757E+03  0.46050732757E+03  0.00000000000E+00 0.  1.
          4   -1    0    0  501    0  0.00000000000E+00 -0.00000000000E+00 -0.27968332395E+02  0.27968332395E+02  0.00000000000E+00 0. -1.
         23    2    1    2    0    0  0.22244663921E+02 -0.10546940158E+02  0.29088793895E+03  0.31759964341E+03  0.12509067692E+03 0.  0.
          5    1    3    3  502    0 -0.89617927619E+01  0.45896529070E+02  0.20386531999E+03  0.20920168787E+03  0.41800000000E+01 0. -1.
         -5    1    3    3    0  502  0.31206456683E+02 -0.56443469228E+02  0.87022618955E+02  0.10839795555E+03  0.41800000000E+01 0. -1.
        -11    1    1    2    0    0  0.82139341009E+01  0.40719262590E+02  0.11001009081E+03  0.11759144161E+03  0.00000000000E+00 0.  1.
         11    1    1    2    0    0 -0.30458598022E+02 -0.30172322432E+02  0.31640965417E+02  0.53284574944E+02  0.00000000000E+00 0. -1.
</event>
<event>
 7    1  0.4966153E-006  0.1210224E+03  0.7561462E-02  0.1241420E+00
          2   -1    0    0  501    0  0.00000000000E+00  0.00000000000E+00  0.62432182748E+03  0.62432182748E+03  0.00000000000E+00 0. -1.
         -2   -1    0    0    0  501 -0.00000000000E+00 -0.00000000000E+00 -0.33175679190E+02  0.33175679190E+02  0.00000000000E+00 0.  1.
         23    2    1    2    0    0  0.90706910403E+02 -0.21269394466E+01  0.28248324117E+03  0.32198927360E+03  0.12509213926E+03 0.  0.
          5    1    3    3  502    0  0.11350496070E+03  0.23512282718E+02  0.24460195618E+03  0.27070979463E+03  0.41800000000E+01 0.  1.
         -5    1    3    3    0  502 -0.22798050299E+02 -0.25639222165E+02  0.37881284994E+02  0.51279478970E+02  0.41800000000E+01 0.  1.
        -11    1    1    2    0    0 -0.11356105662E+02  0.42166736077E+01 -0.41315988990E+01  0.12798889857E+02  0.00000000000E+00 0.  1.
         11    1    1    2    0    0 -0.79350804742E+02 -0.20897341612E+01  0.31279450602E+03  0.32270934321E+03  0.00000000000E+00 0. -1.
</event>
<event>
 6    1  0.4966153E-006  0.1396050E+03  0.7561462E-02  0.1213861E+00
         -1   -1    0    0    0  501 -0.00000000000E+00  0.00000000000E+00  0.27525070588E+03  0.27525070588E+03  0.00000000000E+00 0.  1.
          1   -1    0    0  501    0  0.00000000000E+00 -0.00000000000E+00 -0.77260552863E+02  0.77260552863E+02  0.00000000000E+00 0. -1.
          5    1    1    2  502    0 -0.35265905701E+02 -0.22854220328E+02  0.35960919385E+02  0.55467644755E+02  0.41800000000E+01 0. -1.
         -5    1    1    2    0  502  0.89955195776E+02  0.85239618517E+02  0.66705735181E+02  0.14080077172E+03  0.41800000000E+01 0.  1.
        -11    1    1    2    0    0 -0.53148191742E+02 -0.79592369391E+02  0.50515142068E+02  0.10821947666E+03  0.00000000000E+00 0. -1.
         11    1    1    2    0    0 -0.15410983327E+01  0.17206971202E+02  0.44808356385E+02  0.48023365604E+02  0.00000000000E+00 0.  1.
</event>
<event>
 7    1  0.4966153E-006  0.1015676E+03  0.7561462E-02  0.1277034E+00
         -1   -1    0    0    0  501 -0.00000000000E+00  0.00000000000E+00  0.48396744303E+03  0.48396744303E+03  0.00000000000E+00 0.  1.
          1   -1    0    0  501    0  0.00000000000E+00 -0.00000000000E+00 -0.24465511151E+02  0.24465511151E+02  0.00000000000E+00 0. -1.
         23    2    1    2    0    0 -0.15933230416E+01  0.11277728547E+01  0.24497545612E+03  0.27507204784E+03  0.12509135402E+03 0.  0.
          5    1    3    3  502    0 -0.61065010726E+02  0.11778793695E+02  0.98435148614E+02  0.11651019869E+03  0.41800000000E+01 0.  1.
         -5    1    3    3    0  502  0.59471687684E+02 -0.10651020840E+02  0.14654030751E+03  0.15856184915E+03  0.41800000000E+01 0.  1.
        -11    1    1    2    0    0 -0.17792734943E+02  0.34987876591E+02  0.48730421206E+02  0.62573052315E+02  0.00000000000E+00 0. -1.
         11    1    1    2    0    0  0.19386057985E+02 -0.36115649446E+02  0.16579605455E+03  0.17078785403E+03  0.00000000000E+00 0.  1.
</event>
<event>
 7    1  0.4966153E-006  0.1401442E+03  0.7561462E-02  0.1213135E+00
          2   -1    0    0  501    0  0.00000000000E+00  0.00000000000E+00  0.12677162989E+04  0.12677162989E+04  0.00000000000E+00 0. -1.
         -2   -1    0    0    0  501 -0.00000000000E+00 -0.00000000000E+00 -0.21284532663E+02  0.21284532663E+02  0.00000000000E+00 0.  1.
         23    2    1    2    0    0 -0.55647770181E+02 -0.96831098725E+02  0.47356925236E+03  0.50238252620E+03  0.12508968719E+03 0.  0.
          5    1    3    3  502    0 -0.48441002778E+02 -0.11278041826E+02  0.33932780734E+03  0.34297894719E+03  0.41800000000E+01 0.  1.
         -5    1    3    3    0  502 -0.72067674026E+01 -0.85553056899E+02  0.13424144502E+03  0.15940357901E+03  0.41800000000E+01 0.  1.
        -11    1    1    2    0    0  0.50391721916E+02  0.30430420811E+01  0.21082982489E+03  0.21678976177E+03  0.00000000000E+00 0.  1.
         11    1    1    2    0    0  0.52560482647E+01  0.93788056644E+02  0.56203268899E+03  0.56982854360E+03  0.00000000000E+00 0. -1.
</event>
<event>
 7    1  0.4966153E-006  0.9272670E+02  0.7561462E-02  0.1296380E+00
          2   -1    0    0  501    0  0.00000000000E+00  0.00000000000E+00  0.85531187596E+02  0.85531187596E+02  0.00000000000E+00 0.  1.
         -2   -1    0    0    0  501 -0.00000000000E+00 -0.00000000000E+00 -0.18096231661E+03  0.18096231661E+03  0.00000000000E+00 0. -1.
         23    2    1    2    0    0 -0.55078414577E+02  0.19249150511E+02 -0.70104474058E+02  0.15480901966E+03  0.12508810390E+03 0.  0.
          5    1    3    3  502    0 -0.14453872248E+02  0.31201532606E+02 -0.97990879304E+02  0.10393331942E+03  0.41800000000E+01 0. -1.
         -5    1    3    3    0  502 -0.40624542329E+02 -0.11952382095E+02  0.27886405246E+02  0.50875700238E+02  0.41800000000E+01 0. -1.
        -11    1    1    2    0    0 -0.47797180223E+01 -0.43438282021E+02 -0.15565653858E+02  0.46389865589E+02  0.00000000000E+00 0. -1.
         11    1    1    2    0    0  0.59858132599E+02  0.24189131511E+02 -0.97610010945E+01  0.65294618950E+02  0.00000000000E+00 0.  1.
</event>
<event>
 7    1  0.4966153E-006  0.1284869E+03  0.7561462E-02  0.1229718E+00
          4   -1    0    0  501    0  0.00000000000E+00  0.00000000000E+00  0.19199834105E+03  0.19199834105E+03  0.00000000000E+00 0. -1.
         -4   -1    0    0    0  501 -0.00000000000E+00 -0.00000000000E+00 -0.88339234311E+02  0.88339234311E+02  0.00000000000E+00 0.  1.
         23    2    1    2    0    0 -0.68987639906E+02  0.28395626740E+01  0.58673644939E+02  0.15445798256E+03  0.12508922491E+03 0.  0.
          5    1    3    3  502    0  0.26266322297E+02 -0.28764790853E+02  0.31853017752E+02  0.50491781705E+02  0.41800000000E+01 0. -1.
         -5    1    3    3    0  502 -0.95253962203E+02  0.31604353527E+02  0.26820627187E+02  0.10396620085E+03  0.41800000000E+01 0. -1.
        -11    1    1    2    0    0  0.50559176101E+02 -0.47291631943E+02  0.30281886044E+02  0.75562698219E+02  0.00000000000E+00 0. -1.
         11    1    1    2    0    0  0.18428463804E+02  0.44452069269E+02  0.14703575757E+02  0.50316894583E+02  0.00000000000E+00 0.  1.
</event>
<event>
 7    1  0.4966153E-006  0.1069095E+03  0.7561462E-02  0.1266402E+00
         -1   -1    0    0    0  501 -0.00000000000E+00  0.00000000000E+00  0.22054767901E+02  0.22054767901E+02  0.00000000000E+00 0. -1.
          1   -1    0    0  501    0  0.00000000000E+00 -0.00000000000E+00 -0.65276158719E+03  0.65276158719E+03  0.00000000000E+00 0.  1.
         23    2    1    2    0    0  0.20919354148E+02  0.38365287299E+02 -0.27411082034E+03  0.30445676111E+03  0.12509061880E+03 0.  0.
          5    1    3    3  502    0 -0.24920805273E+02  0.58602560976E+02 -0.22610090436E+03  0.23493488042E+03  0.41800000000E+01 0.  1.
         -5    1    3    3    0  502  0.45840159421E+02 -0.20237273677E+02 -0.48009915983E+02  0.69521880687E+02  0.41800000000E+01 0.  1.
        -11    1    1    2    0    0 -0.87679051923E+01 -0.67543758491E+02 -0.22960961391E+03  0.23949866445E+03  0.00000000000E+00 0. -1.
         11    1    1    2    0    0 -0.12151448956E+02  0.29178471192E+02 -0.12698638504E+03  0.13086092953E+03  0.00000000000E+00 0.  1.
</event>
<event>
 7    1  0.4966153E-006  0.8003359E+02  0.7561462E-02  0.1328956E+00
         -2   -1    0    0    0  501 -0.00000000000E+00  0.00000000000E+00  0.48082670968E+02  0.48082670968E+02  0.00000000000E+00 0.  1.
          2   -1    0    0  501    0  0.00000000000E+00 -0.00000000000E+00 -0.25542419337E+03  0.25542419337E+03  0.00000000000E+00 0. -1.
         23    2    1    2    0    0  0.20078083152E+02  0.76023254190E+01 -0.13270804620E+03  0.18359027810E+03  0.12503215552E+03 0.  0.
          5    1    3    3  502    0  0.42208771098E+02 -0.19556328276E+02 -0.13997989671E+03  0.14756650777E+03  0.41800000000E+01 0.  1.
         -5    1    3    3    0  502 -0.22130687946E+02  0.27158653695E+02  0.72718505034E+01  0.36023770336E+02  0.41800000000E+01 0.  1.
        -11    1    1    2    0    0  0.13246833667E+02 -0.33402572711E+02 -0.20588643627E+01  0.35992351804E+02  0.00000000000E+00 0.  1.
         11    1    1    2    0    0 -0.33324916819E+02  0.25800247292E+02 -0.72574611837E+02  0.83924234430E+02  0.00000000000E+00 0. -1.
</event>
<event>
 7    1  0.4966153E-006  0.8946097E+02  0.7561462E-02  0.1304162E+00
          1   -1    0    0  501    0  0.00000000000E+00  0.00000000000E+00  0.63420365969E+02  0.63420365969E+02  0.00000000000E+00 0. -1.
         -1   -1    0    0    0  501 -0.00000000000E+00 -0.00000000000E+00 -0.21529607170E+03  0.21529607170E+03  0.00000000000E+00 0.  1.
         23    2    1    2    0    0  0.17067295361E+02  0.27240747073E+02 -0.12150284832E+03  0.17732570110E+03  0.12509241083E+03 0.  0.
          5    1    3    3  502    0  0.10455369285E+02  0.75283438533E+02 -0.50902884453E+02  0.91572304273E+02  0.41800000000E+01 0. -1.
         -5    1    3    3    0  502  0.66119260768E+01 -0.48042691460E+02 -0.70599963869E+02  0.85753396827E+02  0.41800000000E+01 0. -1.
        -11    1    1    2    0    0  0.14517397602E+02 -0.12967717981E+02 -0.55347104467E+02  0.58670422835E+02  0.00000000000E+00 0.  1.
         11    1    1    2    0    0 -0.31584692963E+02 -0.14273029092E+02  0.24974247060E+02  0.42720313731E+02  0.00000000000E+00 0. -1.
</event>
<event>
 7    1  0.4966153E-006  0.1778541E+03  0.7561462E-02  0.1169896E+00
          1   -1    0    0  501    0  0.00000000000E+00  0.00000000000E+00  0.76409295020E+03  0.76409295020E+03  0.00000000000E+00 0. -1.
         -1   -1    0    0    0  501 -0.00000000000E+00 -0.00000000000E+00 -0.45104013242E+02  0.45104013242E+02  0.00000000000E+00 0.  1.
         23    2    1    2    0    0 -0.70157783608E+02  0.12416279949E+03  0.27761815773E+03  0.33624061227E+03  0.12508953779E+03 0.  0.
          5    1    3    3  502    0  0.22326909694E+02 -0.10990243322E+02  0.47203532114E+02  0.53524967901E+02  0.41800000000E+01 0. -1.
         -5    1    3    3    0  502 -0.92484693302E+02  0.13515304281E+03  0.23041462561E+03  0.28271564437E+03  0.41800000000E+01 0. -1.
        -11    1    1    2    0    0  0.90591316853E+02 -0.98003081343E+02  0.31100574807E+03  0.33843162674E+03  0.00000000000E+00 0.  1.
         11    1    1    2    0    0 -0.20433533245E+02 -0.26159718147E+02  0.13036503116E+03  0.13452472443E+03  0.00000000000E+00 0. -1.
</event>
<event>
 7    1  0.4966153E-006  0.1256658E+03  0.7561462E-02  0.1234032E+00
         -1   -1    0    0    0  501 -0.00000000000E+00  0.00000000000E+00  0.45452041205E+02  0.45452041205E+02  0.00000000000E+00 0.  1.
          1   -1    0    0  501    0  0.00000000000E+00 -0.00000000000E+00 -0.66064951365E+03  0.66064951365E+03  0.00000000000E+00 0. -1.
         23    2    1    2    0    0  0.99800003973E+02  0.30791814303E+02 -0.15232150457E+03  0.22306237549E+03  0.12508719352E+03 0.  0.
          5    1    3    3  502    0  0.10200854899E+03  0.10115748341E+01 -0.44983502935E+02  0.11156950877E+03  0.41800000000E+01 0. -1.
         -5    1    3    3    0  502 -0.22085450194E+01  0.29780239469E+02 -0.10733800163E+03  0.11149286671E+03  0.41800000000E+01 0. -1.
        -11    1    1    2    0    0 -0.38926616412E+02 -0.41909816609E+02 -0.10241571317E+03  0.11730597810E+03  0.00000000000E+00 0.  1.
         11    1    1    2    0    0 -0.60873387561E+02  0.11118002305E+02 -0.36046025471E+03  0.36573320128E+03  0.00000000000E+00 0. -1.
</event>
<event>
 7    1  0.4966153E-006  0.1097604E+03  0.7561462E-02  0.1261014E+00
         -4   -1    0    0    0  501 -0.00000000000E+00  0.00000000000E+00  0.96569932850E+02  0.96569932850E+02  0.00000000000E+00 0.  1.
          4   -1    0    0  501    0  0.00000000000E+00 -0.00000000000E+00 -0.17220218043E+03  0.17220218043E+03  0.00000000000E+00 0. -1.
         23    2    1    2    0    0  0.40990978929E+01 -0.62657345688E+02 -0.12169160236E+02  0.14049354641E+03  0.12509037753E+03 0.  0.
          5    1    3    3  502    0 -0.45181126639E+02 -0.22251690963E+01 -0.36958192823E+02  0.58563350302E+02  0.41800000000E+01 0. -1.
         -5    1    3    3    0  502  0.49280224532E+02 -0.60432176591E+02  0.24789032588E+02  0.81930196107E+02  0.41800000000E+01 0. -1.
        -11    1    1    2    0    0 -0.90064975653E+01 -0.15373272016E+02 -0.44344685392E+02  0.47790225083E+02  0.00000000000E+00 0. -1.
         11    1    1    2    0    0  0.49073996723E+01  0.78030617704E+02 -0.19118401953E+02  0.80488341790E+02  0.00000000000E+00 0.  1.
</event>
<event>
 7    1  0.4966153E-006  0.7236256E+02  0.7561462E-02  0.1352238E+00
          2   -1    0    0  501    0  0.00000000000E+00  0.00000000000E+00  0.18392415005E+03  0.18392415005E+03  0.00000000000E+00 0. -1.
         -2   -1    0    0    0  501 -0.00000000000E+00 -0.00000000000E+00 -0.76539354059E+02  0.76539354059E+02  0.00000000000E+00 0.  1.
         23    2    1    2    0    0 -0.23229650183E+02  0.11703028619E+02  0.16528110105E+02  0.12882957373E+03  0.12508918066E+03 0.  0.
          5    1    3    3  502    0 -0.35192764886E+02 -0.30609331137E+02  0.53592480217E+02  0.71169432967E+02  0.41800000000E+01 0. -1.
         -5    1    3    3    0  502  0.11963114703E+02  0.42312359756E+02 -0.37064370112E+02  0.57660140767E+02  0.41800000000E+01 0. -1.
        -11    1    1    2    0    0  0.37613083588E+02 -0.11537049865E+02  0.10459092975E+03  0.11174573890E+03  0.00000000000E+00 0. -1.
         11    1    1    2    0    0 -0.14383433405E+02 -0.16597875378E+00 -0.13734243867E+02  0.19888191473E+02  0.00000000000E+00 0.  1.
</event>
<event>
 6    1  0.4966153E-006  0.1064129E+03  0.7561462E-02  0.1267361E+00
         -2   -1    0    0    0  501 -0.00000000000E+00  0.00000000000E+00  0.33918874517E+03  0.33918874517E+03  0.00000000000E+00 0.  1.
          2   -1    0    0  501    0  0.00000000000E+00 -0.00000000000E+00 -0.52060199074E+02  0.52060199074E+02  0.00000000000E+00 0. -1.
          5    1    1    2  502    0 -0.21825292523E+01  0.67835614475E+02  0.33688748048E+02  0.75887009232E+02  0.41800000000E+01 0. -1.
         -5    1    1    2    0  502 -0.31465493079E+02 -0.20986519049E+02  0.18149319698E+03  0.18543938144E+03  0.41800000000E+01 0.  1.
        -11    1    1    2    0    0  0.12436556156E+02  0.27113657009E+02  0.11103816115E+02  0.31829436969E+02  0.00000000000E+00 0.  1.
         11    1    1    2    0    0  0.21211466176E+02 -0.73962752435E+02  0.60842784948E+02  0.98093116605E+02  0.00000000000E+00 0. -1.
</event>
<event>
 7    1  0.4966153E-006  0.1135911E+03  0.7561462E-02  0.1254061E+00
          2   -1    0    0  501    0  0.00000000000E+00  0.00000000000E+00  0.27236116788E+03  0.27236116788E+03  0.00000000000E+00 0. -1.
         -2   -1    0    0    0  501 -0.00000000000E+00 -0.00000000000E+00 -0.52625726704E+02  0.52625726704E+02  0.00000000000E+00 0.  1.
         23    2    1    2    0    0  0.15124431469E+01  0.48801649749E+02  0.97911311580E+02  0.16618727246E+03  0.12509075142E+03 0.  0.
          5    1    3    3  502    0  0.31095906258E+02  0.81930044216E+02  0.77772199394E+02  0.11724109744E+03  0.41800000000E+01 0. -1.
         -5    1    3    3    0  502 -0.29583463111E+02 -0.33128394466E+02  0.20139112185E+02  0.48946175021E+02  0.41800000000E+01 0. -1.
        -11    1    1    2    0    0  0.32679255982E+02  0.29500502602E+01  0.16889501571E+02  0.36903818656E+02  0.00000000000E+00 0.  1.
         11    1    1    2    0    0 -0.34191699129E+02 -0.51751700010E+02  0.10493462803E+03  0.12189580347E+03  0.00000000000E+00 0. -1.
</event>
<event>
 7    1  0.4966153E-006  0.1211709E+03  0.7561462E-02  0.1241178E+00
          1   -1    0    0  501    0  0.00000000000E+00  0.00000000000E+00  0.27541501364E+03  0.27541501364E+03  0.00000000000E+00 0. -1.
         -1   -1    0    0    0  501 -0.00000000000E+00 -0.00000000000E+00 -0.54100201746E+02  0.54100201746E+02  0.00000000000E+00 0.  1.
         23    2    1    2    0    0  0.37244698768E+02 -0.41313297527E+02  0.12295258683E+03  0.18400991877E+03  0.12509338695E+03 0.  0.
          5    1    3    3  502    0 -0.22443290757E+02  0.33850510626E+02  0.37102733976E+02  0.55169227275E+02  0.41800000000E+01 0. -1.
         -5    1    3    3    0  502  0.59687989525E+02 -0.75163808152E+02  0.85849852854E+02  0.12884069149E+03  0.41800000000E+01 0. -1.
        -11    1    1    2    0    0 -0.20620505391E+02  0.69622302077E+02  0.79389431938E+02  0.10758788079E+03  0.00000000000E+00 0. -1.
         11    1    1    2    0    0 -0.16624193377E+02 -0.28309004550E+02  0.18972793125E+02  0.37917415828E+02  0.00000000000E+00 0.  1.
</event>
<event>
 7    1  0.4966153E-006  0.1096031E+03  0.7561462E-02  0.1261307E+00
          2   -1    0    0  501    0  0.00000000000E+00  0.00000000000E+00  0.43367276040E+03  0.43367276040E+03  0.00000000000E+00 0.  1.
         -2   -1    0    0    0  501 -0.00000000000E+00 -0.00000000000E+00 -0.32390554394E+02  0.32390554394E+02  0.00000000000E+00 0. -1.
         23    2    1    2    0    0  0.86703307906E+01 -0.47046771716E+02  0.23922725731E+03  0.27416356612E+03  0.12508959581E+03 0.  0.
          5    1    3    3  502    0 -0.48042317675E+02 -0.39739744804E+02  0.62546344576E+02  0.88412834049E+02  0.41800000000E+01 0. -1.
         -5    1    3    3    0  502  0.56712648466E+02 -0.73070269117E+01  0.17668091274E+03  0.18575073207E+03  0.41800000000E+01 0. -1.
        -11    1    1    2    0    0 -0.45811797541E+02  0.41531683594E+02  0.75773526441E+02  0.97801987942E+02  0.00000000000E+00 0.  1.
         11    1    1    2    0    0  0.37141466750E+02  0.55150881218E+01  0.86281422252E+02  0.94097760734E+02  0.00000000000E+00 0. -1.
</event>
<event>
 7    1  0.4966153E-006  0.1005581E+03  0.7561462E-02  0.1279127E+00
         -1   -1    0    0    0  501 -0.00000000000E+00  0.00000000000E+00  0.32520745460E+03  0.32520745460E+03  0.00000000000E+00 0.  1.
          1   -1    0    0  501    0  0.00000000000E+00 -0.00000000000E+00 -0.52875481277E+02  0.52875481277E+02  0.00000000000E+00 0. -1.
         23    2    1    2    0    0 -0.18760274212E+02 -0.73455085314E+02  0.15593289141E+03  0.21379808277E+03  0.12508779367E+03 0.  0.
          5    1    3    3  502    0 -0.29621724096E+02 -0.36558120193E+02 -0.57172367843E+01  0.47582579658E+02  0.41800000000E+01 0.  1.
         -5    1    3    3    0  502  0.10861449884E+02 -0.36896965120E+02  0.16165012819E+03  0.16621550311E+03  0.41800000000E+01 0.  1.
        -11    1    1    2    0    0  0.40086967998E+01  0.91665938868E+02  0.99785539753E+02  0.13555761853E+03  0.00000000000E+00 0.  1.
         11    1    1    2    0    0  0.14751577413E+02 -0.18210853554E+02  0.16613542162E+02  0.28727234578E+02  0.00000000000E+00 0. -1.
</event>
<event>
 7    1  0.4966153E-006  0.1181663E+03  0.7561462E-02  0.1246153E+00
          1   -1    0    0  501    0  0.00000000000E+00  0.00000000000E+00  0.73268288362E+03  0.73268288362E+03  0.00000000000E+00 0. -1.
         -1   -1    0    0    0  501 -0.00000000000E+00 -0.00000000000E+00 -0.27100230549E+02  0.27100230549E+02  0.00000000000E+00 0.  1.
         23    2    1    2    0    0  0.60695821651E+02 -0.45994348406E+02  0.25112758324E+03  0.29071318194E+03  0.12509847417E+03 0.  0.
          5    1    3    3  502    0 -0.20068042647E+02  0.97634054267E+01  0.14233863266E+03  0.14413816000E+03  0.41800000000E+01 0.  1.
         -5    1    3    3    0  502  0.80763864298E+02 -0.55757753832E+02  0.10878895058E+03  0.14657502194E+03  0.41800000000E+01 0.  1.
        -11    1    1    2    0    0 -0.21293974735E+02  0.67310779968E+02  0.25089056849E+03  0.26063432586E+03  0.00000000000E+00 0.  1.
         11    1    1    2    0    0 -0.39401846916E+02 -0.21316431562E+02  0.20356450134E+03  0.20843560637E+03  0.00000000000E+00 0. -1.
</event>
<event>
 7    1  0.4966153E-006  0.1158808E+03  0.7561462E-02  0.1250051E+00
          1   -1    0    0  501    0  0.00000000000E+00  0.00000000000E+00  0.68170533490E+03  0.68170533490E+03  0.00000000000E+00 0. -1.
         -1   -1    0    0    0  501 -0.00000000000E+00 -0.00000000000E+00 -0.23875399031E+02  0.23875399031E+02  0.00000000000E+00 0.  1.
         23    2    1    2    0    0  0.26283702686E+02 -0.46114485612E+02  0.25064256224E+03  0.28510840068E+03  0.12509087626E+03 0.  0.
          5    1    3    3  502    0  0.74483308934E+02 -0.30793599547E+02  0.18727017378E+03  0.20392057148E+03  0.41800000000E+01 0.  1.
         -5    1    3    3    0  502 -0.48199606248E+02 -0.15320886065E+02  0.63372388459E+02  0.81187829206E+02  0.41800000000E+01 0.  1.
        -11    1    1    2    0    0 -0.23969920779E+02  0.71194048786E+02  0.35021615512E+03  0.35818222317E+03  0.00000000000E+00 0. -1.
         11    1    1    2    0    0 -0.23137819070E+01 -0.25079563174E+02  0.56971218504E+02  0.62290110078E+02  0.00000000000E+00 0.  1.
</event>
<event>
 7    1  0.4966153E-006  0.1469755E+03  0.7561462E-02  0.1204239E+00
          4   -1    0    0  501    0  0.00000000000E+00  0.00000000000E+00  0.10205711931E+03  0.10205711931E+03  0.00000000000E+00 0. -1.
         -4   -1    0    0    0  501 -0.00000000000E+00 -0.00000000000E+00 -0.35857568447E+03  0.35857568447E+03  0.00000000000E+00 0.  1.
         23    2    1    2    0    0 -0.11047556143E+03 -0.50132815115E+02 -0.25445060616E+03  0.30840404554E+03  0.12509914272E+03 0.  0.
          5    1    3    3  502    0 -0.97649677702E+02 -0.65980549735E+01 -0.24212271100E+03  0.26118934409E+03  0.41800000000E+01 0.  1.
         -5    1    3    3    0  502 -0.12825883725E+02 -0.43534760142E+02 -0.12327895152E+02  0.47214701448E+02  0.41800000000E+01 0.  1.
        -11    1    1    2    0    0  0.47789683736E+02 -0.23877507540E+02  0.10447319848E+02  0.54434692338E+02  0.00000000000E+00 0.  1.
         11    1    1    2    0    0  0.62685877691E+02  0.74010322656E+02 -0.12515278854E+02  0.97794065905E+02  0.00000000000E+00 0. -1.
</event>
<event>
 7    1  0.4966153E-006  0.1055136E+03  0.7561462E-02  0.1269111E+00
          2   -1    0    0  501    0  0.00000000000E+00  0.00000000000E+00  0.26429461417E+03  0.26429461417E+03  0.00000000000E+00 0. -1.
         -2   -1    0    0    0  501 -0.00000000000E+00 -0.00000000000E+00 -0.64499640588E+02  0.64499640588E+02  0.00000000000E+00 0.  1.
         23    2    1    2    0    0 -0.68027410031E+02  0.12430670849E+01  0.14811312966E+03  0.20546329740E+03  0.12509353968E+03 0.  0.
          5    1    3    3  502    0  0.27580563425E+02 -0.30727356365E+02  0.43392392163E+02  0.60043567562E+02  0.41800000000E+01 0.  1.
         -5    1    3    3    0  502 -0.95607973456E+02  0.31970423450E+02  0.10472073749E+03  0.14541972983E+03  0.41800000000E+01 0.  1.
        -11    1    1    2    0    0  0.46948959771E+02  0.33021545869E+01  0.76894731048E+02  0.90154915071E+02  0.00000000000E+00 0. -1.
         11    1    1    2    0    0  0.21078450260E+02 -0.45452216718E+01 -0.25212887120E+02  0.33176042294E+02  0.00000000000E+00 0.  1.
</event>
<event>
 7    1  0.4966153E-006  0.1710471E+03  0.7561462E-02  0.1176760E+00
          1   -1    0    0  501    0  0.00000000000E+00  0.00000000000E+00  0.10714270222E+04  0.10714270222E+04  0.00000000000E+00 0. -1.
         -1   -1    0    0    0  501 -0.00000000000E+00 -0.00000000000E+00 -0.30950325192E+02  0.30950325192E+02  0.00000000000E+00 0.  1.
         23    2    1    2    0    0  0.70354102930E+02  0.12489383951E+03  0.45292469114E+03  0.49126042525E+03  0.12509140109E+03 0.  0.
          5    1    3    3  502    0  0.88650499583E+02  0.13235231434E+03  0.43817572930E+03  0.46625260143E+03  0.41800000000E+01 0.  1.
         -5    1    3    3    0  502 -0.18296396653E+02 -0.74584748281E+01  0.14748961840E+02  0.25007823828E+02  0.41800000000E+01 0.  1.
        -11    1    1    2    0    0 -0.67197709555E+02 -0.41264032084E+02  0.36325315076E+03  0.37171373938E+03  0.00000000000E+00 0. -1.
         11    1    1    2    0    0 -0.31563933752E+01 -0.83629807427E+02  0.22429885514E+03  0.23940318278E+03  0.00000000000E+00 0.  1.
</event>
<event>
 7    1  0.4966153E-006  0.5194132E+03  0.7561462E-02  0.1008832E+00
          2   -1    0    0  501    0  0.00000000000E+00  0.00000000000E+00  0.12111594556E+04  0.12111594556E+04  0.00000000000E+00 0.  1.
         -2   -1    0    0    0  501 -0.00000000000E+00 -0.00000000000E+00 -0.26754299232E+03  0.26754299232E+03  0.00000000000E+00 0. -1.
         23    2    1    2    0    0  0.50465224238E+03  0.93528657899E+02  0.18817446124E+03  0.56077857226E+03  0.12506591722E+03 0.  0.
          5    1    3    3  502    0  0.28079586067E+03  0.16380989862E+02  0.47364774221E+02  0.28526399429E+03  0.41800000000E+01 0. -1.
         -5    1    3    3    0  502  0.22385638171E+03  0.77147668038E+02  0.14080968701E+03  0.27551457797E+03  0.41800000000E+01 0. -1.
        -11    1    1    2    0    0 -0.89016902943E+02  0.17004107982E+02  0.15051918056E+03  0.17569625043E+03  0.00000000000E+00 0.  1.
         11    1    1    2    0    0 -0.41563533944E+03 -0.11053276588E+03  0.60492282148E+03  0.74222762524E+03  0.00000000000E+00 0. -1.
</event>
<event>
 7    1  0.4966153E-006  0.2529075E+03  0.7561462E-02  0.1111481E+00
          2   -1    0    0  501    0  0.00000000000E+00  0.00000000000E+00  0.78358665267E+03  0.78358665267E+03  0.00000000000E+00 0. -1.
         -2   -1    0    0    0  501 -0.00000000000E+00 -0.00000000000E+00 -0.10076116837E+03  0.10076116837E+03  0.00000000000E+00 0.  1.
         23    2    1    2    0    0  0.19737410342E+03 -0.13171671882E+03  0.18633042446E+03  0.32660847669E+03  0.12509292244E+03 0.  0.
          5    1    3    3  502    0  0.14127901218E+03 -0.15178259161E+03  0.15668228894E+03  0.25993177271E+03  0.41800000000E+01 0. -1.
         -5    1    3    3    0  502  0.56095091245E+02  0.20065872794E+02  0.29648135523E+02  0.66676703973E+02  0.41800000000E+01 0. -1.
        -11    1    1    2    0    0 -0.18876982188E+03  0.11837315318E+03  0.49365508225E+03  0.54161018203E+03  0.00000000000E+00 0. -1.
         11    1    1    2    0    0 -0.86042815359E+01  0.13343565641E+02  0.28399775866E+01  0.16129162330E+02  0.00000000000E+00 0.  1.
</event>
<event>
 7    1  0.4966153E-006  0.1016000E+03  0.7561462E-02  0.1276967E+00
         -2   -1    0    0    0  501 -0.00000000000E+00  0.00000000000E+00  0.40597694194E+02  0.40597694194E+02  0.00000000000E+00 0.  1.
          2   -1    0    0  501    0  0.00000000000E+00 -0.00000000000E+00 -0.35194668464E+03  0.35194668464E+03  0.00000000000E+00 0. -1.
         23    2    1    2    0    0 -0.16887524871E+02  0.14428734413E+02 -0.10539529014E+03  0.16506921523E+03  0.12508517802E+03 0.  0.
          5    1    3    3  502    0  0.52894805418E+02 -0.75706414860E+01 -0.48601864300E+02  0.72351839411E+02  0.41800000000E+01 0. -1.
         -5    1    3    3    0  502 -0.69782330289E+02  0.21999375899E+02 -0.56793425838E+02  0.92717375820E+02  0.41800000000E+01 0. -1.
        -11    1    1    2    0    0  0.51516516430E+01 -0.44104145947E+02 -0.44378327167E+02  0.62778588122E+02  0.00000000000E+00 0.  1.
         11    1    1    2    0    0  0.11735873228E+02  0.29675411534E+02 -0.16157537314E+03  0.16469657549E+03  0.00000000000E+00 0. -1.
</event>
<event>
 7    1  0.4966153E-006  0.9050357E+02  0.7561462E-02  0.1301637E+00
          1   -1    0    0  501    0  0.00000000000E+00  0.00000000000E+00  0.82228753043E+02  0.82228753043E+02  0.00000000000E+00 0. -1.
         -1   -1    0    0    0  501 -0.00000000000E+00 -0.00000000000E+00 -0.20174133345E+03  0.20174133345E+03  0.00000000000E+00 0.  1.
         23    2    1    2    0    0  0.38964677858E+02 -0.25153479407E+01 -0.12750416341E+03  0.18283864527E+03  0.12509230760E+03 0.  0.
          5    1    3    3  502    0  0.55663397144E+02 -0.32853533777E+02 -0.17006609940E+02  0.66966152979E+02  0.41800000000E+01 0. -1.
         -5    1    3    3    0  502 -0.16698719286E+02  0.30338185836E+02 -0.11049755347E+03  0.11587249229E+03  0.41800000000E+01 0. -1.
        -11    1    1    2    0    0 -0.59588999286E+02  0.77119239732E+01 -0.22323989169E+02  0.64099010131E+02  0.00000000000E+00 0.  1.
         11    1    1    2    0    0  0.20624321428E+02 -0.51965760325E+01  0.30315572173E+02  0.37032431098E+02  0.00000000000E+00 0. -1.
</event>
<event>
 7    1  0.4966153E-006  0.1073240E+03  0.7561462E-02  0.1265607E+00
          1   -1    0    0  501    0  0.00000000000E+00  0.00000000000E+00  0.86785696615E+02  0.86785696615E+02  0.00000000000E+00 0. -1.
         -1   -1    0    0    0  501 -0.00000000000E+00 -0.00000000000E+00 -0.19315092646E+03  0.19315092646E+03  0.00000000000E+00 0.  1.
         23    2    1    2    0    0  0.41079901472E+02 -0.51463180609E+02 -0.80621238703E+02  0.16273918452E+03  0.12509292860E+03 0.  0.
          5    1    3    3  502    0  0.58569784731E+02 -0.57062502812E+02 -0.20094745409E+01  0.81902742924E+02  0.41800000000E+01 0.  1.
         -5    1    3    3    0  502 -0.17489883258E+02  0.55993222030E+01 -0.78611764162E+02  0.80836441597E+02  0.41800000000E+01 0.  1.
        -11    1    1    2    0    0  0.18516754761E+02  0.51085793845E+02 -0.73956504454E+01  0.54839075349E+02  0.00000000000E+00 0. -1.
         11    1    1    2    0    0 -0.59596656233E+02  0.37738676403E+00 -0.18348340692E+02  0.62358363201E+02  0.00000000000E+00 0.  1.
</event>
<event>
 7    1  0.4966153E-006  0.9354908E+02  0.7561462E-02  0.1294478E+00
          1   -1    0    0  501    0  0.00000000000E+00  0.00000000000E+00  0.40623209401E+03  0.40623209401E+03  0.00000000000E+00 0. -1.
         -1   -1    0    0    0  501 -0.00000000000E+00 -0.00000000000E+00 -0.42493866715E+02  0.42493866715E+02  0.00000000000E+00 0.  1.
         23    2    1    2    0    0 -0.57527814600E+02  0.40984299885E+02  0.19003947920E+03  0.23822618421E+03  0.12509016309E+03 0.  0.
          5    1    3    3  502    0 -0.36743385120E+02  0.32644101839E+02  0.20507881825E+03  0.21092773130E+03  0.41800000000E+01 0. -1.
         -5    1    3    3    0  502 -0.20784429480E+02  0.83401980459E+01 -0.15039339055E+02  0.27298452913E+02  0.41800000000E+01 0. -1.
        -11    1    1    2    0    0  0.48286174637E+02  0.20757709917E+02  0.53173205830E+02  0.74765145624E+02  0.00000000000E+00 0. -1.
         11    1    1    2    0    0  0.92416399632E+01 -0.61742009803E+02  0.12052554227E+03  0.13573463089E+03  0.00000000000E+00 0.  1.
</event>
<event>
 7    1  0.4966153E-006  0.1116429E+03  0.7561462E-02  0.1257557E+00
         -1   -1    0    0    0  501 -0.00000000000E+00  0.00000000000E+00  0.10869040323E+03  0.10869040323E+03  0.00000000000E+00 0.  1.
          1   -1    0    0  501    0  0.00000000000E+00 -0.00000000000E+00 -0.24953464901E+03  0.24953464901E+03  0.00000000000E+00 0. -1.
         23    2    1    2    0    0 -0.46773874453E+02 -0.45600858646E+02  0.45311603972E+02  0.14099397542E+03  0.11644280145E+03 0.  0.
          5    1    3    3  502    0  0.36817457921E+02 -0.25302666832E+02  0.28135259893E+01  0.44957073805E+02  0.41800000000E+01 0. -1.
         -5    1    3    3    0  502 -0.83591332374E+02 -0.20298191814E+02  0.42498077982E+02  0.96036901612E+02  0.41800000000E+01 0.  1.
        -11    1    1    2    0    0  0.63148870639E+02  0.30963932469E+02 -0.70773300691E+02  0.99776776194E+02  0.00000000000E+00 0.  1.
         11    1    1    2    0    0 -0.16374996186E+02  0.14636926177E+02 -0.11538254906E+03  0.11745430062E+03  0.00000000000E+00 0. -1.
</event>
<event>
 7    1  0.4966153E-006  0.2183568E+03  0.7561462E-02  0.1135114E+00
          1   -1    0    0  501    0  0.00000000000E+00  0.00000000000E+00  0.69650488722E+03  0.69650488722E+03  0.00000000000E+00 0. -1.
         -1   -1    0    0    0  501 -0.00000000000E+00 -0.00000000000E+00 -0.80540667637E+02  0.80540667637E+02  0.00000000000E+00 0.  1.
         23    2    1    2    0    0 -0.30151967180E+02 -0.20238207869E+03  0.24495053329E+03  0.34281070696E+03  0.12510303812E+03 0.  0.
          5    1    3    3  502    0  0.22158338935E+02 -0.15473144368E+03  0.11265107161E+03  0.19271883142E+03  0.41800000000E+01 0.  1.
         -5    1    3    3    0  502 -0.52310306115E+02 -0.47650635008E+02  0.13229946168E+03  0.15009187554E+03  0.41800000000E+01 0.  1.
        -11    1    1    2    0    0  0.32994227604E+02  0.73669511415E+02  0.22770408047E+03  0.24158841907E+03  0.00000000000E+00 0. -1.
         11    1    1    2    0    0 -0.28422604241E+01  0.12871256727E+03  0.14330960582E+03  0.19264642883E+03  0.00000000000E+00 0.  1.
</event>
<event>
 7    1  0.4966153E-006  0.1456868E+03  0.7561462E-02  0.1205875E+00
          1   -1    0    0  501    0  0.00000000000E+00  0.00000000000E+00  0.16179146068E+03  0.16179146068E+03  0.00000000000E+00 0. -1.
         -1   -1    0    0    0  501 -0.00000000000E+00 -0.00000000000E+00 -0.15728824966E+03  0.15728824966E+03  0.00000000000E+00 0.  1.
         23    2    1    2    0    0 -0.96409175615E+02 -0.59517840762E+02 -0.22532335766E+02  0.17027409602E+03  0.12509380124E+03 0.  0.
          5    1    3    3  502    0 -0.12321860148E+03 -0.27721360923E+02 -0.23144952878E+02  0.12846968064E+03  0.41800000000E+01 0. -1.
         -5    1    3    3    0  502  0.26809425860E+02 -0.31796479839E+02  0.61261711183E+00  0.41804415375E+02  0.41800000000E+01 0. -1.
        -11    1    1    2    0    0  0.15658890111E+02 -0.83294381670E+01 -0.25432211012E+02  0.31006091928E+02  0.00000000000E+00 0.  1.
         11    1    1    2    0    0  0.80750285505E+02  0.67847278929E+02  0.52467757802E+02  0.11779952239E+03  0.00000000000E+00 0. -1.
</event>
<event>
 7    1  0.4966153E-006  0.1154344E+03  0.7561462E-02  0.1250825E+00
          2   -1    0    0  501    0  0.00000000000E+00  0.00000000000E+00  0.53290806130E+03  0.53290806130E+03  0.00000000000E+00 0. -1.
         -2   -1    0    0    0  501 -0.00000000000E+00 -0.00000000000E+00 -0.31033093096E+02  0.31033093096E+02  0.00000000000E+00 0.  1.
         23    2    1    2    0    0  0.68545190657E+02 -0.17721195121E+02  0.25950349789E+03  0.29450738533E+03  0.11991684902E+03 0.  0.
          5    1    3    3  502    0  0.23647854770E+02  0.39991941932E+02  0.18195932123E+03  0.18784366754E+03  0.41800000000E+01 0. -1.
         -5    1    3    3    0  502  0.44897335886E+02 -0.57713137053E+02  0.77544176663E+02  0.10666371779E+03  0.41800000000E+01 0.  1.
        -11    1    1    2    0    0 -0.78743735545E+02 -0.11914020670E+02  0.12720329030E+03  0.15007730288E+03  0.00000000000E+00 0.  1.
         11    1    1    2    0    0  0.10198544889E+02  0.29635215791E+02  0.11516818001E+03  0.11935646619E+03  0.00000000000E+00 0. -1.
</event>
<event>
 6    1  0.4966153E-006  0.1778891E+03  0.7561462E-02  0.1169862E+00
          4   -1    0    0  501    0  0.00000000000E+00  0.00000000000E+00  0.10378252391E+03  0.10378252391E+03  0.00000000000E+00 0. -1.
         -4   -1    0    0    0  501 -0.00000000000E+00 -0.00000000000E+00 -0.32999387446E+03  0.32999387446E+03  0.00000000000E+00 0.  1.
          5    1    1    2  502    0 -0.32511702420E+02  0.39109600125E+02 -0.30723605490E+02  0.59564955725E+02  0.41800000000E+01 0. -1.
         -5    1    1    2    0  502  0.12485518664E+03  0.63763005306E+02 -0.14147353103E+03  0.19921538811E+03  0.41800000000E+01 0.  1.
        -11    1    1    2    0    0 -0.13529813031E+02  0.16568497214E+02 -0.16624677646E+02  0.27091527226E+02  0.00000000000E+00 0.  1.
         11    1    1    2    0    0 -0.78813671191E+02 -0.11944110265E+03 -0.37389536378E+02  0.14790452731E+03  0.00000000000E+00 0. -1.
</event>
<event>
 7    1  0.4966153E-006  0.9538766E+02  0.7561462E-02  0.1290305E+00
         -2   -1    0    0    0  501 -0.00000000000E+00  0.00000000000E+00  0.16084332266E+03  0.16084332266E+03  0.00000000000E+00 0. -1.
          2   -1    0    0  501    0  0.00000000000E+00 -0.00000000000E+00 -0.18227904155E+03  0.18227904155E+03  0.00000000000E+00 0.  1.
         23    2    1    2    0    0  0.14196565064E+02 -0.11910876963E+02  0.11395985692E+03  0.17022851592E+03  0.12508991643E+03 0.  0.
          5    1    3    3  502    0 -0.31945647017E+02  0.75884535205E+01 -0.11526030058E+02  0.35048976577E+02  0.41800000000E+01 0. -1.
         -5    1    3    3    0  502  0.46142212081E+02 -0.19499330484E+02  0.12548588698E+03  0.13517953934E+03  0.41800000000E+01 0. -1.
        -11    1    1    2    0    0  0.90657729568E+01 -0.45011942844E+02 -0.54023719627E+02  0.70900109452E+02  0.00000000000E+00 0.  1.
         11    1    1    2    0    0 -0.23262338021E+02  0.56922819808E+02 -0.81371856186E+02  0.10199373885E+03  0.00000000000E+00 0. -1.
</event>
<event>
 6    1  0.4966153E-006  0.1121859E+03  0.7561462E-02  0.1256575E+00
         -2   -1    0    0    0  501 -0.00000000000E+00  0.00000000000E+00  0.41659607651E+02  0.41659607651E+02  0.00000000000E+00 0.  1.
          2   -1    0    0  501    0  0.00000000000E+00 -0.00000000000E+00 -0.35171727562E+03  0.35171727562E+03  0.00000000000E+00 0. -1.
          5    1    1    2  502    0  0.70320217721E+02  0.37019896940E+02 -0.72797720357E+02  0.10785354087E+03  0.41800000000E+01 0. -1.
         -5    1    1    2    0  502 -0.60496080677E+02 -0.16366979360E+02 -0.88905125300E+02  0.10885424886E+03  0.41800000000E+01 0.  1.
        -11    1    1    2    0    0 -0.43235363052E+02 -0.10570738896E+01 -0.31339205342E+02  0.53409360742E+02  0.00000000000E+00 0.  1.
         11    1    1    2    0    0  0.33411226008E+02 -0.19595843691E+02 -0.11701561697E+03  0.12325973279E+03  0.00000000000E+00 0. -1.
</event>
<event>
 7    1  0.4966153E-006  0.1160835E+03  0.7561462E-02  0.1249702E+00
          2   -1    0    0  501    0  0.00000000000E+00  0.00000000000E+00  0.11902996452E+04  0.11902996452E+04  0.00000000000E+00 0.  1.
         -2   -1    0    0    0  501 -0.00000000000E+00 -0.00000000000E+00 -0.17327902077E+02  0.17327902077E+02  0.00000000000E+00 0. -1.
         23    2    1    2    0    0  0.26366192965E+02  0.88856432372E+02  0.70967799123E+03  0.72655431716E+03  0.12509069846E+03 0.  0.
          5    1    3    3  502    0  0.38404445161E+02  0.69566064980E+02  0.18524922242E+03  0.20161618391E+03  0.41800000000E+01 0.  1.
         -5    1    3    3    0  502 -0.12038252195E+02  0.19290367392E+02  0.52442876881E+03  0.52493813326E+03  0.41800000000E+01 0.  1.
        -11    1    1    2    0    0 -0.33782466483E+02  0.60151654763E+01  0.13141197252E+03  0.13581805395E+03  0.00000000000E+00 0.  1.
         11    1    1    2    0    0  0.74162735177E+01 -0.94871597848E+02  0.33188177941E+03  0.34525517620E+03  0.00000000000E+00 0. -1.
</event>
<event>
 7    1  0.4966153E-006  0.7352912E+02  0.7561462E-02  0.1348487E+00
          2   -1    0    0  501    0  0.00000000000E+00  0.00000000000E+00  0.48343717005E+03  0.48343717005E+03  0.00000000000E+00 0. -1.
         -2   -1    0    0    0  501 -0.00000000000E+00 -0.00000000000E+00 -0.35001293040E+02  0.35001293040E+02  0.00000000000E+00 0.  1.
         23    2    1    2    0    0 -0.18177814432E+02  0.70343184358E+02  0.18249261274E+03  0.23287412794E+03  0.12509280251E+03 0.  0.
          5    1    3    3  502    0 -0.16183412113E+02  0.59156251930E+02  0.20131640986E+03  0.21049259904E+03  0.41800000000E+01 0. -1.
         -5    1    3    3    0  502 -0.19944023197E+01  0.11186932429E+02 -0.18823797128E+02  0.22381528905E+02  0.41800000000E+01 0. -1.
        -11    1    1    2    0    0  0.68022358466E+01 -0.47230303124E+02  0.25158947848E+03  0.25607467198E+03  0.00000000000E+00 0. -1.
         11    1    1    2    0    0  0.11375578586E+02 -0.23112881234E+02  0.14353785788E+02  0.29489663164E+02  0.00000000000E+00 0.  1.
</event>
<event>
 7    1  0.4966153E-006  0.1136382E+03  0.7561462E-02  0.1253977E+00
          1   -1    0    0  501    0  0.00000000000E+00  0.00000000000E+00  0.10922845545E+03  0.10922845545E+03  0.00000000000E+00 0. -1.
         -1   -1    0    0    0  501 -0.00000000000E+00 -0.00000000000E+00 -0.12607706770E+03  0.12607706770E+03  0.00000000000E+00 0.  1.
         23    2    1    2    0    0  0.20098226161E+02  0.41273123065E+02  0.41253813869E+01  0.13331002874E+03  0.12508851110E+03 0.  0.
          5    1    3    3  502    0 -0.13992125138E+02 -0.39654417550E+02 -0.12001414510E+02  0.43929019421E+02  0.41800000000E+01 0. -1.
         -5    1    3    3    0  502  0.34090351298E+02  0.80927540615E+02  0.16126795896E+02  0.89381009323E+02  0.41800000000E+01 0. -1.
        -11    1    1    2    0    0 -0.13942412407E+02 -0.68134665411E+02 -0.40685342852E+01  0.69665461066E+02  0.00000000000E+00 0.  1.
         11    1    1    2    0    0 -0.61558137539E+01  0.26861542345E+02 -0.16905459352E+02  0.32330033344E+02  0.00000000000E+00 0. -1.
</event>
<event>
 7    1  0.4966153E-006  0.1436408E+03  0.7561462E-02  0.1208512E+00
         -4   -1    0    0    0  501 -0.00000000000E+00  0.00000000000E+00  0.14242498560E+03  0.14242498560E+03  0.00000000000E+00 0.  1.
          4   -1    0    0  501    0  0.00000000000E+00 -0.00000000000E+00 -0.20267741179E+03  0.20267741179E+03  0.00000000000E+00 0. -1.
         23    2    1    2    0    0  0.49985570406E+02 -0.11306463907E+03 -0.23755774474E+02  0.17746443619E+03  0.12508844645E+03 0.  0.
          5    1    3    3  502    0  0.34789287137E+02 -0.69795273142E+00  0.35134719539E+02  0.49625623972E+02  0.41800000000E+01 0.  1.
         -5    1    3    3    0  502  0.15196283269E+02 -0.11236668634E+03 -0.58890494013E+02  0.12783881222E+03  0.41800000000E+01 0.  1.
        -11    1    1    2    0    0 -0.16185272945E+01  0.80373392798E+02  0.23672137045E+02  0.83802577363E+02  0.00000000000E+00 0.  1.
         11    1    1    2    0    0 -0.48367043112E+02  0.32691246277E+02 -0.60168788757E+02  0.83835383837E+02  0.00000000000E+00 0. -1.
</event>
<event>
 7    1  0.4966153E-006  0.1203551E+03  0.7561462E-02  0.1242512E+00
         -2   -1    0    0    0  501 -0.00000000000E+00  0.00000000000E+00  0.31610283305E+02  0.31610283305E+02  0.00000000000E+00 0.  1.
          2   -1    0    0  501    0  0.00000000000E+00 -0.00000000000E+00 -0.77720725917E+03  0.77720725917E+03  0.00000000000E+00 0. -1.
         23    2    1    2    0    0 -0.72794763644E+01 -0.76677139495E+02 -0.18767156245E+03  0.23832763367E+03  0.12508825333E+03 0.  0.
          5    1    3    3  502    0 -0.51699692801E+02 -0.19673334566E+02 -0.26153530839E+02  0.61330073406E+02  0.41800000000E+01 0.  1.
         -5    1    3    3    0  502  0.44420216436E+02 -0.57003804928E+02 -0.16151803161E+03  0.17699756027E+03  0.41800000000E+01 0.  1.
        -11    1    1    2    0    0  0.10187258219E+02 -0.16626310033E+02 -0.43597018855E+02  0.47758920301E+02  0.00000000000E+00 0.  1.
         11    1    1    2    0    0 -0.29077818542E+01  0.93303449527E+02 -0.51432839456E+03  0.52273098851E+03  0.00000000000E+00 0. -1.
</event>
<event>
 7    1  0.4966153E-006  0.2060524E+03  0.7561462E-02  0.1144731E+00
          1   -1    0    0  501    0  0.00000000000E+00  0.00000000000E+00  0.72425238717E+03  0.72425238717E+03  0.00000000000E+00 0. -1.
         -1   -1    0    0    0  501 -0.00000000000E+00 -0.00000000000E+00 -0.93479148603E+02  0.93479148603E+02  0.00000000000E+00 0.  1.
         23    2    1    2    0    0 -0.19100466617E+03  0.22782410509E+01  0.10554026097E+03  0.25153570124E+03  0.12507393587E+03 0.  0.
          5    1    3    3  502    0 -0.19913141210E+03 -0.88585957386E+01  0.66899887759E+02  0.21029707888E+03  0.41800000000E+01 0.  1.
         -5    1    3    3    0  502  0.81267459256E+01  0.11136836789E+02  0.38640373210E+02  0.41238622368E+02  0.41800000000E+01 0.  1.
        -11    1    1    2    0    0  0.41978150729E+02 -0.22999518655E+02  0.57267814176E+02  0.74637427190E+02  0.00000000000E+00 0.  1.
         11    1    1    2    0    0  0.14902651544E+03  0.20721277604E+02  0.46796516343E+03  0.49155840734E+03  0.00000000000E+00 0. -1.
</event>
<event>
 7    1  0.4966153E-006  0.1420019E+03  0.7561462E-02  0.1210660E+00
          2   -1    0    0  501    0  0.00000000000E+00  0.00000000000E+00  0.12759240778E+03  0.12759240778E+03  0.00000000000E+00 0. -1.
         -2   -1    0    0    0  501 -0.00000000000E+00 -0.00000000000E+00 -0.21163086158E+03  0.21163086158E+03  0.00000000000E+00 0.  1.
         23    2    1    2    0    0  0.72055599129E+01  0.10619236306E+03 -0.10773874975E+03  0.19642843503E+03  0.12509098220E+03 0.  0.
          5    1    3    3  502    0  0.53492124377E+02  0.16794029250E+02 -0.12101868081E+02  0.57509776559E+02  0.41800000000E+01 0.  1.
         -5    1    3    3    0  502 -0.46286564464E+02  0.89398333812E+02 -0.95636881664E+02  0.13891865848E+03  0.41800000000E+01 0.  1.
        -11    1    1    2    0    0  0.30958307017E+02 -0.39516770313E+02 -0.20429203280E+02  0.54197271665E+02  0.00000000000E+00 0.  1.
         11    1    1    2    0    0 -0.38163866930E+02 -0.66675592749E+02  0.44129499228E+02  0.88597562661E+02  0.00000000000E+00 0. -1.
</event>
<event>
 7    1  0.4966153E-006  0.1031884E+03  0.7561462E-02  0.1273731E+00
         -2   -1    0    0    0  501 -0.00000000000E+00  0.00000000000E+00  0.13960177545E+03  0.13960177545E+03  0.00000000000E+00 0.  1.
          2   -1    0    0  501    0  0.00000000000E+00 -0.00000000000E+00 -0.14945784625E+03  0.14945784625E+03  0.00000000000E+00 0. -1.
         23    2    1    2    0    0 -0.53690939881E+02 -0.12310438086E+01  0.73346105988E+02  0.15463006863E+03  0.12508626769E+03 0.  0.
          5    1    3    3  502    0  0.39476519015E+02 -0.10986264213E+02  0.31953396109E+02  0.52130465928E+02  0.41800000000E+01 0. -1.
         -5    1    3    3    0  502 -0.93167458897E+02  0.97552204041E+01  0.41392709879E+02  0.10249960270E+03  0.41800000000E+01 0. -1.
        -11    1    1    2    0    0  0.25844904740E+02 -0.22930021253E+02  0.85113729810E+01  0.35583541781E+02  0.00000000000E+00 0.  1.
         11    1    1    2    0    0  0.27846035142E+02  0.24161065062E+02 -0.91713549771E+02  0.98846011299E+02  0.00000000000E+00 0. -1.
</event>
<event>
 7    1  0.4966153E-006  0.1203281E+03  0.7561462E-02  0.1242557E+00
         -1   -1    0    0    0  501 -0.00000000000E+00  0.00000000000E+00  0.28569285608E+02  0.28569285608E+02  0.00000000000E+00 0.  1.
          1   -1    0    0  501    0  0.00000000000E+00 -0.00000000000E+00 -0.61052887879E+03  0.61052887879E+03  0.00000000000E+00 0. -1.
         23    2    1    2    0    0 -0.22966411048E+02  0.52103758218E+02 -0.20139687418E+03  0.24382210165E+03  0.12508500577E+03 0.  0.
          5    1    3    3  502    0 -0.66574614373E+02  0.59602841398E+02 -0.15878715388E+03  0.18225122940E+03  0.41800000000E+01 0.  1.
         -5    1    3    3    0  502  0.43608203325E+02 -0.74990831808E+01 -0.42609720303E+02  0.61570872253E+02  0.41800000000E+01 0.  1.
        -11    1    1    2    0    0  0.47281553957E+02 -0.64092984052E+02 -0.29066379828E+03  0.30137833296E+03  0.00000000000E+00 0. -1.
         11    1    1    2    0    0 -0.24315142909E+02  0.11989225835E+02 -0.89898920720E+02  0.93897729778E+02  0.00000000000E+00 0.  1.
</event>
<event>
 7    1  0.4966153E-006  0.1027704E+03  0.7561462E-02  0.1274576E+00
         -1   -1    0    0    0  501 -0.00000000000E+00  0.00000000000E+00  0.16612978775E+03  0.16612978775E+03  0.00000000000E+00 0.  1.
          1   -1    0    0  501    0  0.00000000000E+00 -0.00000000000E+00 -0.10613903043E+03  0.10613903043E+03  0.00000000000E+00 0. -1.
         23    2    1    2    0    0 -0.22003475213E+02 -0.67513147318E+02  0.66275212220E+02  0.15836901578E+03  0.12508462504E+03 0.  0.
          5    1    3    3  502    0  0.29105906519E+02 -0.14686836383E+02  0.77232548631E+02  0.83935665395E+02  0.41800000000E+01 0.  1.
         -5    1    3    3    0  502 -0.51109381732E+02 -0.52826310936E+02 -0.10957336411E+02  0.74433350384E+02  0.41800000000E+01 0.  1.
        -11    1    1    2    0    0  0.47235487257E+02  0.43249567225E+02  0.23214810616E+02  0.68122270613E+02  0.00000000000E+00 0. -1.
         11    1    1    2    0    0 -0.25232012044E+02  0.24263580093E+02 -0.29499265516E+02  0.45777531789E+02  0.00000000000E+00 0.  1.
</event>
<event>
 7    1  0.4966153E-006  0.8644438E+02  0.7561462E-02  0.1311698E+00
          2   -1    0    0  501    0  0.00000000000E+00  0.00000000000E+00  0.56699069062E+02  0.56699069062E+02  0.00000000000E+00 0. -1.
         -2   -1    0    0    0  501 -0.00000000000E+00 -0.00000000000E+00 -0.38733741437E+03  0.38733741437E+03  0.00000000000E+00 0.  1.
         23    2    1    2    0    0 -0.35488824779E+02  0.74079532401E+02 -0.22663580682E+03  0.27158504558E+03  0.12508962485E+03 0.  0.
          5    1    3    3  502    0 -0.39493780908E+02  0.62487864324E+02 -0.39342083106E+02  0.83843686831E+02  0.41800000000E+01 0.  1.
         -5    1    3    3    0  502  0.40049561293E+01  0.11591668077E+02 -0.18729372372E+03  0.18774135875E+03  0.41800000000E+01 0.  1.
        -11    1    1    2    0    0  0.54619084376E+00 -0.28276262943E+02  0.20724672775E+02  0.35062193772E+02  0.00000000000E+00 0. -1.
         11    1    1    2    0    0  0.34942633935E+02 -0.45803269459E+02 -0.12472721126E+03  0.13738924407E+03  0.00000000000E+00 0.  1.
</event>
<event>
 7    1  0.4966153E-006  0.1162163E+03  0.7561462E-02  0.1249473E+00
         -2   -1    0    0    0  501 -0.00000000000E+00  0.00000000000E+00  0.55801192386E+02  0.55801192386E+02  0.00000000000E+00 0.  1.
          2   -1    0    0  501    0  0.00000000000E+00 -0.00000000000E+00 -0.29390593422E+03  0.29390593422E+03  0.00000000000E+00 0. -1.
         23    2    1    2    0    0  0.43603279739E+02  0.15217490845E+02 -0.87224831962E+02  0.15933785820E+03  0.12509022229E+03 0.  0.
          5    1    3    3  502    0  0.23762096836E+02 -0.46262086941E+02 -0.78151895606E+02  0.93968128219E+02  0.41800000000E+01 0.  1.
         -5    1    3    3    0  502  0.19841182903E+02  0.61479577786E+02 -0.90729363567E+01  0.65369729981E+02  0.41800000000E+01 0.  1.
        -11    1    1    2    0    0 -0.77346569580E+02 -0.23381026148E+02 -0.11385270424E+03  0.13961232923E+03  0.00000000000E+00 0.  1.
         11    1    1    2    0    0  0.33743289841E+02  0.81635353028E+01 -0.37027205628E+02  0.50756939176E+02  0.00000000000E+00 0. -1.
</event>
<event>
 7    1  0.4966153E-006  0.1749218E+03  0.7561462E-02  0.1172810E+00
          3   -1    0    0  501    0  0.00000000000E+00  0.00000000000E+00  0.25852346333E+03  0.25852346333E+03  0.00000000000E+00 0. -1.
         -3   -1    0    0    0  501 -0.00000000000E+00 -0.00000000000E+00 -0.15267459267E+03  0.15267459267E+03  0.00000000000E+00 0.  1.
         23    2    1    2    0    0 -0.12800611490E+02 -0.16547693834E+03  0.38996113083E+02  0.21145911739E+03  0.12509112165E+03 0.  0.
          5    1    3    3  502    0 -0.41384839980E+02 -0.13209582767E+03 -0.17685403134E+02  0.13961467886E+03  0.41800000000E+01 0.  1.
         -5    1    3    3    0  502  0.28584228490E+02 -0.33381110668E+02  0.56681516217E+02  0.71844438535E+02  0.41800000000E+01 0.  1.
        -11    1    1    2    0    0  0.18293816647E+02  0.11713511196E+03  0.87028169919E+02  0.14706869327E+03  0.00000000000E+00 0. -1.
         11    1    1    2    0    0 -0.54932051570E+01  0.48341826379E+02 -0.20175412344E+02  0.52670245336E+02  0.00000000000E+00 0.  1.
</event>
<event>
 7    1  0.9765078E-006  0.2186316E+03  0.7561462E-02  0.1134907E+00
         -2   -1    0    0    0  501 -0.00000000000E+00  0.00000000000E+00  0.80135323794E+02  0.80135323794E+02  0.00000000000E+00 0.  1.
          2   -1    0    0  501    0  0.00000000000E+00 -0.00000000000E+00 -0.76561975564E+03  0.76561975564E+03  0.00000000000E+00 0. -1.
         23    2    1    2    0    0 -0.58341706182E+02  0.19892128762E+03 -0.21304964015E+03  0.32250715903E+03  0.12508910868E+03 0.  0.
          5    1    3    3  502    0 -0.26803823543E+02  0.18216114955E+03 -0.21890677173E+03  0.28607477427E+03  0.41800000000E+01 0.  1.
         -5    1    3    3    0  502 -0.31537882639E+02  0.16760138063E+02  0.58571315778E+01  0.36432384764E+02  0.41800000000E+01 0.  1.
        -11    1    1    2    0    0  0.62725731162E+02 -0.99529704584E+02 -0.32268488617E+03  0.34346210156E+03  0.00000000000E+00 0.  1.
         11    1    1    2    0    0 -0.43840249802E+01 -0.99391583032E+02 -0.14974990552E+03  0.17978581884E+03  0.00000000000E+00 0. -1.
</event>
<event>
 7    1  0.4966153E-006  0.8642726E+02  0.7561462E-02  0.1311742E+00
          2   -1    0    0  501    0  0.00000000000E+00  0.00000000000E+00  0.60177259141E+02  0.60177259141E+02  0.00000000000E+00 0. -1.
         -2   -1    0    0    0  501 -0.00000000000E+00 -0.00000000000E+00 -0.21463137321E+03  0.21463137321E+03  0.00000000000E+00 0.  1.
         23    2    1    2    0    0  0.12601105512E+02  0.20575515940E+02 -0.11886435310E+03  0.17423448001E+03  0.12508708915E+03 0.  0.
          5    1    3    3  502    0  0.29406319510E+01 -0.37242380566E+02  0.42322465461E+01  0.37828911395E+02  0.41800000000E+01 0.  1.
         -5    1    3    3    0  502  0.96604735615E+01  0.57817896506E+02 -0.12309659964E+03  0.13640556862E+03  0.41800000000E+01 0.  1.
        -11    1    1    2    0    0  0.62879831032E+01 -0.45101703222E+02 -0.48950602762E+02  0.66857040585E+02  0.00000000000E+00 0.  1.
         11    1    1    2    0    0 -0.18889088616E+02  0.24526187282E+02  0.13360841796E+02  0.33717111751E+02  0.00000000000E+00 0. -1.
</event>
<event>
 7    1  0.4966153E-006  0.1126167E+03  0.7561462E-02  0.1255800E+00
         -1   -1    0    0    0  501 -0.00000000000E+00  0.00000000000E+00  0.10006992226E+03  0.10006992226E+03  0.00000000000E+00 0.  1.
          1   -1    0    0  501    0  0.00000000000E+00 -0.00000000000E+00 -0.15633116200E+03  0.15633116200E+03  0.00000000000E+00 0. -1.
         23    2    1    2    0    0  0.24819641283E+02  0.41963217678E+02  0.99801080911E+01  0.13462675773E+03  0.12509130709E+03 0.  0.
          5    1    3    3  502    0  0.54919721253E+02 -0.17242642883E+02 -0.20741661811E+02  0.61328406557E+02  0.41800000000E+01 0. -1.
         -5    1    3    3    0  502 -0.30100079970E+02  0.59205860560E+02  0.30721769903E+02  0.73298351174E+02  0.41800000000E+01 0. -1.
        -11    1    1    2    0    0 -0.54410852419E+01 -0.68164107897E+02 -0.53342514074E+02  0.86725860167E+02  0.00000000000E+00 0. -1.
         11    1    1    2    0    0 -0.19378556041E+02  0.26200890219E+02 -0.12898833753E+02  0.35048466368E+02  0.00000000000E+00 0.  1.
</event>
<event>
 7    1  0.4966153E-006  0.1284984E+03  0.7561462E-02  0.1229701E+00
         -1   -1    0    0    0  501 -0.00000000000E+00  0.00000000000E+00  0.16929200072E+03  0.16929200072E+03  0.00000000000E+00 0.  1.
          1   -1    0    0  501    0  0.00000000000E+00 -0.00000000000E+00 -0.27180761501E+03  0.27180761501E+03  0.00000000000E+00 0. -1.
         23    2    1    2    0    0 -0.78521396892E+02 -0.69128176056E+01  0.11743084296E+03  0.18881315813E+03  0.12508800497E+03 0.  0.
          5    1    3    3  502    0  0.26920221086E+02  0.13442571702E+02  0.59301332813E+02  0.66629734433E+02  0.41800000000E+01 0. -1.
         -5    1    3    3    0  502 -0.10544161798E+03 -0.20355389307E+02  0.58129510151E+02  0.12218342370E+03  0.41800000000E+01 0. -1.
        -11    1    1    2    0    0  0.17264865052E+01  0.36728019015E+02 -0.10195448129E+03  0.10838193757E+03  0.00000000000E+00 0. -1.
         11    1    1    2    0    0  0.76794910387E+02 -0.29815201410E+02 -0.11799197596E+03  0.14390452004E+03  0.00000000000E+00 0.  1.
</event>
<event>
 7    1  0.4966153E-006  0.1406964E+03  0.7561462E-02  0.1212395E+00
          3   -1    0    0  501    0  0.00000000000E+00  0.00000000000E+00  0.66221941073E+02  0.66221941073E+02  0.00000000000E+00 0. -1.
         -3   -1    0    0    0  501 -0.00000000000E+00 -0.00000000000E+00 -0.36432109706E+03  0.36432109706E+03  0.00000000000E+00 0.  1.
         23    2    1    2    0    0 -0.10423177472E+03  0.30275962538E+02 -0.18555319890E+03  0.24871310905E+03  0.12508926502E+03 0.  0.
          5    1    3    3  502    0 -0.10083115355E+01  0.43800046624E+02 -0.11432414361E+03  0.12250282849E+03  0.41800000000E+01 0. -1.
         -5    1    3    3    0  502 -0.10322346318E+03 -0.13524084086E+02 -0.71229055300E+02  0.12621028057E+03  0.41800000000E+01 0. -1.
        -11    1    1    2    0    0  0.10816524327E+02 -0.37951266581E+02 -0.59872611039E+01  0.39914197088E+02  0.00000000000E+00 0. -1.
         11    1    1    2    0    0  0.93415250392E+02  0.76753040425E+01 -0.10655869598E+03  0.14191573199E+03  0.00000000000E+00 0.  1.
</event>
<event>
 7    1  0.4966153E-006  0.3617153E+03  0.7561462E-02  0.1057907E+00
         -1   -1    0    0    0  501 -0.00000000000E+00  0.00000000000E+00  0.25684763641E+03  0.25684763641E+03  0.00000000000E+00 0.  1.
          1   -1    0    0  501    0  0.00000000000E+00 -0.00000000000E+00 -0.53365493749E+03  0.53365493749E+03  0.00000000000E+00 0. -1.
         23    2    1    2    0    0  0.29886691763E+03 -0.18895392990E+03 -0.14132868771E+03  0.40080850038E+03  0.12509449998E+03 0.  0.
          5    1    3    3  502    0  0.76823648173E+02 -0.10788802707E+03 -0.86103338551E+02  0.15802834117E+03  0.41800000000E+01 0.  1.
         -5    1    3    3    0  502  0.22204326946E+03 -0.81065902824E+02 -0.55225349158E+02  0.24278015920E+03  0.41800000000E+01 0.  1.
        -11    1    1    2    0    0 -0.17257006313E+03  0.12386254041E+03 -0.34074498192E+02  0.21513583391E+03  0.00000000000E+00 0.  1.
         11    1    1    2    0    0 -0.12629685451E+03  0.65091389489E+02 -0.10140411518E+03  0.17455823962E+03  0.00000000000E+00 0. -1.
</event>
<event>
 7    1  0.4966153E-006  0.1515071E+03  0.7561462E-02  0.1198633E+00
         -2   -1    0    0    0  501 -0.00000000000E+00  0.00000000000E+00  0.12800395907E+03  0.12800395907E+03  0.00000000000E+00 0.  1.
          2   -1    0    0  501    0  0.00000000000E+00 -0.00000000000E+00 -0.32257715410E+03  0.32257715410E+03  0.00000000000E+00 0. -1.
         23    2    1    2    0    0 -0.39307848120E+02 -0.99640633517E+02  0.47097388276E+02  0.17128388929E+03  0.12508654594E+03 0.  0.
          5    1    3    3  502    0 -0.57860699870E+02  0.38519143987E+01  0.27227119555E+02  0.64198802740E+02  0.41800000000E+01 0.  1.
         -5    1    3    3    0  502  0.18552851749E+02 -0.10349254792E+03  0.19870268721E+02  0.10708508655E+03  0.41800000000E+01 0.  1.
        -11    1    1    2    0    0  0.27339317200E+02  0.11611302144E+03 -0.21306403882E+03  0.24418426782E+03  0.00000000000E+00 0.  1.
         11    1    1    2    0    0  0.11968530920E+02 -0.16472387920E+02 -0.28606544482E+02  0.35112956062E+02  0.00000000000E+00 0. -1.
</event>
<event>
 7    1  0.4966153E-006  0.1814701E+03  0.7561462E-02  0.1166388E+00
         -1   -1    0    0    0  501 -0.00000000000E+00  0.00000000000E+00  0.97480459949E+02  0.97480459949E+02  0.00000000000E+00 0.  1.
          1   -1    0    0  501    0  0.00000000000E+00 -0.00000000000E+00 -0.41190242166E+03  0.41190242166E+03  0.00000000000E+00 0. -1.
         23    2    1    2    0    0  0.14449795689E+03  0.43385369381E+02 -0.74637851170E+02  0.20971559252E+03  0.12509145093E+03 0.  0.
          5    1    3    3  502    0 -0.22910920363E+02  0.90668357095E+01 -0.79379623284E+01  0.26222155281E+02  0.41800000000E+01 0. -1.
         -5    1    3    3    0  502  0.16740887726E+03  0.34318533672E+02 -0.66699888841E+02  0.18349343724E+03  0.41800000000E+01 0. -1.
        -11    1    1    2    0    0 -0.12237320400E+03 -0.62822600596E+02 -0.23113949199E+03  0.26897461769E+03  0.00000000000E+00 0. -1.
         11    1    1    2    0    0 -0.22124752894E+02  0.19437231214E+02 -0.86446185483E+01  0.30692671401E+02  0.00000000000E+00 0.  1.
</event>
<event>
 7    1  0.4966153E-006  0.9870582E+02  0.7561462E-02  0.1283041E+00
          1   -1    0    0  501    0  0.00000000000E+00  0.00000000000E+00  0.98308133003E+02  0.98308133003E+02  0.00000000000E+00 0. -1.
         -1   -1    0    0    0  501 -0.00000000000E+00 -0.00000000000E+00 -0.20245498470E+03  0.20245498470E+03  0.00000000000E+00 0.  1.
         23    2    1    2    0    0  0.19823025599E+02 -0.77986458261E+02 -0.10202604293E+03  0.18035153652E+03  0.12507007345E+03 0.  0.
          5    1    3    3  502    0  0.52867976785E+01 -0.34583483896E+02 -0.12435622387E+03  0.12925134585E+03  0.41800000000E+01 0. -1.
         -5    1    3    3    0  502  0.14536227921E+02 -0.43402974365E+02  0.22330180939E+02  0.51100190671E+02  0.41800000000E+01 0. -1.
        -11    1    1    2    0    0 -0.46433332714E+02  0.16604702963E+02 -0.16465714263E+02  0.51989328651E+02  0.00000000000E+00 0.  1.
         11    1    1    2    0    0  0.26610307114E+02  0.61381755297E+02  0.14344905498E+02  0.68422252534E+02  0.00000000000E+00 0. -1.
</event>
<event>
 7    1  0.4966153E-006  0.1314480E+03  0.7561462E-02  0.1225323E+00
          2   -1    0    0  501    0  0.00000000000E+00  0.00000000000E+00  0.84279012887E+03  0.84279012887E+03  0.00000000000E+00 0. -1.
         -2   -1    0    0    0  501 -0.00000000000E+00 -0.00000000000E+00 -0.31851522421E+02  0.31851522421E+02  0.00000000000E+00 0.  1.
         23    2    1    2    0    0 -0.10572718754E+03  0.61242184777E+02  0.40815189164E+03  0.44402940374E+03  0.12508117905E+03 0.  0.
          5    1    3    3  502    0 -0.79349753685E+02  0.56700256465E+02  0.40518461458E+03  0.41677733478E+03  0.41800000000E+01 0.  1.
         -5    1    3    3    0  502 -0.26377433856E+02  0.45419283122E+01  0.29672770646E+01  0.27252068964E+02  0.41800000000E+01 0.  1.
        -11    1    1    2    0    0  0.55067779767E+02 -0.67536618078E+02  0.15683057586E+03  0.17941428225E+03  0.00000000000E+00 0.  1.
         11    1    1    2    0    0  0.50659407774E+02  0.62944333013E+01  0.24595613895E+03  0.25119796530E+03  0.00000000000E+00 0. -1.
</event>
<event>
 7    1  0.4966153E-006  0.1229004E+03  0.7561462E-02  0.1238387E+00
         -3   -1    0    0    0  501 -0.00000000000E+00  0.00000000000E+00  0.13708247668E+03  0.13708247668E+03  0.00000000000E+00 0.  1.
          3   -1    0    0  501    0  0.00000000000E+00 -0.00000000000E+00 -0.11259635773E+03  0.11259635773E+03  0.00000000000E+00 0. -1.
         23    2    1    2    0    0  0.59598115876E+02  0.83077990426E+00  0.75164511620E+01  0.13876748334E+03  0.12508913535E+03 0.  0.
          5    1    3    3  502    0  0.87114990217E+02  0.33579967567E+02 -0.61764508930E+01  0.93660326115E+02  0.41800000000E+01 0. -1.
         -5    1    3    3    0  502 -0.27516874342E+02 -0.32749187663E+02  0.13692902055E+02  0.45107157224E+02  0.41800000000E+01 0. -1.
        -11    1    1    2    0    0 -0.68768838498E+02  0.31586731158E+02  0.15113461413E+02  0.77170534853E+02  0.00000000000E+00 0.  1.
         11    1    1    2    0    0  0.91707226223E+01 -0.32417511062E+02  0.18562063829E+01  0.33740816217E+02  0.00000000000E+00 0. -1.
</event>
<event>
 7    1  0.4966153E-006  0.2400527E+03  0.7561462E-02  0.1119758E+00
          1   -1    0    0  501    0  0.00000000000E+00  0.00000000000E+00  0.43388932326E+03  0.43388932326E+03  0.00000000000E+00 0. -1.
         -1   -1    0    0    0  501 -0.00000000000E+00 -0.00000000000E+00 -0.14895604585E+03  0.14895604585E+03  0.00000000000E+00 0.  1.
         23    2    1    2    0    0  0.11091610395E+02 -0.22916490061E+03  0.12855876248E+03  0.29123076692E+03  0.12509367967E+03 0.  0.
          5    1    3    3  502    0 -0.14061502436E+02 -0.15188477374E+03  0.17562556916E+02  0.15359891325E+03  0.41800000000E+01 0. -1.
         -5    1    3    3    0  502  0.25153112831E+02 -0.77280126869E+02  0.11099620557E+03  0.13763185367E+03  0.41800000000E+01 0. -1.
        -11    1    1    2    0    0 -0.42355509342E+02  0.56228831002E+02  0.45687217821E+02  0.83922538568E+02  0.00000000000E+00 0. -1.
         11    1    1    2    0    0  0.31263898947E+02  0.17293606961E+03  0.11068729711E+03  0.20769206362E+03  0.00000000000E+00 0.  1.
</event>
<event>
 7    1  0.4966153E-006  0.2038685E+03  0.7561462E-02  0.1146516E+00
          2   -1    0    0  501    0  0.00000000000E+00  0.00000000000E+00  0.80159801813E+02  0.80159801813E+02  0.00000000000E+00 0. -1.
         -2   -1    0    0    0  501 -0.00000000000E+00 -0.00000000000E+00 -0.61852470177E+03  0.61852470177E+03  0.00000000000E+00 0.  1.
         23    2    1    2    0    0  0.11076543598E+03  0.15201840160E+03 -0.34975335486E+03  0.41635741127E+03  0.12509000140E+03 0.  0.
          5    1    3    3  502    0  0.58596270476E+02  0.31928632795E+02 -0.35079218064E+02  0.75504863723E+02  0.41800000000E+01 0.  1.
         -5    1    3    3    0  502  0.52169165503E+02  0.12008976880E+03 -0.31467413680E+03  0.34085254755E+03  0.41800000000E+01 0.  1.
        -11    1    1    2    0    0 -0.11987977843E+03 -0.97278125665E+02 -0.14414742580E+03  0.21121712850E+03  0.00000000000E+00 0. -1.
         11    1    1    2    0    0  0.91143424556E+01 -0.54740275933E+02 -0.44464119300E+02  0.71109963808E+02  0.00000000000E+00 0.  1.
</event>
<event>
 7    1  0.4966153E-006  0.1060135E+03  0.7561462E-02  0.1268135E+00
         -1   -1    0    0    0  501 -0.00000000000E+00  0.00000000000E+00  0.35418747439E+02  0.35418747439E+02  0.00000000000E+00 0.  1.
          1   -1    0    0  501    0  0.00000000000E+00 -0.00000000000E+00 -0.42027126583E+03  0.42027126583E+03  0.00000000000E+00 0. -1.
         23    2    1    2    0    0  0.45231600931E+02  0.32543142555E+02 -0.20941008267E+03  0.25020722580E+03  0.12508444855E+03 0.  0.
          5    1    3    3  502    0  0.17916886446E+02  0.79959897920E+02 -0.12646518272E+03  0.15074984224E+03  0.41800000000E+01 0.  1.
         -5    1    3    3    0  502  0.27314714484E+02 -0.47416755366E+02 -0.82944899951E+02  0.99457383561E+02  0.41800000000E+01 0.  1.
        -11    1    1    2    0    0 -0.19563749317E+02  0.12526672035E+02 -0.73845935382E+00  0.23242270152E+02  0.00000000000E+00 0.  1.
         11    1    1    2    0    0 -0.25667851613E+02 -0.45069814589E+02 -0.17470397636E+03  0.18224051731E+03  0.00000000000E+00 0. -1.
</event>
<event>
 7    1  0.4966153E-006  0.7579393E+02  0.7561462E-02  0.1341430E+00
         -1   -1    0    0    0  501 -0.00000000000E+00  0.00000000000E+00  0.36315491298E+02  0.36315491298E+02  0.00000000000E+00 0.  1.
          1   -1    0    0  501    0  0.00000000000E+00 -0.00000000000E+00 -0.39266325084E+03  0.39266325084E+03  0.00000000000E+00 0. -1.
         23    2    1    2    0    0  0.49267500993E+02  0.11329946958E+02 -0.18999166338E+03  0.23302319162E+03  0.12508925345E+03 0.  0.
          5    1    3    3  502    0  0.36747548124E+02  0.23581583623E+02 -0.20496300082E+03  0.20960385846E+03  0.41800000000E+01 0. -1.
         -5    1    3    3    0  502  0.12519952869E+02 -0.12251636665E+02  0.14971337438E+02  0.23419333157E+02  0.41800000000E+01 0. -1.
        -11    1    1    2    0    0 -0.35044672858E+02 -0.42719418777E+02 -0.49707694186E+02  0.74323163938E+02  0.00000000000E+00 0.  1.
         11    1    1    2    0    0 -0.14222828135E+02  0.31389471819E+02 -0.11664840198E+03  0.12163238658E+03  0.00000000000E+00 0. -1.
</event>
<event>
 7    1  0.4966153E-006  0.2268805E+03  0.7561462E-02  0.1128855E+00
          2   -1    0    0  501    0  0.00000000000E+00  0.00000000000E+00  0.12934325082E+03  0.12934325082E+03  0.00000000000E+00 0. -1.
         -2   -1    0    0    0  501 -0.00000000000E+00 -0.00000000000E+00 -0.98726543910E+03  0.98726543910E+03  0.00000000000E+00 0.  1.
         23    2    1    2    0    0  0.18297200527E+03 -0.10362354864E+03 -0.85250788408E+03  0.88692350897E+03  0.12508806424E+03 0.  0.
          5    1    3    3  502    0  0.76035799512E+02 -0.11241074994E+03 -0.52438572702E+03  0.54167839408E+03  0.41800000000E+01 0.  1.
         -5    1    3    3    0  502  0.10693620576E+03  0.87872012974E+01 -0.32812215706E+03  0.34524511490E+03  0.41800000000E+01 0.  1.
        -11    1    1    2    0    0 -0.56182437502E+02  0.38144977997E+02 -0.45161286743E+02  0.81553954229E+02  0.00000000000E+00 0.  1.
         11    1    1    2    0    0 -0.12678956777E+03  0.65478570644E+02  0.39746982536E+02  0.14813122672E+03  0.00000000000E+00 0. -1.
</event>
<event>
 7    1  0.4966153E-006  0.9510984E+02  0.7561462E-02  0.1290929E+00
         -1   -1    0    0    0  501 -0.00000000000E+00  0.00000000000E+00  0.30332045023E+02  0.30332045023E+02  0.00000000000E+00 0.  1.
          1   -1    0    0  501    0  0.00000000000E+00 -0.00000000000E+00 -0.43491709263E+03  0.43491709263E+03  0.00000000000E+00 0. -1.
         23    2    1    2    0    0  0.37068240240E+02  0.18638120285E+01 -0.23947549862E+03  0.27271391252E+03  0.12508731117E+03 0.  0.
          5    1    3    3  502    0 -0.13464651381E+02 -0.37328534915E+02 -0.18298174545E+03  0.18728189427E+03  0.41800000000E+01 0.  1.
         -5    1    3    3    0  502  0.50532891621E+02  0.39192346944E+02 -0.56493753169E+02  0.85432018246E+02  0.41800000000E+01 0.  1.
        -11    1    1    2    0    0  0.24048653553E+02  0.55070190784E+01 -0.11839998350E+02  0.27365133980E+02  0.00000000000E+00 0. -1.
         11    1    1    2    0    0 -0.61116893793E+02 -0.73708311069E+01 -0.15326955064E+03  0.16517009115E+03  0.00000000000E+00 0.  1.
</event>
<event>
 7    1  0.4966153E-006  0.2033745E+03  0.7561462E-02  0.1146923E+00
         -1   -1    0    0    0  501 -0.00000000000E+00  0.00000000000E+00  0.75552263739E+02  0.75552263739E+02  0.00000000000E+00 0.  1.
          1   -1    0    0  501    0  0.00000000000E+00 -0.00000000000E+00 -0.61236947297E+03  0.61236947297E+03  0.00000000000E+00 0. -1.
         23    2    1    2    0    0 -0.16066530871E+03 -0.89725128161E+02 -0.28818787172E+03  0.36409359850E+03  0.12509180237E+03 0.  0.
          5    1    3    3  502    0 -0.83062067881E+02 -0.11397944590E+03 -0.18168137462E+03  0.23003524837E+03  0.41800000000E+01 0.  1.
         -5    1    3    3    0  502 -0.77603240826E+02  0.24254317742E+02 -0.10650649710E+03  0.13405835013E+03  0.41800000000E+01 0.  1.
        -11    1    1    2    0    0  0.56972602264E+02  0.36775850440E+02 -0.26061985113E+02  0.72646869529E+02  0.00000000000E+00 0.  1.
         11    1    1    2    0    0  0.10369270644E+03  0.52949277721E+02 -0.22256735240E+03  0.25118126868E+03  0.00000000000E+00 0. -1.
</event>
<event>
 7    1  0.4966153E-006  0.3521796E+03  0.7561462E-02  0.1061724E+00
          4   -1    0    0  501    0  0.00000000000E+00  0.00000000000E+00  0.99189117149E+03  0.99189117149E+03  0.00000000000E+00 0. -1.
         -4   -1    0    0    0  501 -0.00000000000E+00 -0.00000000000E+00 -0.13432453788E+03  0.13432453788E+03  0.00000000000E+00 0.  1.
         23    2    1    2    0    0  0.44210112773E+02  0.33637356036E+03  0.55442832227E+03  0.66192119724E+03  0.12508877106E+03 0.  0.
          5    1    3    3  502    0 -0.38647022309E+02  0.15810564526E+03  0.28733251740E+03  0.33025510647E+03  0.41800000000E+01 0. -1.
         -5    1    3    3    0  502  0.82857135082E+02  0.17826791510E+03  0.26709580487E+03  0.33166609077E+03  0.41800000000E+01 0. -1.
        -11    1    1    2    0    0 -0.32160904564E+02 -0.58291326832E+02  0.98215021795E+02  0.11865240441E+03  0.00000000000E+00 0. -1.
         11    1    1    2    0    0 -0.12049208208E+02 -0.27808223353E+03  0.20492328955E+03  0.34564210771E+03  0.00000000000E+00 0.  1.
</event>
<event>
 7    1  0.4966153E-006  0.1579277E+03  0.7561462E-02  0.1191056E+00
         -1   -1    0    0    0  501 -0.00000000000E+00  0.00000000000E+00  0.20651394542E+03  0.20651394542E+03  0.00000000000E+00 0.  1.
          1   -1    0    0  501    0  0.00000000000E+00 -0.00000000000E+00 -0.21391255278E+03  0.21391255278E+03  0.00000000000E+00 0. -1.
         23    2    1    2    0    0  0.10465057404E+03 -0.46296556033E+02  0.11295030358E+03  0.20371401800E+03  0.12508603560E+03 0.  0.
          5    1    3    3  502    0 -0.11011059907E+01 -0.37365004831E+02  0.86404016026E+02  0.94236311504E+02  0.41800000000E+01 0. -1.
         -5    1    3    3    0  502  0.10575168003E+03 -0.89315512028E+01  0.26546287551E+02  0.10947770650E+03  0.41800000000E+01 0. -1.
        -11    1    1    2    0    0 -0.27271888569E+02  0.82289162686E+02 -0.28307304695E+02  0.91195206567E+02  0.00000000000E+00 0.  1.
         11    1    1    2    0    0 -0.77378685474E+02 -0.35992606652E+02 -0.92041606243E+02  0.12551727363E+03  0.00000000000E+00 0. -1.
</event>
<event>
 7    1  0.4966153E-006  0.1025165E+03  0.7561462E-02  0.1275091E+00
         -1   -1    0    0    0  501 -0.00000000000E+00  0.00000000000E+00  0.87128082212E+02  0.87128082212E+02  0.00000000000E+00 0.  1.
          1   -1    0    0  501    0  0.00000000000E+00 -0.00000000000E+00 -0.14337699932E+03  0.14337699932E+03  0.00000000000E+00 0. -1.
         23    2    1    2    0    0  0.31983070252E+02 -0.78590641915E+01 -0.24703778667E+01  0.11963573798E+03  0.11498663124E+03 0.  0.
          5    1    3    3  502    0 -0.39413119482E+02 -0.15233718909E+02 -0.17935619631E+02  0.46093589908E+02  0.41800000000E+01 0. -1.
         -5    1    3    3    0  502  0.71396189733E+02  0.73746547171E+01  0.15465241764E+02  0.73542148075E+02  0.41800000000E+01 0.  1.
        -11    1    1    2    0    0  0.27934550223E+02 -0.72925707397E+01 -0.36804671696E+02  0.46777179722E+02  0.00000000000E+00 0.  1.
         11    1    1    2    0    0 -0.59917620474E+02  0.15151634931E+02 -0.16973867544E+02  0.64092163825E+02  0.00000000000E+00 0. -1.
</event>
<event>
 7    1  0.4966153E-006  0.1086254E+03  0.7561462E-02  0.1263137E+00
          1   -1    0    0  501    0  0.00000000000E+00  0.00000000000E+00  0.53214274255E+02  0.53214274255E+02  0.00000000000E+00 0. -1.
         -1   -1    0    0    0  501 -0.00000000000E+00 -0.00000000000E+00 -0.30354760972E+03  0.30354760972E+03  0.00000000000E+00 0.  1.
         23    2    1    2    0    0  0.34322429481E+02  0.54933498142E+02 -0.15689304407E+03  0.21085363861E+03  0.12509241085E+03 0.  0.
          5    1    3    3  502    0  0.73249773805E+02  0.61824134967E+02 -0.13454364232E+03  0.16524895496E+03  0.41800000000E+01 0.  1.
         -5    1    3    3    0  502 -0.38927344325E+02 -0.68906368259E+01 -0.22349401751E+02  0.45604683648E+02  0.41800000000E+01 0.  1.
        -11    1    1    2    0    0 -0.28432371537E+02 -0.64404261161E+02 -0.10716640300E+03  0.12822225446E+03  0.00000000000E+00 0.  1.
         11    1    1    2    0    0 -0.58900579437E+01  0.94707630190E+01  0.13726111601E+02  0.17685990909E+02  0.00000000000E+00 0. -1.
</event>
<event>
 7    1  0.4966153E-006  0.1693684E+03  0.7561462E-02  0.1178508E+00
         -1   -1    0    0    0  501 -0.00000000000E+00  0.00000000000E+00  0.72212040712E+02  0.72212040712E+02  0.00000000000E+00 0.  1.
          1   -1    0    0  501    0  0.00000000000E+00 -0.00000000000E+00 -0.55186190692E+03  0.55186190692E+03  0.00000000000E+00 0. -1.
         23    2    1    2    0    0  0.90726143083E+02  0.13575782238E+03 -0.30656458691E+03  0.36917557045E+03  0.12508931406E+03 0.  0.
          5    1    3    3  502    0  0.24693645310E+02  0.93027656866E+01  0.43508361045E+01  0.27068796481E+02  0.41800000000E+01 0.  1.
         -5    1    3    3    0  502  0.66032497773E+02  0.12645505670E+03 -0.31091542301E+03  0.34210677397E+03  0.41800000000E+01 0.  1.
        -11    1    1    2    0    0 -0.13528795610E+02 -0.58653214692E+02 -0.11846939500E+03  0.13288425586E+03  0.00000000000E+00 0.  1.
         11    1    1    2    0    0 -0.77197347473E+02 -0.77104607690E+02 -0.54615884298E+02  0.12201412132E+03  0.00000000000E+00 0. -1.
</event>
<event>
 7    1  0.4966153E-006  0.1120103E+03  0.7561462E-02  0.1256892E+00
         -2   -1    0    0    0  501 -0.00000000000E+00  0.00000000000E+00  0.10433150312E+03  0.10433150312E+03  0.00000000000E+00 0. -1.
          2   -1    0    0  501    0  0.00000000000E+00 -0.00000000000E+00 -0.14381767551E+03  0.14381767551E+03  0.00000000000E+00 0.  1.
         23    2    1    2    0    0  0.44562238401E+02  0.24618104325E+02 -0.50273249298E+02  0.14410197325E+03  0.12508451122E+03 0.  0.
          5    1    3    3  502    0 -0.75391515588E+01  0.59462171006E+02 -0.54530486060E+02  0.81139601287E+02  0.41800000000E+01 0.  1.
         -5    1    3    3    0  502  0.52101389960E+02 -0.34844066681E+02  0.42572367628E+01  0.62962371965E+02  0.41800000000E+01 0.  1.
        -11    1    1    2    0    0  0.26646537644E+02 -0.37084033706E+01 -0.68569154661E+01  0.27763420424E+02  0.00000000000E+00 0. -1.
         11    1    1    2    0    0 -0.71208776044E+02 -0.20909700954E+02  0.17643992367E+02  0.76283784951E+02  0.00000000000E+00 0.  1.
</event>
<event>
 7    1  0.4966153E-006  0.1237709E+03  0.7561462E-02  0.1237003E+00
         -1   -1    0    0    0  501 -0.00000000000E+00  0.00000000000E+00  0.60424274168E+02  0.60424274168E+02  0.00000000000E+00 0.  1.
          1   -1    0    0  501    0  0.00000000000E+00 -0.00000000000E+00 -0.44803735416E+03  0.44803735416E+03  0.00000000000E+00 0. -1.
         23    2    1    2    0    0  0.58466096094E+02 -0.61626731778E+02 -0.73067321097E+02  0.16793770107E+03  0.12509236414E+03 0.  0.
          5    1    3    3  502    0  0.65171742656E+02 -0.83185367843E+01 -0.89947150768E+02  0.11146531490E+03  0.41800000000E+01 0. -1.
         -5    1    3    3    0  502 -0.67056465619E+01 -0.53308194993E+02  0.16879829672E+02  0.56472386164E+02  0.41800000000E+01 0. -1.
        -11    1    1    2    0    0 -0.15787839141E+02  0.79861666197E+02 -0.16582375387E+03  0.18472860889E+03  0.00000000000E+00 0.  1.
         11    1    1    2    0    0 -0.42678256952E+02 -0.18234934419E+02 -0.14872200503E+03  0.15579531838E+03  0.00000000000E+00 0. -1.
</event>
<event>
 7    1  0.4966153E-006  0.1528769E+03  0.7561462E-02  0.1196982E+00
         -1   -1    0    0    0  501 -0.00000000000E+00  0.00000000000E+00  0.37681191251E+02  0.37681191251E+02  0.00000000000E+00 0.  1.
          1   -1    0    0  501    0  0.00000000000E+00 -0.00000000000E+00 -0.64710386881E+03  0.64710386881E+03  0.00000000000E+00 0. -1.
         23    2    1    2    0    0  0.31125239866E+02  0.10774397033E+03 -0.31233848084E+03  0.35465530678E+03  0.12509003284E+03 0.  0.
          5    1    3    3  502    0 -0.37524614270E+02 -0.26825272383E+01 -0.66564020019E+02  0.76573714743E+02  0.41800000000E+01 0.  1.
         -5    1    3    3    0  502  0.68649854136E+02  0.11042649757E+03 -0.24577446082E+03  0.27808159204E+03  0.41800000000E+01 0.  1.
        -11    1    1    2    0    0  0.27361847231E+02 -0.37001440172E+02 -0.58052531728E+02  0.74080184251E+02  0.00000000000E+00 0.  1.
         11    1    1    2    0    0 -0.58487087097E+02 -0.70742530161E+02 -0.23903166499E+03  0.25604956903E+03  0.00000000000E+00 0. -1.
</event>
<event>
 7    1  0.4966153E-006  0.2180747E+03  0.7561462E-02  0.1135327E+00
          1   -1    0    0  501    0  0.00000000000E+00  0.00000000000E+00  0.13746651421E+04  0.13746651421E+04  0.00000000000E+00 0. -1.
         -1   -1    0    0    0  501 -0.00000000000E+00 -0.00000000000E+00 -0.37366477125E+02  0.37366477125E+02  0.00000000000E+00 0.  1.
         23    2    1    2    0    0  0.19842603067E+03  0.36341372520E+01  0.71714215438E+03  0.75453738529E+03  0.12509076552E+03 0.  0.
          5    1    3    3  502    0  0.17904379539E+03  0.35105459394E+02  0.46270489979E+03  0.49739558768E+03  0.41800000000E+01 0.  1.
         -5    1    3    3    0  502  0.19382235282E+02 -0.31471322142E+02  0.25443725458E+03  0.25714179762E+03  0.41800000000E+01 0.  1.
        -11    1    1    2    0    0 -0.12850109188E+03  0.39326554198E+02  0.34100056464E+03  0.36652488805E+03  0.00000000000E+00 0.  1.
         11    1    1    2    0    0 -0.69924938794E+02 -0.42960691450E+02  0.27915594593E+03  0.29096934585E+03  0.00000000000E+00 0. -1.
</event>
<event>
 7    1  0.4966153E-006  0.1264316E+03  0.7561462E-02  0.1232849E+00
          1   -1    0    0  501    0  0.00000000000E+00  0.00000000000E+00  0.61075903592E+03  0.61075903592E+03  0.00000000000E+00 0. -1.
         -1   -1    0    0    0  501 -0.00000000000E+00 -0.00000000000E+00 -0.33783204435E+02  0.33783204435E+02  0.00000000000E+00 0.  1.
         23    2    1    2    0    0  0.85449710532E+02  0.35075430735E+02  0.28673906226E+03  0.32618382254E+03  0.12507860484E+03 0.  0.
          5    1    3    3  502    0  0.72824518267E+02  0.62819572901E+02  0.10741674166E+03  0.14424124926E+03  0.41800000000E+01 0.  1.
         -5    1    3    3    0  502  0.12625192265E+02 -0.27744142165E+02  0.17932232060E+03  0.18194257328E+03  0.41800000000E+01 0.  1.
        -11    1    1    2    0    0 -0.10184217398E+03 -0.38863799940E+02  0.21256240754E+03  0.23888281740E+03  0.00000000000E+00 0.  1.
         11    1    1    2    0    0  0.16392463452E+02  0.37883692043E+01  0.77674361682E+02  0.79475600419E+02  0.00000000000E+00 0. -1.
</event>
<event>
 7    1  0.4966153E-006  0.1121730E+03  0.7561462E-02  0.1256598E+00
         -2   -1    0    0    0  501 -0.00000000000E+00  0.00000000000E+00  0.12342280898E+03  0.12342280898E+03  0.00000000000E+00 0.  1.
          2   -1    0    0  501    0  0.00000000000E+00 -0.00000000000E+00 -0.13775319284E+03  0.13775319284E+03  0.00000000000E+00 0. -1.
         23    2    1    2    0    0 -0.64888060148E+02  0.68261770173E+01  0.22556839896E+02  0.14287358380E+03  0.12508794058E+03 0.  0.
          5    1    3    3  502    0 -0.44747022139E+02  0.50260018530E+02  0.53193677115E+02  0.85880178959E+02  0.41800000000E+01 0.  1.
         -5    1    3    3    0  502 -0.20141038010E+02 -0.43433841513E+02 -0.30636837219E+02  0.56993404842E+02  0.41800000000E+01 0.  1.
        -11    1    1    2    0    0 -0.12147570395E+02 -0.26676890202E+02  0.27152469475E+01  0.29437943259E+02  0.00000000000E+00 0. -1.
         11    1    1    2    0    0  0.77035630543E+02  0.19850713185E+02 -0.39602470707E+02  0.88864474753E+02  0.00000000000E+00 0.  1.
</event>
<event>
 7    1  0.4966153E-006  0.2011276E+03  0.7561462E-02  0.1148791E+00
         -2   -1    0    0    0  501 -0.00000000000E+00  0.00000000000E+00  0.25197920188E+03  0.25197920188E+03  0.00000000000E+00 0.  1.
          2   -1    0    0  501    0  0.00000000000E+00 -0.00000000000E+00 -0.18696421777E+03  0.18696421777E+03  0.00000000000E+00 0. -1.
         23    2    1    2    0    0 -0.71061508121E+02 -0.16744740196E+03  0.79003972272E+02  0.23447361836E+03  0.12509148538E+03 0.  0.
          5    1    3    3  502    0 -0.69015564084E+02 -0.17962684398E+03  0.44448371989E+02  0.19754007526E+03  0.41800000000E+01 0. -1.
         -5    1    3    3    0  502 -0.20459440370E+01  0.12179442018E+02  0.34555600284E+02  0.36933543099E+02  0.41800000000E+01 0. -1.
        -11    1    1    2    0    0  0.60999476619E+02  0.50022511732E+02 -0.32219055340E+02  0.85212999916E+02  0.00000000000E+00 0.  1.
         11    1    1    2    0    0  0.10062031503E+02  0.11742489023E+03  0.18230067177E+02  0.11925680136E+03  0.00000000000E+00 0. -1.
</event>
<event>
 7    1  0.4966153E-006  0.7743553E+02  0.7561462E-02  0.1336491E+00
         -1   -1    0    0    0  501 -0.00000000000E+00  0.00000000000E+00  0.79850818399E+02  0.79850818399E+02  0.00000000000E+00 0.  1.
          1   -1    0    0  501    0  0.00000000000E+00 -0.00000000000E+00 -0.14585161961E+03  0.14585161961E+03  0.00000000000E+00 0. -1.
         23    2    1    2    0    0 -0.98281120227E+01 -0.15672879594E+02 -0.18993092944E+02  0.11906765804E+03  0.11607815760E+03 0.  0.
          5    1    3    3  502    0  0.23533717893E+02  0.20769212624E+02 -0.51014764655E+02  0.60043106879E+02  0.41800000000E+01 0. -1.
         -5    1    3    3    0  502 -0.33361829916E+02 -0.36442092217E+02  0.32021671711E+02  0.59024551160E+02  0.41800000000E+01 0.  1.
        -11    1    1    2    0    0 -0.39802335086E+01  0.42905326394E+02 -0.59651878050E+02  0.73587063039E+02  0.00000000000E+00 0. -1.
         11    1    1    2    0    0  0.13808345531E+02 -0.27232446800E+02  0.12644169782E+02  0.33047716933E+02  0.00000000000E+00 0.  1.
</event>
<event>
 7    1  0.4966153E-006  0.1018971E+03  0.7561462E-02  0.1276356E+00
          1   -1    0    0  501    0  0.00000000000E+00  0.00000000000E+00  0.22839718873E+03  0.22839718873E+03  0.00000000000E+00 0. -1.
         -1   -1    0    0    0  501 -0.00000000000E+00 -0.00000000000E+00 -0.15452441490E+03  0.15452441490E+03  0.00000000000E+00 0.  1.
         23    2    1    2    0    0 -0.29684833927E+02 -0.78236379741E+02 -0.90164935230E+02  0.17543941701E+03  0.12508858067E+03 0.  0.
          5    1    3    3  502    0 -0.37997611160E+02 -0.45104189084E+02  0.18103046528E+02  0.61833639877E+02  0.41800000000E+01 0.  1.
         -5    1    3    3    0  502  0.83127772332E+01 -0.33132190656E+02 -0.10826798176E+03  0.11360577713E+03  0.41800000000E+01 0.  1.
        -11    1    1    2    0    0  0.45418017228E+02  0.19461892871E+02  0.24281502526E+02  0.55055907294E+02  0.00000000000E+00 0.  1.
         11    1    1    2    0    0 -0.15733183300E+02  0.58774486870E+02  0.13975620653E+03  0.15242627932E+03  0.00000000000E+00 0. -1.
</event>
<event>
 7    1  0.4966153E-006  0.1006670E+03  0.7561462E-02  0.1278900E+00
          2   -1    0    0  501    0  0.00000000000E+00  0.00000000000E+00  0.37070867282E+02  0.37070867282E+02  0.00000000000E+00 0. -1.
         -2   -1    0    0    0  501 -0.00000000000E+00 -0.00000000000E+00 -0.49369652813E+03  0.49369652813E+03  0.00000000000E+00 0.  1.
         23    2    1    2    0    0  0.55061370081E+02  0.13249986579E+02 -0.36486151047E+03  0.38984453222E+03  0.12509005099E+03 0.  0.
          5    1    3    3  502    0  0.16558623598E+02  0.43882465557E+02 -0.41596495800E+02  0.62829926482E+02  0.41800000000E+01 0. -1.
         -5    1    3    3    0  502  0.38502746483E+02 -0.30632478978E+02 -0.32326501467E+03  0.32701460574E+03  0.41800000000E+01 0. -1.
        -11    1    1    2    0    0 -0.45492437084E+02 -0.49585264860E+02 -0.71682176280E+02  0.98318842138E+02  0.00000000000E+00 0.  1.
         11    1    1    2    0    0 -0.95689329962E+01  0.36335278281E+02 -0.20081974096E+02  0.42604021055E+02  0.00000000000E+00 0. -1.
</event>
<event>
 7    1  0.4966153E-006  0.9816832E+02  0.7561462E-02  0.1284196E+00
         -2   -1    0    0    0  501 -0.00000000000E+00  0.00000000000E+00  0.43278385530E+02  0.43278385530E+02  0.00000000000E+00 0. -1.
          2   -1    0    0  501    0  0.00000000000E+00 -0.00000000000E+00 -0.34527335271E+03  0.34527335271E+03  0.00000000000E+00 0.  1.
         23    2    1    2    0    0  0.57428085993E+02 -0.33841351152E+01 -0.16235018737E+03  0.21287205229E+03  0.12508992715E+03 0.  0.
          5    1    3    3  502    0  0.52199220514E+02  0.53256541578E+02 -0.60412334644E+02  0.96063210546E+02  0.41800000000E+01 0. -1.
         -5    1    3    3    0  502  0.52288654781E+01 -0.56640676694E+02 -0.10193785273E+03  0.11680884174E+03  0.41800000000E+01 0. -1.
        -11    1    1    2    0    0 -0.26264931922E+02  0.16263706674E+02  0.11393921956E+01  0.30913638062E+02  0.00000000000E+00 0. -1.
         11    1    1    2    0    0 -0.31163154070E+02 -0.12879571559E+02 -0.14078417201E+03  0.14476604789E+03  0.00000000000E+00 0.  1.
</event>
<event>
 7    1  0.4966153E-006  0.1082052E+03  0.7561462E-02  0.1263930E+00
         -2   -1    0    0    0  501 -0.00000000000E+00  0.00000000000E+00  0.10909555965E+03  0.10909555965E+03  0.00000000000E+00 0.  1.
          2   -1    0    0  501    0  0.00000000000E+00 -0.00000000000E+00 -0.11738762118E+03  0.11738762118E+03  0.00000000000E+00 0. -1.
         23    2    1    2    0    0  0.80349707401E+01 -0.22362462647E+02  0.11546604372E+02  0.12784865818E+03  0.12508922749E+03 0.  0.
          5    1    3    3  502    0  0.41497354563E+02  0.38181680972E+02 -0.44641998273E+01  0.56721007375E+02  0.41800000000E+01 0. -1.
         -5    1    3    3    0  502 -0.33462383822E+02 -0.60544143619E+02  0.16010804199E+02  0.71127650803E+02  0.41800000000E+01 0. -1.
        -11    1    1    2    0    0  0.69701059043E+01  0.54579738540E+02  0.50378081316E+01  0.55253142410E+02  0.00000000000E+00 0.  1.
         11    1    1    2    0    0 -0.15005076644E+02 -0.32217275893E+02 -0.24876474040E+02  0.43381380242E+02  0.00000000000E+00 0. -1.
</event>
<event>
 7    1  0.4966153E-006  0.1980891E+03  0.7561462E-02  0.1151361E+00
          1   -1    0    0  501    0  0.00000000000E+00  0.00000000000E+00  0.41346858276E+03  0.41346858276E+03  0.00000000000E+00 0. -1.
         -1   -1    0    0    0  501 -0.00000000000E+00 -0.00000000000E+00 -0.11441672899E+03  0.11441672899E+03  0.00000000000E+00 0.  1.
         23    2    1    2    0    0  0.16491489468E+03  0.61122678477E+02  0.75485820104E+02  0.22864522314E+03  0.12509046612E+03 0.  0.
          5    1    3    3  502    0  0.50179769978E+02  0.82123477581E+02  0.52424644741E+02  0.10967265229E+03  0.41800000000E+01 0.  1.
         -5    1    3    3    0  502  0.11473512470E+03 -0.21000799105E+02  0.23061175364E+02  0.11897257084E+03  0.41800000000E+01 0.  1.
        -11    1    1    2    0    0 -0.37874419269E+01 -0.15087933404E+02  0.70781212184E+02  0.72470479845E+02  0.00000000000E+00 0. -1.
         11    1    1    2    0    0 -0.16112745275E+03 -0.46034745073E+02  0.15278482148E+03  0.22676960876E+03  0.00000000000E+00 0.  1.
</event>
<event>
 7    1  0.4966153E-006  0.1681132E+03  0.7561462E-02  0.1179830E+00
          1   -1    0    0  501    0  0.00000000000E+00  0.00000000000E+00  0.25427065028E+03  0.25427065028E+03  0.00000000000E+00 0. -1.
         -1   -1    0    0    0  501 -0.00000000000E+00 -0.00000000000E+00 -0.13197818919E+03  0.13197818919E+03  0.00000000000E+00 0.  1.
         23    2    1    2    0    0 -0.10054207037E+03 -0.95879569396E+02  0.11770029457E+02  0.18731739201E+03  0.12509065517E+03 0.  0.
          5    1    3    3  502    0 -0.16572461801E+02 -0.86596397734E+02 -0.29679081456E+02  0.93123052284E+02  0.41800000000E+01 0. -1.
         -5    1    3    3    0  502 -0.83969608573E+02 -0.92831716612E+01  0.41449110913E+02  0.94194339721E+02  0.41800000000E+01 0. -1.
        -11    1    1    2    0    0  0.10942866195E+03  0.56788490197E+02  0.69292250519E+02  0.14142482334E+03  0.00000000000E+00 0.  1.
         11    1    1    2    0    0 -0.88865915801E+01  0.39091079199E+02  0.41230181116E+02  0.57506624120E+02  0.00000000000E+00 0. -1.
</event>
<event>
 7    1  0.4966153E-006  0.1389555E+03  0.7561462E-02  0.1214741E+00
         -1   -1    0    0    0  501 -0.00000000000E+00  0.00000000000E+00  0.56703255835E+02  0.56703255835E+02  0.00000000000E+00 0.  1.
          1   -1    0    0  501    0  0.00000000000E+00 -0.00000000000E+00 -0.45177142290E+03  0.45177142290E+03  0.00000000000E+00 0. -1.
         23    2    1    2    0    0  0.57911500952E+02  0.85329560954E+02 -0.12200353851E+03  0.20290281160E+03  0.12509920715E+03 0.  0.
          5    1    3    3  502    0 -0.28756871603E+02  0.32904637724E+00 -0.59683466400E+02  0.66382637018E+02  0.41800000000E+01 0. -1.
         -5    1    3    3    0  502  0.86668372555E+02  0.85000514577E+02 -0.62320072112E+02  0.13652017458E+03  0.41800000000E+01 0. -1.
        -11    1    1    2    0    0 -0.60869330937E+01 -0.74109223492E+02 -0.10032726394E+03  0.12487909213E+03  0.00000000000E+00 0.  1.
         11    1    1    2    0    0 -0.51824567858E+02 -0.11220337461E+02 -0.17273736462E+03  0.18069277501E+03  0.00000000000E+00 0. -1.
</event>
<event>
 7    1  0.4966153E-006  0.1313636E+03  0.7561462E-02  0.1225446E+00
          2   -1    0    0  501    0  0.00000000000E+00  0.00000000000E+00  0.18327990485E+03  0.18327990485E+03  0.00000000000E+00 0. -1.
         -2   -1    0    0    0  501 -0.00000000000E+00 -0.00000000000E+00 -0.10041713244E+03  0.10041713244E+03  0.00000000000E+00 0.  1.
         23    2    1    2    0    0 -0.59644365544E+01 -0.77830272695E+02  0.21927845061E+02  0.14906909207E+03  0.12509051910E+03 0.  0.
          5    1    3    3  502    0  0.37458889476E+02  0.18287115515E+02  0.63518583500E+01  0.42372225563E+02  0.41800000000E+01 0.  1.
         -5    1    3    3    0  502 -0.43423326031E+02 -0.96117388210E+02  0.15575986711E+02  0.10669686651E+03  0.41800000000E+01 0.  1.
        -11    1    1    2    0    0  0.41021306362E+02  0.15664005595E+02  0.42060803906E+02  0.60804768498E+02  0.00000000000E+00 0.  1.
         11    1    1    2    0    0 -0.35056869807E+02  0.62166267101E+02  0.18874123443E+02  0.73823176724E+02  0.00000000000E+00 0. -1.
</event>
<event>
 7    1  0.4966153E-006  0.1064543E+03  0.7561462E-02  0.1267280E+00
          3   -1    0    0  501    0  0.00000000000E+00  0.00000000000E+00  0.77109533371E+02  0.77109533371E+02  0.00000000000E+00 0. -1.
         -3   -1    0    0    0  501 -0.00000000000E+00 -0.00000000000E+00 -0.26661875898E+03  0.26661875898E+03  0.00000000000E+00 0.  1.
         23    2    1    2    0    0 -0.74041082839E+02 -0.49864126096E+02 -0.13721532114E+03  0.20602563479E+03  0.12509997929E+03 0.  0.
          5    1    3    3  502    0  0.21163898313E+01 -0.60227624418E+01  0.22459011653E+02  0.23719873056E+02  0.41800000000E+01 0. -1.
         -5    1    3    3    0  502 -0.76157472671E+02 -0.43841363654E+02 -0.15967433279E+03  0.18230576174E+03  0.41800000000E+01 0. -1.
        -11    1    1    2    0    0  0.27412477597E+02  0.63130030607E+02 -0.56494585864E+02  0.89042028977E+02  0.00000000000E+00 0.  1.
         11    1    1    2    0    0  0.46628605243E+02 -0.13265904511E+02  0.42006813963E+01  0.48660628577E+02  0.00000000000E+00 0. -1.
</event>
<event>
 7    1  0.4966153E-006  0.1276337E+03  0.7561462E-02  0.1231010E+00
          1   -1    0    0  501    0  0.00000000000E+00  0.00000000000E+00  0.45836254421E+02  0.45836254421E+02  0.00000000000E+00 0. -1.
         -1   -1    0    0    0  501 -0.00000000000E+00 -0.00000000000E+00 -0.64024841478E+03  0.64024841478E+03  0.00000000000E+00 0.  1.
         23    2    1    2    0    0  0.75933159481E+02  0.49976910766E+02 -0.47531103072E+03  0.49983160637E+03  0.12509005749E+03 0.  0.
          5    1    3    3  502    0  0.40819863722E+02  0.72753040711E+02 -0.14895016873E+03  0.17077145948E+03  0.41800000000E+01 0. -1.
         -5    1    3    3    0  502  0.35113295759E+02 -0.22776129945E+02 -0.32636086199E+03  0.32906014690E+03  0.41800000000E+01 0. -1.
        -11    1    1    2    0    0 -0.80716958243E+02 -0.12589292162E+01 -0.33004748953E+02  0.87213105118E+02  0.00000000000E+00 0. -1.
         11    1    1    2    0    0  0.47837987624E+01 -0.48717981550E+02 -0.86096380682E+02  0.99039957711E+02  0.00000000000E+00 0.  1.
</event>
<event>
 7    1  0.4966153E-006  0.9826543E+02  0.7561462E-02  0.1283986E+00
         -1   -1    0    0    0  501 -0.00000000000E+00  0.00000000000E+00  0.23455395958E+03  0.23455395958E+03  0.00000000000E+00 0.  1.
          1   -1    0    0  501    0  0.00000000000E+00 -0.00000000000E+00 -0.62873129495E+02  0.62873129495E+02  0.00000000000E+00 0. -1.
         23    2    1    2    0    0  0.40797677561E+02  0.67328256944E+01  0.92982360077E+02  0.16125524410E+03  0.12509097901E+03 0.  0.
          5    1    3    3  502    0 -0.27854964746E+01 -0.32330968267E+02 -0.16796978306E+02  0.36778545103E+02  0.41800000000E+01 0.  1.
         -5    1    3    3    0  502  0.43583174036E+02  0.39063793961E+02  0.10977933838E+03  0.12447669900E+03  0.41800000000E+01 0.  1.
        -11    1    1    2    0    0 -0.71882734012E+02  0.46470700545E+01  0.73048590962E+02  0.10259054221E+03  0.00000000000E+00 0.  1.
         11    1    1    2    0    0  0.31085056451E+02 -0.11379895749E+02  0.56498790417E+01  0.33581302760E+02  0.00000000000E+00 0. -1.
</event>
<event>
 7    1  0.4966153E-006  0.9950640E+02  0.7561462E-02  0.1281337E+00
          1   -1    0    0  501    0  0.00000000000E+00  0.00000000000E+00  0.77470137265E+03  0.77470137265E+03  0.00000000000E+00 0. -1.
         -1   -1    0    0    0  501 -0.00000000000E+00 -0.00000000000E+00 -0.29112797109E+02  0.29112797109E+02  0.00000000000E+00 0.  1.
         23    2    1    2    0    0 -0.21579699699E+02  0.93975716356E+02  0.30360695109E+03  0.34222337766E+03  0.12507014339E+03 0.  0.
          5    1    3    3  502    0  0.41888249084E+01  0.30629866328E+01  0.20669899580E+03  0.20680637177E+03  0.41800000000E+01 0.  1.
         -5    1    3    3    0  502 -0.25768524608E+02  0.90912729724E+02  0.96907955289E+02  0.13541700589E+03  0.41800000000E+01 0.  1.
        -11    1    1    2    0    0  0.82505488580E+01 -0.11145244367E+02  0.23977185554E+01  0.14072564895E+02  0.00000000000E+00 0.  1.
         11    1    1    2    0    0  0.13329150841E+02 -0.82830471989E+02  0.43958390589E+03  0.44751822720E+03  0.00000000000E+00 0. -1.
</event>
<event>
 7    1  0.4966153E-006  0.5526882E+02  0.7561462E-02  0.1418832E+00
          4   -1    0    0  501    0  0.00000000000E+00  0.00000000000E+00  0.12748828030E+02  0.12748828030E+02  0.00000000000E+00 0. -1.
         -4   -1    0    0    0  501 -0.00000000000E+00 -0.00000000000E+00 -0.94032953568E+03  0.94032953568E+03  0.00000000000E+00 0.  1.
         23    2    1    2    0    0 -0.17241111021E+01  0.30373353954E+01 -0.59005451018E+03  0.60317803051E+03  0.12508882258E+03 0.  0.
          5    1    3    3  502    0 -0.87839437075E+01  0.58400143073E+01  0.16013690935E+01  0.11458630683E+02  0.41800000000E+01 0. -1.
         -5    1    3    3    0  502  0.70598326054E+01 -0.28026789119E+01 -0.59165587928E+03  0.59171939983E+03  0.41800000000E+01 0. -1.
        -11    1    1    2    0    0 -0.39608581101E+02  0.18722746073E+02 -0.19705348501E+03  0.20186494711E+03  0.00000000000E+00 0.  1.
         11    1    1    2    0    0  0.41332692203E+02 -0.21760081468E+02 -0.14047271246E+03  0.14803538609E+03  0.00000000000E+00 0. -1.
</event>
<event>
 7    1  0.4966153E-006  0.1354423E+03  0.7561462E-02  0.1219597E+00
          1   -1    0    0  501    0  0.00000000000E+00  0.00000000000E+00  0.50218882079E+03  0.50218882079E+03  0.00000000000E+00 0.  1.
         -1   -1    0    0    0  501 -0.00000000000E+00 -0.00000000000E+00 -0.38507561610E+02  0.38507561610E+02  0.00000000000E+00 0. -1.
         23    2    1    2    0    0 -0.82912317001E+02  0.15249096169E+02  0.21584488009E+03  0.26333074719E+03  0.12508830045E+03 0.  0.
          5    1    3    3  502    0 -0.10979265613E+03  0.32831357495E+02  0.14076250437E+03  0.18155957813E+03  0.41800000000E+01 0.  1.
         -5    1    3    3    0  502  0.26880339129E+02 -0.17582261325E+02  0.75082375721E+02  0.81771169057E+02  0.41800000000E+01 0.  1.
        -11    1    1    2    0    0  0.10289047926E+03 -0.12181750899E+02  0.19542128487E+03  0.22118843631E+03  0.00000000000E+00 0. -1.
         11    1    1    2    0    0 -0.19978162258E+02 -0.30673452707E+01  0.52415094220E+02  0.56177198900E+02  0.00000000000E+00 0.  1.
</event>
<event>
 7    1  0.4966153E-006  0.1165089E+03  0.7561462E-02  0.1248970E+00
         -1   -1    0    0    0  501 -0.00000000000E+00  0.00000000000E+00  0.11504696869E+03  0.11504696869E+03  0.00000000000E+00 0.  1.
          1   -1    0    0  501    0  0.00000000000E+00 -0.00000000000E+00 -0.14707483634E+03  0.14707483634E+03  0.00000000000E+00 0. -1.
         23    2    1    2    0    0  0.67657041505E+02  0.23383157000E+02 -0.67838512281E+01  0.14428045942E+03  0.12508630236E+03 0.  0.
          5    1    3    3  502    0  0.97543293686E+02  0.36590671499E+02  0.14195538847E+02  0.10522621872E+03  0.41800000000E+01 0.  1.
         -5    1    3    3    0  502 -0.29886252181E+02 -0.13207514499E+02 -0.20979390076E+02  0.39054240700E+02  0.41800000000E+01 0.  1.
        -11    1    1    2    0    0 -0.49572621765E+02  0.16315829541E+02 -0.45966651968E+02  0.69545554966E+02  0.00000000000E+00 0.  1.
         11    1    1    2    0    0 -0.18084419740E+02 -0.39698986541E+02  0.20722635543E+02  0.48295790640E+02  0.00000000000E+00 0. -1.
</event>
<event>
 7    1  0.4966153E-006  0.9243161E+02  0.7561462E-02  0.1297068E+00
          2   -1    0    0  501    0  0.00000000000E+00  0.00000000000E+00  0.78857131596E+02  0.78857131596E+02  0.00000000000E+00 0. -1.
         -2   -1    0    0    0  501 -0.00000000000E+00 -0.00000000000E+00 -0.22239858302E+03  0.22239858302E+03  0.00000000000E+00 0.  1.
         23    2    1    2    0    0  0.17802480529E+00 -0.29354436337E+02 -0.15993213891E+03  0.20514386541E+03  0.12507598424E+03 0.  0.
          5    1    3    3  502    0 -0.35697274540E+02 -0.42406176172E+02 -0.18492932547E+02  0.58583616662E+02  0.41800000000E+01 0.  1.
         -5    1    3    3    0  502  0.35875299345E+02  0.13051739834E+02 -0.14143920636E+03  0.14656024874E+03  0.41800000000E+01 0.  1.
        -11    1    1    2    0    0  0.26993914591E+02 -0.20632738600E+02  0.19423147358E+02  0.39136172276E+02  0.00000000000E+00 0.  1.
         11    1    1    2    0    0 -0.27171939396E+02  0.49987174938E+02 -0.30324598695E+01  0.56975676930E+02  0.00000000000E+00 0. -1.
</event>
<event>
 7    1  0.4966153E-006  0.1213015E+03  0.7561462E-02  0.1240965E+00
         -2   -1    0    0    0  501 -0.00000000000E+00  0.00000000000E+00  0.20430426901E+03  0.20430426901E+03  0.00000000000E+00 0. -1.
          2   -1    0    0  501    0  0.00000000000E+00 -0.00000000000E+00 -0.96253372354E+02  0.96253372354E+02  0.00000000000E+00 0.  1.
         23    2    1    2    0    0  0.61449601438E+01  0.88060727236E+02  0.51153778935E+02  0.16142141566E+03  0.12509081549E+03 0.  0.
          5    1    3    3  502    0 -0.47614752525E+02  0.58814377896E+02 -0.79934418895E+01  0.76208025945E+02  0.41800000000E+01 0.  1.
         -5    1    3    3    0  502  0.53759712668E+02  0.29246349340E+02  0.59147220825E+02  0.85213389718E+02  0.41800000000E+01 0.  1.
        -11    1    1    2    0    0 -0.32035352603E+02 -0.45252516665E+02 -0.92398784931E+01  0.56208802118E+02  0.00000000000E+00 0.  1.
         11    1    1    2    0    0  0.25890392459E+02 -0.42808210571E+02  0.66136996214E+02  0.82927423583E+02  0.00000000000E+00 0. -1.
</event>
<event>
 7    1  0.4966153E-006  0.6978098E+02  0.7561462E-02  0.1360839E+00
         -1   -1    0    0    0  501 -0.00000000000E+00  0.00000000000E+00  0.42771590135E+02  0.42771590135E+02  0.00000000000E+00 0.  1.
          1   -1    0    0  501    0  0.00000000000E+00 -0.00000000000E+00 -0.39456904201E+03  0.39456904201E+03  0.00000000000E+00 0. -1.
         23    2    1    2    0    0  0.17502519038E+02 -0.56686254587E+02 -0.13452489777E+03  0.19303895075E+03  0.12508964287E+03 0.  0.
          5    1    3    3  502    0  0.25488724263E+02 -0.85517610464E+01  0.18147414768E+02  0.32704873403E+02  0.41800000000E+01 0.  1.
         -5    1    3    3    0  502 -0.79862052252E+01 -0.48134493540E+02 -0.15267231254E+03  0.16033407735E+03  0.41800000000E+01 0.  1.
        -11    1    1    2    0    0 -0.21437388045E+02  0.32865204087E+02 -0.21662398585E+03  0.22014911876E+03  0.00000000000E+00 0. -1.
         11    1    1    2    0    0  0.39348690071E+01  0.23821050499E+02 -0.64856825245E+00  0.24152562634E+02  0.00000000000E+00 0.  1.
</event>
<event>
 7    1  0.4966153E-006  0.9423760E+02  0.7561462E-02  0.1292902E+00
          3   -1    0    0  501    0  0.00000000000E+00  0.00000000000E+00  0.37944016211E+03  0.37944016211E+03  0.00000000000E+00 0. -1.
         -3   -1    0    0    0  501 -0.00000000000E+00 -0.00000000000E+00 -0.43015796530E+02  0.43015796530E+02  0.00000000000E+00 0.  1.
         23    2    1    2    0    0 -0.49522277399E+01 -0.11027667810E+02  0.53943660536E+02  0.12662055180E+03  0.11391537039E+03 0.  0.
          5    1    3    3  502    0 -0.54184721709E+01  0.47780798121E+02  0.46798539208E+02  0.67230500383E+02  0.41800000000E+01 0. -1.
         -5    1    3    3    0  502  0.46624443105E+00 -0.58808465931E+02  0.71451213284E+01  0.59390051422E+02  0.41800000000E+01 0.  1.
        -11    1    1    2    0    0 -0.24782953081E+02  0.35115811483E+02  0.20453991940E+03  0.20900692239E+03  0.00000000000E+00 0. -1.
         11    1    1    2    0    0  0.29735180821E+02 -0.24088143674E+02  0.77940785649E+02  0.86828484449E+02  0.00000000000E+00 0.  1.
</event>
<event>
 7    1  0.4966153E-006  0.1590600E+03  0.7561462E-02  0.1189762E+00
         -2   -1    0    0    0  501 -0.00000000000E+00  0.00000000000E+00  0.20673104219E+03  0.20673104219E+03  0.00000000000E+00 0. -1.
          2   -1    0    0  501    0  0.00000000000E+00 -0.00000000000E+00 -0.14963706350E+03  0.14963706350E+03  0.00000000000E+00 0.  1.
         23    2    1    2    0    0  0.31742635706E+02  0.11251760707E+03  0.10589220603E+03  0.20131133564E+03  0.12508112461E+03 0.  0.
          5    1    3    3  502    0 -0.43420134715E+02  0.75687123230E+02  0.56414943393E+02  0.10399022531E+03  0.41800000000E+01 0. -1.
         -5    1    3    3    0  502  0.75162770421E+02  0.36830483841E+02  0.49477262639E+02  0.97321110329E+02  0.41800000000E+01 0. -1.
        -11    1    1    2    0    0 -0.54988483556E+01 -0.11963795442E+03 -0.36420241584E+02  0.12517951697E+03  0.00000000000E+00 0.  1.
         11    1    1    2    0    0 -0.26243787351E+02  0.71203473489E+01 -0.12377985751E+02  0.29877253089E+02  0.00000000000E+00 0. -1.
</event>
<event>
 7    1  0.4966153E-006  0.5558047E+02  0.7561462E-02  0.1417374E+00
         -3   -1    0    0    0  501 -0.00000000000E+00  0.00000000000E+00  0.62695844555E+02  0.62695844555E+02  0.00000000000E+00 0.  1.
          3   -1    0    0  501    0  0.00000000000E+00 -0.00000000000E+00 -0.18974722393E+03  0.18974722393E+03  0.00000000000E+00 0. -1.
         23    2    1    2    0    0 -0.36065962007E+01  0.85020766227E+01 -0.51379373814E+02  0.13548698991E+03  0.12502636337E+03 0.  0.
          5    1    3    3  502    0  0.30399272628E+01  0.20904634815E+02 -0.90854174011E+02  0.93371292428E+02  0.41800000000E+01 0. -1.
         -5    1    3    3    0  502 -0.66465234636E+01 -0.12402558192E+02  0.39474800197E+02  0.42115697482E+02  0.41800000000E+01 0. -1.
        -11    1    1    2    0    0 -0.26604902362E+02  0.20100538857E+02 -0.66444043876E+02  0.74341532528E+02  0.00000000000E+00 0. -1.
         11    1    1    2    0    0  0.30211498563E+02 -0.28602615480E+02 -0.92279616822E+01  0.42614546044E+02  0.00000000000E+00 0.  1.
</event>
<event>
 7    1  0.5701326E-006  0.1606237E+03  0.7561462E-02  0.1187994E+00
         -2   -1    0    0    0  501 -0.00000000000E+00  0.00000000000E+00  0.52306729624E+02  0.52306729624E+02  0.00000000000E+00 0.  1.
          2   -1    0    0  501    0  0.00000000000E+00 -0.00000000000E+00 -0.59842065070E+03  0.59842065070E+03  0.00000000000E+00 0. -1.
         23    2    1    2    0    0  0.13469411391E+03 -0.33091868958E+02 -0.27157293947E+03  0.32960095547E+03  0.12508937716E+03 0.  0.
          5    1    3    3  502    0  0.86873276207E+02 -0.77950034094E+02 -0.13833439744E+03  0.18104433670E+03  0.41800000000E+01 0.  1.
         -5    1    3    3    0  502  0.47820837705E+02  0.44858165136E+02 -0.13323854203E+03  0.14855661877E+03  0.41800000000E+01 0.  1.
        -11    1    1    2    0    0 -0.10099883557E+03  0.23080172871E+02 -0.26525479487E+03  0.28476931957E+03  0.00000000000E+00 0.  1.
         11    1    1    2    0    0 -0.33695278342E+02  0.10011696087E+02 -0.92861867371E+01  0.36357105291E+02  0.00000000000E+00 0. -1.
</event>
<event>
 7    1  0.6156726E-006  0.2304058E+03  0.7561462E-02  0.1126354E+00
          2   -1    0    0  501    0  0.00000000000E+00  0.00000000000E+00  0.57224508859E+03  0.57224508859E+03  0.00000000000E+00 0. -1.
         -2   -1    0    0    0  501 -0.00000000000E+00 -0.00000000000E+00 -0.10589289155E+03  0.10589289155E+03  0.00000000000E+00 0.  1.
         23    2    1    2    0    0 -0.21945944096E+03 -0.12981986409E+02  0.23513948131E+03  0.34535430228E+03  0.12509212700E+03 0.  0.
          5    1    3    3  502    0 -0.10326265185E+03 -0.54698484788E+02  0.61097715733E+02  0.13192991614E+03  0.41800000000E+01 0.  1.
         -5    1    3    3    0  502 -0.11619678911E+03  0.41716498378E+02  0.17404176557E+03  0.21342438614E+03  0.41800000000E+01 0.  1.
        -11    1    1    2    0    0  0.15875088362E+03  0.16092777604E+02  0.21869804373E+03  0.27072062144E+03  0.00000000000E+00 0. -1.
         11    1    1    2    0    0  0.60708557338E+02 -0.31107911946E+01  0.12514672002E+02  0.62063056412E+02  0.00000000000E+00 0.  1.
</event>
<event>
 7    1  0.4966153E-006  0.1440168E+03  0.7561462E-02  0.1208024E+00
         -1   -1    0    0    0  501 -0.00000000000E+00  0.00000000000E+00  0.70972294887E+02  0.70972294887E+02  0.00000000000E+00 0.  1.
          1   -1    0    0  501    0  0.00000000000E+00 -0.00000000000E+00 -0.36629718731E+03  0.36629718731E+03  0.00000000000E+00 0. -1.
         23    2    1    2    0    0 -0.95684344734E+02  0.65646227209E+02 -0.13975984897E+03  0.22056275829E+03  0.12510073535E+03 0.  0.
          5    1    3    3  502    0 -0.91698133419E+02 -0.10454778268E+02 -0.92830194745E+02  0.13096857454E+03  0.41800000000E+01 0. -1.
         -5    1    3    3    0  502 -0.39862113151E+01  0.76101005477E+02 -0.46929654225E+02  0.89594183745E+02  0.41800000000E+01 0. -1.
        -11    1    1    2    0    0  0.45158007218E+02 -0.14491520346E+02 -0.23789548051E+01  0.47485884259E+02  0.00000000000E+00 0.  1.
         11    1    1    2    0    0  0.50526337516E+02 -0.51154706863E+02 -0.15318608865E+03  0.16922083965E+03  0.00000000000E+00 0. -1.
</event>
<event>
 7    1  0.4966153E-006  0.7036655E+02  0.7561462E-02  0.1358851E+00
          2   -1    0    0  501    0  0.00000000000E+00  0.00000000000E+00  0.22292243158E+03  0.22292243158E+03  0.00000000000E+00 0. -1.
         -2   -1    0    0    0  501 -0.00000000000E+00 -0.00000000000E+00 -0.55876716474E+02  0.55876716474E+02  0.00000000000E+00 0.  1.
         23    2    1    2    0    0  0.29324268457E+02  0.51027382113E+01  0.79835061494E+02  0.15134740176E+03  0.12508576385E+03 0.  0.
          5    1    3    3  502    0 -0.71168893831E+01 -0.21727458616E+02  0.99245146237E+02  0.10193038813E+03  0.41800000000E+01 0. -1.
         -5    1    3    3    0  502  0.36441157840E+02  0.26830196827E+02 -0.19410084743E+02  0.49417013631E+02  0.41800000000E+01 0. -1.
        -11    1    1    2    0    0 -0.36721849248E+01 -0.33544196728E+02  0.82159499108E+02  0.88819374969E+02  0.00000000000E+00 0. -1.
         11    1    1    2    0    0 -0.25652083532E+02  0.28441458517E+02  0.50511544991E+01  0.38632371321E+02  0.00000000000E+00 0.  1.
</event>
<event>
 7    1  0.4966153E-006  0.1180833E+03  0.7561462E-02  0.1246293E+00
         -1   -1    0    0    0  501 -0.00000000000E+00  0.00000000000E+00  0.28374802299E+03  0.28374802299E+03  0.00000000000E+00 0.  1.
          1   -1    0    0  501    0  0.00000000000E+00 -0.00000000000E+00 -0.10062558742E+03  0.10062558742E+03  0.00000000000E+00 0. -1.
         23    2    1    2    0    0  0.13860681624E+02  0.50473838908E+02  0.22924479253E+03  0.26634658237E+03  0.12509036786E+03 0.  0.
          5    1    3    3  502    0  0.15413981352E+02 -0.40075586395E+02  0.54732487844E+02  0.69690466146E+02  0.41800000000E+01 0. -1.
         -5    1    3    3    0  502 -0.15532997289E+01  0.90549425302E+02  0.17451230469E+03  0.19665611623E+03  0.41800000000E+01 0. -1.
        -11    1    1    2    0    0  0.34940472572E+02 -0.38750845818E+02 -0.36957897144E+01  0.52307968196E+02  0.00000000000E+00 0.  1.
         11    1    1    2    0    0 -0.48801154195E+02 -0.11722993090E+02 -0.42426567250E+02  0.65719059841E+02  0.00000000000E+00 0. -1.
</event>
<event>
 7    1  0.4966153E-006  0.1993223E+03  0.7561462E-02  0.1150312E+00
         -1   -1    0    0    0  501 -0.00000000000E+00  0.00000000000E+00  0.77143968957E+03  0.77143968957E+03  0.00000000000E+00 0.  1.
          1   -1    0    0  501    0  0.00000000000E+00 -0.00000000000E+00 -0.62502194393E+02  0.62502194393E+02  0.00000000000E+00 0. -1.
         23    2    1    2    0    0 -0.44411570348E+02  0.17231862884E+03  0.49827891091E+03  0.54368775898E+03  0.12509360008E+03 0.  0.
          5    1    3    3  502    0  0.31153035875E+02  0.12340955040E+03  0.28545289344E+03  0.31257200058E+03  0.41800000000E+01 0. -1.
         -5    1    3    3    0  502 -0.75564606223E+02  0.48909078441E+02  0.21282601748E+03  0.23111575841E+03  0.41800000000E+01 0. -1.
        -11    1    1    2    0    0  0.16093548674E+02 -0.12507287908E+03  0.82321454182E+02  0.15059564804E+03  0.00000000000E+00 0. -1.
         11    1    1    2    0    0  0.28318021674E+02 -0.47245749760E+02  0.12833713008E+03  0.13965847693E+03  0.00000000000E+00 0.  1.
</event>
<event>
 7    1  0.4966153E-006  0.1307919E+03  0.7561462E-02  0.1226285E+00
          1   -1    0    0  501    0  0.00000000000E+00  0.00000000000E+00  0.10733612465E+03  0.10733612465E+03  0.00000000000E+00 0. -1.
         -1   -1    0    0    0  501 -0.00000000000E+00 -0.00000000000E+00 -0.18381527478E+03  0.18381527478E+03  0.00000000000E+00 0.  1.
         23    2    1    2    0    0 -0.82921040481E+02  0.25662212908E+02 -0.56691085930E+02  0.16246946342E+03  0.12509196295E+03 0.  0.
          5    1    3    3  502    0 -0.27393257064E+02  0.72880871057E+02 -0.18767425726E+02  0.80197883807E+02  0.41800000000E+01 0. -1.
         -5    1    3    3    0  502 -0.55527783416E+02 -0.47218658150E+02 -0.37923660204E+02  0.82271579612E+02  0.41800000000E+01 0. -1.
        -11    1    1    2    0    0  0.56026089001E+02  0.18409536487E+02 -0.42078053963E+02  0.72445816358E+02  0.00000000000E+00 0.  1.
         11    1    1    2    0    0  0.26894951479E+02 -0.44071749395E+02  0.22289989765E+02  0.56236119652E+02  0.00000000000E+00 0. -1.
</event>
<event>
 7    1  0.4966153E-006  0.1252681E+03  0.7561462E-02  0.1234651E+00
          1   -1    0    0  501    0  0.00000000000E+00  0.00000000000E+00  0.14543979761E+03  0.14543979761E+03  0.00000000000E+00 0. -1.
         -1   -1    0    0    0  501 -0.00000000000E+00 -0.00000000000E+00 -0.11951110316E+03  0.11951110316E+03  0.00000000000E+00 0.  1.
         23    2    1    2    0    0 -0.60043862703E+01  0.66930213261E+02 -0.17239263385E+02  0.14311265158E+03  0.12517321095E+03 0.  0.
          5    1    3    3  502    0  0.57265952645E+02  0.50673663273E+02 -0.78208402336E+01  0.76979526004E+02  0.41800000000E+01 0.  1.
         -5    1    3    3    0  502 -0.63270338915E+02  0.16256549988E+02 -0.94184231516E+01  0.66133125577E+02  0.41800000000E+01 0.  1.
        -11    1    1    2    0    0 -0.37650601298E+02 -0.47763356828E+02  0.42427411384E+02  0.74155183705E+02  0.00000000000E+00 0. -1.
         11    1    1    2    0    0  0.43654987569E+02 -0.19166856433E+02  0.74054645488E+00  0.47683065486E+02  0.00000000000E+00 0.  1.
</event>
<event>
 7    1  0.4966153E-006  0.1248619E+03  0.7561462E-02  0.1235285E+00
         -1   -1    0    0    0  501 -0.00000000000E+00  0.00000000000E+00  0.10592749352E+03  0.10592749352E+03  0.00000000000E+00 0.  1.
          1   -1    0    0  501    0  0.00000000000E+00 -0.00000000000E+00 -0.40932323988E+03  0.40932323988E+03  0.00000000000E+00 0. -1.
         23    2    1    2    0    0 -0.11275845564E+03 -0.11785937527E+02  0.10678736961E+02  0.16915492636E+03  0.12508387605E+03 0.  0.
          5    1    3    3  502    0 -0.61785623755E+02  0.28524187960E+01 -0.56216341021E+02  0.83686014325E+02  0.41800000000E+01 0. -1.
         -5    1    3    3    0  502 -0.50972831885E+02 -0.14638356323E+02  0.66895077983E+02  0.85468912035E+02  0.41800000000E+01 0. -1.
        -11    1    1    2    0    0  0.80088943197E+02 -0.26354986806E+02 -0.25490634590E+03  0.26848849013E+03  0.00000000000E+00 0. -1.
         11    1    1    2    0    0  0.32669512442E+02  0.38140924333E+02 -0.59168137421E+02  0.77607316911E+02  0.00000000000E+00 0.  1.
</event>
<event>
 7    1  0.4966153E-006  0.2670695E+03  0.7561462E-02  0.1102969E+00
          2   -1    0    0  501    0  0.00000000000E+00  0.00000000000E+00  0.86994688062E+03  0.86994688062E+03  0.00000000000E+00 0.  1.
         -2   -1    0    0    0  501 -0.00000000000E+00 -0.00000000000E+00 -0.96903093006E+02  0.96903093006E+02  0.00000000000E+00 0. -1.
         23    2    1    2    0    0 -0.18425373072E+03 -0.19221050954E+03  0.32966029730E+03  0.44183501644E+03  0.12509177780E+03 0.  0.
          5    1    3    3  502    0 -0.12428232222E+03 -0.14157032658E+03  0.13469616114E+03  0.23162206546E+03  0.41800000000E+01 0.  1.
         -5    1    3    3    0  502 -0.59971408500E+02 -0.50640182964E+02  0.19496413616E+03  0.21021295097E+03  0.41800000000E+01 0.  1.
        -11    1    1    2    0    0  0.14756248929E+03  0.14091224929E+03  0.39820036838E+03  0.44743098197E+03  0.00000000000E+00 0. -1.
         11    1    1    2    0    0  0.36691241439E+02  0.51298260254E+02  0.45183121932E+02  0.77583975220E+02  0.00000000000E+00 0.  1.
</event>
<event>
 7    1  0.4966153E-006  0.1050859E+03  0.7561462E-02  0.1269951E+00
         -1   -1    0    0    0  501 -0.00000000000E+00  0.00000000000E+00  0.26305196485E+02  0.26305196485E+02  0.00000000000E+00 0.  1.
          1   -1    0    0  501    0  0.00000000000E+00 -0.00000000000E+00 -0.55081206893E+03  0.55081206893E+03  0.00000000000E+00 0. -1.
         23    2    1    2    0    0  0.16273693662E+02  0.27395174675E+02 -0.19624679879E+03  0.23489498937E+03  0.12509005275E+03 0.  0.
          5    1    3    3  502    0 -0.19580845434E+02  0.61661589240E+02 -0.16196833165E+03  0.17446138241E+03  0.41800000000E+01 0.  1.
         -5    1    3    3    0  502  0.35854539096E+02 -0.34266414564E+02 -0.34278467143E+02  0.60433606963E+02  0.41800000000E+01 0.  1.
        -11    1    1    2    0    0 -0.36966883960E+02  0.21296819389E+02 -0.17351355069E+03  0.17868144083E+03  0.00000000000E+00 0. -1.
         11    1    1    2    0    0  0.20693190298E+02 -0.48691994064E+02 -0.15474652296E+03  0.16354083521E+03  0.00000000000E+00 0.  1.
</event>
<event>
 7    1  0.4966153E-006  0.9253318E+02  0.7561462E-02  0.1296831E+00
          3   -1    0    0  501    0  0.00000000000E+00  0.00000000000E+00  0.78535033802E+02  0.78535033802E+02  0.00000000000E+00 0. -1.
         -3   -1    0    0    0  501 -0.00000000000E+00 -0.00000000000E+00 -0.19807943292E+03  0.19807943292E+03  0.00000000000E+00 0.  1.
         23    2    1    2    0    0 -0.19585619572E+02 -0.46717857432E+02 -0.65168409030E+02  0.14986972120E+03  0.12509139498E+03 0.  0.
          5    1    3    3  502    0 -0.60855937615E+02 -0.64373732457E+02 -0.52424542677E+02  0.10302052052E+03  0.41800000000E+01 0. -1.
         -5    1    3    3    0  502  0.41270318042E+02  0.17655875026E+02 -0.12743866353E+02  0.46849200675E+02  0.41800000000E+01 0. -1.
        -11    1    1    2    0    0  0.12118794789E+02  0.18542314646E+02  0.30105168460E+02  0.37376513849E+02  0.00000000000E+00 0. -1.
         11    1    1    2    0    0  0.74668247833E+01  0.28175542786E+02 -0.84481158545E+02  0.89368231675E+02  0.00000000000E+00 0.  1.
</event>
<event>
 7    1  0.4966153E-006  0.1273030E+03  0.7561462E-02  0.1231513E+00
          1   -1    0    0  501    0  0.00000000000E+00  0.00000000000E+00  0.23832097209E+03  0.23832097209E+03  0.00000000000E+00 0. -1.
         -1   -1    0    0    0  501 -0.00000000000E+00 -0.00000000000E+00 -0.11490311769E+03  0.11490311769E+03  0.00000000000E+00 0.  1.
         23    2    1    2    0    0 -0.36027908568E+02  0.10457682745E+03  0.66938619749E+01  0.16712369338E+03  0.12510474837E+03 0.  0.
          5    1    3    3  502    0 -0.20758080831E+02  0.33594237468E+02  0.63463368470E+02  0.74863490758E+02  0.41800000000E+01 0. -1.
         -5    1    3    3    0  502 -0.15269827737E+02  0.70982589984E+02 -0.56769506495E+02  0.92260202621E+02  0.41800000000E+01 0. -1.
        -11    1    1    2    0    0  0.61428595360E+02 -0.41401228967E+02  0.78834063436E+02  0.10817737123E+03  0.00000000000E+00 0.  1.
         11    1    1    2    0    0 -0.25400686792E+02 -0.63175598485E+02  0.37889928984E+02  0.77923025171E+02  0.00000000000E+00 0. -1.
</event>
<event>
 7    1  0.4966153E-006  0.1665474E+03  0.7561462E-02  0.1181497E+00
         -1   -1    0    0    0  501 -0.00000000000E+00  0.00000000000E+00  0.17112478393E+03  0.17112478393E+03  0.00000000000E+00 0.  1.
          1   -1    0    0  501    0  0.00000000000E+00 -0.00000000000E+00 -0.21680210398E+03  0.21680210398E+03  0.00000000000E+00 0. -1.
         23    2    1    2    0    0  0.15394589255E+03 -0.38266865805E+02 -0.62006814957E+01  0.20211601228E+03  0.12509493642E+03 0.  0.
          5    1    3    3  502    0  0.13096731765E+03 -0.41011600037E+02  0.46048751100E+02  0.14481833277E+03  0.41800000000E+01 0.  1.
         -5    1    3    3    0  502  0.22978574909E+02  0.27447342322E+01 -0.52249432596E+02  0.57297679512E+02  0.41800000000E+01 0.  1.
        -11    1    1    2    0    0 -0.74180137609E+02 -0.15889907559E+02  0.11533953504E+02  0.76734699200E+02  0.00000000000E+00 0.  1.
         11    1    1    2    0    0 -0.79765754946E+02  0.54156773364E+02 -0.51010592055E+02  0.10907617643E+03  0.00000000000E+00 0. -1.
</event>
<event>
 7    1  0.4966153E-006  0.1042206E+03  0.7561462E-02  0.1271663E+00
         -2   -1    0    0    0  501 -0.00000000000E+00  0.00000000000E+00  0.88681640011E+02  0.88681640011E+02  0.00000000000E+00 0. -1.
          2   -1    0    0  501    0  0.00000000000E+00 -0.00000000000E+00 -0.23115302023E+03  0.23115302023E+03  0.00000000000E+00 0.  1.
         23    2    1    2    0    0 -0.18181048586E+02 -0.43767700355E+01  0.85797850390E+00  0.12648440930E+03  0.12509141867E+03 0.  0.
          5    1    3    3  502    0 -0.44392249706E+02 -0.42466279983E+02  0.33150987831E+02  0.69932232652E+02  0.41800000000E+01 0.  1.
         -5    1    3    3    0  502  0.26211201120E+02  0.38089509947E+02 -0.32293009327E+02  0.56552176647E+02  0.41800000000E+01 0.  1.
        -11    1    1    2    0    0 -0.32541792363E+02  0.29422669756E+02 -0.53142054284E+01  0.44191656736E+02  0.00000000000E+00 0. -1.
         11    1    1    2    0    0  0.50722840949E+02 -0.25045899720E+02 -0.13801515330E+03  0.14915859421E+03  0.00000000000E+00 0.  1.
</event>
<event>
 7    1  0.4966153E-006  0.1075145E+03  0.7561462E-02  0.1265243E+00
          2   -1    0    0  501    0  0.00000000000E+00  0.00000000000E+00  0.62959244686E+02  0.62959244686E+02  0.00000000000E+00 0.  1.
         -2   -1    0    0    0  501 -0.00000000000E+00 -0.00000000000E+00 -0.21929983348E+03  0.21929983348E+03  0.00000000000E+00 0. -1.
         23    2    1    2    0    0 -0.98406928372E+01 -0.42252528422E+02 -0.10929993952E+03  0.17168591131E+03  0.12508980763E+03 0.  0.
          5    1    3    3  502    0  0.47144537024E+01  0.35350744031E+02  0.10622997043E+01  0.35923558536E+02  0.41800000000E+01 0.  1.
         -5    1    3    3    0  502 -0.14555146540E+02 -0.77603272452E+02 -0.11036223922E+03  0.13576235278E+03  0.41800000000E+01 0.  1.
        -11    1    1    2    0    0 -0.19551622268E+02  0.61757653462E+02 -0.29574088261E+02  0.71210254816E+02  0.00000000000E+00 0.  1.
         11    1    1    2    0    0  0.29392315105E+02 -0.19505125040E+02 -0.17466561015E+02  0.39362912033E+02  0.00000000000E+00 0. -1.
</event>
<event>
 6    1  0.4966153E-006  0.8111569E+02  0.7561462E-02  0.1325915E+00
          2   -1    0    0  501    0  0.00000000000E+00  0.00000000000E+00  0.55198018542E+03  0.55198018542E+03  0.00000000000E+00 0. -1.
         -2   -1    0    0    0  501 -0.00000000000E+00 -0.00000000000E+00 -0.80890086020E+02  0.80890086020E+02  0.00000000000E+00 0.  1.
          5    1    1    2  502    0 -0.21925399670E+02 -0.30574606228E+02  0.40272964907E+03  0.40450484835E+03  0.41800000000E+01 0. -1.
         -5    1    1    2    0  502  0.11494908968E+02  0.28137982140E+02 -0.60321145062E+02  0.67675637512E+02  0.41800000000E+01 0.  1.
        -11    1    1    2    0    0  0.47877690711E+02  0.20544455536E+02  0.89424853741E+02  0.10349469739E+03  0.00000000000E+00 0.  1.
         11    1    1    2    0    0 -0.37447200009E+02 -0.18107831448E+02  0.39256741654E+02  0.57195088194E+02  0.00000000000E+00 0. -1.
</event>
<event>
 7    1  0.4966153E-006  0.1479479E+03  0.7561462E-02  0.1203017E+00
         -3   -1    0    0    0  501 -0.00000000000E+00  0.00000000000E+00  0.96251777080E+03  0.96251777080E+03  0.00000000000E+00 0.  1.
          3   -1    0    0  501    0  0.00000000000E+00 -0.00000000000E+00 -0.26760150536E+02  0.26760150536E+02  0.00000000000E+00 0. -1.
         23    2    1    2    0    0  0.30641323408E+01  0.10835659524E+03  0.64692980304E+03  0.66777218394E+03  0.12510387259E+03 0.  0.
          5    1    3    3  502    0 -0.46483794558E+02  0.15199032363E+02  0.10851205807E+03  0.11909698942E+03  0.41800000000E+01 0.  1.
         -5    1    3    3    0  502  0.49547926899E+02  0.93157562881E+02  0.53841774497E+03  0.54867519452E+03  0.41800000000E+01 0.  1.
        -11    1    1    2    0    0 -0.58346898784E+01  0.15895057455E+02  0.35896513014E+02  0.39689496142E+02  0.00000000000E+00 0. -1.
         11    1    1    2    0    0  0.27705575376E+01 -0.12425165270E+03  0.25293130420E+03  0.28181624125E+03  0.00000000000E+00 0.  1.
</event>
<event>
 7    1  0.4966153E-006  0.9623636E+02  0.7561462E-02  0.1288416E+00
         -2   -1    0    0    0  501 -0.00000000000E+00  0.00000000000E+00  0.48245487445E+02  0.48245487445E+02  0.00000000000E+00 0.  1.
          2   -1    0    0  501    0  0.00000000000E+00 -0.00000000000E+00 -0.35011960187E+03  0.35011960187E+03  0.00000000000E+00 0. -1.
         23    2    1    2    0    0  0.31519390558E+02  0.32215376398E+01 -0.69615029217E+02  0.14667211068E+03  0.12515033150E+03 0.  0.
          5    1    3    3  502    0  0.67408157149E+02  0.61059017060E+01 -0.83754435977E+02  0.10776557721E+03  0.41800000000E+01 0.  1.
         -5    1    3    3    0  502 -0.35888766590E+02 -0.28843640662E+01  0.14139406759E+02  0.38906533474E+02  0.41800000000E+01 0.  1.
        -11    1    1    2    0    0  0.25248405573E+02  0.14282520618E+02 -0.33837549818E+02  0.44569632676E+02  0.00000000000E+00 0.  1.
         11    1    1    2    0    0 -0.56767796132E+02 -0.17504058257E+02 -0.19842153539E+03  0.20712334595E+03  0.00000000000E+00 0. -1.
</event>
<event>
 7    1  0.4966153E-006  0.1071976E+03  0.7561462E-02  0.1265849E+00
         -3   -1    0    0    0  501 -0.00000000000E+00  0.00000000000E+00  0.90333127801E+02  0.90333127801E+02  0.00000000000E+00 0.  1.
          3   -1    0    0  501    0  0.00000000000E+00 -0.00000000000E+00 -0.18984758321E+03  0.18984758321E+03  0.00000000000E+00 0. -1.
         23    2    1    2    0    0  0.33595736855E+02  0.45537930831E+02 -0.41363014763E+01  0.13736862202E+03  0.12510256850E+03 0.  0.
          5    1    3    3  502    0 -0.22078046170E+02  0.72070135157E+02 -0.24070590082E+01  0.75530198182E+02  0.41800000000E+01 0.  1.
         -5    1    3    3    0  502  0.55673783025E+02 -0.26532204327E+02 -0.17292424681E+01  0.61838423834E+02  0.41800000000E+01 0.  1.
        -11    1    1    2    0    0 -0.25755933004E+02  0.47530427506E+01  0.81659579802E+01  0.27434328314E+02  0.00000000000E+00 0.  1.
         11    1    1    2    0    0 -0.78398038509E+01 -0.50290973581E+02 -0.10354411191E+03  0.11537776068E+03  0.00000000000E+00 0. -1.
</event>
<event>
 7    1  0.4966153E-006  0.1099525E+03  0.7561462E-02  0.1260658E+00
          2   -1    0    0  501    0  0.00000000000E+00  0.00000000000E+00  0.46774604775E+03  0.46774604775E+03  0.00000000000E+00 0. -1.
         -2   -1    0    0    0  501 -0.00000000000E+00 -0.00000000000E+00 -0.34003263000E+02  0.34003263000E+02  0.00000000000E+00 0.  1.
         23    2    1    2    0    0 -0.24326192561E+02 -0.28198196621E+02  0.14338331074E+03  0.19388948249E+03  0.12508979048E+03 0.  0.
          5    1    3    3  502    0  0.23409482094E+02  0.36301361674E+02  0.81996380236E+02  0.92772148208E+02  0.41800000000E+01 0. -1.
         -5    1    3    3    0  502 -0.47735674655E+02 -0.64499558296E+02  0.61386930506E+02  0.10111733428E+03  0.41800000000E+01 0. -1.
        -11    1    1    2    0    0  0.19615963468E+02  0.60455167047E+02  0.13631901952E+03  0.15040774026E+03  0.00000000000E+00 0.  1.
         11    1    1    2    0    0  0.47102290925E+01 -0.32256970426E+02  0.15404045449E+03  0.15745208801E+03  0.00000000000E+00 0. -1.
</event>
<event>
 7    1  0.4966153E-006  0.1841324E+03  0.7561462E-02  0.1163863E+00
          2   -1    0    0  501    0  0.00000000000E+00  0.00000000000E+00  0.69665218963E+02  0.69665218963E+02  0.00000000000E+00 0.  1.
         -2   -1    0    0    0  501 -0.00000000000E+00 -0.00000000000E+00 -0.62875460301E+03  0.62875460301E+03  0.00000000000E+00 0. -1.
         23    2    1    2    0    0 -0.14317518163E+03 -0.10764936410E+03 -0.31258776001E+03  0.38137202496E+03  0.12508395376E+03 0.  0.
          5    1    3    3  502    0 -0.46742346423E+02 -0.22667499063E+02 -0.21141093622E+03  0.21774002576E+03  0.41800000000E+01 0.  1.
         -5    1    3    3    0  502 -0.96432835210E+02 -0.84981865037E+02 -0.10117682379E+03  0.16363199921E+03  0.41800000000E+01 0.  1.
        -11    1    1    2    0    0  0.95814232004E+02  0.37470395522E+02 -0.18743938890E+03  0.21381749719E+03  0.00000000000E+00 0. -1.
         11    1    1    2    0    0  0.47360949629E+02  0.70178968578E+02 -0.59062235133E+02  0.10323029981E+03  0.00000000000E+00 0.  1.
</event>
<event>
 7    1  0.4966153E-006  0.1437479E+03  0.7561462E-02  0.1208373E+00
          2   -1    0    0  501    0  0.00000000000E+00  0.00000000000E+00  0.58247346488E+02  0.58247346488E+02  0.00000000000E+00 0. -1.
         -2   -1    0    0    0  501 -0.00000000000E+00 -0.00000000000E+00 -0.40310511715E+03  0.40310511715E+03  0.00000000000E+00 0.  1.
         23    2    1    2    0    0 -0.97717666534E+02 -0.41455328115E+02 -0.17905296437E+03  0.24284644338E+03  0.12508854635E+03 0.  0.
          5    1    3    3  502    0 -0.10299882370E+03 -0.74622803895E+02 -0.12073222122E+03  0.17541682412E+03  0.41800000000E+01 0. -1.
         -5    1    3    3    0  502  0.52811571647E+01  0.33167475780E+02 -0.58320743151E+02  0.67429619251E+02  0.41800000000E+01 0. -1.
        -11    1    1    2    0    0  0.59657635096E+02  0.59512726537E+02 -0.56740728003E+02  0.10158891800E+03  0.00000000000E+00 0. -1.
         11    1    1    2    0    0  0.38060031437E+02 -0.18057398422E+02 -0.10906407828E+03  0.11691710227E+03  0.00000000000E+00 0.  1.
</event>
<event>
 7    1  0.4966153E-006  0.8031950E+02  0.7561462E-02  0.1328147E+00
          1   -1    0    0  501    0  0.00000000000E+00  0.00000000000E+00  0.30462670467E+02  0.30462670467E+02  0.00000000000E+00 0. -1.
         -1   -1    0    0    0  501 -0.00000000000E+00 -0.00000000000E+00 -0.89130009434E+03  0.89130009434E+03  0.00000000000E+00 0.  1.
         23    2    1    2    0    0  0.34203038131E+01  0.30356555628E+01 -0.79867865404E+03  0.80843038345E+03  0.12510467131E+03 0.  0.
          5    1    3    3  502    0 -0.23614986149E+02 -0.24275565070E+02 -0.71960635429E+03  0.72041498330E+03  0.41800000000E+01 0. -1.
         -5    1    3    3    0  502  0.27035289962E+02  0.27311220633E+02 -0.79072299750E+02  0.88015400150E+02  0.41800000000E+01 0. -1.
        -11    1    1    2    0    0  0.42012536923E+02  0.25189226868E+01 -0.51179862815E+02  0.66262935251E+02  0.00000000000E+00 0. -1.
         11    1    1    2    0    0 -0.45432840736E+02 -0.55545782496E+01 -0.10978907012E+02  0.47069446099E+02  0.00000000000E+00 0.  1.
</event>
<event>
 7    1  0.4966153E-006  0.9390926E+02  0.7561462E-02  0.1293652E+00
         -1   -1    0    0    0  501 -0.00000000000E+00  0.00000000000E+00  0.63036387719E+02  0.63036387719E+02  0.00000000000E+00 0.  1.
          1   -1    0    0  501    0  0.00000000000E+00 -0.00000000000E+00 -0.30526464620E+03  0.30526464620E+03  0.00000000000E+00 0. -1.
         23    2    1    2    0    0 -0.22149089109E+02  0.15103924305E+02 -0.25473036994E+02  0.13044346119E+03  0.12509160753E+03 0.  0.
          5    1    3    3  502    0 -0.90967152148E+01  0.63280668136E+02  0.15287044078E+02  0.65866222785E+02  0.41800000000E+01 0. -1.
         -5    1    3    3    0  502 -0.13052373894E+02 -0.48176743831E+02 -0.40760081072E+02  0.64577238400E+02  0.41800000000E+01 0. -1.
        -11    1    1    2    0    0  0.31001095598E+02  0.20374175314E+02 -0.30437311271E+02  0.47985465148E+02  0.00000000000E+00 0.  1.
         11    1    1    2    0    0 -0.88520064894E+01 -0.35478099619E+02 -0.18631791022E+03  0.18987210758E+03  0.00000000000E+00 0. -1.
</event>
<event>
 7    1  0.4966153E-006  0.4051357E+03  0.7561462E-02  0.1042016E+00
         -2   -1    0    0    0  501 -0.00000000000E+00  0.00000000000E+00  0.98510957260E+02  0.98510957260E+02  0.00000000000E+00 0.  1.
          2   -1    0    0  501    0  0.00000000000E+00 -0.00000000000E+00 -0.19328664956E+04  0.19328664956E+04  0.00000000000E+00 0. -1.
         23    2    1    2    0    0  0.35063516454E+03 -0.19399565049E+03 -0.62663838793E+03  0.75425604605E+03  0.12508869955E+03 0.  0.
          5    1    3    3  502    0  0.34675420394E+03 -0.17260608207E+03 -0.53829893931E+03  0.66318516116E+03  0.41800000000E+01 0. -1.
         -5    1    3    3    0  502  0.38809605969E+01 -0.21389568423E+02 -0.88339448623E+02  0.91070884895E+02  0.41800000000E+01 0. -1.
        -11    1    1    2    0    0 -0.22741167647E+03  0.12237325702E+03 -0.92693201169E+03  0.96223398346E+03  0.00000000000E+00 0. -1.
         11    1    1    2    0    0 -0.12322348807E+03  0.71622393470E+02 -0.28078513872E+03  0.31488742335E+03  0.00000000000E+00 0.  1.
</event>
<event>
 7    1  0.4966153E-006  0.1018469E+03  0.7561462E-02  0.1276459E+00
         -1   -1    0    0    0  501 -0.00000000000E+00  0.00000000000E+00  0.10953287564E+04  0.10953287564E+04  0.00000000000E+00 0.  1.
          1   -1    0    0  501    0  0.00000000000E+00 -0.00000000000E+00 -0.15840256686E+02  0.15840256686E+02  0.00000000000E+00 0. -1.
         23    2    1    2    0    0  0.31831159492E+02 -0.17101203578E+01  0.88140493417E+03  0.89080792800E+03  0.12509180378E+03 0.  0.
          5    1    3    3  502    0  0.62595651139E+02  0.38484207591E+02  0.39848997118E+03  0.40522953903E+03  0.41800000000E+01 0.  1.
         -5    1    3    3    0  502 -0.30764491647E+02 -0.40194327949E+02  0.48291496300E+03  0.48557838897E+03  0.41800000000E+01 0.  1.
        -11    1    1    2    0    0 -0.54153016869E+02  0.10774449960E+02  0.18475247609E+03  0.19282664606E+03  0.00000000000E+00 0.  1.
         11    1    1    2    0    0  0.22321857377E+02 -0.90643296025E+01  0.13331089488E+02  0.27534439069E+02  0.00000000000E+00 0. -1.
</event>
<event>
 7    1  0.4966153E-006  0.9841951E+02  0.7561462E-02  0.1283655E+00
         -1   -1    0    0    0  501 -0.00000000000E+00  0.00000000000E+00  0.23369777281E+03  0.23369777281E+03  0.00000000000E+00 0.  1.
          1   -1    0    0  501    0  0.00000000000E+00 -0.00000000000E+00 -0.78417245361E+02  0.78417245361E+02  0.00000000000E+00 0. -1.
         23    2    1    2    0    0  0.62773042486E+02 -0.11774532533E+02  0.14316120245E+03  0.20055540902E+03  0.12509295633E+03 0.  0.
          5    1    3    3  502    0 -0.22652389578E+02 -0.26102573962E+02  0.19819505924E+01  0.34869408501E+02  0.41800000000E+01 0.  1.
         -5    1    3    3    0  502  0.85425432064E+02  0.14328041430E+02  0.14117925185E+03  0.16568600052E+03  0.41800000000E+01 0.  1.
        -11    1    1    2    0    0 -0.18590813482E+02  0.23142804613E+02 -0.35054039622E+02  0.45934664961E+02  0.00000000000E+00 0. -1.
         11    1    1    2    0    0 -0.44182229005E+02 -0.11368272080E+02  0.47173364627E+02  0.65624944191E+02  0.00000000000E+00 0.  1.
</event>
<event>
 7    1  0.4966153E-006  0.1143840E+03  0.7561462E-02  0.1252660E+00
          2   -1    0    0  501    0  0.00000000000E+00  0.00000000000E+00  0.19193575907E+03  0.19193575907E+03  0.00000000000E+00 0.  1.
         -2   -1    0    0    0  501 -0.00000000000E+00 -0.00000000000E+00 -0.92077056660E+02  0.92077056660E+02  0.00000000000E+00 0. -1.
         23    2    1    2    0    0 -0.27436737458E+02  0.27305472763E+02 -0.15635430981E+02  0.13194932267E+03  0.12517105754E+03 0.  0.
          5    1    3    3  502    0  0.69457987468E+01  0.72538534380E+02 -0.45785177785E+00  0.72991541418E+02  0.41800000000E+01 0.  1.
         -5    1    3    3    0  502 -0.34382536205E+02 -0.45233061617E+02 -0.15177579204E+02  0.58957781247E+02  0.41800000000E+01 0.  1.
        -11    1    1    2    0    0  0.37576021040E+02 -0.56526933345E+02  0.82600961327E+02  0.10691197483E+03  0.00000000000E+00 0.  1.
         11    1    1    2    0    0 -0.10139283582E+02  0.29221460582E+02  0.32893172059E+02  0.45151518227E+02  0.00000000000E+00 0. -1.
</event>
<event>
 7    1  0.4966153E-006  0.2289053E+03  0.7561462E-02  0.1127413E+00
         -2   -1    0    0    0  501 -0.00000000000E+00  0.00000000000E+00  0.11269973942E+03  0.11269973942E+03  0.00000000000E+00 0.  1.
          2   -1    0    0  501    0  0.00000000000E+00 -0.00000000000E+00 -0.55214473108E+03  0.55214473108E+03  0.00000000000E+00 0. -1.
         23    2    1    2    0    0  0.20452053369E+03  0.33870944293E+02 -0.11286892828E+03  0.26713018732E+03  0.12507298845E+03 0.  0.
          5    1    3    3  502    0  0.11182086603E+03  0.79483171416E+02 -0.78784103290E+02  0.15825892692E+03  0.41800000000E+01 0. -1.
         -5    1    3    3    0  502  0.92699667662E+02 -0.45612227123E+02 -0.34084824985E+02  0.10887126040E+03  0.41800000000E+01 0. -1.
        -11    1    1    2    0    0 -0.74098861331E+02  0.18888603592E+02 -0.17462165020E+03  0.19063090335E+03  0.00000000000E+00 0. -1.
         11    1    1    2    0    0 -0.13042167236E+03 -0.52759547884E+02 -0.15195441319E+03  0.20708337983E+03  0.00000000000E+00 0.  1.
</event>
<event>
 7    1  0.4966153E-006  0.2468548E+03  0.7561462E-02  0.1115309E+00
         -2   -1    0    0    0  501 -0.00000000000E+00  0.00000000000E+00  0.12780116883E+03  0.12780116883E+03  0.00000000000E+00 0. -1.
          2   -1    0    0  501    0  0.00000000000E+00 -0.00000000000E+00 -0.82378180231E+03  0.82378180231E+03  0.00000000000E+00 0.  1.
         23    2    1    2    0    0  0.23634589301E+03  0.14926186595E+02 -0.71210448072E+02  0.27713066379E+03  0.12509318410E+03 0.  0.
          5    1    3    3  502    0  0.73515070088E+02 -0.12727282289E+02 -0.82770187274E+02  0.11151154894E+03  0.41800000000E+01 0.  1.
         -5    1    3    3    0  502  0.16283082293E+03  0.27653468884E+02  0.11559739202E+02  0.16561911486E+03  0.41800000000E+01 0.  1.
        -11    1    1    2    0    0 -0.95975637795E+02 -0.51212283521E+02 -0.25185955484E+03  0.27434878604E+03  0.00000000000E+00 0.  1.
         11    1    1    2    0    0 -0.14037025522E+03  0.36286096926E+02 -0.37291063056E+03  0.40010352131E+03  0.00000000000E+00 0. -1.
</event>
<event>
 7    1  0.4966153E-006  0.1765942E+03  0.7561462E-02  0.1171140E+00
         -2   -1    0    0    0  501 -0.00000000000E+00  0.00000000000E+00  0.10193440222E+03  0.10193440222E+03  0.00000000000E+00 0.  1.
          2   -1    0    0  501    0  0.00000000000E+00 -0.00000000000E+00 -0.39838569070E+03  0.39838569070E+03  0.00000000000E+00 0. -1.
         23    2    1    2    0    0 -0.16546948334E+03  0.58313018016E+01 -0.11524702780E+03  0.23736864319E+03  0.12509133205E+03 0.  0.
          5    1    3    3  502    0 -0.15857215074E+03 -0.16897288399E+02 -0.13277830402E+03  0.20755287462E+03  0.41800000000E+01 0.  1.
         -5    1    3    3    0  502 -0.68973326077E+01  0.22728590200E+02  0.17531276219E+02  0.29815768571E+02  0.41800000000E+01 0.  1.
        -11    1    1    2    0    0  0.98913368277E+02 -0.21382003265E+02 -0.16360433986E+03  0.19237313874E+03  0.00000000000E+00 0. -1.
         11    1    1    2    0    0  0.66556115066E+02  0.15550701463E+02 -0.17599920824E+02  0.70578310986E+02  0.00000000000E+00 0.  1.
</event>
<event>
 7    1  0.4966153E-006  0.7885458E+02  0.7561462E-02  0.1332334E+00
          2   -1    0    0  501    0  0.00000000000E+00  0.00000000000E+00  0.56461475680E+02  0.56461475680E+02  0.00000000000E+00 0. -1.
         -2   -1    0    0    0  501 -0.00000000000E+00 -0.00000000000E+00 -0.31050594809E+03  0.31050594809E+03  0.00000000000E+00 0.  1.
         23    2    1    2    0    0  0.19207383298E+02 -0.73071500487E+02 -0.16700140118E+03  0.22191743725E+03  0.12509801440E+03 0.  0.
          5    1    3    3  502    0  0.19140359844E+02 -0.71845706972E+02 -0.23127570293E+02  0.77977662781E+02  0.41800000000E+01 0.  1.
         -5    1    3    3    0  502  0.67023453959E-01 -0.12257935151E+01 -0.14387383088E+03  0.14393977447E+03  0.41800000000E+01 0.  1.
        -11    1    1    2    0    0 -0.72342255767E+01  0.62482132640E+02 -0.68407990169E+01  0.63270431089E+02  0.00000000000E+00 0. -1.
         11    1    1    2    0    0 -0.11973157722E+02  0.10589367847E+02 -0.80202272218E+02  0.81779555429E+02  0.00000000000E+00 0.  1.
</event>
<event>
 7    1  0.4966153E-006  0.9848128E+02  0.7561462E-02  0.1283522E+00
         -1   -1    0    0    0  501 -0.00000000000E+00  0.00000000000E+00  0.22561072528E+02  0.22561072528E+02  0.00000000000E+00 0.  1.
          1   -1    0    0  501    0  0.00000000000E+00 -0.00000000000E+00 -0.70889833471E+03  0.70889833471E+03  0.00000000000E+00 0. -1.
         23    2    1    2    0    0  0.42940862876E+02  0.35324963822E+02 -0.32647385838E+03  0.35401240331E+03  0.12509128953E+03 0.  0.
          5    1    3    3  502    0  0.27867706606E+02 -0.14459935214E+02 -0.28658226547E+03  0.28832718581E+03  0.41800000000E+01 0.  1.
         -5    1    3    3    0  502  0.15073156270E+02  0.49784899036E+02 -0.39891592910E+02  0.65685217491E+02  0.41800000000E+01 0.  1.
        -11    1    1    2    0    0 -0.39181756763E+02  0.28952422784E+02 -0.13381923340E+03  0.14241151666E+03  0.00000000000E+00 0.  1.
         11    1    1    2    0    0 -0.37591061136E+01 -0.64277386606E+02 -0.22604417040E+03  0.23503548727E+03  0.00000000000E+00 0. -1.
</event>
<event>
 7    1  0.4966153E-006  0.1185143E+03  0.7561462E-02  0.1245568E+00
          4   -1    0    0  501    0  0.00000000000E+00  0.00000000000E+00  0.27259725432E+02  0.27259725432E+02  0.00000000000E+00 0. -1.
         -4   -1    0    0    0  501 -0.00000000000E+00 -0.00000000000E+00 -0.84061726070E+03  0.84061726070E+03  0.00000000000E+00 0.  1.
         23    2    1    2    0    0 -0.63356450282E+02 -0.27978680169E+02 -0.66359657983E+03  0.67882502720E+03  0.12508457323E+03 0.  0.
          5    1    3    3  502    0  0.29708934405E+02  0.17901259171E+02 -0.24812558447E+03  0.25057305108E+03  0.41800000000E+01 0. -1.
         -5    1    3    3    0  502 -0.93065384688E+02 -0.45879939339E+02 -0.41547099536E+03  0.42825197612E+03  0.41800000000E+01 0. -1.
        -11    1    1    2    0    0 -0.15395515659E+02  0.55378504979E+01 -0.79461711632E+02  0.81128621990E+02  0.00000000000E+00 0.  1.
         11    1    1    2    0    0  0.78751965941E+02  0.22440829671E+02 -0.70299243803E+02  0.10792333693E+03  0.00000000000E+00 0. -1.
</event>
<event>
 7    1  0.4966153E-006  0.8819871E+02  0.7561462E-02  0.1307273E+00
          3   -1    0    0  501    0  0.00000000000E+00  0.00000000000E+00  0.23168632075E+03  0.23168632075E+03  0.00000000000E+00 0. -1.
         -3   -1    0    0    0  501 -0.00000000000E+00 -0.00000000000E+00 -0.63415667789E+02  0.63415667789E+02  0.00000000000E+00 0.  1.
         23    2    1    2    0    0  0.51188703247E+02 -0.16589360957E+02  0.94472692851E+02  0.16573556830E+03  0.12509076173E+03 0.  0.
          5    1    3    3  502    0  0.50304177644E+02 -0.35574820710E+02  0.11921331727E+03  0.13425857727E+03  0.41800000000E+01 0.  1.
         -5    1    3    3    0  502  0.88452560293E+00  0.18985459752E+02 -0.24740624420E+02  0.31476991029E+02  0.41800000000E+01 0.  1.
        -11    1    1    2    0    0 -0.18308711524E+01 -0.28363633447E+02  0.51781575738E+02  0.59069276087E+02  0.00000000000E+00 0.  1.
         11    1    1    2    0    0 -0.49357832095E+02  0.44952994404E+02  0.22016384374E+02  0.70297144152E+02  0.00000000000E+00 0. -1.
</event>
<event>
 7    1  0.4966153E-006  0.1041225E+03  0.7561462E-02  0.1271858E+00
          2   -1    0    0  501    0  0.00000000000E+00  0.00000000000E+00  0.54776193219E+02  0.54776193219E+02  0.00000000000E+00 0. -1.
         -2   -1    0    0    0  501 -0.00000000000E+00 -0.00000000000E+00 -0.37111034019E+03  0.37111034019E+03  0.00000000000E+00 0.  1.
         23    2    1    2    0    0 -0.56907207805E+02  0.58654216342E+02 -0.23468556423E+03  0.27821499764E+03  0.12509006140E+03 0.  0.
          5    1    3    3  502    0 -0.26930790416E+02  0.75720074752E+02 -0.22935309451E+03  0.24306195004E+03  0.41800000000E+01 0.  1.
         -5    1    3    3    0  502 -0.29976417389E+02 -0.17065858410E+02 -0.53324697179E+01  0.35153047607E+02  0.41800000000E+01 0.  1.
        -11    1    1    2    0    0  0.43044123263E+02 -0.12485493899E+02 -0.88286937953E+02  0.99011451451E+02  0.00000000000E+00 0.  1.
         11    1    1    2    0    0  0.13863084542E+02 -0.46168722443E+02  0.66383552184E+01  0.48660084310E+02  0.00000000000E+00 0. -1.
</event>
<event>
 7    1  0.4966153E-006  0.1063317E+03  0.7561462E-02  0.1267518E+00
          1   -1    0    0  501    0  0.00000000000E+00  0.00000000000E+00  0.45266290972E+03  0.45266290972E+03  0.00000000000E+00 0. -1.
         -1   -1    0    0    0  501 -0.00000000000E+00 -0.00000000000E+00 -0.29830607095E+02  0.29830607095E+02  0.00000000000E+00 0.  1.
         23    2    1    2    0    0  0.36016797045E+01 -0.30024544482E+02  0.16882058325E+03  0.21222266297E+03  0.12499449579E+03 0.  0.
          5    1    3    3  502    0 -0.49212886193E+02 -0.46679921596E+02  0.62776721323E+02  0.92516551966E+02  0.41800000000E+01 0. -1.
         -5    1    3    3    0  502  0.52814565898E+02  0.16655377114E+02  0.10604386193E+03  0.11970611100E+03  0.41800000000E+01 0. -1.
        -11    1    1    2    0    0 -0.14650733618E+02  0.57614684217E+02  0.19968064707E+03  0.20834216244E+03  0.00000000000E+00 0.  1.
         11    1    1    2    0    0  0.11049053913E+02 -0.27590139735E+02  0.54331072301E+02  0.61928691415E+02  0.00000000000E+00 0. -1.
</event>
<event>
 7    1  0.4966153E-006  0.8584067E+02  0.7561462E-02  0.1313249E+00
          2   -1    0    0  501    0  0.00000000000E+00  0.00000000000E+00  0.16475778766E+03  0.16475778766E+03  0.00000000000E+00 0. -1.
         -2   -1    0    0    0  501 -0.00000000000E+00 -0.00000000000E+00 -0.10028956334E+03  0.10028956334E+03  0.00000000000E+00 0.  1.
         23    2    1    2    0    0 -0.56109678802E+02 -0.25960819966E+00 -0.45045602702E+01  0.13720940784E+03  0.12513099969E+03 0.  0.
          5    1    3    3  502    0 -0.43030146886E+02  0.19597037031E+02  0.55203824819E+02  0.72805027822E+02  0.41800000000E+01 0. -1.
         -5    1    3    3    0  502 -0.13079531916E+02 -0.19856645231E+02 -0.59708385090E+02  0.64404380014E+02  0.41800000000E+01 0. -1.
        -11    1    1    2    0    0  0.52592357202E+02 -0.35941788122E+02  0.65392229769E+02  0.91290261713E+02  0.00000000000E+00 0.  1.
         11    1    1    2    0    0  0.35173216002E+01  0.36201396322E+02  0.35805548243E+01  0.36547681455E+02  0.00000000000E+00 0. -1.
</event>
<event>
 7    1  0.4966153E-006  0.9743730E+02  0.7561462E-02  0.1285779E+00
         -2   -1    0    0    0  501 -0.00000000000E+00  0.00000000000E+00  0.19337064060E+02  0.19337064060E+02  0.00000000000E+00 0.  1.
          2   -1    0    0  501    0  0.00000000000E+00 -0.00000000000E+00 -0.65849530896E+03  0.65849530896E+03  0.00000000000E+00 0. -1.
         23    2    1    2    0    0  0.35232127837E+02 -0.60888129668E+01 -0.36896721977E+03  0.39123262268E+03  0.12509108407E+03 0.  0.
          5    1    3    3  502    0 -0.32685739759E+02 -0.20270239728E+02 -0.42598858784E+02  0.57544551193E+02  0.41800000000E+01 0.  1.
         -5    1    3    3    0  502  0.67917867596E+02  0.14181426761E+02 -0.32636836098E+03  0.33368807149E+03  0.41800000000E+01 0.  1.
        -11    1    1    2    0    0  0.10921554049E+02 -0.27504804810E+02 -0.42013984678E+02  0.51390364263E+02  0.00000000000E+00 0.  1.
         11    1    1    2    0    0 -0.46153681886E+02  0.33593617777E+02 -0.22817704045E+03  0.23520938607E+03  0.00000000000E+00 0. -1.
</event>
<event>
 7    1  0.4966153E-006  0.1788149E+03  0.7561462E-02  0.1168955E+00
          1   -1    0    0  501    0  0.00000000000E+00  0.00000000000E+00  0.10589099450E+04  0.10589099450E+04  0.00000000000E+00 0. -1.
         -1   -1    0    0    0  501 -0.00000000000E+00 -0.00000000000E+00 -0.35178273232E+02  0.35178273232E+02  0.00000000000E+00 0.  1.
         23    2    1    2    0    0  0.69216087475E+02 -0.14101928372E+03  0.45482782692E+03  0.49718755473E+03  0.12509918981E+03 0.  0.
          5    1    3    3  502    0  0.52147398796E+02 -0.15353680198E+03  0.30162883989E+03  0.34247675865E+03  0.41800000000E+01 0. -1.
         -5    1    3    3    0  502  0.17068688679E+02  0.12517518255E+02  0.15319898703E+03  0.15471079608E+03  0.41800000000E+01 0. -1.
        -11    1    1    2    0    0  0.11389446950E+02  0.54188394550E+02  0.11276913917E+03  0.12563033215E+03  0.00000000000E+00 0.  1.
         11    1    1    2    0    0 -0.80605534424E+02  0.86830889173E+02  0.45613470572E+03  0.47127033140E+03  0.00000000000E+00 0. -1.
</event>
<event>
 7    1  0.4966153E-006  0.1125553E+03  0.7561462E-02  0.1255910E+00
          1   -1    0    0  501    0  0.00000000000E+00  0.00000000000E+00  0.27768818411E+03  0.27768818411E+03  0.00000000000E+00 0. -1.
         -1   -1    0    0    0  501 -0.00000000000E+00 -0.00000000000E+00 -0.62269012217E+02  0.62269012217E+02  0.00000000000E+00 0.  1.
         23    2    1    2    0    0 -0.38296173746E+02 -0.13363710341E+02  0.37876288912E+02  0.13684398809E+03  0.12508588304E+03 0.  0.
          5    1    3    3  502    0 -0.83792087889E+02 -0.14806736373E+02  0.30798070538E+02  0.90588889957E+02  0.41800000000E+01 0. -1.
         -5    1    3    3    0  502  0.45495914143E+02  0.14430260316E+01  0.70782183744E+01  0.46255098132E+02  0.41800000000E+01 0. -1.
        -11    1    1    2    0    0  0.38225648691E+02 -0.31384657605E+02  0.12294440877E+03  0.13251990265E+03  0.00000000000E+00 0. -1.
         11    1    1    2    0    0  0.70525055014E-01  0.44748367946E+02  0.54598474214E+02  0.70593305590E+02  0.00000000000E+00 0.  1.
</event>
<event>
 7    1  0.4966153E-006  0.1439025E+03  0.7561462E-02  0.1208172E+00
          2   -1    0    0  501    0  0.00000000000E+00  0.00000000000E+00  0.53964471362E+03  0.53964471362E+03  0.00000000000E+00 0. -1.
         -2   -1    0    0    0  501 -0.00000000000E+00 -0.00000000000E+00 -0.46920899222E+02  0.46920899222E+02  0.00000000000E+00 0.  1.
         23    2    1    2    0    0  0.62040794441E+02  0.80591462635E+02  0.15467733977E+03  0.22341855046E+03  0.12508687073E+03 0.  0.
          5    1    3    3  502    0 -0.35195557792E+02  0.23688664266E+02  0.18081935083E+02  0.46306682880E+02  0.41800000000E+01 0. -1.
         -5    1    3    3    0  502  0.97236352234E+02  0.56902798370E+02  0.13659540468E+03  0.17711186758E+03  0.41800000000E+01 0. -1.
        -11    1    1    2    0    0 -0.21288782842E+01  0.17426750911E+02  0.37955052818E+02  0.41818773350E+02  0.00000000000E+00 0.  1.
         11    1    1    2    0    0 -0.59911916157E+02 -0.98018213546E+02  0.30009142182E+03  0.32132828903E+03  0.00000000000E+00 0. -1.
</event>
<event>
 6    1  0.4966153E-006  0.2568959E+03  0.7561462E-02  0.1109023E+00
         -2   -1    0    0    0  501 -0.00000000000E+00  0.00000000000E+00  0.63556310089E+03  0.63556310089E+03  0.00000000000E+00 0.  1.
          2   -1    0    0  501    0  0.00000000000E+00 -0.00000000000E+00 -0.23178323884E+03  0.23178323884E+03  0.00000000000E+00 0. -1.
          5    1    1    2  502    0  0.19493862000E+03 -0.70951161904E+02 -0.69232730537E+02  0.21873677404E+03  0.41800000000E+01 0. -1.
         -5    1    1    2    0  502 -0.15973811604E+03 -0.31884654116E+02  0.47401409424E+03  0.50123819769E+03  0.41800000000E+01 0.  1.
        -11    1    1    2    0    0  0.32269991727E+02  0.36881352582E+02 -0.16595316288E+02  0.51739646858E+02  0.00000000000E+00 0.  1.
         11    1    1    2    0    0 -0.67470495683E+02  0.65954463438E+02  0.15593814635E+02  0.95631721149E+02  0.00000000000E+00 0. -1.
</event>
<event>
 7    1  0.4966153E-006  0.7828058E+02  0.7561462E-02  0.1334003E+00
          1   -1    0    0  501    0  0.00000000000E+00  0.00000000000E+00  0.50954329911E+02  0.50954329911E+02  0.00000000000E+00 0. -1.
         -1   -1    0    0    0  501 -0.00000000000E+00 -0.00000000000E+00 -0.24616297014E+03  0.24616297014E+03  0.00000000000E+00 0.  1.
         23    2    1    2    0    0  0.27560954930E+01  0.56227536135E+01 -0.11509044818E+03  0.17009821325E+03  0.12509348292E+03 0.  0.
          5    1    3    3  502    0  0.22805509421E+02 -0.28567649958E+02 -0.12392863745E+03  0.12927482920E+03  0.41800000000E+01 0. -1.
         -5    1    3    3    0  502 -0.20049413928E+02  0.34190403572E+02  0.88381892775E+01  0.40823384046E+02  0.41800000000E+01 0. -1.
        -11    1    1    2    0    0  0.35651027078E+02  0.12054352610E+02 -0.13938000872E+01  0.37659604715E+02  0.00000000000E+00 0.  1.
         11    1    1    2    0    0 -0.38407122571E+02 -0.17677106224E+02 -0.78724391961E+02  0.89359482084E+02  0.00000000000E+00 0. -1.
</event>
<event>
 7    1  0.4966153E-006  0.9678384E+02  0.7561462E-02  0.1287208E+00
          1   -1    0    0  501    0  0.00000000000E+00  0.00000000000E+00  0.25201938992E+03  0.25201938992E+03  0.00000000000E+00 0. -1.
         -1   -1    0    0    0  501 -0.00000000000E+00 -0.00000000000E+00 -0.62366479458E+02  0.62366479458E+02  0.00000000000E+00 0.  1.
         23    2    1    2    0    0 -0.32636730158E+02  0.12444562807E+02  0.39706100732E+02  0.13581237905E+03  0.12509358325E+03 0.  0.
          5    1    3    3  502    0 -0.53907232058E+02 -0.30636587747E+02 -0.13924694780E+02  0.63686416932E+02  0.41800000000E+01 0.  1.
         -5    1    3    3    0  502  0.21270501900E+02  0.43081150555E+02  0.53630795512E+02  0.72125962118E+02  0.41800000000E+01 0.  1.
        -11    1    1    2    0    0 -0.24790814242E+02 -0.49497924999E+01  0.10125540032E+02  0.27232544456E+02  0.00000000000E+00 0.  1.
         11    1    1    2    0    0  0.57427544400E+02 -0.74947703073E+01  0.13982126970E+03  0.15134094588E+03  0.00000000000E+00 0. -1.
</event>
<event>
 7    1  0.4966153E-006  0.1530552E+03  0.7561462E-02  0.1196768E+00
         -1   -1    0    0    0  501 -0.00000000000E+00  0.00000000000E+00  0.13174020211E+03  0.13174020211E+03  0.00000000000E+00 0.  1.
          1   -1    0    0  501    0  0.00000000000E+00 -0.00000000000E+00 -0.23773211800E+03  0.23773211800E+03  0.00000000000E+00 0. -1.
         23    2    1    2    0    0 -0.78503646115E+02  0.85745178186E+02  0.24317218812E+02  0.17249186099E+03  0.12508819665E+03 0.  0.
          5    1    3    3  502    0 -0.59174472217E+01 -0.31682289525E+02  0.17567507916E+01  0.32547537917E+02  0.41800000000E+01 0. -1.
         -5    1    3    3    0  502 -0.72586198894E+02  0.11742746771E+03  0.22560468020E+02  0.13994432307E+03  0.41800000000E+01 0. -1.
        -11    1    1    2    0    0  0.97208407636E+01  0.12332953367E+02 -0.50876377603E+02  0.53244739477E+02  0.00000000000E+00 0. -1.
         11    1    1    2    0    0  0.68782805352E+02 -0.98078131554E+02 -0.79432757094E+02  0.14373571964E+03  0.00000000000E+00 0.  1.
</event>
<event>
 7    1  0.4966153E-006  0.1094167E+03  0.7561462E-02  0.1261654E+00
          1   -1    0    0  501    0  0.00000000000E+00  0.00000000000E+00  0.81623707113E+02  0.81623707113E+02  0.00000000000E+00 0. -1.
         -1   -1    0    0    0  501 -0.00000000000E+00 -0.00000000000E+00 -0.18424841618E+03  0.18424841618E+03  0.00000000000E+00 0.  1.
         23    2    1    2    0    0 -0.47565487346E+02  0.25822929468E+02 -0.79229461347E+02  0.15764666914E+03  0.12508343405E+03 0.  0.
          5    1    3    3  502    0 -0.20908415646E+02 -0.46553412671E+02 -0.58351829501E+02  0.77632406135E+02  0.41800000000E+01 0. -1.
         -5    1    3    3    0  502 -0.26657071700E+02  0.72376342140E+02 -0.20877631846E+02  0.80014263007E+02  0.41800000000E+01 0. -1.
        -11    1    1    2    0    0  0.22728828936E+02 -0.50497564173E+02 -0.41129564729E+02  0.68980031509E+02  0.00000000000E+00 0. -1.
         11    1    1    2    0    0  0.24836658410E+02  0.24674634705E+02  0.17734317006E+02  0.39245422643E+02  0.00000000000E+00 0.  1.
</event>
<event>
 7    1  0.4966153E-006  0.1099571E+03  0.7561462E-02  0.1260649E+00
          3   -1    0    0  501    0  0.00000000000E+00  0.00000000000E+00  0.13602437613E+03  0.13602437613E+03  0.00000000000E+00 0. -1.
         -3   -1    0    0    0  501 -0.00000000000E+00 -0.00000000000E+00 -0.15113283955E+03  0.15113283955E+03  0.00000000000E+00 0.  1.
         23    2    1    2    0    0 -0.63169385648E+02 -0.32602379014E+02 -0.68641316384E+02  0.15940904915E+03  0.12508528385E+03 0.  0.
          5    1    3    3  502    0  0.35889240878E+02 -0.23078728385E+02 -0.10736958268E+02  0.44197511101E+02  0.41800000000E+01 0.  1.
         -5    1    3    3    0  502 -0.99058626526E+02 -0.95236506294E+01 -0.57904358116E+02  0.11521153805E+03  0.41800000000E+01 0.  1.
        -11    1    1    2    0    0  0.62441283407E+02  0.21096814837E+02 -0.68598203185E+01  0.66264972683E+02  0.00000000000E+00 0.  1.
         11    1    1    2    0    0  0.72810224050E+00  0.11505564178E+02  0.60392673286E+02  0.61483193854E+02  0.00000000000E+00 0. -1.
</event>
<event>
 7    1  0.4966153E-006  0.1153035E+03  0.7561462E-02  0.1251052E+00
          1   -1    0    0  501    0  0.00000000000E+00  0.00000000000E+00  0.70527428078E+03  0.70527428078E+03  0.00000000000E+00 0. -1.
         -1   -1    0    0    0  501 -0.00000000000E+00 -0.00000000000E+00 -0.24180203522E+02  0.24180203522E+02  0.00000000000E+00 0.  1.
         23    2    1    2    0    0  0.37235426089E+02 -0.35815242619E+02  0.23434747416E+03  0.27062020559E+03  0.12508936193E+03 0.  0.
          5    1    3    3  502    0  0.28762554026E+02 -0.79977960935E+02  0.18554261672E+03  0.20412568130E+03  0.41800000000E+01 0. -1.
         -5    1    3    3    0  502  0.84728720635E+01  0.44162718316E+02  0.48804857447E+02  0.66494524290E+02  0.41800000000E+01 0. -1.
        -11    1    1    2    0    0  0.17857205451E+02  0.41289526892E+02  0.26671312589E+03  0.27048030675E+03  0.00000000000E+00 0. -1.
         11    1    1    2    0    0 -0.55092631540E+02 -0.54742842737E+01  0.18003347721E+03  0.18835397196E+03  0.00000000000E+00 0.  1.
</event>
<event>
 7    1  0.4966153E-006  0.2058484E+03  0.7561462E-02  0.1144896E+00
         -2   -1    0    0    0  501 -0.00000000000E+00  0.00000000000E+00  0.14514154741E+03  0.14514154741E+03  0.00000000000E+00 0.  1.
          2   -1    0    0  501    0  0.00000000000E+00 -0.00000000000E+00 -0.42197080217E+03  0.42197080217E+03  0.00000000000E+00 0. -1.
         23    2    1    2    0    0  0.13340167363E+03 -0.14773200227E+03 -0.29238790227E+02  0.23720136732E+03  0.12565361428E+03 0.  0.
          5    1    3    3  502    0  0.23816966065E+02  0.13760326694E+01 -0.45345771299E+02  0.51408683247E+02  0.41800000000E+01 0. -1.
         -5    1    3    3    0  502  0.10958470756E+03 -0.14910803494E+03  0.16106981072E+02  0.18579268407E+03  0.41800000000E+01 0.  1.
        -11    1    1    2    0    0 -0.11924465024E+03  0.14538691671E+03 -0.25243096747E+03  0.31476663657E+03  0.00000000000E+00 0. -1.
         11    1    1    2    0    0 -0.14157023387E+02  0.23450855609E+01  0.48405029343E+01  0.15144345682E+02  0.00000000000E+00 0.  1.
</event>
<event>
 7    1  0.4966153E-006  0.1078164E+03  0.7561462E-02  0.1264668E+00
         -3   -1    0    0    0  501 -0.00000000000E+00  0.00000000000E+00  0.11196093721E+04  0.11196093721E+04  0.00000000000E+00 0. -1.
          3   -1    0    0  501    0  0.00000000000E+00 -0.00000000000E+00 -0.14392957901E+02  0.14392957901E+02  0.00000000000E+00 0.  1.
         23    2    1    2    0    0  0.20974099655E+02  0.74128648602E+01  0.89373385112E+03  0.90271867334E+03  0.12508374455E+03 0.  0.
          5    1    3    3  502    0 -0.39183061649E+02 -0.34993494355E+02  0.32916326278E+03  0.33335534034E+03  0.41800000000E+01 0.  1.
         -5    1    3    3    0  502  0.60157161304E+02  0.42406359216E+02  0.56457058833E+03  0.56936333300E+03  0.41800000000E+01 0.  1.
        -11    1    1    2    0    0 -0.10998080647E+02  0.39627697586E+02  0.13326966576E+03  0.13947084285E+03  0.00000000000E+00 0. -1.
         11    1    1    2    0    0 -0.99760190076E+01 -0.47040562446E+02  0.78212897297E+02  0.91812813780E+02  0.00000000000E+00 0.  1.
</event>
<event>
 7    1  0.4966153E-006  0.1126365E+03  0.7561462E-02  0.1255764E+00
         -1   -1    0    0    0  501 -0.00000000000E+00  0.00000000000E+00  0.11785294642E+03  0.11785294642E+03  0.00000000000E+00 0.  1.
          1   -1    0    0  501    0  0.00000000000E+00 -0.00000000000E+00 -0.12048206356E+03  0.12048206356E+03  0.00000000000E+00 0. -1.
         23    2    1    2    0    0  0.26036470744E+02  0.51298971145E+02  0.17673698208E+02  0.12870758558E+03  0.11377082547E+03 0.  0.
          5    1    3    3  502    0  0.15090508441E+02 -0.36061797028E+02  0.41505250367E+01  0.39533225368E+02  0.41800000000E+01 0. -1.
         -5    1    3    3    0  502  0.10945962302E+02  0.87360768173E+02  0.13523173171E+02  0.89174360211E+02  0.41800000000E+01 0.  1.
        -11    1    1    2    0    0 -0.16631153015E+02  0.19935924590E+02  0.14556754026E+02  0.29764667437E+02  0.00000000000E+00 0.  1.
         11    1    1    2    0    0 -0.94053177288E+01 -0.71234895735E+02 -0.34859569376E+02  0.79862756959E+02  0.00000000000E+00 0. -1.
</event>
<event>
 6    1  0.4966153E-006  0.1165958E+03  0.7561462E-02  0.1248821E+00
         -2   -1    0    0    0  501 -0.00000000000E+00  0.00000000000E+00  0.46253412801E+02  0.46253412801E+02  0.00000000000E+00 0.  1.
          2   -1    0    0  501    0  0.00000000000E+00 -0.00000000000E+00 -0.50614523732E+03  0.50614523732E+03  0.00000000000E+00 0. -1.
          5    1    1    2  502    0 -0.15065713759E+02 -0.37842612948E+02 -0.88192304139E+02  0.97233708122E+02  0.41800000000E+01 0. -1.
         -5    1    1    2    0  502  0.78022410005E+02  0.48952022366E+02 -0.31258844736E+02  0.97356996312E+02  0.41800000000E+01 0.  1.
        -11    1    1    2    0    0  0.76242127378E+01 -0.26695277278E+02 -0.39319490978E+02  0.48133032520E+02  0.00000000000E+00 0. -1.
         11    1    1    2    0    0 -0.70580908984E+02  0.15585867860E+02 -0.30112118467E+03  0.30967491317E+03  0.00000000000E+00 0.  1.
</event>
<event>
 7    1  0.4966153E-006  0.1390143E+03  0.7561462E-02  0.1214661E+00
         -2   -1    0    0    0  501 -0.00000000000E+00  0.00000000000E+00  0.12248810644E+03  0.12248810644E+03  0.00000000000E+00 0.  1.
          2   -1    0    0  501    0  0.00000000000E+00 -0.00000000000E+00 -0.22200323621E+03  0.22200323621E+03  0.00000000000E+00 0. -1.
         23    2    1    2    0    0 -0.52361473692E+02 -0.10243641538E+03 -0.53593051029E+01  0.17003380899E+03  0.12509129037E+03 0.  0.
          5    1    3    3  502    0 -0.58591285045E+01 -0.10772070063E+03  0.29041932716E+02  0.11179885950E+03  0.41800000000E+01 0. -1.
         -5    1    3    3    0  502 -0.46502345188E+02  0.52842852453E+01 -0.34401237819E+02  0.58234949489E+02  0.41800000000E+01 0. -1.
        -11    1    1    2    0    0  0.11631396575E+02  0.70143172189E+02 -0.50259454698E+01  0.71278426743E+02  0.00000000000E+00 0.  1.
         11    1    1    2    0    0  0.40730077118E+02  0.32293243191E+02 -0.89129879199E+02  0.10317910692E+03  0.00000000000E+00 0. -1.
</event>
<event>
 6    1  0.4966153E-006  0.1153689E+03  0.7561462E-02  0.1250939E+00
          1   -1    0    0  501    0  0.00000000000E+00  0.00000000000E+00  0.68242939530E+02  0.68242939530E+02  0.00000000000E+00 0. -1.
         -1   -1    0    0    0  501 -0.00000000000E+00 -0.00000000000E+00 -0.35961904555E+03  0.35961904555E+03  0.00000000000E+00 0.  1.
          5    1    1    2  502    0 -0.40204168308E+02  0.58883450518E+02 -0.11826419242E+03  0.13815761833E+03  0.41800000000E+01 0. -1.
         -5    1    1    2    0  502  0.35743182117E+02 -0.70988056379E+02 -0.18077449547E+03  0.19751903662E+03  0.41800000000E+01 0.  1.
        -11    1    1    2    0    0  0.24449801995E+02  0.39113169191E+02  0.26970044963E+02  0.53432351128E+02  0.00000000000E+00 0.  1.
         11    1    1    2    0    0 -0.19988815803E+02 -0.27008563330E+02 -0.19307463104E+02  0.38752979006E+02  0.00000000000E+00 0. -1.
</event>
<event>
 7    1  0.4966153E-006  0.1487054E+03  0.7561462E-02  0.1202073E+00
          1   -1    0    0  501    0  0.00000000000E+00  0.00000000000E+00  0.51849594194E+02  0.51849594194E+02  0.00000000000E+00 0. -1.
         -1   -1    0    0    0  501 -0.00000000000E+00 -0.00000000000E+00 -0.68999247372E+03  0.68999247372E+03  0.00000000000E+00 0.  1.
         23    2    1    2    0    0 -0.32654339050E+02 -0.11512962646E+03 -0.52772194712E+03  0.55539038361E+03  0.12508752128E+03 0.  0.
          5    1    3    3  502    0  0.31975071425E+02  0.19861278709E+01 -0.52152406912E+02  0.61348967744E+02  0.41800000000E+01 0. -1.
         -5    1    3    3    0  502 -0.64629410475E+02 -0.11711575434E+03 -0.47556954021E+03  0.49404141586E+03  0.41800000000E+01 0. -1.
        -11    1    1    2    0    0  0.49911923029E+01  0.99249869192E+02 -0.11738759505E+03  0.15380278283E+03  0.00000000000E+00 0.  1.
         11    1    1    2    0    0  0.27663146747E+02  0.15879757272E+02  0.69666626475E+01  0.32648901473E+02  0.00000000000E+00 0. -1.
</event>
<event>
 7    1  0.4966153E-006  0.1094330E+03  0.7561462E-02  0.1261623E+00
         -2   -1    0    0    0  501 -0.00000000000E+00  0.00000000000E+00  0.37767558128E+02  0.37767558128E+02  0.00000000000E+00 0.  1.
          2   -1    0    0  501    0  0.00000000000E+00 -0.00000000000E+00 -0.50443636014E+03  0.50443636014E+03  0.00000000000E+00 0. -1.
         23    2    1    2    0    0 -0.35616720891E+02 -0.77784901787E+02 -0.24885496487E+03  0.29136779694E+03  0.12508939924E+03 0.  0.
          5    1    3    3  502    0 -0.18962085095E+02 -0.74773737484E+02 -0.25962570961E+03  0.27087571685E+03  0.41800000000E+01 0. -1.
         -5    1    3    3    0  502 -0.16654635796E+02 -0.30111643031E+01  0.10770744745E+02  0.20492080088E+02  0.41800000000E+01 0. -1.
        -11    1    1    2    0    0  0.65978788901E+02  0.47527287670E+02 -0.14964604396E+03  0.17031142689E+03  0.00000000000E+00 0.  1.
         11    1    1    2    0    0 -0.30362068010E+02  0.30257614117E+02 -0.68167793192E+02  0.80524694439E+02  0.00000000000E+00 0. -1.
</event>
<event>
 7    1  0.4966153E-006  0.8507831E+02  0.7561462E-02  0.1315228E+00
         -1   -1    0    0    0  501 -0.00000000000E+00  0.00000000000E+00  0.10698476729E+03  0.10698476729E+03  0.00000000000E+00 0.  1.
          1   -1    0    0  501    0  0.00000000000E+00 -0.00000000000E+00 -0.12569978439E+03  0.12569978439E+03  0.00000000000E+00 0. -1.
         23    2    1    2    0    0 -0.30980831675E+02  0.17496594469E+02 -0.17096176661E+02  0.13117371243E+03  0.12509324853E+03 0.  0.
          5    1    3    3  502    0  0.12250170482E+02 -0.48246183023E+02  0.23776064153E+01  0.50008861869E+02  0.41800000000E+01 0. -1.
         -5    1    3    3    0  502 -0.43231002157E+02  0.65742777492E+02 -0.19473783076E+02  0.81164850565E+02  0.41800000000E+01 0. -1.
        -11    1    1    2    0    0  0.45434333692E+01 -0.14029032800E+02 -0.46789098307E+02  0.49057886914E+02  0.00000000000E+00 0. -1.
         11    1    1    2    0    0  0.26437398306E+02 -0.34675616687E+01  0.45170257865E+02  0.52452952335E+02  0.00000000000E+00 0.  1.
</event>
<event>
 7    1  0.4966153E-006  0.1287202E+03  0.7561462E-02  0.1229367E+00
          1   -1    0    0  501    0  0.00000000000E+00  0.00000000000E+00  0.91803076488E+03  0.91803076488E+03  0.00000000000E+00 0. -1.
         -1   -1    0    0    0  501 -0.00000000000E+00 -0.00000000000E+00 -0.23141796688E+02  0.23141796688E+02  0.00000000000E+00 0.  1.
         23    2    1    2    0    0  0.52472827421E+02  0.77993094757E+02  0.39318814828E+03  0.42318088644E+03  0.12509525272E+03 0.  0.
          5    1    3    3  502    0  0.57027235473E+02 -0.71323440738E+01  0.24939436035E+03  0.25596483213E+03  0.41800000000E+01 0.  1.
         -5    1    3    3    0  502 -0.45544080523E+01  0.85125438831E+02  0.14379378793E+03  0.16721605430E+03  0.41800000000E+01 0.  1.
        -11    1    1    2    0    0  0.14516860219E+02 -0.49034334403E+01  0.15537794605E+02  0.21822143601E+02  0.00000000000E+00 0.  1.
         11    1    1    2    0    0 -0.66989687640E+02 -0.73089661316E+02  0.48616302531E+03  0.49616953153E+03  0.00000000000E+00 0. -1.
</event>
<event>
 7    1  0.4966153E-006  0.1055772E+03  0.7561462E-02  0.1268987E+00
          1   -1    0    0  501    0  0.00000000000E+00  0.00000000000E+00  0.36747809727E+02  0.36747809727E+02  0.00000000000E+00 0. -1.
         -1   -1    0    0    0  501 -0.00000000000E+00 -0.00000000000E+00 -0.45968793546E+03  0.45968793546E+03  0.00000000000E+00 0.  1.
         23    2    1    2    0    0  0.29416405946E+02  0.44319545265E+02 -0.33069131486E+03  0.35753880190E+03  0.12509077549E+03 0.  0.
          5    1    3    3  502    0 -0.42774328997E+02  0.13252777433E+02 -0.56161746599E+02  0.71950632463E+02  0.41800000000E+01 0.  1.
         -5    1    3    3    0  502  0.72190734942E+02  0.31066767832E+02 -0.27452956826E+03  0.28558816944E+03  0.41800000000E+01 0.  1.
        -11    1    1    2    0    0  0.12861781810E+02 -0.43317368922E+02 -0.84613390098E+02  0.95923123727E+02  0.00000000000E+00 0. -1.
         11    1    1    2    0    0 -0.42278187755E+02 -0.10021763430E+01 -0.76354207817E+01  0.42973819563E+02  0.00000000000E+00 0.  1.
</event>
<event>
 7    1  0.4966153E-006  0.7824673E+02  0.7561462E-02  0.1334102E+00
          3   -1    0    0  501    0  0.00000000000E+00  0.00000000000E+00  0.49785842387E+02  0.49785842387E+02  0.00000000000E+00 0. -1.
         -3   -1    0    0    0  501 -0.00000000000E+00 -0.00000000000E+00 -0.30788773606E+03  0.30788773606E+03  0.00000000000E+00 0.  1.
         23    2    1    2    0    0 -0.24291539864E+02  0.53499644454E+02 -0.14925770847E+03  0.20341426976E+03  0.12508881140E+03 0.  0.
          5    1    3    3  502    0 -0.15954069324E+02  0.48031784500E+02 -0.17140447240E+03  0.17876954497E+03  0.41800000000E+01 0.  1.
         -5    1    3    3    0  502 -0.83374705394E+01  0.54678599538E+01  0.22146763926E+02  0.24644724788E+02  0.41800000000E+01 0.  1.
        -11    1    1    2    0    0  0.48264032651E+02 -0.16882779474E+02 -0.19412405745E+02  0.54692655698E+02  0.00000000000E+00 0. -1.
         11    1    1    2    0    0 -0.23972492787E+02 -0.36616864980E+02 -0.89431779455E+02  0.99566652992E+02  0.00000000000E+00 0.  1.
</event>
<event>
 7    1  0.4966153E-006  0.1642193E+03  0.7561462E-02  0.1184014E+00
         -1   -1    0    0    0  501 -0.00000000000E+00  0.00000000000E+00  0.13594804586E+03  0.13594804586E+03  0.00000000000E+00 0.  1.
          1   -1    0    0  501    0  0.00000000000E+00 -0.00000000000E+00 -0.21541030305E+03  0.21541030305E+03  0.00000000000E+00 0. -1.
         23    2    1    2    0    0 -0.11910697078E+03 -0.47267622320E+02 -0.21696264619E+02  0.18038416503E+03  0.12508805094E+03 0.  0.
          5    1    3    3  502    0  0.15222494008E+02 -0.29299191058E+02 -0.29632903683E+02  0.44561735841E+02  0.41800000000E+01 0.  1.
         -5    1    3    3    0  502 -0.13432946479E+03 -0.17968431262E+02  0.79366390635E+01  0.13582242919E+03  0.41800000000E+01 0.  1.
        -11    1    1    2    0    0  0.32364436888E+02  0.63543445287E+02 -0.14866293376E+02  0.72843893998E+02  0.00000000000E+00 0.  1.
         11    1    1    2    0    0  0.86742533892E+02 -0.16275822967E+02 -0.42899699197E+02  0.98130289872E+02  0.00000000000E+00 0. -1.
</event>
<event>
 7    1  0.4966153E-006  0.1444850E+03  0.7561462E-02  0.1207418E+00
          2   -1    0    0  501    0  0.00000000000E+00  0.00000000000E+00  0.46323611282E+03  0.46323611282E+03  0.00000000000E+00 0. -1.
         -2   -1    0    0    0  501 -0.00000000000E+00 -0.00000000000E+00 -0.64500117895E+02  0.64500117895E+02  0.00000000000E+00 0.  1.
         23    2    1    2    0    0 -0.68399815425E+02  0.11485257454E+03  0.21843220094E+03  0.28500134076E+03  0.12507393493E+03 0.  0.
          5    1    3    3  502    0  0.11106658354E+02  0.10360554021E+02 -0.11966313668E+02  0.19782921983E+02  0.41800000000E+01 0.  1.
         -5    1    3    3    0  502 -0.79506473779E+02  0.10449202052E+03  0.23039851461E+03  0.26521841878E+03  0.41800000000E+01 0.  1.
        -11    1    1    2    0    0  0.35188323680E+02 -0.98962366985E+02  0.69424454715E+02  0.12590283204E+03  0.00000000000E+00 0.  1.
         11    1    1    2    0    0  0.33211491746E+02 -0.15890207557E+02  0.11087933927E+03  0.11683205792E+03  0.00000000000E+00 0. -1.
</event>
<event>
 7    1  0.4966153E-006  0.1077663E+03  0.7561462E-02  0.1264763E+00
          2   -1    0    0  501    0  0.00000000000E+00  0.00000000000E+00  0.10215067585E+03  0.10215067585E+03  0.00000000000E+00 0. -1.
         -2   -1    0    0    0  501 -0.00000000000E+00 -0.00000000000E+00 -0.12261360625E+03  0.12261360625E+03  0.00000000000E+00 0.  1.
         23    2    1    2    0    0  0.21850602703E+02 -0.55981005409E+01 -0.29764224823E+02  0.13054598960E+03  0.12509020246E+03 0.  0.
          5    1    3    3  502    0 -0.23297436435E+02 -0.54966402770E+02 -0.17972892569E+02  0.62486584522E+02  0.41800000000E+01 0. -1.
         -5    1    3    3    0  502  0.45148039138E+02  0.49368302229E+02 -0.11791332253E+02  0.68059405076E+02  0.41800000000E+01 0. -1.
        -11    1    1    2    0    0 -0.48242324161E+02 -0.19689027607E+02 -0.97354177674E+01  0.53007150533E+02  0.00000000000E+00 0.  1.
         11    1    1    2    0    0  0.26391721457E+02  0.25287128148E+02  0.19036712186E+02  0.41211141968E+02  0.00000000000E+00 0. -1.
</event>
<event>
 7    1  0.4966153E-006  0.1492193E+03  0.7561462E-02  0.1201436E+00
          2   -1    0    0  501    0  0.00000000000E+00  0.00000000000E+00  0.10065412623E+03  0.10065412623E+03  0.00000000000E+00 0. -1.
         -2   -1    0    0    0  501 -0.00000000000E+00 -0.00000000000E+00 -0.22366204240E+03  0.22366204240E+03  0.00000000000E+00 0.  1.
         23    2    1    2    0    0 -0.62707160336E+02  0.83442250697E+02 -0.61309055502E+02  0.17407590884E+03  0.12509526207E+03 0.  0.
          5    1    3    3  502    0 -0.95093156010E+02  0.29764112910E+02 -0.43227167439E+02  0.10869531334E+03  0.41800000000E+01 0.  1.
         -5    1    3    3    0  502  0.32385995674E+02  0.53678137787E+02 -0.18081888062E+02  0.65380595500E+02  0.41800000000E+01 0.  1.
        -11    1    1    2    0    0  0.19024600691E+02 -0.89748514231E+02 -0.50427130781E+02  0.10468823600E+03  0.00000000000E+00 0. -1.
         11    1    1    2    0    0  0.43682559645E+02  0.63062635339E+01 -0.11271729893E+02  0.45552023793E+02  0.00000000000E+00 0.  1.
</event>
<event>
 7    1  0.4966153E-006  0.7881300E+02  0.7561462E-02  0.1332454E+00
         -1   -1    0    0    0  501 -0.00000000000E+00  0.00000000000E+00  0.12305487119E+04  0.12305487119E+04  0.00000000000E+00 0.  1.
          1   -1    0    0  501    0  0.00000000000E+00 -0.00000000000E+00 -0.10382773138E+03  0.10382773138E+03  0.00000000000E+00 0. -1.
         23    2    1    2    0    0 -0.19071843626E+02 -0.44568703061E+02  0.11990611180E+04  0.12060682193E+04  0.12042790572E+03 0.  0.
          5    1    3    3  502    0 -0.79278718553E+01 -0.36523111529E+02  0.98828726788E+02  0.10574203737E+03  0.41800000000E+01 0. -1.
         -5    1    3    3    0  502 -0.11143971771E+02 -0.80455915321E+01  0.11002323912E+04  0.11003261819E+04  0.41800000000E+01 0.  1.
        -11    1    1    2    0    0 -0.27793591051E+02 -0.13609203777E+02 -0.25803880041E+02  0.40293105565E+02  0.00000000000E+00 0.  1.
         11    1    1    2    0    0  0.46865434676E+02  0.58177906838E+02 -0.46536257420E+02  0.88015118395E+02  0.00000000000E+00 0. -1.
</event>
<event>
 7    1  0.4966153E-006  0.9202290E+02  0.7561462E-02  0.1298026E+00
          1   -1    0    0  501    0  0.00000000000E+00  0.00000000000E+00  0.22986090175E+02  0.22986090175E+02  0.00000000000E+00 0.  1.
         -1   -1    0    0    0  501 -0.00000000000E+00 -0.00000000000E+00 -0.58281617921E+03  0.58281617921E+03  0.00000000000E+00 0. -1.
         23    2    1    2    0    0  0.25146415186E+01  0.10642934863E+02 -0.42165440033E+03  0.43995373957E+03  0.12508902491E+03 0.  0.
          5    1    3    3  502    0 -0.49228995721E+02 -0.25418790318E+02 -0.12742676791E+03  0.13901317384E+03  0.41800000000E+01 0. -1.
         -5    1    3    3    0  502  0.51743637240E+02  0.36061725181E+02 -0.29422763242E+03  0.30094056573E+03  0.41800000000E+01 0. -1.
        -11    1    1    2    0    0 -0.67143645151E+01 -0.37497924286E+02 -0.13278029295E+03  0.13813682786E+03  0.00000000000E+00 0. -1.
         11    1    1    2    0    0  0.41997229965E+01  0.26854989423E+02 -0.53953957565E+01  0.27711701960E+02  0.00000000000E+00 0.  1.
</event>
<event>
 7    1  0.4966153E-006  0.1504451E+03  0.7561462E-02  0.1199927E+00
         -1   -1    0    0    0  501 -0.00000000000E+00  0.00000000000E+00  0.78111460773E+02  0.78111460773E+02  0.00000000000E+00 0.  1.
          1   -1    0    0  501    0  0.00000000000E+00 -0.00000000000E+00 -0.63761566150E+03  0.63761566150E+03  0.00000000000E+00 0. -1.
         23    2    1    2    0    0  0.12058029763E+03  0.16297125478E+00 -0.41045695584E+02  0.17576317731E+03  0.12111280129E+03 0.  0.
          5    1    3    3  502    0 -0.11757100724E+02  0.12095873317E+02  0.22488817684E+02  0.28421099373E+02  0.41800000000E+01 0. -1.
         -5    1    3    3    0  502  0.13233739835E+03 -0.11932902062E+02 -0.63534513268E+02  0.14734207793E+03  0.41800000000E+01 0.  1.
        -11    1    1    2    0    0 -0.94717030669E+02  0.39987534613E+02 -0.36944434966E+03  0.38348330644E+03  0.00000000000E+00 0. -1.
         11    1    1    2    0    0 -0.25863266956E+02 -0.40150505868E+02 -0.14901415548E+03  0.15648063853E+03  0.00000000000E+00 0.  1.
</event>
<event>
 7    1  0.4966153E-006  0.1356890E+03  0.7561462E-02  0.1219250E+00
          1   -1    0    0  501    0  0.00000000000E+00  0.00000000000E+00  0.33348331750E+03  0.33348331750E+03  0.00000000000E+00 0. -1.
         -1   -1    0    0    0  501 -0.00000000000E+00 -0.00000000000E+00 -0.87990241052E+02  0.87990241052E+02  0.00000000000E+00 0.  1.
         23    2    1    2    0    0 -0.10230970125E+03  0.30872799287E+02  0.33934164756E+02  0.16798664032E+03  0.12509028373E+03 0.  0.
          5    1    3    3  502    0 -0.22272425021E+02  0.70463055493E+02  0.25110394940E+02  0.78160779422E+02  0.41800000000E+01 0. -1.
         -5    1    3    3    0  502 -0.80037276229E+02 -0.39590256206E+02  0.88237698156E+01  0.89825860899E+02  0.41800000000E+01 0. -1.
        -11    1    1    2    0    0  0.65528464606E+02 -0.11961907751E+02  0.41522929722E+02  0.78493443060E+02  0.00000000000E+00 0.  1.
         11    1    1    2    0    0  0.36781236644E+02 -0.18910891536E+02  0.17003598197E+03  0.17499347517E+03  0.00000000000E+00 0. -1.
</event>
<event>
 6    1  0.4966153E-006  0.1095874E+03  0.7561462E-02  0.1261336E+00
          2   -1    0    0  501    0  0.00000000000E+00  0.00000000000E+00  0.35082722533E+03  0.35082722533E+03  0.00000000000E+00 0. -1.
         -2   -1    0    0    0  501 -0.00000000000E+00 -0.00000000000E+00 -0.37385490413E+02  0.37385490413E+02  0.00000000000E+00 0.  1.
          5    1    1    2  502    0  0.23438741410E+02 -0.43333465107E+02  0.11539140811E+03  0.12553809487E+03  0.41800000000E+01 0. -1.
         -5    1    1    2    0  502 -0.32899252204E+02  0.66825058282E+02  0.64507872346E+02  0.98623968712E+02  0.41800000000E+01 0.  1.
        -11    1    1    2    0    0 -0.21335280042E+02  0.27957340197E+02  0.53929834355E+02  0.64383492286E+02  0.00000000000E+00 0.  1.
         11    1    1    2    0    0  0.30795790836E+02 -0.51448933372E+02  0.79612620107E+02  0.99667159880E+02  0.00000000000E+00 0. -1.
</event>
<event>
 7    1  0.4966153E-006  0.1270008E+03  0.7561462E-02  0.1231975E+00
          2   -1    0    0  501    0  0.00000000000E+00  0.00000000000E+00  0.85425123672E+03  0.85425123672E+03  0.00000000000E+00 0. -1.
         -2   -1    0    0    0  501 -0.00000000000E+00 -0.00000000000E+00 -0.24215513155E+02  0.24215513155E+02  0.00000000000E+00 0.  1.
         23    2    1    2    0    0  0.15651440715E+02  0.83572753934E+02  0.32572375411E+03  0.35912753021E+03  0.12508895301E+03 0.  0.
          5    1    3    3  502    0 -0.28545360701E+02 -0.72265403642E+01  0.16948377811E+02  0.34231278294E+02  0.41800000000E+01 0. -1.
         -5    1    3    3    0  502  0.44196801416E+02  0.90799294299E+02  0.30877537630E+03  0.32489625191E+03  0.41800000000E+01 0. -1.
        -11    1    1    2    0    0  0.28639739662E+02 -0.71887925725E+02  0.28678827590E+03  0.29704481774E+03  0.00000000000E+00 0.  1.
         11    1    1    2    0    0 -0.44291180377E+02 -0.11684828209E+02  0.21752369355E+03  0.22229440192E+03  0.00000000000E+00 0. -1.
</event>
<event>
 7    1  0.4966153E-006  0.7817485E+02  0.7561462E-02  0.1334312E+00
         -1   -1    0    0    0  501 -0.00000000000E+00  0.00000000000E+00  0.50352260590E+02  0.50352260590E+02  0.00000000000E+00 0.  1.
          1   -1    0    0  501    0  0.00000000000E+00 -0.00000000000E+00 -0.27537625433E+03  0.27537625433E+03  0.00000000000E+00 0. -1.
         23    2    1    2    0    0 -0.36111561083E+02  0.29058211677E+02 -0.12110864912E+03  0.18017566936E+03  0.12509013722E+03 0.  0.
          5    1    3    3  502    0  0.76203161760E+01  0.61981928174E+01 -0.12950643974E+03  0.12994566998E+03  0.41800000000E+01 0.  1.
         -5    1    3    3    0  502 -0.43731877259E+02  0.22860018860E+02  0.83977906171E+01  0.50229999384E+02  0.41800000000E+01 0.  1.
        -11    1    1    2    0    0  0.26648059413E+02  0.27801117638E+02 -0.19053055973E+02  0.42965569405E+02  0.00000000000E+00 0.  1.
         11    1    1    2    0    0  0.94635016695E+01 -0.56859329315E+02 -0.84862288650E+02  0.10258727615E+03  0.00000000000E+00 0. -1.
</event>
<event>
 7    1  0.4966153E-006  0.1541975E+03  0.7561462E-02  0.1195408E+00
          1   -1    0    0  501    0  0.00000000000E+00  0.00000000000E+00  0.24169246085E+03  0.24169246085E+03  0.00000000000E+00 0. -1.
         -1   -1    0    0    0  501 -0.00000000000E+00 -0.00000000000E+00 -0.13582196944E+03  0.13582196944E+03  0.00000000000E+00 0.  1.
         23    2    1    2    0    0  0.34120840153E+02  0.11776776998E+03 -0.23826320394E+02  0.17695649127E+03  0.12534921970E+03 0.  0.
          5    1    3    3  502    0  0.13937392538E+02  0.13752784467E+03 -0.40227966188E+02  0.14402749957E+03  0.41800000000E+01 0.  1.
         -5    1    3    3    0  502  0.20183447615E+02 -0.19760074685E+02  0.16401645794E+02  0.32928991694E+02  0.41800000000E+01 0.  1.
        -11    1    1    2    0    0  0.21780128421E+02 -0.24257198296E+02  0.19424659036E+01  0.32658212397E+02  0.00000000000E+00 0.  1.
         11    1    1    2    0    0 -0.55900968574E+02 -0.93510571688E+02  0.12775434590E+03  0.16789972663E+03  0.00000000000E+00 0. -1.
</event>
<event>
 7    1  0.4966153E-006  0.1482819E+03  0.7561462E-02  0.1202600E+00
         -2   -1    0    0    0  501 -0.00000000000E+00  0.00000000000E+00  0.21318687191E+03  0.21318687191E+03  0.00000000000E+00 0.  1.
          2   -1    0    0  501    0  0.00000000000E+00 -0.00000000000E+00 -0.12546901127E+03  0.12546901127E+03  0.00000000000E+00 0. -1.
         23    2    1    2    0    0  0.50203938792E+02 -0.11030711043E+03  0.70400371572E+02  0.18784414721E+03  0.12506445234E+03 0.  0.
          5    1    3    3  502    0  0.41733652830E+01  0.25843436359E+02 -0.25175531121E+01  0.26629131685E+02  0.41800000000E+01 0. -1.
         -5    1    3    3    0  502  0.46030573509E+02 -0.13615054679E+03  0.72917924684E+02  0.16121501552E+03  0.41800000000E+01 0. -1.
        -11    1    1    2    0    0 -0.10798971908E+01  0.42640663864E+02  0.45695535322E+02  0.62509793961E+02  0.00000000000E+00 0.  1.
         11    1    1    2    0    0 -0.49124041601E+02  0.67666446569E+02 -0.28378046250E+02  0.88301942014E+02  0.00000000000E+00 0. -1.
</event>
<event>
 7    1  0.4966153E-006  0.1022920E+03  0.7561462E-02  0.1275549E+00
         -1   -1    0    0    0  501 -0.00000000000E+00  0.00000000000E+00  0.97423912919E+03  0.97423912919E+03  0.00000000000E+00 0.  1.
          1   -1    0    0  501    0  0.00000000000E+00 -0.00000000000E+00 -0.16920138461E+02  0.16920138461E+02  0.00000000000E+00 0. -1.
         23    2    1    2    0    0 -0.17089851882E+02  0.18063138746E+02  0.75362525720E+03  0.76434121634E+03  0.12509247251E+03 0.  0.
          5    1    3    3  502    0 -0.59652156327E+02  0.16410676430E+02  0.63873803812E+03  0.64174094757E+03  0.41800000000E+01 0. -1.
         -5    1    3    3    0  502  0.42562304446E+02  0.16524623159E+01  0.11488721909E+03  0.12260026877E+03  0.41800000000E+01 0. -1.
        -11    1    1    2    0    0  0.57200946193E+02 -0.16909220951E+02  0.12216848616E+03  0.13595223062E+03  0.00000000000E+00 0. -1.
         11    1    1    2    0    0 -0.40111094312E+02 -0.11539177956E+01  0.81525247361E+02  0.90865820694E+02  0.00000000000E+00 0.  1.
</event>
<event>
 7    1  0.4966153E-006  0.8440143E+02  0.7561462E-02  0.1317005E+00
          1   -1    0    0  501    0  0.00000000000E+00  0.00000000000E+00  0.20485679730E+03  0.20485679730E+03  0.00000000000E+00 0. -1.
         -1   -1    0    0    0  501 -0.00000000000E+00 -0.00000000000E+00 -0.73991449713E+02  0.73991449713E+02  0.00000000000E+00 0.  1.
         23    2    1    2    0    0 -0.10749153086E+02 -0.51245777645E+02  0.10204033380E+03  0.16971138904E+03  0.12509217334E+03 0.  0.
          5    1    3    3  502    0 -0.17717542903E+02 -0.52899738455E+02  0.12947839592E+03  0.14104758440E+03  0.41800000000E+01 0.  1.
         -5    1    3    3    0  502  0.69683898171E+01  0.16539608107E+01 -0.27438062126E+02  0.28663804636E+02  0.41800000000E+01 0.  1.
        -11    1    1    2    0    0 -0.54096319065E+01  0.75351505747E+02  0.15123207647E+02  0.77044305080E+02  0.00000000000E+00 0. -1.
         11    1    1    2    0    0  0.16158784993E+02 -0.24105728102E+02  0.13701806144E+02  0.32092552896E+02  0.00000000000E+00 0.  1.
</event>
<event>
 7    1  0.4966153E-006  0.1151494E+03  0.7561462E-02  0.1251321E+00
         -2   -1    0    0    0  501 -0.00000000000E+00  0.00000000000E+00  0.13120578901E+02  0.13120578901E+02  0.00000000000E+00 0.  1.
          2   -1    0    0  501    0  0.00000000000E+00 -0.00000000000E+00 -0.11101425504E+04  0.11101425504E+04  0.00000000000E+00 0. -1.
         23    2    1    2    0    0 -0.53374290853E+02 -0.28840231298E+01 -0.57841197505E+03  0.59419331551E+03  0.12509256895E+03 0.  0.
          5    1    3    3  502    0  0.26190350113E+02 -0.31431743260E+02 -0.31100854643E+03  0.31371591812E+03  0.41800000000E+01 0.  1.
         -5    1    3    3    0  502 -0.79564640966E+02  0.28547720130E+02 -0.26740342861E+03  0.28047739739E+03  0.41800000000E+01 0.  1.
        -11    1    1    2    0    0  0.65326165030E+02 -0.28262144667E+02 -0.33988131561E+03  0.34725432374E+03  0.00000000000E+00 0.  1.
         11    1    1    2    0    0 -0.11951874177E+02  0.31146167797E+02 -0.17872868087E+03  0.18181549007E+03  0.00000000000E+00 0. -1.
</event>
<event>
 7    1  0.4966153E-006  0.1001591E+03  0.7561462E-02  0.1279962E+00
          1   -1    0    0  501    0  0.00000000000E+00  0.00000000000E+00  0.81983009941E+02  0.81983009941E+02  0.00000000000E+00 0. -1.
         -1   -1    0    0    0  501 -0.00000000000E+00 -0.00000000000E+00 -0.15375600763E+03  0.15375600763E+03  0.00000000000E+00 0.  1.
         23    2    1    2    0    0  0.26256791354E+02  0.74926387136E+01 -0.63779647328E+02  0.14304120007E+03  0.12508949907E+03 0.  0.
          5    1    3    3  502    0  0.17026018573E+02 -0.48266490134E+02  0.75873940316E+01  0.51909347198E+02  0.41800000000E+01 0. -1.
         -5    1    3    3    0  502  0.92307727803E+01  0.55759128848E+02 -0.71367041360E+02  0.91131852875E+02  0.41800000000E+01 0. -1.
        -11    1    1    2    0    0 -0.19862116093E+02  0.39847836294E+02 -0.22078876644E+01  0.44578340940E+02  0.00000000000E+00 0.  1.
         11    1    1    2    0    0 -0.63946752602E+01 -0.47340475007E+02 -0.57854626962E+01  0.48119476558E+02  0.00000000000E+00 0. -1.
</event>
<event>
 7    1  0.4966153E-006  0.1014380E+03  0.7561462E-02  0.1277301E+00
          3   -1    0    0  501    0  0.00000000000E+00  0.00000000000E+00  0.40186561464E+02  0.40186561464E+02  0.00000000000E+00 0. -1.
         -3   -1    0    0    0  501 -0.00000000000E+00 -0.00000000000E+00 -0.31880283327E+03  0.31880283327E+03  0.00000000000E+00 0.  1.
         23    2    1    2    0    0 -0.87590244914E+01  0.55790129576E+01 -0.20221689868E+03  0.23756666991E+03  0.12425136879E+03 0.  0.
          5    1    3    3  502    0  0.43059469667E+02 -0.31015514474E+02 -0.51839710421E+02  0.74302813154E+02  0.41800000000E+01 0. -1.
         -5    1    3    3    0  502 -0.51818494158E+02  0.36594527431E+02 -0.15037718825E+03  0.16326385675E+03  0.41800000000E+01 0.  1.
        -11    1    1    2    0    0 -0.14264064638E+02 -0.41231857637E+02 -0.63539861222E+02  0.77076868050E+02  0.00000000000E+00 0.  1.
         11    1    1    2    0    0  0.23023089130E+02  0.35652844680E+02 -0.12859511910E+02  0.44345856778E+02  0.00000000000E+00 0. -1.
</event>
<event>
 7    1  0.4966153E-006  0.1166703E+03  0.7561462E-02  0.1248693E+00
         -3   -1    0    0    0  501 -0.00000000000E+00  0.00000000000E+00  0.51999525553E+02  0.51999525553E+02  0.00000000000E+00 0.  1.
          3   -1    0    0  501    0  0.00000000000E+00 -0.00000000000E+00 -0.33754678714E+03  0.33754678714E+03  0.00000000000E+00 0. -1.
         23    2    1    2    0    0 -0.50074119663E+02  0.44541568998E+02 -0.10500178285E+03  0.17652528918E+03  0.12507771381E+03 0.  0.
          5    1    3    3  502    0  0.18941922535E+01 -0.30693085281E+02  0.70643985993E+01  0.31828156967E+02  0.41800000000E+01 0. -1.
         -5    1    3    3    0  502 -0.51968311916E+02  0.75234654279E+02 -0.11206618145E+03  0.14469713222E+03  0.41800000000E+01 0. -1.
        -11    1    1    2    0    0  0.72461865161E+02 -0.49611190674E+02 -0.12358164443E+03  0.15160611790E+03  0.00000000000E+00 0. -1.
         11    1    1    2    0    0 -0.22387745499E+02  0.50696216763E+01 -0.56963834311E+02  0.61414905617E+02  0.00000000000E+00 0.  1.
</event>
<event>
 7    1  0.4966153E-006  0.1086519E+03  0.7561462E-02  0.1263087E+00
         -3   -1    0    0    0  501 -0.00000000000E+00  0.00000000000E+00  0.14380388671E+03  0.14380388671E+03  0.00000000000E+00 0.  1.
          3   -1    0    0  501    0  0.00000000000E+00 -0.00000000000E+00 -0.99387242287E+02  0.99387242287E+02  0.00000000000E+00 0. -1.
         23    2    1    2    0    0 -0.33591009356E+02 -0.37116851972E+02  0.29224647336E+02  0.13787607981E+03  0.12509882798E+03 0.  0.
          5    1    3    3  502    0 -0.51925697987E+02  0.30577257129E+02 -0.32167706853E+01  0.60490220521E+02  0.41800000000E+01 0. -1.
         -5    1    3    3    0  502  0.18334688632E+02 -0.67694109101E+02  0.32441418021E+02  0.77385859286E+02  0.41800000000E+01 0. -1.
        -11    1    1    2    0    0  0.50045854756E+02  0.46730171591E+01  0.37438118151E+02  0.62674056501E+02  0.00000000000E+00 0.  1.
         11    1    1    2    0    0 -0.16454845401E+02  0.32443834813E+02 -0.22246121069E+02  0.42640992685E+02  0.00000000000E+00 0. -1.
</event>
<event>
 7    1  0.4966153E-006  0.1749208E+03  0.7561462E-02  0.1172811E+00
         -1   -1    0    0    0  501 -0.00000000000E+00  0.00000000000E+00  0.11312855109E+04  0.11312855109E+04  0.00000000000E+00 0.  1.
          1   -1    0    0  501    0  0.00000000000E+00 -0.00000000000E+00 -0.32858813850E+02  0.32858813850E+02  0.00000000000E+00 0. -1.
         23    2    1    2    0    0  0.14585581352E+03 -0.56258245214E+02  0.68763995675E+03  0.71619370955E+03  0.12508321624E+03 0.  0.
          5    1    3    3  502    0  0.45748865131E+02 -0.54346762305E+02  0.48430622455E+03  0.48950640524E+03  0.41800000000E+01 0. -1.
         -5    1    3    3    0  502  0.10010694839E+03 -0.19114829087E+01  0.20333373220E+03  0.22668730430E+03  0.41800000000E+01 0. -1.
        -11    1    1    2    0    0 -0.49844529728E+02 -0.22114502532E+02  0.13487216741E+03  0.14547862354E+03  0.00000000000E+00 0.  1.
         11    1    1    2    0    0 -0.96011283797E+02  0.78372747746E+02  0.27591457290E+03  0.30247199167E+03  0.00000000000E+00 0. -1.
</event>
<event>
 7    1  0.4966153E-006  0.1081246E+03  0.7561462E-02  0.1264083E+00
          1   -1    0    0  501    0  0.00000000000E+00  0.00000000000E+00  0.16445224336E+03  0.16445224336E+03  0.00000000000E+00 0. -1.
         -1   -1    0    0    0  501 -0.00000000000E+00 -0.00000000000E+00 -0.10318440152E+03  0.10318440152E+03  0.00000000000E+00 0.  1.
         23    2    1    2    0    0  0.70113093145E+02 -0.54169126080E+01  0.16558868618E+02  0.14445342367E+03  0.12508959472E+03 0.  0.
          5    1    3    3  502    0 -0.29850026990E+02  0.23323724897E+02 -0.40836649203E+01  0.38329740066E+02  0.41800000000E+01 0.  1.
         -5    1    3    3    0  502  0.99963120135E+02 -0.28740637505E+02  0.20642533538E+02  0.10612368361E+03  0.41800000000E+01 0.  1.
        -11    1    1    2    0    0 -0.40972126414E+02 -0.83457652441E+01  0.70458997408E+02  0.81931906215E+02  0.00000000000E+00 0. -1.
         11    1    1    2    0    0 -0.29140966731E+02  0.13762677852E+02 -0.25750024182E+02  0.41251314998E+02  0.00000000000E+00 0.  1.
</event>
<event>
 7    1  0.4966153E-006  0.1051793E+03  0.7561462E-02  0.1269767E+00
          1   -1    0    0  501    0  0.00000000000E+00  0.00000000000E+00  0.53745412480E+03  0.53745412480E+03  0.00000000000E+00 0. -1.
         -1   -1    0    0    0  501 -0.00000000000E+00 -0.00000000000E+00 -0.27948588730E+02  0.27948588730E+02  0.00000000000E+00 0.  1.
         23    2    1    2    0    0  0.56421081337E+02  0.52618012301E+01  0.27272722598E+03  0.30535001552E+03  0.12508983659E+03 0.  0.
          5    1    3    3  502    0  0.10923069550E+02  0.43874995540E+02  0.27840129801E+02  0.53262312279E+02  0.41800000000E+01 0.  1.
         -5    1    3    3    0  502  0.45498011787E+02 -0.38613194310E+02  0.24488709618E+03  0.25208770324E+03  0.41800000000E+01 0.  1.
        -11    1    1    2    0    0 -0.48521972981E+02  0.37701528183E+02  0.11055304608E+03  0.12648226392E+03  0.00000000000E+00 0.  1.
         11    1    1    2    0    0 -0.78991083560E+01 -0.42963329413E+02  0.12622526401E+03  0.13357043409E+03  0.00000000000E+00 0. -1.
</event>
<event>
 7    1  0.4966153E-006  0.9179280E+02  0.7561462E-02  0.1298567E+00
         -3   -1    0    0    0  501 -0.00000000000E+00  0.00000000000E+00  0.88749459525E+03  0.88749459525E+03  0.00000000000E+00 0.  1.
          3   -1    0    0  501    0  0.00000000000E+00 -0.00000000000E+00 -0.12617577762E+02  0.12617577762E+02  0.00000000000E+00 0. -1.
         23    2    1    2    0    0 -0.23554097147E+02 -0.91788038942E+01  0.63973447813E+03  0.65234016475E+03  0.12509373327E+03 0.  0.
          5    1    3    3  502    0 -0.64828867673E+02 -0.15881331499E+02  0.53983431050E+03  0.54396098570E+03  0.41800000000E+01 0.  1.
         -5    1    3    3    0  502  0.41274770527E+02  0.67025276045E+01  0.99900167628E+02  0.10837917904E+03  0.41800000000E+01 0.  1.
        -11    1    1    2    0    0 -0.20871671293E+02  0.20057370428E+02  0.12876054000E+03  0.13197424534E+03  0.00000000000E+00 0.  1.
         11    1    1    2    0    0  0.44425768440E+02 -0.10878566534E+02  0.10638199936E+03  0.11579776293E+03  0.00000000000E+00 0. -1.
</event>
<event>
 7    1  0.4966153E-006  0.1041643E+03  0.7561462E-02  0.1271775E+00
          1   -1    0    0  501    0  0.00000000000E+00  0.00000000000E+00  0.10099883897E+03  0.10099883897E+03  0.00000000000E+00 0. -1.
         -1   -1    0    0    0  501 -0.00000000000E+00 -0.00000000000E+00 -0.13402675580E+03  0.13402675580E+03  0.00000000000E+00 0.  1.
         23    2    1    2    0    0  0.29118606087E+02 -0.30024566554E+02 -0.22453890662E+02  0.13379007938E+03  0.12508493242E+03 0.  0.
          5    1    3    3  502    0 -0.33116935814E+02  0.27531482303E+02  0.72445379454E+01  0.43871057493E+02  0.41800000000E+01 0. -1.
         -5    1    3    3    0  502  0.62235541901E+02 -0.57556048858E+02 -0.29698428608E+02  0.89919021890E+02  0.41800000000E+01 0. -1.
        -11    1    1    2    0    0 -0.35290476869E+02  0.48913314115E+02 -0.35009885829E+02  0.69739674226E+02  0.00000000000E+00 0.  1.
         11    1    1    2    0    0  0.61718707812E+01 -0.18888747561E+02  0.24435859660E+02  0.31495841165E+02  0.00000000000E+00 0. -1.
</event>
<event>
 7    1  0.4966153E-006  0.2015092E+03  0.7561462E-02  0.1148472E+00
          2   -1    0    0  501    0  0.00000000000E+00  0.00000000000E+00  0.40484727340E+03  0.40484727340E+03  0.00000000000E+00 0. -1.
         -2   -1    0    0    0  501 -0.00000000000E+00 -0.00000000000E+00 -0.12945497103E+03  0.12945497103E+03  0.00000000000E+00 0.  1.
         23    2    1    2    0    0 -0.92668595128E+02 -0.17739745182E+03  0.15520706657E+03  0.28247704573E+03  0.12508686350E+03 0.  0.
          5    1    3    3  502    0 -0.49741381735E+02 -0.62258014222E+02 -0.56657257887E+01  0.79998988997E+02  0.41800000000E+01 0. -1.
         -5    1    3    3    0  502 -0.42927213393E+02 -0.11513943759E+03  0.16087279235E+03  0.20247805673E+03  0.41800000000E+01 0. -1.
        -11    1    1    2    0    0  0.82786630051E+02  0.15335619923E+03  0.13629735985E+03  0.22124357676E+03  0.00000000000E+00 0. -1.
         11    1    1    2    0    0  0.98819650763E+01  0.24041252588E+02 -0.16112124041E+02  0.30581621947E+02  0.00000000000E+00 0.  1.
</event>
<event>
 7    1  0.4966153E-006  0.1243715E+03  0.7561462E-02  0.1236055E+00
         -1   -1    0    0    0  501 -0.00000000000E+00  0.00000000000E+00  0.33036959876E+03  0.33036959876E+03  0.00000000000E+00 0.  1.
          1   -1    0    0  501    0  0.00000000000E+00 -0.00000000000E+00 -0.61148747991E+02  0.61148747991E+02  0.00000000000E+00 0. -1.
         23    2    1    2    0    0 -0.47429555223E+02  0.47802730448E+02  0.22989706417E+03  0.27024662442E+03  0.12508362862E+03 0.  0.
          5    1    3    3  502    0 -0.38926861899E+02  0.88726504710E+02  0.13269889125E+03  0.16435985323E+03  0.41800000000E+01 0.  1.
         -5    1    3    3    0  502 -0.85026933237E+01 -0.40923774262E+02  0.97198172927E+02  0.10588677119E+03  0.41800000000E+01 0.  1.
        -11    1    1    2    0    0  0.54735494931E+02  0.63595420574E+01  0.20945854458E+01  0.55143498880E+02  0.00000000000E+00 0. -1.
         11    1    1    2    0    0 -0.73059397077E+01 -0.54162272506E+02  0.37229201149E+02  0.66128223447E+02  0.00000000000E+00 0.  1.
</event>
<event>
 7    1  0.4966153E-006  0.1103020E+03  0.7561462E-02  0.1260012E+00
         -2   -1    0    0    0  501 -0.00000000000E+00  0.00000000000E+00  0.16743589231E+03  0.16743589231E+03  0.00000000000E+00 0.  1.
          2   -1    0    0  501    0  0.00000000000E+00 -0.00000000000E+00 -0.12295646001E+03  0.12295646001E+03  0.00000000000E+00 0. -1.
         23    2    1    2    0    0  0.52623992289E+02  0.60126783449E+02  0.72749264009E+02  0.16529918330E+03  0.12508736920E+03 0.  0.
          5    1    3    3  502    0 -0.29450047185E+02  0.42326612701E+02  0.61655764942E+02  0.80484490261E+02  0.41800000000E+01 0. -1.
         -5    1    3    3    0  502  0.82074039474E+02  0.17800170748E+02  0.11093499067E+02  0.84814693042E+02  0.41800000000E+01 0. -1.
        -11    1    1    2    0    0 -0.18270953542E+02 -0.42309639996E+02  0.30111056033E+02  0.55050967978E+02  0.00000000000E+00 0.  1.
         11    1    1    2    0    0 -0.34353038747E+02 -0.17817143453E+02 -0.58380887742E+02  0.70042201033E+02  0.00000000000E+00 0. -1.
</event>
<event>
 7    1  0.4966153E-006  0.1808659E+03  0.7561462E-02  0.1166968E+00
          3   -1    0    0  501    0  0.00000000000E+00  0.00000000000E+00  0.54665189567E+03  0.54665189567E+03  0.00000000000E+00 0. -1.
         -3   -1    0    0    0  501 -0.00000000000E+00 -0.00000000000E+00 -0.77310617458E+02  0.77310617458E+02  0.00000000000E+00 0.  1.
         23    2    1    2    0    0  0.83863909803E+01  0.16930960527E+03  0.26212361446E+03  0.33629336264E+03  0.12509341514E+03 0.  0.
          5    1    3    3  502    0  0.40941158090E+02  0.86852175158E+02  0.21568293247E+03  0.23612725068E+03  0.41800000000E+01 0.  1.
         -5    1    3    3    0  502 -0.32554767110E+02  0.82457430111E+02  0.46440681990E+02  0.10016611196E+03  0.41800000000E+01 0.  1.
        -11    1    1    2    0    0  0.21354412679E+02 -0.66093681581E+02  0.20776455549E+02  0.72498598545E+02  0.00000000000E+00 0.  1.
         11    1    1    2    0    0 -0.29740803660E+02 -0.10321592369E+03  0.18644120820E+03  0.21517055194E+03  0.00000000000E+00 0. -1.
</event>
<event>
 7    1  0.4966153E-006  0.7885567E+02  0.7561462E-02  0.1332331E+00
          1   -1    0    0  501    0  0.00000000000E+00  0.00000000000E+00  0.56656113500E+02  0.56656113500E+02  0.00000000000E+00 0. -1.
         -1   -1    0    0    0  501 -0.00000000000E+00 -0.00000000000E+00 -0.24898923090E+03  0.24898923090E+03  0.00000000000E+00 0.  1.
         23    2    1    2    0    0  0.59064909135E+01 -0.21182091861E+01 -0.16936740319E+03  0.21064779188E+03  0.12509117281E+03 0.  0.
          5    1    3    3  502    0 -0.55321857098E+02 -0.68420565588E+01 -0.44558065241E+02  0.71485769134E+02  0.41800000000E+01 0.  1.
         -5    1    3    3    0  502  0.61228348012E+02  0.47238473727E+01 -0.12480933795E+03  0.13916202274E+03  0.41800000000E+01 0.  1.
        -11    1    1    2    0    0 -0.23156095468E+01  0.20955269987E+02  0.31133470076E+02  0.37600243972E+02  0.00000000000E+00 0. -1.
         11    1    1    2    0    0 -0.35908813667E+01 -0.18837060801E+02 -0.54099184283E+02  0.57397308549E+02  0.00000000000E+00 0.  1.
</event>
<event>
 7    1  0.6116572E-006  0.2438197E+03  0.7561462E-02  0.1117274E+00
         -2   -1    0    0    0  501 -0.00000000000E+00  0.00000000000E+00  0.20389422915E+03  0.20389422915E+03  0.00000000000E+00 0.  1.
          2   -1    0    0  501    0  0.00000000000E+00 -0.00000000000E+00 -0.33812387545E+03  0.33812387545E+03  0.00000000000E+00 0. -1.
         23    2    1    2    0    0  0.33089733066E+02  0.23189154641E+03 -0.20759162673E+02  0.26635885068E+03  0.12508986677E+03 0.  0.
          5    1    3    3  502    0  0.42828844095E+02  0.20105125929E+03 -0.61094497657E+02  0.21448992702E+03  0.41800000000E+01 0. -1.
         -5    1    3    3    0  502 -0.97391110282E+01  0.30840287117E+02  0.40335334984E+02  0.51868923657E+02  0.41800000000E+01 0. -1.
        -11    1    1    2    0    0  0.18792178043E+02 -0.15813497913E+03 -0.56396245332E+02  0.16893890631E+03  0.00000000000E+00 0.  1.
         11    1    1    2    0    0 -0.51881911109E+02 -0.73756567284E+02 -0.57074238294E+02  0.10672034761E+03  0.00000000000E+00 0. -1.
</event>
<event>
 6    1  0.4966153E-006  0.2534719E+03  0.7561462E-02  0.1111130E+00
          2   -1    0    0  501    0  0.00000000000E+00  0.00000000000E+00  0.63816705625E+03  0.63816705625E+03  0.00000000000E+00 0. -1.
         -2   -1    0    0    0  501 -0.00000000000E+00 -0.00000000000E+00 -0.12943640390E+03  0.12943640390E+03  0.00000000000E+00 0.  1.
          5    1    1    2  502    0  0.39156509289E+02  0.10272549311E+03  0.41217999248E+02  0.11748257325E+03  0.41800000000E+01 0. -1.
         -5    1    1    2    0  502 -0.19948145730E+03 -0.70593325186E+01  0.89471236333E+02  0.21878130751E+03  0.41800000000E+01 0.  1.
        -11    1    1    2    0    0  0.15414671143E+03 -0.67213278795E+02  0.35932120409E+03  0.39672479278E+03  0.00000000000E+00 0. -1.
         11    1    1    2    0    0  0.61782365789E+01 -0.28452881800E+02  0.18720212680E+02  0.34614786620E+02  0.00000000000E+00 0.  1.
</event>
<event>
 7    1  0.4966153E-006  0.9843278E+02  0.7561462E-02  0.1283627E+00
         -3   -1    0    0    0  501 -0.00000000000E+00  0.00000000000E+00  0.31729442283E+03  0.31729442283E+03  0.00000000000E+00 0.  1.
          3   -1    0    0  501    0  0.00000000000E+00 -0.00000000000E+00 -0.57447762449E+02  0.57447762449E+02  0.00000000000E+00 0. -1.
         23    2    1    2    0    0  0.12846936134E+02  0.75961795440E+02  0.18281231870E+03  0.23452630376E+03  0.12508798964E+03 0.  0.
          5    1    3    3  502    0 -0.26578128151E+02  0.10443155152E+01  0.13407587855E+03  0.13675270052E+03  0.41800000000E+01 0.  1.
         -5    1    3    3    0  502  0.39425064285E+02  0.74917479925E+02  0.48736440151E+02  0.97773603241E+02  0.41800000000E+01 0.  1.
        -11    1    1    2    0    0 -0.24861096907E+02 -0.61768903957E+02  0.60753899004E+01  0.66860915323E+02  0.00000000000E+00 0. -1.
         11    1    1    2    0    0  0.12014160773E+02 -0.14192891483E+02  0.70958951778E+02  0.73354966193E+02  0.00000000000E+00 0.  1.
</event>
<event>
 7    1  0.4966153E-006  0.8806811E+02  0.7561462E-02  0.1307599E+00
          2   -1    0    0  501    0  0.00000000000E+00  0.00000000000E+00  0.12350728599E+04  0.12350728599E+04  0.00000000000E+00 0. -1.
         -2   -1    0    0    0  501 -0.00000000000E+00 -0.00000000000E+00 -0.12776556495E+02  0.12776556495E+02  0.00000000000E+00 0.  1.
         23    2    1    2    0    0  0.20693400148E+02 -0.60566610839E+02  0.65890700139E+03  0.67372264027E+03  0.12508888187E+03 0.  0.
          5    1    3    3  502    0  0.15297758012E+02 -0.26355476275E+02  0.62264561375E+03  0.62340489672E+03  0.41800000000E+01 0. -1.
         -5    1    3    3    0  502  0.53956421361E+01 -0.34211134564E+02  0.36261387641E+02  0.50317743549E+02  0.41800000000E+01 0. -1.
        -11    1    1    2    0    0  0.35767023823E+02  0.20104500671E+02  0.21515646379E+03  0.21903372994E+03  0.00000000000E+00 0. -1.
         11    1    1    2    0    0 -0.56460423971E+02  0.40462110169E+02  0.34823283826E+03  0.35509304622E+03  0.00000000000E+00 0.  1.
</event>
<event>
 7    1  0.4966153E-006  0.1157450E+03  0.7561462E-02  0.1250286E+00
         -2   -1    0    0    0  501 -0.00000000000E+00  0.00000000000E+00  0.46546753598E+02  0.46546753598E+02  0.00000000000E+00 0.  1.
          2   -1    0    0  501    0  0.00000000000E+00 -0.00000000000E+00 -0.48007199523E+03  0.48007199523E+03  0.00000000000E+00 0. -1.
         23    2    1    2    0    0 -0.31857184342E+02 -0.90410601920E+02 -0.29656734604E+03  0.33584054029E+03  0.12509084952E+03 0.  0.
          5    1    3    3  502    0 -0.21913776419E+02 -0.44049415395E+01  0.39430605447E+01  0.23078934841E+02  0.41800000000E+01 0. -1.
         -5    1    3    3    0  502 -0.99434079227E+01 -0.86005660380E+02 -0.30051040658E+03  0.31276160545E+03  0.41800000000E+01 0. -1.
        -11    1    1    2    0    0  0.54495066098E+02  0.80841216704E+02 -0.13444361210E+03  0.16607257263E+03  0.00000000000E+00 0. -1.
         11    1    1    2    0    0 -0.22637881756E+02  0.95693852155E+01 -0.25142834916E+01  0.24705635901E+02  0.00000000000E+00 0.  1.
</event>
<event>
 7    1  0.4966153E-006  0.7118088E+02  0.7561462E-02  0.1356123E+00
          2   -1    0    0  501    0  0.00000000000E+00  0.00000000000E+00  0.38469898725E+03  0.38469898725E+03  0.00000000000E+00 0. -1.
         -2   -1    0    0    0  501 -0.00000000000E+00 -0.00000000000E+00 -0.46701546274E+02  0.46701546274E+02  0.00000000000E+00 0.  1.
         23    2    1    2    0    0 -0.43365820724E+02 -0.96676846691E+01  0.81906976505E+02  0.15598434877E+03  0.12509318817E+03 0.  0.
          5    1    3    3  502    0 -0.22947739053E+02  0.17127930531E+02  0.10885874589E+03  0.11263952987E+03  0.41800000000E+01 0. -1.
         -5    1    3    3    0  502 -0.20418081671E+02 -0.26795615200E+02 -0.26951769383E+02  0.43344818906E+02  0.41800000000E+01 0. -1.
        -11    1    1    2    0    0  0.16845270588E+02  0.37452530641E+02  0.45254263170E+02  0.61109766221E+02  0.00000000000E+00 0.  1.
         11    1    1    2    0    0  0.26520550136E+02 -0.27784845972E+02  0.21083620131E+03  0.21430641854E+03  0.00000000000E+00 0. -1.
</event>
<event>
 7    1  0.4966153E-006  0.1416070E+03  0.7561462E-02  0.1211183E+00
          2   -1    0    0  501    0  0.00000000000E+00  0.00000000000E+00  0.24829436926E+03  0.24829436926E+03  0.00000000000E+00 0. -1.
         -2   -1    0    0    0  501 -0.00000000000E+00 -0.00000000000E+00 -0.95468033542E+02  0.95468033542E+02  0.00000000000E+00 0.  1.
         23    2    1    2    0    0  0.83849936116E+02  0.22208931887E+02  0.20446673721E+02  0.15358905323E+03  0.12508989712E+03 0.  0.
          5    1    3    3  502    0 -0.17907394708E+02  0.43252382720E+02  0.15454483733E+02  0.49474810395E+02  0.41800000000E+01 0. -1.
         -5    1    3    3    0  502  0.10175733082E+03 -0.21043450833E+02  0.49921899871E+01  0.10411424283E+03  0.41800000000E+01 0. -1.
        -11    1    1    2    0    0  0.40836058584E+00  0.32017943498E+02  0.54725931733E+02  0.63405386745E+02  0.00000000000E+00 0. -1.
         11    1    1    2    0    0 -0.84258296701E+02 -0.54226875384E+02  0.77653730269E+02  0.12676796284E+03  0.00000000000E+00 0.  1.
</event>
<event>
 7    1  0.4966153E-006  0.1489073E+03  0.7561462E-02  0.1201822E+00
         -1   -1    0    0    0  501 -0.00000000000E+00  0.00000000000E+00  0.94638396554E+02  0.94638396554E+02  0.00000000000E+00 0.  1.
          1   -1    0    0  501    0  0.00000000000E+00 -0.00000000000E+00 -0.29451868429E+03  0.29451868429E+03  0.00000000000E+00 0. -1.
         23    2    1    2    0    0 -0.80290258937E+02  0.96504521109E+02 -0.85459760196E+02  0.19675892424E+03  0.12510417810E+03 0.  0.
          5    1    3    3  502    0  0.29630497718E+02  0.35341137107E+02 -0.44957466021E+02  0.64541525533E+02  0.41800000000E+01 0.  1.
         -5    1    3    3    0  502 -0.10992075666E+03  0.61163384001E+02 -0.40502294175E+02  0.13221739870E+03  0.41800000000E+01 0.  1.
        -11    1    1    2    0    0  0.43975023003E+02 -0.56887455935E+02 -0.69483907766E+01  0.72237562426E+02  0.00000000000E+00 0.  1.
         11    1    1    2    0    0  0.36315235935E+02 -0.39617065174E+02 -0.10747213676E+03  0.12016059418E+03  0.00000000000E+00 0. -1.
</event>
<event>
 7    1  0.4966153E-006  0.9690877E+02  0.7561462E-02  0.1286934E+00
         -1   -1    0    0    0  501 -0.00000000000E+00  0.00000000000E+00  0.66270185648E+02  0.66270185648E+02  0.00000000000E+00 0.  1.
          1   -1    0    0  501    0  0.00000000000E+00 -0.00000000000E+00 -0.25391463998E+03  0.25391463998E+03  0.00000000000E+00 0. -1.
         23    2    1    2    0    0  0.58030468752E+02 -0.33813111054E+02 -0.96196905885E+02  0.17149776195E+03  0.12508707315E+03 0.  0.
          5    1    3    3  502    0  0.49530340164E+02  0.21183308015E+02 -0.10196287924E+03  0.11539448981E+03  0.41800000000E+01 0.  1.
         -5    1    3    3    0  502  0.85001285884E+01 -0.54996419069E+02  0.57659733533E+01  0.56103272143E+02  0.41800000000E+01 0.  1.
        -11    1    1    2    0    0 -0.45358958590E+02 -0.25910071297E+01  0.41389472759E+01  0.45621040396E+02  0.00000000000E+00 0.  1.
         11    1    1    2    0    0 -0.12671510163E+02  0.36404118184E+02 -0.95586495719E+02  0.10306602328E+03  0.00000000000E+00 0. -1.
</event>
<event>
 7    1  0.4966153E-006  0.1011551E+03  0.7561462E-02  0.1277886E+00
         -1   -1    0    0    0  501 -0.00000000000E+00  0.00000000000E+00  0.26405972098E+02  0.26405972098E+02  0.00000000000E+00 0.  1.
          1   -1    0    0  501    0  0.00000000000E+00 -0.00000000000E+00 -0.54311688988E+03  0.54311688988E+03  0.00000000000E+00 0. -1.
         23    2    1    2    0    0  0.19116371856E+02 -0.29387000861E+02 -0.20917804248E+03  0.24623850598E+03  0.12509563095E+03 0.  0.
          5    1    3    3  502    0 -0.21164607493E+02  0.28612021350E+02 -0.14936121613E+03  0.15359958874E+03  0.41800000000E+01 0.  1.
         -5    1    3    3    0  502  0.40280979349E+02 -0.57999022211E+02 -0.59816826348E+02  0.92638917249E+02  0.41800000000E+01 0.  1.
        -11    1    1    2    0    0 -0.11049467548E+02  0.61572970268E+02 -0.15427344081E+03  0.16647406987E+03  0.00000000000E+00 0.  1.
         11    1    1    2    0    0 -0.80669043073E+01 -0.32185969406E+02 -0.15325943450E+03  0.15681028612E+03  0.00000000000E+00 0. -1.
</event>
<event>
 7    1  0.4966153E-006  0.5784640E+02  0.7561462E-02  0.1407098E+00
          1   -1    0    0  501    0  0.00000000000E+00  0.00000000000E+00  0.64545532783E+03  0.64545532783E+03  0.00000000000E+00 0. -1.
         -1   -1    0    0    0  501 -0.00000000000E+00 -0.00000000000E+00 -0.18765178547E+02  0.18765178547E+02  0.00000000000E+00 0.  1.
         23    2    1    2    0    0  0.17412493053E+02 -0.72588036789E+01  0.35677343923E+03  0.37853432432E+03  0.12508022466E+03 0.  0.
          5    1    3    3  502    0  0.17911612730E+02 -0.64229738011E+01  0.36696195054E+03  0.36747874226E+03  0.41800000000E+01 0. -1.
         -5    1    3    3    0  502 -0.49911967734E+00 -0.83582987776E+00 -0.10188511311E+02  0.11055582064E+02  0.41800000000E+01 0. -1.
        -11    1    1    2    0    0 -0.47550418045E+02 -0.19712452561E+02  0.17736447980E+03  0.18468292216E+03  0.00000000000E+00 0. -1.
         11    1    1    2    0    0  0.30137924993E+02  0.26971256240E+02  0.92552230243E+02  0.10100325989E+03  0.00000000000E+00 0.  1.
</event>
<event>
 7    1  0.4966153E-006  0.9837048E+02  0.7561462E-02  0.1283760E+00
          2   -1    0    0  501    0  0.00000000000E+00  0.00000000000E+00  0.11102909790E+03  0.11102909790E+03  0.00000000000E+00 0. -1.
         -2   -1    0    0    0  501 -0.00000000000E+00 -0.00000000000E+00 -0.14098411712E+03  0.14098411712E+03  0.00000000000E+00 0.  1.
         23    2    1    2    0    0 -0.52420232038E+02 -0.26813587195E+02 -0.38562607261E+02  0.14351881291E+03  0.12507488075E+03 0.  0.
          5    1    3    3  502    0 -0.23165741355E+02 -0.75458697576E+02 -0.95106037979E+01  0.79615266105E+02  0.41800000000E+01 0.  1.
         -5    1    3    3    0  502 -0.29254490684E+02  0.48645110381E+02 -0.29052003463E+02  0.63903546806E+02  0.41800000000E+01 0.  1.
        -11    1    1    2    0    0  0.11521128978E+02  0.13541089981E+02 -0.39894335548E+02  0.43676716218E+02  0.00000000000E+00 0.  1.
         11    1    1    2    0    0  0.40899103060E+02  0.13272497214E+02  0.48501923585E+02  0.64817685896E+02  0.00000000000E+00 0. -1.
</event>
<event>
 7    1  0.4966153E-006  0.7194273E+02  0.7561462E-02  0.1353609E+00
          2   -1    0    0  501    0  0.00000000000E+00  0.00000000000E+00  0.17254299327E+03  0.17254299327E+03  0.00000000000E+00 0. -1.
         -2   -1    0    0    0  501 -0.00000000000E+00 -0.00000000000E+00 -0.70079813003E+02  0.70079813003E+02  0.00000000000E+00 0.  1.
         23    2    1    2    0    0 -0.92580754885E+01  0.12601666764E+02  0.47181141004E+02  0.13460295485E+03  0.12508949365E+03 0.  0.
          5    1    3    3  502    0  0.18581910143E+02 -0.68745033946E+01 -0.37857570839E+02  0.42932671141E+02  0.41800000000E+01 0. -1.
         -5    1    3    3    0  502 -0.27839985631E+02  0.19476170159E+02  0.85038711842E+02  0.91670283712E+02  0.41800000000E+01 0. -1.
        -11    1    1    2    0    0  0.31725304953E+02 -0.41854276642E+02  0.17853424193E+02  0.55470895098E+02  0.00000000000E+00 0.  1.
         11    1    1    2    0    0 -0.22467229464E+02  0.29252609878E+02  0.37428615072E+02  0.52548956323E+02  0.00000000000E+00 0. -1.
</event>
<event>
 7    1  0.4966153E-006  0.7335928E+02  0.7561462E-02  0.1349028E+00
         -4   -1    0    0    0  501 -0.00000000000E+00  0.00000000000E+00  0.54700700522E+03  0.54700700522E+03  0.00000000000E+00 0.  1.
          4   -1    0    0  501    0  0.00000000000E+00 -0.00000000000E+00 -0.33609261330E+02  0.33609261330E+02  0.00000000000E+00 0. -1.
         23    2    1    2    0    0 -0.29631333000E+02 -0.19291425807E+02  0.43861152989E+03  0.45746951202E+03  0.12509238693E+03 0.  0.
          5    1    3    3  502    0 -0.27441016568E+02  0.16891624556E+02  0.40950807593E+03  0.41079517161E+03  0.41800000000E+01 0. -1.
         -5    1    3    3    0  502 -0.21903164329E+01 -0.36183050363E+02  0.29103453960E+02  0.46674340403E+02  0.41800000000E+01 0. -1.
        -11    1    1    2    0    0  0.62551583728E+01  0.43579416808E+02  0.77705354824E+02  0.89310776192E+02  0.00000000000E+00 0.  1.
         11    1    1    2    0    0  0.23376174628E+02 -0.24287991001E+02 -0.29191408239E+01  0.33835978340E+02  0.00000000000E+00 0. -1.
</event>
<event>
 7    1  0.4966153E-006  0.1009060E+03  0.7561462E-02  0.1278402E+00
         -2   -1    0    0    0  501 -0.00000000000E+00  0.00000000000E+00  0.11971551098E+03  0.11971551098E+03  0.00000000000E+00 0. -1.
          2   -1    0    0  501    0  0.00000000000E+00 -0.00000000000E+00 -0.12136554437E+03  0.12136554437E+03  0.00000000000E+00 0.  1.
         23    2    1    2    0    0  0.14011436957E+02  0.49570432009E+02  0.90246091018E+01  0.13558205913E+03  0.12508997999E+03 0.  0.
          5    1    3    3  502    0  0.10547083229E+02  0.81923517064E+02  0.38731166625E+02  0.91325129515E+02  0.41800000000E+01 0. -1.
         -5    1    3    3    0  502  0.34643537281E+01 -0.32353085055E+02 -0.29706557523E+02  0.44256929618E+02  0.41800000000E+01 0. -1.
        -11    1    1    2    0    0 -0.40125664161E+02 -0.14694177083E+02 -0.35322624989E+02  0.55440739539E+02  0.00000000000E+00 0.  1.
         11    1    1    2    0    0  0.26114227203E+02 -0.34876254925E+02  0.24647982499E+02  0.50058256675E+02  0.00000000000E+00 0. -1.
</event>
<event>
 7    1  0.4966153E-006  0.1342541E+03  0.7561462E-02  0.1221276E+00
         -1   -1    0    0    0  501 -0.00000000000E+00  0.00000000000E+00  0.38539366664E+02  0.38539366664E+02  0.00000000000E+00 0.  1.
          1   -1    0    0  501    0  0.00000000000E+00 -0.00000000000E+00 -0.70572033120E+03  0.70572033120E+03  0.00000000000E+00 0. -1.
         23    2    1    2    0    0 -0.55945742994E+02 -0.89471937900E+02 -0.20937114908E+03  0.26575495109E+03  0.12511699377E+03 0.  0.
          5    1    3    3  502    0 -0.50567161365E+02 -0.10565180712E+03 -0.21698807512E+03  0.24661840828E+03  0.41800000000E+01 0. -1.
         -5    1    3    3    0  502 -0.53785816297E+01  0.16179869219E+02  0.76169260467E+01  0.19136542809E+02  0.41800000000E+01 0. -1.
        -11    1    1    2    0    0  0.50909688778E+02  0.73090290463E+01 -0.24475830175E+03  0.25010366770E+03  0.00000000000E+00 0. -1.
         11    1    1    2    0    0  0.50360542161E+01  0.82162908854E+02 -0.21305151371E+03  0.22840107908E+03  0.00000000000E+00 0.  1.
</event>
<event>
 7    1  0.4966153E-006  0.8101769E+02  0.7561462E-02  0.1326188E+00
         -3   -1    0    0    0  501 -0.00000000000E+00  0.00000000000E+00  0.42707620388E+02  0.42707620388E+02  0.00000000000E+00 0.  1.
          3   -1    0    0  501    0  0.00000000000E+00 -0.00000000000E+00 -0.30677207629E+03  0.30677207629E+03  0.00000000000E+00 0. -1.
         23    2    1    2    0    0 -0.28708257869E+02 -0.14541234754E+01 -0.11535298542E+03  0.17256816748E+03  0.12508869908E+03 0.  0.
          5    1    3    3  502    0  0.27638633009E+02 -0.25349527304E+02 -0.10339619378E+03  0.11006696988E+03  0.41800000000E+01 0. -1.
         -5    1    3    3    0  502 -0.56346890879E+02  0.23895403828E+02 -0.11956791638E+02  0.62501197605E+02  0.41800000000E+01 0. -1.
        -11    1    1    2    0    0  0.31682121126E+02  0.24291522547E+02 -0.14861210915E+03  0.15388110298E+03  0.00000000000E+00 0. -1.
         11    1    1    2    0    0 -0.29738632570E+01 -0.22837399071E+02 -0.99361326457E-01  0.23030426216E+02  0.00000000000E+00 0.  1.
</event>
<event>
 7    1  0.4966153E-006  0.9112812E+02  0.7561462E-02  0.1300143E+00
          1   -1    0    0  501    0  0.00000000000E+00  0.00000000000E+00  0.61034017667E+02  0.61034017667E+02  0.00000000000E+00 0. -1.
         -1   -1    0    0    0  501 -0.00000000000E+00 -0.00000000000E+00 -0.22618495362E+03  0.22618495362E+03  0.00000000000E+00 0.  1.
         23    2    1    2    0    0  0.16240494580E+02  0.42638191257E+02 -0.94754519049E+02  0.16342509260E+03  0.12509025938E+03 0.  0.
          5    1    3    3  502    0 -0.39061342107E+02 -0.22371787747E+02 -0.48323296214E+02  0.66173247550E+02  0.41800000000E+01 0.  1.
         -5    1    3    3    0  502  0.55301836687E+02  0.65009979004E+02 -0.46431222835E+02  0.97251845047E+02  0.41800000000E+01 0.  1.
        -11    1    1    2    0    0 -0.21988374966E+02 -0.26325372469E+02 -0.90790170986E+02  0.97053433823E+02  0.00000000000E+00 0.  1.
         11    1    1    2    0    0  0.57478803863E+01 -0.16312818787E+02  0.20393754087E+02  0.26740444863E+02  0.00000000000E+00 0. -1.
</event>
<event>
 7    1  0.4966153E-006  0.1093132E+03  0.7561462E-02  0.1261847E+00
         -1   -1    0    0    0  501 -0.00000000000E+00  0.00000000000E+00  0.24195165091E+03  0.24195165091E+03  0.00000000000E+00 0.  1.
          1   -1    0    0  501    0  0.00000000000E+00 -0.00000000000E+00 -0.71858029932E+02  0.71858029932E+02  0.00000000000E+00 0. -1.
         23    2    1    2    0    0 -0.60903000529E+02  0.41428766436E+02  0.12958602015E+03  0.19458887425E+03  0.12508707048E+03 0.  0.
          5    1    3    3  502    0 -0.92596983829E+02  0.57304006507E+02  0.90457604381E+02  0.14162627287E+03  0.41800000000E+01 0. -1.
         -5    1    3    3    0  502  0.31693983299E+02 -0.15875240071E+02  0.39128415771E+02  0.52962601385E+02  0.41800000000E+01 0. -1.
        -11    1    1    2    0    0  0.44184359389E+02 -0.26350733484E+02  0.66988262523E+02  0.84463282470E+02  0.00000000000E+00 0.  1.
         11    1    1    2    0    0  0.16718641140E+02 -0.15078032952E+02 -0.26480661695E+02  0.34757524122E+02  0.00000000000E+00 0. -1.
</event>
<event>
 7    1  0.4966153E-006  0.9249359E+02  0.7561462E-02  0.1296923E+00
         -2   -1    0    0    0  501 -0.00000000000E+00  0.00000000000E+00  0.75964138237E+02  0.75964138237E+02  0.00000000000E+00 0. -1.
          2   -1    0    0  501    0  0.00000000000E+00 -0.00000000000E+00 -0.18646648405E+03  0.18646648405E+03  0.00000000000E+00 0.  1.
         23    2    1    2    0    0 -0.31124245820E+01  0.34367802774E+01 -0.10527893159E+02  0.12561845212E+03  0.12509060849E+03 0.  0.
          5    1    3    3  502    0 -0.46686882930E+02 -0.35698592650E+02 -0.26740057844E+02  0.64703613875E+02  0.41800000000E+01 0.  1.
         -5    1    3    3    0  502  0.43574458348E+02  0.39135372928E+02  0.16212164685E+02  0.60914838244E+02  0.41800000000E+01 0.  1.
        -11    1    1    2    0    0 -0.30787267799E+02  0.75765911871E+01 -0.95817226175E+02  0.10092671314E+03  0.00000000000E+00 0.  1.
         11    1    1    2    0    0  0.33899692381E+02 -0.11013371465E+02 -0.41572264806E+01  0.35885457034E+02  0.00000000000E+00 0. -1.
</event>
<event>
 7    1  0.4966153E-006  0.1589921E+03  0.7561462E-02  0.1189839E+00
          1   -1    0    0  501    0  0.00000000000E+00  0.00000000000E+00  0.45972023718E+02  0.45972023718E+02  0.00000000000E+00 0. -1.
         -1   -1    0    0    0  501 -0.00000000000E+00 -0.00000000000E+00 -0.72075170593E+03  0.72075170593E+03  0.00000000000E+00 0.  1.
         23    2    1    2    0    0 -0.92576600576E+02  0.10479001076E+03 -0.43872764758E+03  0.47715726543E+03  0.12508290798E+03 0.  0.
          5    1    3    3  502    0 -0.37371218753E+02  0.84693879829E+02 -0.11295198077E+03  0.14610025199E+03  0.41800000000E+01 0. -1.
         -5    1    3    3    0  502 -0.55205381823E+02  0.20096130930E+02 -0.32577566681E+03  0.33105701344E+03  0.41800000000E+01 0. -1.
        -11    1    1    2    0    0 -0.60994860403E+01 -0.56016703768E+02 -0.97521377238E+02  0.11262989767E+03  0.00000000000E+00 0. -1.
         11    1    1    2    0    0  0.98676086616E+02 -0.48773306991E+02 -0.13853065740E+03  0.17693656655E+03  0.00000000000E+00 0.  1.
</event>
<event>
 6    1  0.4966153E-006  0.1292278E+03  0.7561462E-02  0.1228606E+00
          2   -1    0    0  501    0  0.00000000000E+00  0.00000000000E+00  0.88064579674E+02  0.88064579674E+02  0.00000000000E+00 0. -1.
         -2   -1    0    0    0  501 -0.00000000000E+00 -0.00000000000E+00 -0.24468448107E+03  0.24468448107E+03  0.00000000000E+00 0.  1.
          5    1    1    2  502    0 -0.26128626147E+02  0.91336179769E+02 -0.82743035583E+02  0.12605112128E+03  0.41800000000E+01 0. -1.
         -5    1    1    2    0  502 -0.15181003846E+02 -0.71584035968E+02 -0.77776417119E+02  0.10687085919E+03  0.41800000000E+01 0.  1.
        -11    1    1    2    0    0  0.63988838493E+02 -0.78873774199E+01  0.22391411168E+02  0.68250695735E+02  0.00000000000E+00 0.  1.
         11    1    1    2    0    0 -0.22679208501E+02 -0.11864766382E+02 -0.18491859862E+02  0.31576384540E+02  0.00000000000E+00 0. -1.
</event>
<event>
 7    1  0.4966153E-006  0.2730362E+03  0.7561462E-02  0.1099554E+00
         -2   -1    0    0    0  501 -0.00000000000E+00  0.00000000000E+00  0.98130833765E+02  0.98130833765E+02  0.00000000000E+00 0.  1.
          2   -1    0    0  501    0  0.00000000000E+00 -0.00000000000E+00 -0.94104128456E+03  0.94104128456E+03  0.00000000000E+00 0. -1.
         23    2    1    2    0    0 -0.10660989947E+03  0.24624131809E+03 -0.27482075097E+03  0.40395173879E+03  0.12510037851E+03 0.  0.
          5    1    3    3  502    0 -0.47689363338E+02  0.70470446119E+02 -0.17195072040E+03  0.19189810264E+03  0.41800000000E+01 0. -1.
         -5    1    3    3    0  502 -0.58920536132E+02  0.17577087197E+03 -0.10287003057E+03  0.21205363614E+03  0.41800000000E+01 0. -1.
        -11    1    1    2    0    0  0.36757015073E+02 -0.16149184598E+03 -0.26132948401E+03  0.30939262061E+03  0.00000000000E+00 0.  1.
         11    1    1    2    0    0  0.69852884397E+02 -0.84749472106E+02 -0.30676021582E+03  0.32582775893E+03  0.00000000000E+00 0. -1.
</event>
<event>
 7    1  0.4966153E-006  0.9518969E+02  0.7561462E-02  0.1290749E+00
         -1   -1    0    0    0  501 -0.00000000000E+00  0.00000000000E+00  0.23168523873E+02  0.23168523873E+02  0.00000000000E+00 0. -1.
          1   -1    0    0  501    0  0.00000000000E+00 -0.00000000000E+00 -0.70155645029E+03  0.70155645029E+03  0.00000000000E+00 0.  1.
         23    2    1    2    0    0  0.94143013767E+01 -0.17066162753E+02 -0.21651815626E+03  0.25081215074E+03  0.12508692972E+03 0.  0.
          5    1    3    3  502    0 -0.29219802415E+02 -0.32255999304E+02 -0.16892542162E+02  0.46872985022E+02  0.41800000000E+01 0.  1.
         -5    1    3    3    0  502  0.38634103791E+02  0.15189836551E+02 -0.19962561410E+03  0.20393916572E+03  0.41800000000E+01 0.  1.
        -11    1    1    2    0    0  0.34460425053E+02 -0.26218828239E+02 -0.15615563554E+03  0.16204792612E+03  0.00000000000E+00 0.  1.
         11    1    1    2    0    0 -0.43874726429E+02  0.43284990991E+02 -0.30571413462E+03  0.31186489731E+03  0.00000000000E+00 0. -1.
</event>
<event>
 7    1  0.4966153E-006  0.1273450E+03  0.7561462E-02  0.1231449E+00
          2   -1    0    0  501    0  0.00000000000E+00  0.00000000000E+00  0.26708398789E+03  0.26708398789E+03  0.00000000000E+00 0. -1.
         -2   -1    0    0    0  501 -0.00000000000E+00 -0.00000000000E+00 -0.11938877230E+03  0.11938877230E+03  0.00000000000E+00 0.  1.
         23    2    1    2    0    0 -0.27025529677E+02 -0.10205582435E+03 -0.33194436949E+02  0.16701693330E+03  0.12508802830E+03 0.  0.
          5    1    3    3  502    0 -0.59424458451E+02 -0.68671558172E+02 -0.63899399508E+02  0.11112000190E+03  0.41800000000E+01 0. -1.
         -5    1    3    3    0  502  0.32398928774E+02 -0.33384266180E+02  0.30704962559E+02  0.55896931399E+02  0.41800000000E+01 0. -1.
        -11    1    1    2    0    0  0.41920759328E+02  0.81953954543E+02  0.10545571072E+03  0.13998109748E+03  0.00000000000E+00 0.  1.
         11    1    1    2    0    0 -0.14895229651E+02  0.20101869809E+02  0.75433941828E+02  0.79474729417E+02  0.00000000000E+00 0. -1.
</event>
<event>
 7    1  0.4966153E-006  0.1071621E+03  0.7561462E-02  0.1265917E+00
         -3   -1    0    0    0  501 -0.00000000000E+00  0.00000000000E+00  0.18349155046E+03  0.18349155046E+03  0.00000000000E+00 0.  1.
          3   -1    0    0  501    0  0.00000000000E+00 -0.00000000000E+00 -0.10272577095E+03  0.10272577095E+03  0.00000000000E+00 0. -1.
         23    2    1    2    0    0  0.49031644062E+02 -0.20643420907E+02  0.11188230360E+03  0.17605359034E+03  0.12508782461E+03 0.  0.
          5    1    3    3  502    0 -0.30346664932E+02 -0.43042361505E+02  0.51225221839E+02  0.73587096076E+02  0.41800000000E+01 0. -1.
         -5    1    3    3    0  502  0.79378308994E+02  0.22398940598E+02  0.60657081765E+02  0.10246649426E+03  0.41800000000E+01 0. -1.
        -11    1    1    2    0    0  0.84918606023E+01 -0.10494332744E+02 -0.41764749662E+02  0.43892334530E+02  0.00000000000E+00 0. -1.
         11    1    1    2    0    0 -0.57523504664E+02  0.31137753651E+02  0.10648225572E+02  0.66271396538E+02  0.00000000000E+00 0.  1.
</event>
<event>
 7    1  0.4966153E-006  0.2720794E+03  0.7561462E-02  0.1100095E+00
         -1   -1    0    0    0  501 -0.00000000000E+00  0.00000000000E+00  0.62743982142E+02  0.62743982142E+02  0.00000000000E+00 0.  1.
          1   -1    0    0  501    0  0.00000000000E+00 -0.00000000000E+00 -0.13793905261E+04  0.13793905261E+04  0.00000000000E+00 0. -1.
         23    2    1    2    0    0 -0.99806534878E+02  0.23776580822E+03 -0.45123918587E+03  0.53456262111E+03  0.12508584675E+03 0.  0.
          5    1    3    3  502    0 -0.83704849327E+02  0.50329080628E+02 -0.17191777398E+03  0.19776933931E+03  0.41800000000E+01 0. -1.
         -5    1    3    3    0  502 -0.16101685551E+02  0.18743672759E+03 -0.27932141189E+03  0.33679328180E+03  0.41800000000E+01 0. -1.
        -11    1    1    2    0    0  0.14192927490E+01 -0.10244649012E+02 -0.38046911857E+01  0.11020113443E+02  0.00000000000E+00 0.  1.
         11    1    1    2    0    0  0.98387242129E+02 -0.22752115921E+03 -0.86160266691E+03  0.89655177370E+03  0.00000000000E+00 0. -1.
</event>
<event>
 7    1  0.4966153E-006  0.1265118E+03  0.7561462E-02  0.1232725E+00
         -1   -1    0    0    0  501 -0.00000000000E+00  0.00000000000E+00  0.18275792141E+03  0.18275792141E+03  0.00000000000E+00 0.  1.
          1   -1    0    0  501    0  0.00000000000E+00 -0.00000000000E+00 -0.15307202978E+03  0.15307202978E+03  0.00000000000E+00 0. -1.
         23    2    1    2    0    0 -0.87062871918E+02 -0.25122798792E+02  0.10467528600E+03  0.18658928393E+03  0.12509015427E+03 0.  0.
          5    1    3    3  502    0 -0.59628313957E+02 -0.65558291453E+02  0.23547038953E+02  0.91789764392E+02  0.41800000000E+01 0.  1.
         -5    1    3    3    0  502 -0.27434557960E+02  0.40435492661E+02  0.81128247043E+02  0.94799519542E+02  0.41800000000E+01 0.  1.
        -11    1    1    2    0    0 -0.12315911787E+02  0.72457709438E+01  0.98509534652E+01  0.17355810667E+02  0.00000000000E+00 0.  1.
         11    1    1    2    0    0  0.99378783705E+02  0.17877027849E+02 -0.84840347831E+02  0.13188485658E+03  0.00000000000E+00 0. -1.
</event>
<event>
 7    1  0.4966153E-006  0.9128621E+02  0.7561462E-02  0.1299767E+00
         -1   -1    0    0    0  501 -0.00000000000E+00  0.00000000000E+00  0.20714699148E+02  0.20714699148E+02  0.00000000000E+00 0.  1.
          1   -1    0    0  501    0  0.00000000000E+00 -0.00000000000E+00 -0.59731534888E+03  0.59731534888E+03  0.00000000000E+00 0. -1.
         23    2    1    2    0    0 -0.33710897679E+02  0.15377619854E+02 -0.36093145943E+03  0.38376954555E+03  0.12503859355E+03 0.  0.
          5    1    3    3  502    0 -0.15128829435E+02  0.55445297940E+02 -0.75847418580E+02  0.95254216961E+02  0.41800000000E+01 0.  1.
         -5    1    3    3    0  502 -0.18582068243E+02 -0.40067678086E+02 -0.28508404085E+03  0.28851532859E+03  0.41800000000E+01 0.  1.
        -11    1    1    2    0    0  0.93171373086E+01 -0.42846186583E+02 -0.59993675768E+02  0.74309123831E+02  0.00000000000E+00 0.  1.
         11    1    1    2    0    0  0.24393760370E+02  0.27468566729E+02 -0.15567551454E+03  0.15995137864E+03  0.00000000000E+00 0. -1.
</event>
<event>
 7    1  0.4966153E-006  0.9198696E+02  0.7561462E-02  0.1298110E+00
          1   -1    0    0  501    0  0.00000000000E+00  0.00000000000E+00  0.23499846854E+03  0.23499846854E+03  0.00000000000E+00 0. -1.
         -1   -1    0    0    0  501 -0.00000000000E+00 -0.00000000000E+00 -0.66585489891E+02  0.66585489891E+02  0.00000000000E+00 0.  1.
         23    2    1    2    0    0  0.48922292615E+02  0.38481192889E+02  0.78186500127E+02  0.15997815949E+03  0.12492273528E+03 0.  0.
          5    1    3    3  502    0  0.73246036888E+01 -0.21496345073E+02  0.83539302185E+02  0.86671968249E+02  0.41800000000E+01 0. -1.
         -5    1    3    3    0  502  0.41597688926E+02  0.59977537962E+02 -0.53528020583E+01  0.73306191238E+02  0.41800000000E+01 0. -1.
        -11    1    1    2    0    0 -0.11418911710E+01 -0.39952609800E+02  0.84480835123E+02  0.93458688458E+02  0.00000000000E+00 0. -1.
         11    1    1    2    0    0 -0.47780401444E+02  0.14714169106E+01  0.57456433981E+01  0.48147110484E+02  0.00000000000E+00 0.  1.
</event>
<event>
 7    1  0.4966153E-006  0.1343246E+03  0.7561462E-02  0.1221176E+00
         -2   -1    0    0    0  501 -0.00000000000E+00  0.00000000000E+00  0.53650158895E+02  0.53650158895E+02  0.00000000000E+00 0.  1.
          2   -1    0    0  501    0  0.00000000000E+00 -0.00000000000E+00 -0.48176380986E+03  0.48176380986E+03  0.00000000000E+00 0. -1.
         23    2    1    2    0    0  0.10878378901E+03  0.36287536017E+02 -0.17894315743E+03  0.24661513782E+03  0.12509066547E+03 0.  0.
          5    1    3    3  502    0  0.99319992067E+01 -0.97045714354E+01  0.16998614569E+02  0.22343871917E+02  0.41800000000E+01 0. -1.
         -5    1    3    3    0  502  0.98851789807E+02  0.45992107453E+02 -0.19594177199E+03  0.22427126590E+03  0.41800000000E+01 0. -1.
        -11    1    1    2    0    0 -0.90040529679E+02  0.14229705305E+02 -0.14011882520E+03  0.16716179789E+03  0.00000000000E+00 0.  1.
         11    1    1    2    0    0 -0.18743259335E+02 -0.50517241322E+02 -0.10905166834E+03  0.12163703305E+03  0.00000000000E+00 0. -1.
</event>
<event>
 7    1  0.4966153E-006  0.1456703E+03  0.7561462E-02  0.1205897E+00
          2   -1    0    0  501    0  0.00000000000E+00  0.00000000000E+00  0.60692652331E+03  0.60692652331E+03  0.00000000000E+00 0. -1.
         -2   -1    0    0    0  501 -0.00000000000E+00 -0.00000000000E+00 -0.43999495356E+02  0.43999495356E+02  0.00000000000E+00 0.  1.
         23    2    1    2    0    0 -0.12110114837E+03 -0.25165448533E+00  0.30833885619E+03  0.35409918629E+03  0.12509129476E+03 0.  0.
          5    1    3    3  502    0 -0.11043635747E+03  0.22934043529E+02  0.30822160626E+03  0.32823800872E+03  0.41800000000E+01 0. -1.
         -5    1    3    3    0  502 -0.10664790904E+02 -0.23185698014E+02  0.11724992684E+00  0.25861177564E+02  0.41800000000E+01 0. -1.
        -11    1    1    2    0    0  0.85268152707E+01 -0.33910382145E+02  0.59278875903E+02  0.68823002871E+02  0.00000000000E+00 0.  1.
         11    1    1    2    0    0  0.11257433310E+03  0.34162036631E+02  0.19530929587E+03  0.22800382951E+03  0.00000000000E+00 0. -1.
</event>
<event>
 7    1  0.4966153E-006  0.1078932E+03  0.7561462E-02  0.1264522E+00
          2   -1    0    0  501    0  0.00000000000E+00  0.00000000000E+00  0.21281910989E+03  0.21281910989E+03  0.00000000000E+00 0.  1.
         -2   -1    0    0    0  501 -0.00000000000E+00 -0.00000000000E+00 -0.63708824364E+02  0.63708824364E+02  0.00000000000E+00 0. -1.
         23    2    1    2    0    0  0.22520874158E+02 -0.25246461405E+02  0.52377161547E+02  0.13977270882E+03  0.12509384274E+03 0.  0.
          5    1    3    3  502    0 -0.13958290669E+02 -0.70097995189E+02  0.27515825966E+02  0.76701733270E+02  0.41800000000E+01 0.  1.
         -5    1    3    3    0  502  0.36479164828E+02  0.44851533785E+02  0.24861335581E+02  0.63070975545E+02  0.41800000000E+01 0.  1.
        -11    1    1    2    0    0 -0.36837628185E+02 -0.17762605571E+02  0.77267601884E+02  0.87423127992E+02  0.00000000000E+00 0.  1.
         11    1    1    2    0    0  0.14316754027E+02  0.43009066976E+02  0.19465522095E+02  0.49332097446E+02  0.00000000000E+00 0. -1.
</event>
<event>
 7    1  0.4966153E-006  0.1374043E+03  0.7561462E-02  0.1216865E+00
          2   -1    0    0  501    0  0.00000000000E+00  0.00000000000E+00  0.54222667888E+03  0.54222667888E+03  0.00000000000E+00 0. -1.
         -2   -1    0    0    0  501 -0.00000000000E+00 -0.00000000000E+00 -0.53291299889E+02  0.53291299889E+02  0.00000000000E+00 0.  1.
         23    2    1    2    0    0  0.97527869045E+02  0.78371758401E+02  0.19084251833E+03  0.26023379382E+03  0.12508774075E+03 0.  0.
          5    1    3    3  502    0  0.77678562342E+02  0.80560109595E+02  0.20623317971E+03  0.23467741076E+03  0.41800000000E+01 0.  1.
         -5    1    3    3    0  502  0.19849306703E+02 -0.21883511936E+01 -0.15390661379E+02  0.25556383061E+02  0.41800000000E+01 0.  1.
        -11    1    1    2    0    0 -0.76606552411E+02 -0.90234651679E+02  0.18473788002E+03  0.21940588085E+03  0.00000000000E+00 0.  1.
         11    1    1    2    0    0 -0.20921316633E+02  0.11862893277E+02  0.11335498063E+03  0.11587830410E+03  0.00000000000E+00 0. -1.
</event>
<event>
 7    1  0.4966153E-006  0.1017976E+03  0.7561462E-02  0.1276561E+00
          1   -1    0    0  501    0  0.00000000000E+00  0.00000000000E+00  0.10019863203E+03  0.10019863203E+03  0.00000000000E+00 0. -1.
         -1   -1    0    0    0  501 -0.00000000000E+00 -0.00000000000E+00 -0.12850238471E+03  0.12850238471E+03  0.00000000000E+00 0.  1.
         23    2    1    2    0    0  0.15883089595E+01  0.30317811171E+02 -0.18333286246E+02  0.13002129501E+03  0.12509090843E+03 0.  0.
          5    1    3    3  502    0 -0.53763174247E+02  0.45532509272E+02 -0.16267143650E+02  0.72427761723E+02  0.41800000000E+01 0.  1.
         -5    1    3    3    0  502  0.55351483206E+02 -0.15214698102E+02 -0.20661425955E+01  0.57593533288E+02  0.41800000000E+01 0.  1.
        -11    1    1    2    0    0 -0.27528941612E+02  0.84665699901E+01 -0.35323228871E+02  0.45576923235E+02  0.00000000000E+00 0.  1.
         11    1    1    2    0    0  0.25940632652E+02 -0.38784381161E+02  0.25352762442E+02  0.53102798494E+02  0.00000000000E+00 0. -1.
</event>
<event>
 7    1  0.4966153E-006  0.9314487E+02  0.7561462E-02  0.1295410E+00
         -1   -1    0    0    0  501 -0.00000000000E+00  0.00000000000E+00  0.83988461192E+02  0.83988461192E+02  0.00000000000E+00 0.  1.
          1   -1    0    0  501    0  0.00000000000E+00 -0.00000000000E+00 -0.21747886502E+03  0.21747886502E+03  0.00000000000E+00 0. -1.
         23    2    1    2    0    0 -0.41854355194E+02  0.70105149343E+01  0.15338916673E+01  0.13209808970E+03  0.12508644256E+03 0.  0.
          5    1    3    3  502    0 -0.61700696615E+02 -0.89959112446E+01 -0.46270568628E+02  0.77758216948E+02  0.41800000000E+01 0.  1.
         -5    1    3    3    0  502  0.19846341421E+02  0.16006426179E+02  0.47804460295E+02  0.54339872754E+02  0.41800000000E+01 0.  1.
        -11    1    1    2    0    0  0.18214438533E+02  0.40768417096E+02 -0.86214351300E+02  0.97091420701E+02  0.00000000000E+00 0. -1.
         11    1    1    2    0    0  0.23639916660E+02 -0.47778932030E+02 -0.48809944192E+02  0.72277815806E+02  0.00000000000E+00 0.  1.
</event>
<event>
 7    1  0.4966153E-006  0.1119586E+03  0.7561462E-02  0.1256985E+00
         -1   -1    0    0    0  501 -0.00000000000E+00  0.00000000000E+00  0.42104714163E+03  0.42104714163E+03  0.00000000000E+00 0.  1.
          1   -1    0    0  501    0  0.00000000000E+00 -0.00000000000E+00 -0.43023582560E+02  0.43023582560E+02  0.00000000000E+00 0. -1.
         23    2    1    2    0    0  0.12682155749E+02 -0.76393577995E+02  0.17995095790E+03  0.23243558581E+03  0.12508852254E+03 0.  0.
          5    1    3    3  502    0 -0.27244823667E+02 -0.87243403071E+02  0.16419396189E+03  0.18796494704E+03  0.41800000000E+01 0. -1.
         -5    1    3    3    0  502  0.39926979416E+02  0.10849825076E+02  0.15756996011E+02  0.44470638772E+02  0.41800000000E+01 0. -1.
        -11    1    1    2    0    0 -0.26206245423E+02  0.20334066122E+02  0.15791927310E+03  0.16136523281E+03  0.00000000000E+00 0.  1.
         11    1    1    2    0    0  0.13524089674E+02  0.56059511873E+02  0.40153328073E+02  0.70269905566E+02  0.00000000000E+00 0. -1.
</event>
<event>
 7    1  0.4966153E-006  0.1658476E+03  0.7561462E-02  0.1182249E+00
          1   -1    0    0  501    0  0.00000000000E+00  0.00000000000E+00  0.97710895173E+03  0.97710895173E+03  0.00000000000E+00 0. -1.
         -1   -1    0    0    0  501 -0.00000000000E+00 -0.00000000000E+00 -0.43568779603E+02  0.43568779603E+02  0.00000000000E+00 0.  1.
         23    2    1    2    0    0  0.16205448334E+03  0.14857352779E+01  0.31571036040E+03  0.37627744396E+03  0.12509124746E+03 0.  0.
          5    1    3    3  502    0  0.36734436639E+02  0.21264460810E+02  0.20005555739E+03  0.20455144725E+03  0.41800000000E+01 0. -1.
         -5    1    3    3    0  502  0.12532004670E+03 -0.19778725532E+02  0.11565480301E+03  0.17172599672E+03  0.41800000000E+01 0. -1.
        -11    1    1    2    0    0 -0.33599024142E+02 -0.18280380276E+01  0.39098230427E+02  0.51583987524E+02  0.00000000000E+00 0.  1.
         11    1    1    2    0    0 -0.12845545920E+03  0.34230274975E+00  0.57873158129E+03  0.59281629984E+03  0.00000000000E+00 0. -1.
</event>
<event>
 6    1  0.4966153E-006  0.2149600E+03  0.7561462E-02  0.1137697E+00
         -1   -1    0    0    0  501 -0.00000000000E+00  0.00000000000E+00  0.11570913361E+03  0.11570913361E+03  0.00000000000E+00 0.  1.
          1   -1    0    0  501    0  0.00000000000E+00 -0.00000000000E+00 -0.51561611246E+03  0.51561611246E+03  0.00000000000E+00 0. -1.
          5    1    1    2  502    0 -0.13986553216E+03 -0.18875058674E+02 -0.18899552730E+03  0.23591400269E+03  0.41800000000E+01 0. -1.
         -5    1    1    2    0  502  0.16096039984E+03  0.79457556227E+02 -0.27208667157E+02  0.18160269141E+03  0.41800000000E+01 0.  1.
        -11    1    1    2    0    0 -0.32467313806E+02 -0.80185353236E+02 -0.13980090479E+03  0.16440228198E+03  0.00000000000E+00 0. -1.
         11    1    1    2    0    0  0.11372446128E+02  0.19602855682E+02 -0.43901879605E+02  0.49406269993E+02  0.00000000000E+00 0.  1.
</event>
<event>
 7    1  0.4966153E-006  0.1340434E+03  0.7561462E-02  0.1221576E+00
         -1   -1    0    0    0  501 -0.00000000000E+00  0.00000000000E+00  0.30757440045E+02  0.30757440045E+02  0.00000000000E+00 0.  1.
          1   -1    0    0  501    0  0.00000000000E+00 -0.00000000000E+00 -0.74762442313E+03  0.74762442313E+03  0.00000000000E+00 0. -1.
         23    2    1    2    0    0  0.65999785353E+02  0.81726849179E+02 -0.39482541710E+03  0.42728233818E+03  0.12509131461E+03 0.  0.
          5    1    3    3  502    0  0.61854599106E+02 -0.13709525038E+02 -0.11218998332E+03  0.12891085007E+03  0.41800000000E+01 0.  1.
         -5    1    3    3    0  502  0.41451862468E+01  0.95436374217E+02 -0.28263543378E+03  0.29837148811E+03  0.41800000000E+01 0.  1.
        -11    1    1    2    0    0 -0.34583461246E+02 -0.20615443097E+02 -0.24322785524E+03  0.24653762765E+03  0.00000000000E+00 0. -1.
         11    1    1    2    0    0 -0.31416324107E+02 -0.61111406083E+02 -0.78813710759E+02  0.10456189735E+03  0.00000000000E+00 0.  1.
</event>
<event>
 7    1  0.4966153E-006  0.1578149E+03  0.7561462E-02  0.1191186E+00
          1   -1    0    0  501    0  0.00000000000E+00  0.00000000000E+00  0.19915129440E+03  0.19915129440E+03  0.00000000000E+00 0. -1.
         -1   -1    0    0    0  501 -0.00000000000E+00 -0.00000000000E+00 -0.18335336771E+03  0.18335336771E+03  0.00000000000E+00 0.  1.
         23    2    1    2    0    0 -0.14778988156E+03 -0.46489571323E+02 -0.14934090090E+02  0.19968302200E+03  0.12508858019E+03 0.  0.
          5    1    3    3  502    0 -0.76017967453E+02 -0.45531845626E+02 -0.66783596547E+02  0.11103783819E+03  0.41800000000E+01 0. -1.
         -5    1    3    3    0  502 -0.71771914108E+02 -0.95772569746E+00  0.51849506457E+02  0.88645183812E+02  0.41800000000E+01 0. -1.
        -11    1    1    2    0    0  0.10325282941E+03  0.29912903271E+02 -0.24197672822E+02  0.11018827494E+03  0.00000000000E+00 0.  1.
         11    1    1    2    0    0  0.44537052148E+02  0.16576668052E+02  0.54929689595E+02  0.72633365176E+02  0.00000000000E+00 0. -1.
</event>
<event>
 7    1  0.4966153E-006  0.1322981E+03  0.7561462E-02  0.1224085E+00
          2   -1    0    0  501    0  0.00000000000E+00  0.00000000000E+00  0.27535080933E+03  0.27535080933E+03  0.00000000000E+00 0.  1.
         -2   -1    0    0    0  501 -0.00000000000E+00 -0.00000000000E+00 -0.64237582816E+02  0.64237582816E+02  0.00000000000E+00 0. -1.
         23    2    1    2    0    0 -0.62545280436E+02 -0.44877257273E+02  0.10473224957E+03  0.18039345647E+03  0.12508826769E+03 0.  0.
          5    1    3    3  502    0  0.36707433791E+02 -0.27157627994E+02  0.29426110823E+02  0.54482482065E+02  0.41800000000E+01 0.  1.
         -5    1    3    3    0  502 -0.99252714227E+02 -0.17719629278E+02  0.75306138744E+02  0.12591097441E+03  0.41800000000E+01 0.  1.
        -11    1    1    2    0    0  0.85509356334E+02  0.30733260098E+02  0.88462391465E+02  0.12681473889E+03  0.00000000000E+00 0.  1.
         11    1    1    2    0    0 -0.22964075898E+02  0.14143997175E+02  0.17918585485E+02  0.32380196783E+02  0.00000000000E+00 0. -1.
</event>
<event>
 6    1  0.4966153E-006  0.7989089E+02  0.7561462E-02  0.1329361E+00
          2   -1    0    0  501    0  0.00000000000E+00  0.00000000000E+00  0.14676049686E+03  0.14676049686E+03  0.00000000000E+00 0. -1.
         -2   -1    0    0    0  501 -0.00000000000E+00 -0.00000000000E+00 -0.15954260902E+03  0.15954260902E+03  0.00000000000E+00 0.  1.
          5    1    1    2  502    0 -0.21534205991E+02 -0.22065565055E+02  0.49153760827E+02  0.58173669236E+02  0.41800000000E+01 0. -1.
         -5    1    1    2    0  502 -0.30180448026E+02 -0.36104896298E+01 -0.12243215391E+03  0.12621806443E+03  0.41800000000E+01 0.  1.
        -11    1    1    2    0    0 -0.20904990748E+02 -0.16522626518E+00 -0.41463831812E+01  0.21312870088E+02  0.00000000000E+00 0.  1.
         11    1    1    2    0    0  0.72619644765E+02  0.25841280950E+02  0.64642664109E+02  0.10059850213E+03  0.00000000000E+00 0. -1.
</event>
<event>
 7    1  0.4966153E-006  0.4604655E+02  0.7561462E-02  0.1467912E+00
         -2   -1    0    0    0  501 -0.00000000000E+00  0.00000000000E+00  0.91939070957E+02  0.91939070957E+02  0.00000000000E+00 0. -1.
          2   -1    0    0  501    0  0.00000000000E+00 -0.00000000000E+00 -0.13822189339E+03  0.13822189339E+03  0.00000000000E+00 0.  1.
         23    2    1    2    0    0 -0.19364009128E+02 -0.22768265880E+02 -0.13688092304E+02  0.12933668042E+03  0.12508898533E+03 0.  0.
          5    1    3    3  502    0 -0.21610483598E+02 -0.39214212437E+02 -0.62849487194E+02  0.77280643754E+02  0.41800000000E+01 0.  1.
         -5    1    3    3    0  502  0.22464744697E+01  0.16445946557E+02  0.49161394891E+02  0.52056036665E+02  0.41800000000E+01 0.  1.
        -11    1    1    2    0    0  0.13403095509E+02  0.13793352237E+02 -0.64417383568E+02  0.67227218007E+02  0.00000000000E+00 0.  1.
         11    1    1    2    0    0  0.59609136191E+01  0.89749136427E+01  0.31822653443E+02  0.33597065917E+02  0.00000000000E+00 0. -1.
</event>
<event>
 7    1  0.4966153E-006  0.1142894E+03  0.7561462E-02  0.1252827E+00
          1   -1    0    0  501    0  0.00000000000E+00  0.00000000000E+00  0.29829679957E+03  0.29829679957E+03  0.00000000000E+00 0. -1.
         -1   -1    0    0    0  501 -0.00000000000E+00 -0.00000000000E+00 -0.80865229478E+02  0.80865229478E+02  0.00000000000E+00 0.  1.
         23    2    1    2    0    0  0.45638086955E+01  0.46893795935E+02 -0.64894823019E+01  0.13382661209E+03  0.12509033646E+03 0.  0.
          5    1    3    3  502    0  0.63486196117E+02  0.13701504194E+02  0.42618772852E+01  0.65221655242E+02  0.41800000000E+01 0. -1.
         -5    1    3    3    0  502 -0.58922387421E+02  0.33192291742E+02 -0.10751359587E+02  0.68604956843E+02  0.41800000000E+01 0. -1.
        -11    1    1    2    0    0  0.34741131098E+02 -0.44370871112E+02  0.94226104715E+02  0.10979198151E+03  0.00000000000E+00 0.  1.
         11    1    1    2    0    0 -0.39304939793E+02 -0.25229248232E+01  0.12969494767E+03  0.13554343545E+03  0.00000000000E+00 0. -1.
</event>
<event>
 7    1  0.4966153E-006  0.1309933E+03  0.7561462E-02  0.1225989E+00
         -1   -1    0    0    0  501 -0.00000000000E+00  0.00000000000E+00  0.31454179761E+03  0.31454179761E+03  0.00000000000E+00 0.  1.
          1   -1    0    0  501    0  0.00000000000E+00 -0.00000000000E+00 -0.65028367069E+02  0.65028367069E+02  0.00000000000E+00 0. -1.
         23    2    1    2    0    0  0.91895384887E+02  0.74164794194E+01  0.15167883644E+03  0.21714987247E+03  0.12509129371E+03 0.  0.
          5    1    3    3  502    0 -0.20116161372E+02  0.11937729474E+02 -0.51650189550E+01  0.24317054800E+02  0.41800000000E+01 0. -1.
         -5    1    3    3    0  502  0.11201154626E+03 -0.45212500549E+01  0.15684385539E+03  0.19283281767E+03  0.41800000000E+01 0. -1.
        -11    1    1    2    0    0 -0.85360472891E+01  0.32512842684E+02  0.10395685409E+02  0.35185498686E+02  0.00000000000E+00 0. -1.
         11    1    1    2    0    0 -0.83359337598E+02 -0.39929322103E+02  0.87438908697E+02  0.12723479352E+03  0.00000000000E+00 0.  1.
</event>
<event>
 7    1  0.4966153E-006  0.2434764E+03  0.7561462E-02  0.1117498E+00
         -1   -1    0    0    0  501 -0.00000000000E+00  0.00000000000E+00  0.20851427030E+03  0.20851427030E+03  0.00000000000E+00 0.  1.
          1   -1    0    0  501    0  0.00000000000E+00 -0.00000000000E+00 -0.33320343215E+03  0.33320343215E+03  0.00000000000E+00 0. -1.
         23    2    1    2    0    0  0.11591653654E+03 -0.19860940789E+03 -0.13440836242E+03  0.29427093864E+03  0.12508971617E+03 0.  0.
          5    1    3    3  502    0  0.10618042858E+03 -0.20498116648E+03 -0.14927107266E+03  0.27493797039E+03  0.41800000000E+01 0. -1.
         -5    1    3    3    0  502  0.97361079580E+01  0.63717585883E+01  0.14862710244E+02  0.19332968253E+02  0.41800000000E+01 0. -1.
        -11    1    1    2    0    0  0.15928486014E+01  0.67969160542E+02 -0.16041585933E+02  0.69854680808E+02  0.00000000000E+00 0.  1.
         11    1    1    2    0    0 -0.11750938514E+03  0.13064024735E+03  0.25760786495E+02  0.17759208300E+03  0.00000000000E+00 0. -1.
</event>
<event>
 7    1  0.4966153E-006  0.1188757E+03  0.7561462E-02  0.1244963E+00
          1   -1    0    0  501    0  0.00000000000E+00  0.00000000000E+00  0.31581475822E+03  0.31581475822E+03  0.00000000000E+00 0. -1.
         -1   -1    0    0    0  501 -0.00000000000E+00 -0.00000000000E+00 -0.52996741023E+02  0.52996741023E+02  0.00000000000E+00 0.  1.
         23    2    1    2    0    0  0.99663549382E+01  0.62450034980E+02  0.11093070145E+03  0.17875208395E+03  0.12508937562E+03 0.  0.
          5    1    3    3  502    0 -0.19301032371E+02 -0.32120993818E+02  0.49291145583E+02  0.62059467669E+02  0.41800000000E+01 0.  1.
         -5    1    3    3    0  502  0.29267387309E+02  0.94571028798E+02  0.61639555865E+02  0.11669261628E+03  0.41800000000E+01 0.  1.
        -11    1    1    2    0    0 -0.13403703271E+02  0.16880964796E+02  0.36049929344E+01  0.21854569497E+02  0.00000000000E+00 0.  1.
         11    1    1    2    0    0  0.34373483324E+01 -0.79330999777E+02  0.14828232281E+03  0.16820484579E+03  0.00000000000E+00 0. -1.
</event>
<event>
 7    1  0.4966153E-006  0.2379914E+03  0.7561462E-02  0.1121138E+00
         -1   -1    0    0    0  501 -0.00000000000E+00  0.00000000000E+00  0.13227963213E+03  0.13227963213E+03  0.00000000000E+00 0.  1.
          1   -1    0    0  501    0  0.00000000000E+00 -0.00000000000E+00 -0.50024573164E+03  0.50024573164E+03  0.00000000000E+00 0. -1.
         23    2    1    2    0    0  0.62909388904E+02 -0.21388240220E+03 -0.10626230798E+03  0.27684030214E+03  0.12508237929E+03 0.  0.
          5    1    3    3  502    0 -0.29553295664E+02 -0.14689246010E+02 -0.10198769556E+01  0.33281883690E+02  0.41800000000E+01 0.  1.
         -5    1    3    3    0  502  0.92462684567E+02 -0.19919315619E+03 -0.10524243103E+03  0.24355841845E+03  0.41800000000E+01 0.  1.
        -11    1    1    2    0    0 -0.49445381671E+02  0.15631902070E+03 -0.24401337272E+03  0.29397790404E+03  0.00000000000E+00 0. -1.
         11    1    1    2    0    0 -0.13464007232E+02  0.57563381501E+02 -0.17690418809E+02  0.61707157593E+02  0.00000000000E+00 0.  1.
</event>
<event>
 7    1  0.4966153E-006  0.1217987E+03  0.7561462E-02  0.1240159E+00
          2   -1    0    0  501    0  0.00000000000E+00  0.00000000000E+00  0.10054285895E+03  0.10054285895E+03  0.00000000000E+00 0. -1.
         -2   -1    0    0    0  501 -0.00000000000E+00 -0.00000000000E+00 -0.22100040410E+03  0.22100040410E+03  0.00000000000E+00 0.  1.
         23    2    1    2    0    0  0.76373672767E+02 -0.59932536460E+02 -0.31304413005E+02  0.16140630359E+03  0.12508869552E+03 0.  0.
          5    1    3    3  502    0  0.51798751563E+02  0.20558750254E+02 -0.50119781892E+02  0.75068221055E+02  0.41800000000E+01 0. -1.
         -5    1    3    3    0  502  0.24574921205E+02 -0.80491286714E+02  0.18815368887E+02  0.86338082532E+02  0.41800000000E+01 0. -1.
        -11    1    1    2    0    0 -0.23362322833E+02  0.40941456345E+02 -0.92403936805E+02  0.10373277454E+03  0.00000000000E+00 0.  1.
         11    1    1    2    0    0 -0.53011349935E+02  0.18991080115E+02  0.32508046632E+01  0.56404184923E+02  0.00000000000E+00 0. -1.
</event>
<event>
 7    1  0.4966153E-006  0.9955501E+02  0.7561462E-02  0.1281234E+00
          2   -1    0    0  501    0  0.00000000000E+00  0.00000000000E+00  0.17180255999E+03  0.17180255999E+03  0.00000000000E+00 0. -1.
         -2   -1    0    0    0  501 -0.00000000000E+00 -0.00000000000E+00 -0.11613256550E+03  0.11613256550E+03  0.00000000000E+00 0.  1.
         23    2    1    2    0    0  0.35059938016E+02 -0.81003298623E+02  0.82717940787E+01  0.15331922238E+03  0.12509047819E+03 0.  0.
          5    1    3    3  502    0  0.12028249303E+02 -0.38920898043E-01 -0.49517996685E+02  0.51129098289E+02  0.41800000000E+01 0.  1.
         -5    1    3    3    0  502  0.23031688712E+02 -0.80964377725E+02  0.57789790764E+02  0.10219012409E+03  0.41800000000E+01 0.  1.
        -11    1    1    2    0    0 -0.35881542718E+02  0.19984414651E+02 -0.18286540056E+02  0.44958419500E+02  0.00000000000E+00 0.  1.
         11    1    1    2    0    0  0.82160470183E+00  0.61018883972E+02  0.65684740471E+02  0.89657483604E+02  0.00000000000E+00 0. -1.
</event>
<event>
 7    1  0.4966153E-006  0.8566724E+02  0.7561462E-02  0.1313697E+00
          2   -1    0    0  501    0  0.00000000000E+00  0.00000000000E+00  0.60062984037E+03  0.60062984037E+03  0.00000000000E+00 0. -1.
         -2   -1    0    0    0  501 -0.00000000000E+00 -0.00000000000E+00 -0.25738825384E+02  0.25738825384E+02  0.00000000000E+00 0.  1.
         23    2    1    2    0    0 -0.52629721259E+02 -0.36413950871E+00  0.25396812541E+03  0.28795422866E+03  0.12509120240E+03 0.  0.
          5    1    3    3  502    0 -0.32970995906E+02  0.34595278218E+02  0.24080237771E+03  0.24553447285E+03  0.41800000000E+01 0.  1.
         -5    1    3    3    0  502 -0.19658725353E+02 -0.34959417727E+02  0.13165747700E+02  0.42419755808E+02  0.41800000000E+01 0.  1.
        -11    1    1    2    0    0 -0.88833589241E+01 -0.16947056125E+02  0.11206482234E+02  0.22174355033E+02  0.00000000000E+00 0.  1.
         11    1    1    2    0    0  0.61513080183E+02  0.17311195634E+02  0.30971640734E+03  0.31624008207E+03  0.00000000000E+00 0. -1.
</event>
<event>
 7    1  0.4966153E-006  0.1249450E+03  0.7561462E-02  0.1235155E+00
         -2   -1    0    0    0  501 -0.00000000000E+00  0.00000000000E+00  0.33430521163E+03  0.33430521163E+03  0.00000000000E+00 0.  1.
          2   -1    0    0  501    0  0.00000000000E+00 -0.00000000000E+00 -0.50897759438E+02  0.50897759438E+02  0.00000000000E+00 0. -1.
         23    2    1    2    0    0  0.55632880965E+02 -0.45190335904E+02  0.14969000643E+03  0.20782507508E+03  0.12508788872E+03 0.  0.
          5    1    3    3  502    0  0.69907880896E+02  0.20610945140E+02  0.54265198602E+02  0.90962118766E+02  0.41800000000E+01 0. -1.
         -5    1    3    3    0  502 -0.14274999931E+02 -0.65801281045E+02  0.95424807829E+02  0.11686295632E+03  0.41800000000E+01 0. -1.
        -11    1    1    2    0    0 -0.60775977643E+02 -0.31071067379E+01  0.10382650530E+03  0.12034665252E+03  0.00000000000E+00 0.  1.
         11    1    1    2    0    0  0.51430966777E+01  0.48297442642E+02  0.29890940465E+02  0.57031243464E+02  0.00000000000E+00 0. -1.
</event>
<event>
 6    1  0.4966153E-006  0.1199015E+03  0.7561462E-02  0.1243260E+00
          2   -1    0    0  501    0  0.00000000000E+00  0.00000000000E+00  0.17606484679E+02  0.17606484679E+02  0.00000000000E+00 0. -1.
         -2   -1    0    0    0  501 -0.00000000000E+00 -0.00000000000E+00 -0.98826587433E+03  0.98826587433E+03  0.00000000000E+00 0.  1.
          5    1    1    2  502    0  0.48881402610E+02 -0.83382749124E+00 -0.18234017269E+03  0.18882663416E+03  0.41800000000E+01 0. -1.
         -5    1    1    2    0  502 -0.85537176298E+02  0.62254841586E+01 -0.53346661414E+03  0.54033273636E+03  0.41800000000E+01 0.  1.
        -11    1    1    2    0    0  0.65873530315E+02 -0.24137509649E+02 -0.13794650240E+03  0.15476168419E+03  0.00000000000E+00 0. -1.
         11    1    1    2    0    0 -0.29217756627E+02  0.18745852982E+02 -0.11690610042E+03  0.12195130430E+03  0.00000000000E+00 0.  1.
</event>
<event>
 7    1  0.4966153E-006  0.1143490E+03  0.7561462E-02  0.1252722E+00
         -2   -1    0    0    0  501 -0.00000000000E+00  0.00000000000E+00  0.55931456718E+02  0.55931456718E+02  0.00000000000E+00 0.  1.
          2   -1    0    0  501    0  0.00000000000E+00 -0.00000000000E+00 -0.40957207209E+03  0.40957207209E+03  0.00000000000E+00 0. -1.
         23    2    1    2    0    0 -0.98655069904E+02 -0.85918142053E+01 -0.13381975080E+03  0.20824342773E+03  0.12510378652E+03 0.  0.
          5    1    3    3  502    0 -0.24665222397E+02 -0.16169210075E+01 -0.13139867960E+03  0.13376872965E+03  0.41800000000E+01 0. -1.
         -5    1    3    3    0  502 -0.73989847507E+02 -0.69748931978E+01 -0.24210711907E+01  0.74474698086E+02  0.41800000000E+01 0. -1.
        -11    1    1    2    0    0  0.40658359736E+02  0.45053914667E+02 -0.13656722916E+03  0.14944418866E+03  0.00000000000E+00 0.  1.
         11    1    1    2    0    0  0.57996710168E+02 -0.36462100461E+02 -0.83253635420E+02  0.10781591242E+03  0.00000000000E+00 0. -1.
</event>
<event>
 7    1  0.4966153E-006  0.6947806E+02  0.7561462E-02  0.1361877E+00
         -2   -1    0    0    0  501 -0.00000000000E+00  0.00000000000E+00  0.66259591494E+02  0.66259591494E+02  0.00000000000E+00 0. -1.
          2   -1    0    0  501    0  0.00000000000E+00 -0.00000000000E+00 -0.21074989444E+03  0.21074989444E+03  0.00000000000E+00 0.  1.
         23    2    1    2    0    0  0.38181811650E+02  0.25425743211E+02 -0.63393415496E+02  0.14754767670E+03  0.12508905873E+03 0.  0.
          5    1    3    3  502    0  0.38373080000E+02  0.25469641009E+02  0.29308828391E+02  0.54751033812E+02  0.41800000000E+01 0.  1.
         -5    1    3    3    0  502 -0.19126835032E+00 -0.43897798133E-01 -0.92702243886E+02  0.92796642893E+02  0.41800000000E+01 0.  1.
        -11    1    1    2    0    0 -0.27284918943E+02  0.24957501633E+02 -0.46638327087E+01  0.37270565129E+02  0.00000000000E+00 0.  1.
         11    1    1    2    0    0 -0.10896892706E+02 -0.50383244844E+02 -0.76433054742E+02  0.92191244101E+02  0.00000000000E+00 0. -1.
</event>
<event>
 7    1  0.4966153E-006  0.1918789E+03  0.7561462E-02  0.1156778E+00
          2   -1    0    0  501    0  0.00000000000E+00  0.00000000000E+00  0.55864484593E+03  0.55864484593E+03  0.00000000000E+00 0. -1.
         -2   -1    0    0    0  501 -0.00000000000E+00 -0.00000000000E+00 -0.75175545682E+02  0.75175545682E+02  0.00000000000E+00 0.  1.
         23    2    1    2    0    0  0.98415368830E+02 -0.14229566423E+03  0.25677163133E+03  0.33393423377E+03  0.12508701348E+03 0.  0.
          5    1    3    3  502    0  0.10950828986E+03 -0.12240952223E+03  0.14294534399E+03  0.21777741032E+03  0.41800000000E+01 0. -1.
         -5    1    3    3    0  502 -0.11092921032E+02 -0.19886142009E+02  0.11382628734E+03  0.11615682344E+03  0.41800000000E+01 0. -1.
        -11    1    1    2    0    0 -0.69402348459E+02  0.22362047951E+02  0.85406459146E+02  0.11229875522E+03  0.00000000000E+00 0. -1.
         11    1    1    2    0    0 -0.29013020371E+02  0.11993361628E+03  0.14129120976E+03  0.18758740262E+03  0.00000000000E+00 0.  1.
</event>
<event>
 6    1  0.4966153E-006  0.4347054E+02  0.7561462E-02  0.1484122E+00
         -2   -1    0    0    0  501 -0.00000000000E+00  0.00000000000E+00  0.27249054543E+02  0.27249054543E+02  0.00000000000E+00 0.  1.
          2   -1    0    0  501    0  0.00000000000E+00 -0.00000000000E+00 -0.48605211856E+03  0.48605211856E+03  0.00000000000E+00 0. -1.
          5    1    1    2  502    0  0.12013139918E+02  0.29696071661E+02 -0.38853264880E+03  0.38987339456E+03  0.41800000000E+01 0. -1.
         -5    1    1    2    0  502 -0.13129580679E+02 -0.29882557975E+02  0.14343700910E+02  0.35896619837E+02  0.41800000000E+01 0.  1.
        -11    1    1    2    0    0 -0.45453848828E+01 -0.94875667791E+01 -0.51737007929E+02  0.52795761540E+02  0.00000000000E+00 0. -1.
         11    1    1    2    0    0  0.56618256443E+01  0.96740530924E+01 -0.32877108195E+02  0.34735397164E+02  0.00000000000E+00 0.  1.
</event>
<event>
 7    1  0.4966153E-006  0.1359662E+03  0.7561462E-02  0.1218862E+00
         -1   -1    0    0    0  501 -0.00000000000E+00  0.00000000000E+00  0.23435958988E+03  0.23435958988E+03  0.00000000000E+00 0.  1.
          1   -1    0    0  501    0  0.00000000000E+00 -0.00000000000E+00 -0.80400831669E+02  0.80400831669E+02  0.00000000000E+00 0. -1.
         23    2    1    2    0    0 -0.80351561798E+02 -0.10669986921E+02  0.10570249013E+03  0.18273024216E+03  0.12508838026E+03 0.  0.
          5    1    3    3  502    0 -0.58860341028E+02 -0.66596245091E+02  0.64488167701E+02  0.10988992574E+03  0.41800000000E+01 0.  1.
         -5    1    3    3    0  502 -0.21491220771E+02  0.55926258169E+02  0.41214322429E+02  0.72840316421E+02  0.41800000000E+01 0.  1.
        -11    1    1    2    0    0  0.42499103979E+02  0.51796838138E+02  0.26375369153E+02  0.72005182995E+02  0.00000000000E+00 0. -1.
         11    1    1    2    0    0  0.37852457819E+02 -0.41126851217E+02  0.21880898930E+02  0.60024996393E+02  0.00000000000E+00 0.  1.
</event>
<event>
 7    1  0.4966153E-006  0.7350247E+02  0.7561462E-02  0.1348572E+00
          1   -1    0    0  501    0  0.00000000000E+00  0.00000000000E+00  0.14737208393E+03  0.14737208393E+03  0.00000000000E+00 0. -1.
         -1   -1    0    0    0  501 -0.00000000000E+00 -0.00000000000E+00 -0.92706528919E+02  0.92706528919E+02  0.00000000000E+00 0.  1.
         23    2    1    2    0    0  0.36900312435E+02 -0.21506780825E+01  0.39327609220E+01  0.13049977930E+03  0.12509383404E+03 0.  0.
          5    1    3    3  502    0 -0.30856015113E+02 -0.74640750176E+01 -0.38648280066E+02  0.50189321937E+02  0.41800000000E+01 0. -1.
         -5    1    3    3    0  502  0.67756327548E+02  0.53133969351E+01  0.42581040988E+02  0.80310457360E+02  0.41800000000E+01 0. -1.
        -11    1    1    2    0    0 -0.13317630177E+02 -0.13202028465E+02 -0.23573650562E+02  0.30122580068E+02  0.00000000000E+00 0.  1.
         11    1    1    2    0    0 -0.23582682258E+02  0.15352706548E+02  0.74306444654E+02  0.79456253486E+02  0.00000000000E+00 0. -1.
</event>
<event>
 7    1  0.4966153E-006  0.1135321E+03  0.7561462E-02  0.1254165E+00
         -2   -1    0    0    0  501 -0.00000000000E+00  0.00000000000E+00  0.23378443548E+02  0.23378443548E+02  0.00000000000E+00 0.  1.
          2   -1    0    0  501    0  0.00000000000E+00 -0.00000000000E+00 -0.64857651682E+03  0.64857651682E+03  0.00000000000E+00 0. -1.
         23    2    1    2    0    0 -0.17962214947E+02  0.53974178633E+02 -0.35036795446E+03  0.37635281188E+03  0.12509149602E+03 0.  0.
          5    1    3    3  502    0  0.34009409344E+02 -0.10443013424E+02 -0.21246572815E+03  0.21546427661E+03  0.41800000000E+01 0.  1.
         -5    1    3    3    0  502 -0.51971624291E+02  0.64417192057E+02 -0.13790222631E+03  0.16088853528E+03  0.41800000000E+01 0.  1.
        -11    1    1    2    0    0  0.49752932252E+02 -0.57896549658E+02 -0.18037566876E+03  0.19586410240E+03  0.00000000000E+00 0.  1.
         11    1    1    2    0    0 -0.31790717305E+02  0.39223710252E+01 -0.94454450048E+02  0.99738046076E+02  0.00000000000E+00 0. -1.
</event>
<event>
 7    1  0.4966153E-006  0.1499108E+03  0.7561462E-02  0.1200583E+00
         -2   -1    0    0    0  501 -0.00000000000E+00  0.00000000000E+00  0.22968310931E+03  0.22968310931E+03  0.00000000000E+00 0. -1.
          2   -1    0    0  501    0  0.00000000000E+00 -0.00000000000E+00 -0.12016173164E+03  0.12016173164E+03  0.00000000000E+00 0.  1.
         23    2    1    2    0    0 -0.10116243393E+03  0.34210882164E+02  0.12728954646E+03  0.20797791689E+03  0.12509181740E+03 0.  0.
          5    1    3    3  502    0 -0.11691445482E+03  0.59415985352E+02  0.11824137250E+03  0.17662883013E+03  0.41800000000E+01 0.  1.
         -5    1    3    3    0  502  0.15752020897E+02 -0.25205103188E+02  0.90481739658E+01  0.31349086768E+02  0.41800000000E+01 0.  1.
        -11    1    1    2    0    0  0.52595011012E+02 -0.63052184633E+02 -0.22637217511E+02  0.85171924875E+02  0.00000000000E+00 0.  1.
         11    1    1    2    0    0  0.48567422914E+02  0.28841302469E+02  0.48690487228E+01  0.56694999181E+02  0.00000000000E+00 0. -1.
</event>
<event>
 6    1  0.4966153E-006  0.1599255E+03  0.7561462E-02  0.1188781E+00
         -1   -1    0    0    0  501 -0.00000000000E+00  0.00000000000E+00  0.11478105845E+04  0.11478105845E+04  0.00000000000E+00 0.  1.
          1   -1    0    0  501    0  0.00000000000E+00 -0.00000000000E+00 -0.16260137179E+03  0.16260137179E+03  0.00000000000E+00 0. -1.
          5    1    1    2  502    0 -0.18384679912E+02 -0.17813155942E+02  0.61780518882E+02  0.67004551288E+02  0.41800000000E+01 0. -1.
         -5    1    1    2    0  502  0.64238657106E+02  0.13867790244E+03  0.10395030402E+04  0.10506865416E+04  0.41800000000E+01 0.  1.
        -11    1    1    2    0    0 -0.39829668839E+02 -0.29763633607E+02 -0.65790648704E+01  0.50155363620E+02  0.00000000000E+00 0.  1.
         11    1    1    2    0    0 -0.60243083546E+01 -0.91101112887E+02 -0.10949528150E+03  0.14256549980E+03  0.00000000000E+00 0. -1.
</event>
<event>
 7    1  0.4966153E-006  0.1192815E+03  0.7561462E-02  0.1244287E+00
         -2   -1    0    0    0  501 -0.00000000000E+00  0.00000000000E+00  0.21609365270E+02  0.21609365270E+02  0.00000000000E+00 0.  1.
          2   -1    0    0  501    0  0.00000000000E+00 -0.00000000000E+00 -0.73437604625E+03  0.73437604625E+03  0.00000000000E+00 0. -1.
         23    2    1    2    0    0 -0.29955645431E+02 -0.50483148557E+02 -0.31635140143E+03  0.34521213300E+03  0.12508924255E+03 0.  0.
          5    1    3    3  502    0  0.98527723433E+01  0.35990373006E+02 -0.51453907860E+02  0.63697418363E+02  0.41800000000E+01 0.  1.
         -5    1    3    3    0  502 -0.39808417774E+02 -0.86473521563E+02 -0.26489749357E+03  0.28151471464E+03  0.41800000000E+01 0.  1.
        -11    1    1    2    0    0 -0.23332738835E+02  0.46820951784E+02 -0.15751894582E+03  0.16597842185E+03  0.00000000000E+00 0.  1.
         11    1    1    2    0    0  0.53288384266E+02  0.36621967732E+01 -0.23889633372E+03  0.24479485666E+03  0.00000000000E+00 0. -1.
</event>
<event>
 7    1  0.4966153E-006  0.1192943E+03  0.7561462E-02  0.1244266E+00
          1   -1    0    0  501    0  0.00000000000E+00  0.00000000000E+00  0.41409600419E+03  0.41409600419E+03  0.00000000000E+00 0. -1.
         -1   -1    0    0    0  501 -0.00000000000E+00 -0.00000000000E+00 -0.10651233889E+03  0.10651233889E+03  0.00000000000E+00 0.  1.
         23    2    1    2    0    0  0.39734753654E+02 -0.58478026162E+02 -0.52037761327E+02  0.14271081030E+03  0.11251629474E+03 0.  0.
          5    1    3    3  502    0  0.61908790162E+01  0.28348027105E+02  0.97691713890E+01  0.30900594386E+02  0.41800000000E+01 0. -1.
         -5    1    3    3    0  502  0.33543874638E+02 -0.86826053267E+02 -0.61806932716E+02  0.11181021592E+03  0.41800000000E+01 0.  1.
        -11    1    1    2    0    0 -0.93125183829E+01  0.78906384020E+02  0.24569699894E+03  0.25822462261E+03  0.00000000000E+00 0. -1.
         11    1    1    2    0    0 -0.30422235271E+02 -0.20428357858E+02  0.11392442769E+03  0.11967291017E+03  0.00000000000E+00 0.  1.
</event>
<event>
 7    1  0.4966153E-006  0.1475684E+03  0.7561462E-02  0.1203493E+00
          1   -1    0    0  501    0  0.00000000000E+00  0.00000000000E+00  0.72716328354E+03  0.72716328354E+03  0.00000000000E+00 0. -1.
         -1   -1    0    0    0  501 -0.00000000000E+00 -0.00000000000E+00 -0.41160657816E+02  0.41160657816E+02  0.00000000000E+00 0.  1.
         23    2    1    2    0    0 -0.80057375700E+02 -0.10644818183E+03  0.32687823509E+03  0.37448233920E+03  0.12508894027E+03 0.  0.
          5    1    3    3  502    0 -0.42501807989E+02 -0.56453332508E+02  0.29651107083E+03  0.30484368118E+03  0.41800000000E+01 0.  1.
         -5    1    3    3    0  502 -0.37555567711E+02 -0.49994849323E+02  0.30367164263E+02  0.69638658016E+02  0.41800000000E+01 0.  1.
        -11    1    1    2    0    0  0.91857883743E+02  0.11494448968E+03  0.32715920399E+03  0.35872447821E+03  0.00000000000E+00 0. -1.
         11    1    1    2    0    0 -0.11800508043E+02 -0.84963078458E+01  0.31965186643E+02  0.35117123945E+02  0.00000000000E+00 0.  1.
</event>
<event>
 7    1  0.4966153E-006  0.1028244E+03  0.7561462E-02  0.1274466E+00
         -1   -1    0    0    0  501 -0.00000000000E+00  0.00000000000E+00  0.38164221838E+02  0.38164221838E+02  0.00000000000E+00 0.  1.
          1   -1    0    0  501    0  0.00000000000E+00 -0.00000000000E+00 -0.42374546718E+03  0.42374546718E+03  0.00000000000E+00 0. -1.
         23    2    1    2    0    0 -0.81908827419E+01  0.30723176716E+01 -0.10007200430E+03  0.16040738967E+03  0.12505836606E+03 0.  0.
          5    1    3    3  502    0  0.22513734839E+02 -0.54980439414E+02 -0.47665329477E+02  0.76283504171E+02  0.41800000000E+01 0.  1.
         -5    1    3    3    0  502 -0.30704617581E+02  0.58052757085E+02 -0.52406674823E+02  0.84123885502E+02  0.41800000000E+01 0.  1.
        -11    1    1    2    0    0 -0.10716354283E+02 -0.38588891503E+02 -0.58130530837E+02  0.70591085924E+02  0.00000000000E+00 0.  1.
         11    1    1    2    0    0  0.18907237025E+02  0.35516573831E+02 -0.22737871020E+03  0.23091121342E+03  0.00000000000E+00 0. -1.
</event>
<event>
 7    1  0.4966153E-006  0.1374349E+03  0.7561462E-02  0.1216823E+00
         -2   -1    0    0    0  501 -0.00000000000E+00  0.00000000000E+00  0.15321121898E+02  0.15321121898E+02  0.00000000000E+00 0.  1.
          2   -1    0    0  501    0  0.00000000000E+00 -0.00000000000E+00 -0.15240683586E+04  0.15240683586E+04  0.00000000000E+00 0. -1.
         23    2    1    2    0    0 -0.87710357055E+02  0.59254939417E+02 -0.89207099590E+03  0.90699688663E+03  0.12509370905E+03 0.  0.
          5    1    3    3  502    0  0.87196512171E+01  0.43079384282E+02 -0.53307090641E+03  0.53489618556E+03  0.41800000000E+01 0. -1.
         -5    1    3    3    0  502 -0.96430008272E+02  0.16175555135E+02 -0.35900008949E+03  0.37210070107E+03  0.41800000000E+01 0. -1.
        -11    1    1    2    0    0 -0.15596046694E+02 -0.74550207092E+01 -0.31667078865E+02  0.36077941877E+02  0.00000000000E+00 0.  1.
         11    1    1    2    0    0  0.10330640375E+03 -0.51799918708E+02 -0.58500916193E+03  0.59631465199E+03  0.00000000000E+00 0. -1.
</event>
<event>
 7    1  0.4966153E-006  0.9942382E+02  0.7561462E-02  0.1281512E+00
          3   -1    0    0  501    0  0.00000000000E+00  0.00000000000E+00  0.24300083145E+03  0.24300083145E+03  0.00000000000E+00 0. -1.
         -3   -1    0    0    0  501 -0.00000000000E+00 -0.00000000000E+00 -0.62989197683E+02  0.62989197683E+02  0.00000000000E+00 0.  1.
         23    2    1    2    0    0 -0.37141444963E+02  0.46163914670E+02  0.10345673267E+03  0.17280424223E+03  0.12508963445E+03 0.  0.
          5    1    3    3  502    0  0.30054654281E+00  0.51660578038E+02 -0.10301177988E+02  0.52844037690E+02  0.41800000000E+01 0.  1.
         -5    1    3    3    0  502 -0.37441991506E+02 -0.54966633682E+01  0.11375791066E+03  0.11996020454E+03  0.41800000000E+01 0.  1.
        -11    1    1    2    0    0  0.27705332971E+02  0.24903489198E+02  0.27928744039E+02  0.46559467274E+02  0.00000000000E+00 0.  1.
         11    1    1    2    0    0  0.94361119921E+01 -0.71067403868E+02  0.48626157054E+02  0.86626319626E+02  0.00000000000E+00 0. -1.
</event>
<event>
 7    1  0.4966153E-006  0.1014917E+03  0.7561462E-02  0.1277190E+00
          2   -1    0    0  501    0  0.00000000000E+00  0.00000000000E+00  0.24358176014E+02  0.24358176014E+02  0.00000000000E+00 0. -1.
         -2   -1    0    0    0  501 -0.00000000000E+00 -0.00000000000E+00 -0.56989657076E+03  0.56989657076E+03  0.00000000000E+00 0.  1.
         23    2    1    2    0    0  0.17737072003E+00  0.22377758947E+02 -0.41342347836E+03  0.43251225895E+03  0.12508831333E+03 0.  0.
          5    1    3    3  502    0 -0.52649399475E+02  0.20492252771E+02 -0.32097779921E+03  0.32593881584E+03  0.41800000000E+01 0. -1.
         -5    1    3    3    0  502  0.52826770195E+02  0.18855061755E+01 -0.92445679153E+02  0.10657344311E+03  0.41800000000E+01 0. -1.
        -11    1    1    2    0    0 -0.53531022754E+01 -0.57528466607E+02 -0.81491091391E+02  0.99894835453E+02  0.00000000000E+00 0.  1.
         11    1    1    2    0    0  0.51757315554E+01  0.35150707660E+02 -0.50623824990E+02  0.61847652362E+02  0.00000000000E+00 0. -1.
</event>
<event>
 7    1  0.4966153E-006  0.1453745E+03  0.7561462E-02  0.1206275E+00
         -2   -1    0    0    0  501 -0.00000000000E+00  0.00000000000E+00  0.80012933599E+02  0.80012933599E+02  0.00000000000E+00 0.  1.
          2   -1    0    0  501    0  0.00000000000E+00 -0.00000000000E+00 -0.36788469710E+03  0.36788469710E+03  0.00000000000E+00 0. -1.
         23    2    1    2    0    0 -0.10462686205E+03 -0.87526744498E+01 -0.45272406517E+02  0.16946952188E+03  0.12508772314E+03 0.  0.
          5    1    3    3  502    0 -0.13028097559E+02 -0.54092092564E+02 -0.36777672739E+02  0.66826307814E+02  0.41800000000E+01 0.  1.
         -5    1    3    3    0  502 -0.91598764492E+02  0.45339418114E+02 -0.84947337782E+01  0.10264321406E+03  0.41800000000E+01 0.  1.
        -11    1    1    2    0    0 -0.42645184308E+01  0.22505398116E+02 -0.20722186340E+02  0.30888316052E+02  0.00000000000E+00 0.  1.
         11    1    1    2    0    0  0.10889138048E+03 -0.13752723666E+02 -0.22187717064E+03  0.24753979277E+03  0.00000000000E+00 0. -1.
</event>
<event>
 7    1  0.4966153E-006  0.1130726E+03  0.7561462E-02  0.1254983E+00
         -1   -1    0    0    0  501 -0.00000000000E+00  0.00000000000E+00  0.84606833837E+02  0.84606833837E+02  0.00000000000E+00 0.  1.
          1   -1    0    0  501    0  0.00000000000E+00 -0.00000000000E+00 -0.27735033047E+03  0.27735033047E+03  0.00000000000E+00 0. -1.
         23    2    1    2    0    0 -0.44314728030E+02 -0.30817394959E+02  0.66442210441E+01  0.13639924826E+03  0.12508837796E+03 0.  0.
          5    1    3    3  502    0  0.21554101625E+02  0.28445672436E+02 -0.23243934337E+02  0.42795893035E+02  0.41800000000E+01 0.  1.
         -5    1    3    3    0  502 -0.65868829655E+02 -0.59263067395E+02  0.29888155381E+02  0.93603355224E+02  0.41800000000E+01 0.  1.
        -11    1    1    2    0    0  0.34209970837E+02 -0.26521256110E+02 -0.55843548764E+02  0.70655509827E+02  0.00000000000E+00 0.  1.
         11    1    1    2    0    0  0.10104757193E+02  0.57338651069E+02 -0.14354416892E+03  0.15490240622E+03  0.00000000000E+00 0. -1.
</event>
<event>
 7    1  0.4966153E-006  0.1181773E+03  0.7561462E-02  0.1246135E+00
         -2   -1    0    0    0  501 -0.00000000000E+00  0.00000000000E+00  0.41648789911E+02  0.41648789911E+02  0.00000000000E+00 0.  1.
          2   -1    0    0  501    0  0.00000000000E+00 -0.00000000000E+00 -0.37288951101E+03  0.37288951101E+03  0.00000000000E+00 0. -1.
         23    2    1    2    0    0  0.50518614331E+01  0.59802412619E+02 -0.15164226527E+03  0.20553098197E+03  0.12508300473E+03 0.  0.
          5    1    3    3  502    0  0.51001707069E+02  0.65766543676E+02 -0.59765236744E+02  0.10254642029E+03  0.41800000000E+01 0. -1.
         -5    1    3    3    0  502 -0.45949845636E+02 -0.59641310563E+01 -0.91877028525E+02  0.10298456168E+03  0.41800000000E+01 0. -1.
        -11    1    1    2    0    0  0.20341785081E+02  0.16431486222E+02 -0.36629318901E+02  0.45005432594E+02  0.00000000000E+00 0.  1.
         11    1    1    2    0    0 -0.25393646515E+02 -0.76233898841E+02 -0.14296913693E+03  0.16400188636E+03  0.00000000000E+00 0. -1.
</event>
<event>
 7    1  0.4966153E-006  0.9894156E+02  0.7561462E-02  0.1282538E+00
         -1   -1    0    0    0  501 -0.00000000000E+00  0.00000000000E+00  0.88726217375E+03  0.88726217375E+03  0.00000000000E+00 0.  1.
          1   -1    0    0  501    0  0.00000000000E+00 -0.00000000000E+00 -0.13977711372E+02  0.13977711372E+02  0.00000000000E+00 0. -1.
         23    2    1    2    0    0  0.51714327625E+01 -0.21588818458E+02  0.55139866794E+03  0.56585176996E+03  0.12511959783E+03 0.  0.
          5    1    3    3  502    0  0.54700046622E+02  0.44707813117E+01  0.13657700256E+03  0.14725091855E+03  0.41800000000E+01 0.  1.
         -5    1    3    3    0  502 -0.49528613859E+02 -0.26059599770E+02  0.41482166539E+03  0.41860085141E+03  0.41800000000E+01 0.  1.
        -11    1    1    2    0    0  0.27966712606E+02  0.40002724863E+02  0.11301254168E+03  0.12310235411E+03  0.00000000000E+00 0. -1.
         11    1    1    2    0    0 -0.33138145369E+02 -0.18413906405E+02  0.20887325275E+03  0.21228576105E+03  0.00000000000E+00 0.  1.
</event>
<event>
 7    1  0.4966153E-006  0.8921914E+02  0.7561462E-02  0.1304754E+00
          1   -1    0    0  501    0  0.00000000000E+00  0.00000000000E+00  0.51244564427E+02  0.51244564427E+02  0.00000000000E+00 0. -1.
         -1   -1    0    0    0  501 -0.00000000000E+00 -0.00000000000E+00 -0.28729953496E+03  0.28729953496E+03  0.00000000000E+00 0.  1.
         23    2    1    2    0    0  0.23213606308E+02 -0.46895311253E+02 -0.15026969361E+03  0.20240117638E+03  0.12508882302E+03 0.  0.
          5    1    3    3  502    0  0.45999206904E+02 -0.11026695842E+02 -0.15242195616E+03  0.15964786306E+03  0.41800000000E+01 0. -1.
         -5    1    3    3    0  502 -0.22785600596E+02 -0.35868615411E+02  0.21522625523E+01  0.42753313323E+02  0.41800000000E+01 0. -1.
        -11    1    1    2    0    0 -0.51083426256E+01 -0.19124542272E+02 -0.59679483003E+02  0.62876736342E+02  0.00000000000E+00 0.  1.
         11    1    1    2    0    0 -0.18105263682E+02  0.66019853525E+02 -0.26105793915E+02  0.73266186665E+02  0.00000000000E+00 0. -1.
</event>
<event>
 7    1  0.4966153E-006  0.7920804E+02  0.7561462E-02  0.1331314E+00
         -2   -1    0    0    0  501 -0.00000000000E+00  0.00000000000E+00  0.16674450890E+03  0.16674450890E+03  0.00000000000E+00 0.  1.
          2   -1    0    0  501    0  0.00000000000E+00 -0.00000000000E+00 -0.10765154399E+03  0.10765154399E+03  0.00000000000E+00 0. -1.
         23    2    1    2    0    0  0.34549572955E+02  0.26052086931E+02  0.10116211754E+03  0.16659375350E+03  0.12508924996E+03 0.  0.
          5    1    3    3  502    0 -0.25995864162E+02  0.11539813418E+02 -0.16689837559E+02  0.33241169128E+02  0.41800000000E+01 0.  1.
         -5    1    3    3    0  502  0.60545437117E+02  0.14512273513E+02  0.11785195510E+03  0.13335258438E+03  0.41800000000E+01 0.  1.
        -11    1    1    2    0    0 -0.29768268758E+02  0.96144172051E+01 -0.59948671585E+02  0.67619746138E+02  0.00000000000E+00 0. -1.
         11    1    1    2    0    0 -0.47813041974E+01 -0.35666504136E+02  0.17879518956E+02  0.40182553244E+02  0.00000000000E+00 0.  1.
</event>
<event>
 7    1  0.4966153E-006  0.1065342E+03  0.7561462E-02  0.1267126E+00
         -1   -1    0    0    0  501 -0.00000000000E+00  0.00000000000E+00  0.16355678393E+02  0.16355678393E+02  0.00000000000E+00 0.  1.
          1   -1    0    0  501    0  0.00000000000E+00 -0.00000000000E+00 -0.79547397812E+03  0.79547397812E+03  0.00000000000E+00 0. -1.
         23    2    1    2    0    0  0.26664402274E+02  0.99635775271E+01 -0.36961197469E+03  0.39124219591E+03  0.12508869175E+03 0.  0.
          5    1    3    3  502    0 -0.40060889073E+02  0.27303532532E+02 -0.81100838232E+02  0.94578941018E+02  0.41800000000E+01 0.  1.
         -5    1    3    3    0  502  0.66725291347E+02 -0.17339955005E+02 -0.28851113646E+03  0.29666325490E+03  0.41800000000E+01 0.  1.
        -11    1    1    2    0    0 -0.55056589906E+02  0.15505370757E+02 -0.26759871847E+03  0.27364341531E+03  0.00000000000E+00 0.  1.
         11    1    1    2    0    0  0.28392187632E+02 -0.25468948284E+02 -0.14190760657E+03  0.14694404529E+03  0.00000000000E+00 0. -1.
</event>
<event>
 7    1  0.4966153E-006  0.9492791E+02  0.7561462E-02  0.1291339E+00
          1   -1    0    0  501    0  0.00000000000E+00  0.00000000000E+00  0.32735918701E+03  0.32735918701E+03  0.00000000000E+00 0. -1.
         -1   -1    0    0    0  501 -0.00000000000E+00 -0.00000000000E+00 -0.49217516975E+02  0.49217516975E+02  0.00000000000E+00 0.  1.
         23    2    1    2    0    0 -0.96663461665E+01  0.25637389788E+02  0.64755514589E+02  0.14349774251E+03  0.12509041303E+03 0.  0.
          5    1    3    3  502    0 -0.62317495257E+02  0.78304880857E+01  0.71668690931E+01  0.63353162284E+02  0.41800000000E+01 0.  1.
         -5    1    3    3    0  502  0.52651149091E+02  0.17806901702E+02  0.57588645496E+02  0.80144580221E+02  0.41800000000E+01 0.  1.
        -11    1    1    2    0    0 -0.25723787221E+02 -0.24859296227E+02  0.31143141654E+02  0.47429875711E+02  0.00000000000E+00 0.  1.
         11    1    1    2    0    0  0.35390133387E+02 -0.77809356051E+00  0.18224301379E+03  0.18564908577E+03  0.00000000000E+00 0. -1.
</event>
<event>
 7    1  0.4966153E-006  0.8260362E+02  0.7561462E-02  0.1321821E+00
         -1   -1    0    0    0  501 -0.00000000000E+00  0.00000000000E+00  0.72695907601E+02  0.72695907601E+02  0.00000000000E+00 0.  1.
          1   -1    0    0  501    0  0.00000000000E+00 -0.00000000000E+00 -0.19417168005E+03  0.19417168005E+03  0.00000000000E+00 0. -1.
         23    2    1    2    0    0  0.36863463848E+02 -0.30110875799E+02 -0.57116979485E+02  0.14551890832E+03  0.12509126078E+03 0.  0.
          5    1    3    3  502    0 -0.20278014248E+02 -0.31965608460E+02 -0.76129187073E+02  0.85124165255E+02  0.41800000000E+01 0. -1.
         -5    1    3    3    0  502  0.57141478097E+02  0.18547326609E+01  0.19012207588E+02  0.60394743063E+02  0.41800000000E+01 0. -1.
        -11    1    1    2    0    0  0.12943925371E+02  0.39213479265E+01  0.17435592110E+02  0.22066310199E+02  0.00000000000E+00 0.  1.
         11    1    1    2    0    0 -0.49807389219E+02  0.26189527872E+02 -0.81794385078E+02  0.99282369136E+02  0.00000000000E+00 0. -1.
</event>
<event>
 7    1  0.4966153E-006  0.1081459E+03  0.7561462E-02  0.1264042E+00
         -2   -1    0    0    0  501 -0.00000000000E+00  0.00000000000E+00  0.88607430388E+02  0.88607430388E+02  0.00000000000E+00 0. -1.
          2   -1    0    0  501    0  0.00000000000E+00 -0.00000000000E+00 -0.21508001305E+03  0.21508001305E+03  0.00000000000E+00 0.  1.
         23    2    1    2    0    0 -0.70805552298E+02 -0.34814479909E+02 -0.36463006413E+02  0.15232479225E+03  0.12509123571E+03 0.  0.
          5    1    3    3  502    0  0.21050403507E+02 -0.30309053406E+02 -0.46732797215E+02  0.59692419466E+02  0.41800000000E+01 0. -1.
         -5    1    3    3    0  502 -0.91855955805E+02 -0.45054265026E+01  0.10269790802E+02  0.92632372786E+02  0.41800000000E+01 0. -1.
        -11    1    1    2    0    0  0.49284526183E+02  0.41634438715E+02 -0.10572508256E+03  0.12385549681E+03  0.00000000000E+00 0.  1.
         11    1    1    2    0    0  0.21521026115E+02 -0.68199588064E+01  0.15715506311E+02  0.27507154374E+02  0.00000000000E+00 0. -1.
</event>
<event>
 7    1  0.4966153E-006  0.1868924E+03  0.7561462E-02  0.1161294E+00
         -2   -1    0    0    0  501 -0.00000000000E+00  0.00000000000E+00  0.64672835462E+02  0.64672835462E+02  0.00000000000E+00 0. -1.
          2   -1    0    0  501    0  0.00000000000E+00 -0.00000000000E+00 -0.84822832117E+03  0.84822832117E+03  0.00000000000E+00 0.  1.
         23    2    1    2    0    0  0.84514623127E+02  0.14074768732E+03 -0.16103665324E+03  0.26178767132E+03  0.12508936069E+03 0.  0.
          5    1    3    3  502    0  0.11614804535E+03  0.92954785945E+02 -0.11994346575E+03  0.19114096381E+03  0.41800000000E+01 0. -1.
         -5    1    3    3    0  502 -0.31633422223E+02  0.47792901377E+02 -0.41093187489E+02  0.70646707507E+02  0.41800000000E+01 0. -1.
        -11    1    1    2    0    0 -0.32890234478E+02 -0.86820689852E+02 -0.18198734986E+03  0.20430123646E+03  0.00000000000E+00 0. -1.
         11    1    1    2    0    0 -0.51624388650E+02 -0.53926997471E+02 -0.44053148260E+03  0.44681224885E+03  0.00000000000E+00 0.  1.
</event>
<event>
 7    1  0.4966153E-006  0.1183020E+03  0.7561462E-02  0.1245925E+00
         -2   -1    0    0    0  501 -0.00000000000E+00  0.00000000000E+00  0.18516166666E+02  0.18516166666E+02  0.00000000000E+00 0.  1.
          2   -1    0    0  501    0  0.00000000000E+00 -0.00000000000E+00 -0.86619380921E+03  0.86619380921E+03  0.00000000000E+00 0. -1.
         23    2    1    2    0    0 -0.16315263033E+01 -0.65282881844E+02 -0.46232261190E+03  0.48337786535E+03  0.12508975454E+03 0.  0.
          5    1    3    3  502    0  0.39151754155E+02  0.12872725249E+02 -0.70774650094E+02  0.82006648540E+02  0.41800000000E+01 0.  1.
         -5    1    3    3    0  502 -0.40783280459E+02 -0.78155607093E+02 -0.39154796181E+03  0.40137121681E+03  0.41800000000E+01 0.  1.
        -11    1    1    2    0    0  0.38186639003E+02  0.80711053517E+01 -0.87065485896E+02  0.95413630967E+02  0.00000000000E+00 0.  1.
         11    1    1    2    0    0 -0.36555112699E+02  0.57211776492E+02 -0.29828954474E+03  0.30591847956E+03  0.00000000000E+00 0. -1.
</event>
<event>
 7    1  0.4966153E-006  0.1226758E+03  0.7561462E-02  0.1238747E+00
          1   -1    0    0  501    0  0.00000000000E+00  0.00000000000E+00  0.61788288688E+02  0.61788288688E+02  0.00000000000E+00 0. -1.
         -1   -1    0    0    0  501 -0.00000000000E+00 -0.00000000000E+00 -0.23034765647E+04  0.23034765647E+04  0.00000000000E+00 0.  1.
         23    2    1    2    0    0  0.67001012192E+02 -0.15382964877E+02 -0.22473203255E+04  0.22518487170E+04  0.12509287606E+03 0.  0.
          5    1    3    3  502    0  0.21948796980E+02  0.54402798396E+02 -0.10469088597E+04  0.10485595105E+04  0.41800000000E+01 0. -1.
         -5    1    3    3    0  502  0.45052215212E+02 -0.69785763273E+02 -0.12004114658E+04  0.12032892065E+04  0.41800000000E+01 0. -1.
        -11    1    1    2    0    0 -0.91232015011E+01  0.39594167833E+02  0.25061153893E+02  0.47738793098E+02  0.00000000000E+00 0.  1.
         11    1    1    2    0    0 -0.57877810691E+02 -0.24211202957E+02 -0.19429104365E+02  0.65677343242E+02  0.00000000000E+00 0. -1.
</event>
<event>
 7    1  0.4966153E-006  0.1351189E+03  0.7561462E-02  0.1220052E+00
         -1   -1    0    0    0  501 -0.00000000000E+00  0.00000000000E+00  0.31067494561E+03  0.31067494561E+03  0.00000000000E+00 0.  1.
          1   -1    0    0  501    0  0.00000000000E+00 -0.00000000000E+00 -0.69269339081E+02  0.69269339081E+02  0.00000000000E+00 0. -1.
         23    2    1    2    0    0 -0.32029564119E+02  0.77497560052E+02  0.19670553092E+03  0.24778773661E+03  0.12519557392E+03 0.  0.
          5    1    3    3  502    0  0.24873596898E+02  0.88969446474E+02  0.11932114174E+03  0.15096113902E+03  0.41800000000E+01 0.  1.
         -5    1    3    3    0  502 -0.56903161016E+02 -0.11471886422E+02  0.77384389180E+02  0.96826597588E+02  0.41800000000E+01 0.  1.
        -11    1    1    2    0    0  0.44948367996E+02 -0.42085469769E+01  0.34968646921E+02  0.57104062208E+02  0.00000000000E+00 0.  1.
         11    1    1    2    0    0 -0.12918803878E+02 -0.73289013075E+02  0.97314286858E+01  0.75052485871E+02  0.00000000000E+00 0. -1.
</event>
<event>
 7    1  0.4966153E-006  0.8627719E+02  0.7561462E-02  0.1312126E+00
         -1   -1    0    0    0  501 -0.00000000000E+00  0.00000000000E+00  0.40453098201E+03  0.40453098201E+03  0.00000000000E+00 0.  1.
          1   -1    0    0  501    0  0.00000000000E+00 -0.00000000000E+00 -0.39323897861E+02  0.39323897861E+02  0.00000000000E+00 0. -1.
         23    2    1    2    0    0 -0.19401642959E+02  0.33458394076E+02  0.29391012281E+03  0.32175546845E+03  0.12509010075E+03 0.  0.
          5    1    3    3  502    0  0.38037794971E+02  0.24891754153E+02  0.23324289963E+03  0.23766824756E+03  0.41800000000E+01 0. -1.
         -5    1    3    3    0  502 -0.57439437929E+02  0.85666399221E+01  0.60667223185E+02  0.84087220897E+02  0.41800000000E+01 0. -1.
        -11    1    1    2    0    0  0.11944169186E+02 -0.49536287178E+02  0.85401971895E+02  0.99448497869E+02  0.00000000000E+00 0.  1.
         11    1    1    2    0    0  0.74574737721E+01  0.16077893102E+02 -0.14105010557E+02  0.22650913546E+02  0.00000000000E+00 0. -1.
</event>
<event>
 7    1  0.4966153E-006  0.9436315E+02  0.7561462E-02  0.1292617E+00
          2   -1    0    0  501    0  0.00000000000E+00  0.00000000000E+00  0.14309603009E+03  0.14309603009E+03  0.00000000000E+00 0. -1.
         -2   -1    0    0    0  501 -0.00000000000E+00 -0.00000000000E+00 -0.11485564449E+03  0.11485564449E+03  0.00000000000E+00 0.  1.
         23    2    1    2    0    0 -0.20682110659E+02  0.64156475547E+02  0.11793465137E+02  0.14258468656E+03  0.12508998348E+03 0.  0.
          5    1    3    3  502    0 -0.16845718145E+02 -0.71484508146E+01 -0.46604967149E+02  0.50243148109E+02  0.41800000000E+01 0.  1.
         -5    1    3    3    0  502 -0.38363925139E+01  0.71304926361E+02  0.58398432286E+02  0.92341538456E+02  0.41800000000E+01 0.  1.
        -11    1    1    2    0    0 -0.14349349022E+02  0.92607819228E+01  0.28407207878E+02  0.33145668776E+02  0.00000000000E+00 0. -1.
         11    1    1    2    0    0  0.35031459681E+02 -0.73417257469E+02 -0.11960287413E+02  0.82221319235E+02  0.00000000000E+00 0.  1.
</event>
<event>
 7    1  0.4966153E-006  0.1288713E+03  0.7561462E-02  0.1229140E+00
         -4   -1    0    0    0  501 -0.00000000000E+00  0.00000000000E+00  0.33479981552E+03  0.33479981552E+03  0.00000000000E+00 0.  1.
          4   -1    0    0  501    0  0.00000000000E+00 -0.00000000000E+00 -0.87463276397E+02  0.87463276397E+02  0.00000000000E+00 0. -1.
         23    2    1    2    0    0 -0.25145796053E+02 -0.90647072237E+02  0.24563690363E+03  0.29126320171E+03  0.12509021337E+03 0.  0.
          5    1    3    3  502    0 -0.64778356125E+01  0.24372574411E+02  0.10748588103E+03  0.11048380768E+03  0.41800000000E+01 0. -1.
         -5    1    3    3    0  502 -0.18667960441E+02 -0.11501964665E+03  0.13815102260E+03  0.18077939403E+03  0.41800000000E+01 0. -1.
        -11    1    1    2    0    0  0.48100470516E+02  0.53793724673E+02 -0.29056318115E+02  0.77792606978E+02  0.00000000000E+00 0. -1.
         11    1    1    2    0    0 -0.22954674463E+02  0.36853347565E+02  0.30755953610E+02  0.53207283231E+02  0.00000000000E+00 0.  1.
</event>
<event>
 7    1  0.4966153E-006  0.1049049E+03  0.7561462E-02  0.1270307E+00
          1   -1    0    0  501    0  0.00000000000E+00  0.00000000000E+00  0.50178928134E+03  0.50178928134E+03  0.00000000000E+00 0. -1.
         -1   -1    0    0    0  501 -0.00000000000E+00 -0.00000000000E+00 -0.23002882435E+02  0.23002882435E+02  0.00000000000E+00 0.  1.
         23    2    1    2    0    0  0.34434109319E+01  0.25904940447E+02  0.27578963316E+03  0.30395503872E+03  0.12508325543E+03 0.  0.
          5    1    3    3  502    0  0.10768315692E+02 -0.50039741053E+02  0.11327492335E+03  0.12437287875E+03  0.41800000000E+01 0. -1.
         -5    1    3    3    0  502 -0.73249047597E+01  0.75944681499E+02  0.16251470981E+03  0.17958215997E+03  0.41800000000E+01 0. -1.
        -11    1    1    2    0    0 -0.60072189788E+01  0.27716417521E+02  0.10861630269E+03  0.11225768433E+03  0.00000000000E+00 0. -1.
         11    1    1    2    0    0  0.25638080469E+01 -0.53621357967E+02  0.94380463054E+02  0.10857944073E+03  0.00000000000E+00 0.  1.
</event>
<event>
 7    1  0.4966153E-006  0.2147571E+03  0.7561462E-02  0.1137853E+00
         -1   -1    0    0    0  501 -0.00000000000E+00  0.00000000000E+00  0.33492051572E+02  0.33492051572E+02  0.00000000000E+00 0.  1.
          1   -1    0    0  501    0  0.00000000000E+00 -0.00000000000E+00 -0.17399486066E+04  0.17399486066E+04  0.00000000000E+00 0. -1.
         23    2    1    2    0    0  0.59677691877E+02  0.20453205489E+03 -0.99538243269E+03  0.10255866250E+04  0.12508776819E+03 0.  0.
          5    1    3    3  502    0  0.11867841940E+02  0.10073828386E+02 -0.78154425961E+01  0.17913158114E+02  0.41800000000E+01 0. -1.
         -5    1    3    3    0  502  0.47809849937E+02  0.19445822651E+03 -0.98756699010E+03  0.10076734669E+04  0.41800000000E+01 0. -1.
        -11    1    1    2    0    0 -0.40303498879E+02 -0.13084912631E+03 -0.29982415714E+03  0.32960641845E+03  0.00000000000E+00 0.  1.
         11    1    1    2    0    0 -0.19374192999E+02 -0.73682928586E+02 -0.41124996517E+03  0.41824761466E+03  0.00000000000E+00 0. -1.
</event>
<event>
 7    1  0.4966153E-006  0.8864772E+02  0.7561462E-02  0.1306160E+00
         -2   -1    0    0    0  501 -0.00000000000E+00  0.00000000000E+00  0.38114200202E+03  0.38114200202E+03  0.00000000000E+00 0. -1.
          2   -1    0    0  501    0  0.00000000000E+00 -0.00000000000E+00 -0.45269287070E+02  0.45269287070E+02  0.00000000000E+00 0.  1.
         23    2    1    2    0    0 -0.13535710132E+01  0.44017289361E+02  0.28347950259E+03  0.31296864784E+03  0.12509753086E+03 0.  0.
          5    1    3    3  502    0 -0.92349181751E-01  0.86734806792E+02  0.15721367115E+03  0.17960107470E+03  0.41800000000E+01 0. -1.
         -5    1    3    3    0  502 -0.12612218315E+01 -0.42717517431E+02  0.12626583145E+03  0.13336757315E+03  0.41800000000E+01 0. -1.
        -11    1    1    2    0    0  0.82212284325E+01 -0.10654732284E+02  0.72600710578E+02  0.73837491109E+02  0.00000000000E+00 0. -1.
         11    1    1    2    0    0 -0.68676574193E+01 -0.33362557077E+02 -0.20207498219E+02  0.39605150138E+02  0.00000000000E+00 0.  1.
</event>
<event>
 6    1  0.4966153E-006  0.3857446E+03  0.7561462E-02  0.1048831E+00
          2   -1    0    0  501    0  0.00000000000E+00  0.00000000000E+00  0.26215438961E+03  0.26215438961E+03  0.00000000000E+00 0. -1.
         -2   -1    0    0    0  501 -0.00000000000E+00 -0.00000000000E+00 -0.60029748096E+03  0.60029748096E+03  0.00000000000E+00 0.  1.
          5    1    1    2  502    0  0.20288170340E+03 -0.23418863090E+03 -0.17439863913E+03  0.35558073366E+03  0.41800000000E+01 0. -1.
         -5    1    1    2    0  502 -0.62844210362E+02  0.20813773117E+03 -0.14183104660E+03  0.25962324259E+03  0.41800000000E+01 0.  1.
        -11    1    1    2    0    0  0.35406011458E+02  0.55921055742E+02 -0.20447529110E+02  0.69273743722E+02  0.00000000000E+00 0.  1.
         11    1    1    2    0    0 -0.17544350450E+03 -0.29870156015E+02 -0.14658765183E+01  0.17797415061E+03  0.00000000000E+00 0. -1.
</event>
<event>
 7    1  0.4966153E-006  0.1044038E+03  0.7561462E-02  0.1271299E+00
          2   -1    0    0  501    0  0.00000000000E+00  0.00000000000E+00  0.29819080656E+03  0.29819080656E+03  0.00000000000E+00 0. -1.
         -2   -1    0    0    0  501 -0.00000000000E+00 -0.00000000000E+00 -0.72133609476E+02  0.72133609476E+02  0.00000000000E+00 0.  1.
         23    2    1    2    0    0 -0.34407323204E+02 -0.78833299844E+02  0.68464462755E+02  0.16653338096E+03  0.12508969286E+03 0.  0.
          5    1    3    3  502    0 -0.16223173669E+02 -0.23196212310E+02 -0.36439851903E+02  0.46331315934E+02  0.41800000000E+01 0.  1.
         -5    1    3    3    0  502 -0.18184149535E+02 -0.55637087533E+02  0.10490431466E+03  0.12020206503E+03  0.41800000000E+01 0.  1.
        -11    1    1    2    0    0  0.55999953319E+02  0.82398390410E+02  0.95707035615E+02  0.13814965139E+03  0.00000000000E+00 0. -1.
         11    1    1    2    0    0 -0.21592630116E+02 -0.35650905661E+01  0.61885698716E+02  0.65641383681E+02  0.00000000000E+00 0.  1.
</event>
<event>
 7    1  0.4966153E-006  0.1054937E+03  0.7561462E-02  0.1269150E+00
          1   -1    0    0  501    0  0.00000000000E+00  0.00000000000E+00  0.78621029564E+02  0.78621029564E+02  0.00000000000E+00 0. -1.
         -1   -1    0    0    0  501 -0.00000000000E+00 -0.00000000000E+00 -0.18507200235E+03  0.18507200235E+03  0.00000000000E+00 0.  1.
         23    2    1    2    0    0  0.31428384172E+02  0.30277358172E+02 -0.89224601423E+02  0.15972675300E+03  0.12508854614E+03 0.  0.
          5    1    3    3  502    0 -0.17557650629E+02 -0.37028536086E+02 -0.57083726861E+02  0.70394657842E+02  0.41800000000E+01 0. -1.
         -5    1    3    3    0  502  0.48986034801E+02  0.67305894258E+02 -0.32140874562E+02  0.89332095156E+02  0.41800000000E+01 0. -1.
        -11    1    1    2    0    0 -0.51915768591E+02 -0.25618422277E+01  0.17688088952E+02  0.54906088504E+02  0.00000000000E+00 0.  1.
         11    1    1    2    0    0  0.20487384419E+02 -0.27715515944E+02 -0.34914460316E+02  0.49060190415E+02  0.00000000000E+00 0. -1.
</event>
<event>
 7    1  0.4966153E-006  0.1133791E+03  0.7561462E-02  0.1254437E+00
         -2   -1    0    0    0  501 -0.00000000000E+00  0.00000000000E+00  0.32725052509E+03  0.32725052509E+03  0.00000000000E+00 0.  1.
          2   -1    0    0  501    0  0.00000000000E+00 -0.00000000000E+00 -0.44583055740E+02  0.44583055740E+02  0.00000000000E+00 0. -1.
         23    2    1    2    0    0  0.47119017841E+02 -0.22169435876E+02  0.14400601914E+03  0.19773241447E+03  0.12509471794E+03 0.  0.
          5    1    3    3  502    0  0.23908494382E+02 -0.73891146837E+02  0.94169481653E+02  0.12213468532E+03  0.41800000000E+01 0.  1.
         -5    1    3    3    0  502  0.23210523459E+02  0.51721710960E+02  0.49836537484E+02  0.75597729148E+02  0.41800000000E+01 0.  1.
        -11    1    1    2    0    0 -0.57468723371E+02 -0.10011141511E+02  0.42508868414E+02  0.72179505499E+02  0.00000000000E+00 0.  1.
         11    1    1    2    0    0  0.10349705530E+02  0.32180577388E+02  0.96152581799E+02  0.10192166086E+03  0.00000000000E+00 0. -1.
</event>
<event>
 7    1  0.4966153E-006  0.1244256E+03  0.7561462E-02  0.1235970E+00
         -1   -1    0    0    0  501 -0.00000000000E+00  0.00000000000E+00  0.11081413721E+03  0.11081413721E+03  0.00000000000E+00 0.  1.
          1   -1    0    0  501    0  0.00000000000E+00 -0.00000000000E+00 -0.23937374357E+03  0.23937374357E+03  0.00000000000E+00 0. -1.
         23    2    1    2    0    0  0.65008356191E+02  0.39274399244E+02  0.34813226944E+02  0.14932817154E+03  0.12376743205E+03 0.  0.
          5    1    3    3  502    0 -0.25739776357E+02 -0.11202937219E+02 -0.17123349356E+02  0.33146996582E+02  0.41800000000E+01 0. -1.
         -5    1    3    3    0  502  0.90748132548E+02  0.50477336464E+02  0.51936576300E+02  0.11618117496E+03  0.41800000000E+01 0.  1.
        -11    1    1    2    0    0 -0.77122732115E+02 -0.56414966417E+02 -0.13927362742E+03  0.16890147288E+03  0.00000000000E+00 0. -1.
         11    1    1    2    0    0  0.12114375924E+02  0.17140567173E+02 -0.24099205885E+02  0.31958236361E+02  0.00000000000E+00 0.  1.
</event>
<event>
 7    1  0.4966153E-006  0.8439055E+02  0.7561462E-02  0.1317034E+00
          1   -1    0    0  501    0  0.00000000000E+00  0.00000000000E+00  0.25235552451E+02  0.25235552451E+02  0.00000000000E+00 0. -1.
         -1   -1    0    0    0  501 -0.00000000000E+00 -0.00000000000E+00 -0.50033019184E+03  0.50033019184E+03  0.00000000000E+00 0.  1.
         23    2    1    2    0    0  0.23045852696E+02 -0.15071907872E+02 -0.26278530458E+03  0.29233938069E+03  0.12509166025E+03 0.  0.
          5    1    3    3  502    0  0.60796276567E+02 -0.21594992721E+01 -0.59725542265E+02  0.85354926515E+02  0.41800000000E+01 0.  1.
         -5    1    3    3    0  502 -0.37750423871E+02 -0.12912408600E+02 -0.20305976232E+03  0.20698445418E+03  0.41800000000E+01 0.  1.
        -11    1    1    2    0    0  0.70691508170E+01  0.32250971173E+02 -0.18801367386E+03  0.19089064826E+03  0.00000000000E+00 0.  1.
         11    1    1    2    0    0 -0.30115003513E+02 -0.17179063301E+02 -0.24295660943E+02  0.42335715337E+02  0.00000000000E+00 0. -1.
</event>
<event>
 7    1  0.4966153E-006  0.1477953E+03  0.7561462E-02  0.1203209E+00
          2   -1    0    0  501    0  0.00000000000E+00  0.00000000000E+00  0.81654199788E+03  0.81654199788E+03  0.00000000000E+00 0. -1.
         -2   -1    0    0    0  501 -0.00000000000E+00 -0.00000000000E+00 -0.27369004630E+02  0.27369004630E+02  0.00000000000E+00 0.  1.
         23    2    1    2    0    0 -0.81383107639E+02 -0.61370857168E+02  0.44724180066E+03  0.47546060783E+03  0.12509184234E+03 0.  0.
          5    1    3    3  502    0 -0.94746987857E+02  0.33889050498E+01  0.27507316887E+03  0.29098315590E+03  0.41800000000E+01 0. -1.
         -5    1    3    3    0  502  0.13363880217E+02 -0.64759762218E+02  0.17216863179E+03  0.18447745193E+03  0.41800000000E+01 0. -1.
        -11    1    1    2    0    0  0.63421768977E+02 -0.69414987098E+01  0.19973205808E+03  0.20967451016E+03  0.00000000000E+00 0.  1.
         11    1    1    2    0    0  0.17961338663E+02  0.68312355878E+02  0.14219913451E+03  0.15877588453E+03  0.00000000000E+00 0. -1.
</event>
<event>
 7    1  0.4966153E-006  0.1489607E+03  0.7561462E-02  0.1201756E+00
          2   -1    0    0  501    0  0.00000000000E+00  0.00000000000E+00  0.26188417039E+03  0.26188417039E+03  0.00000000000E+00 0. -1.
         -2   -1    0    0    0  501 -0.00000000000E+00 -0.00000000000E+00 -0.11147306397E+03  0.11147306397E+03  0.00000000000E+00 0.  1.
         23    2    1    2    0    0 -0.13058789713E+03 -0.31332387355E+01  0.65148628765E+02  0.19223813651E+03  0.12509253070E+03 0.  0.
          5    1    3    3  502    0 -0.36131477687E+02 -0.24105291988E+02 -0.32728791646E+02  0.54545347962E+02  0.41800000000E+01 0. -1.
         -5    1    3    3    0  502 -0.94456419446E+02  0.20972053252E+02  0.97877420412E+02  0.13769278855E+03  0.41800000000E+01 0. -1.
        -11    1    1    2    0    0  0.24384627779E+02  0.38439306899E+02  0.39270063385E+02  0.60119283637E+02  0.00000000000E+00 0. -1.
         11    1    1    2    0    0  0.10620326935E+03 -0.35306068163E+02  0.45992414267E+02  0.12099981422E+03  0.00000000000E+00 0.  1.
</event>
<event>
 7    1  0.4966153E-006  0.1172464E+03  0.7561462E-02  0.1247710E+00
         -1   -1    0    0    0  501 -0.00000000000E+00  0.00000000000E+00  0.39853109713E+02  0.39853109713E+02  0.00000000000E+00 0.  1.
          1   -1    0    0  501    0  0.00000000000E+00 -0.00000000000E+00 -0.57061770799E+03  0.57061770799E+03  0.00000000000E+00 0. -1.
         23    2    1    2    0    0 -0.12064953026E+02  0.89364899147E+02 -0.17986847126E+03  0.23692088468E+03  0.12508872992E+03 0.  0.
          5    1    3    3  502    0  0.12167634074E+02 -0.34317344995E+01  0.14775755391E+02  0.19890285770E+02  0.41800000000E+01 0. -1.
         -5    1    3    3    0  502 -0.24232587100E+02  0.92796633647E+02 -0.19464422665E+03  0.21703059891E+03  0.41800000000E+01 0. -1.
        -11    1    1    2    0    0 -0.28485227240E+02 -0.78039764678E+02 -0.19265356972E+03  0.20980231402E+03  0.00000000000E+00 0.  1.
         11    1    1    2    0    0  0.40550180266E+02 -0.11325134469E+02 -0.15824255729E+03  0.16374761900E+03  0.00000000000E+00 0. -1.
</event>
<event>
 7    1  0.4966153E-006  0.3055392E+03  0.7561462E-02  0.1082504E+00
          2   -1    0    0  501    0  0.00000000000E+00  0.00000000000E+00  0.28197332320E+03  0.28197332320E+03  0.00000000000E+00 0. -1.
         -2   -1    0    0    0  501 -0.00000000000E+00 -0.00000000000E+00 -0.36087094392E+03  0.36087094392E+03  0.00000000000E+00 0.  1.
         23    2    1    2    0    0 -0.27721745170E+03 -0.91291456014E+02 -0.10153247497E+03  0.33337731297E+03  0.12509174178E+03 0.  0.
          5    1    3    3  502    0 -0.24361012246E+03 -0.27358885836E+02 -0.79719243279E+02  0.25781200622E+03  0.41800000000E+01 0.  1.
         -5    1    3    3    0  502 -0.33607329238E+02 -0.63932570178E+02 -0.21813231695E+02  0.75565306756E+02  0.41800000000E+01 0.  1.
        -11    1    1    2    0    0  0.95870716279E+02  0.15997329419E+02 -0.37391375411E+02  0.10414040399E+03  0.00000000000E+00 0.  1.
         11    1    1    2    0    0  0.18134673542E+03  0.75294126595E+02  0.60026229664E+02  0.20532655015E+03  0.00000000000E+00 0. -1.
</event>
<event>
 7    1  0.4966153E-006  0.1474528E+03  0.7561462E-02  0.1203638E+00
         -2   -1    0    0    0  501 -0.00000000000E+00  0.00000000000E+00  0.12447796582E+03  0.12447796582E+03  0.00000000000E+00 0.  1.
          2   -1    0    0  501    0  0.00000000000E+00 -0.00000000000E+00 -0.38651285575E+03  0.38651285575E+03  0.00000000000E+00 0. -1.
         23    2    1    2    0    0 -0.75470992274E+02  0.73293365868E+02  0.48611619530E+02  0.17052742107E+03  0.12509485852E+03 0.  0.
          5    1    3    3  502    0 -0.67261668279E+02 -0.13173087829E+02 -0.41921360064E+01  0.68794684874E+02  0.41800000000E+01 0.  1.
         -5    1    3    3    0  502 -0.82093239948E+01  0.86466453697E+02  0.52803755537E+02  0.10173273620E+03  0.41800000000E+01 0.  1.
        -11    1    1    2    0    0  0.89996101956E+02 -0.82497931807E+02 -0.26916103211E+03  0.29555518660E+03  0.00000000000E+00 0. -1.
         11    1    1    2    0    0 -0.14525109682E+02  0.92045659389E+01 -0.41485477351E+02  0.44908213908E+02  0.00000000000E+00 0.  1.
</event>
<event>
 7    1  0.4966153E-006  0.1022590E+03  0.7561462E-02  0.1275616E+00
          1   -1    0    0  501    0  0.00000000000E+00  0.00000000000E+00  0.16604015246E+03  0.16604015246E+03  0.00000000000E+00 0. -1.
         -1   -1    0    0    0  501 -0.00000000000E+00 -0.00000000000E+00 -0.95363586725E+02  0.95363586725E+02  0.00000000000E+00 0.  1.
         23    2    1    2    0    0 -0.54676899552E+02 -0.32253942401E+02  0.44128845347E+02  0.14705331428E+03  0.12508973621E+03 0.  0.
          5    1    3    3  502    0 -0.16358710001E+02  0.28017612654E+02 -0.29745947030E+02  0.44214112865E+02  0.41800000000E+01 0.  1.
         -5    1    3    3    0  502 -0.38318189551E+02 -0.60271555055E+02  0.73874792377E+02  0.10283920142E+03  0.41800000000E+01 0.  1.
        -11    1    1    2    0    0  0.73382681734E+02  0.15179503070E+02  0.40764438059E+02  0.85306357924E+02  0.00000000000E+00 0. -1.
         11    1    1    2    0    0 -0.18705782182E+02  0.17074439331E+02 -0.14216717670E+02  0.29044066981E+02  0.00000000000E+00 0.  1.
</event>
<event>
 7    1  0.4966153E-006  0.9871346E+02  0.7561462E-02  0.1283025E+00
          2   -1    0    0  501    0  0.00000000000E+00  0.00000000000E+00  0.58656945572E+03  0.58656945572E+03  0.00000000000E+00 0. -1.
         -2   -1    0    0    0  501 -0.00000000000E+00 -0.00000000000E+00 -0.23492498929E+02  0.23492498929E+02  0.00000000000E+00 0.  1.
         23    2    1    2    0    0  0.32492014356E+02 -0.19892808435E+02  0.22827103582E+03  0.26306865062E+03  0.12508394908E+03 0.  0.
          5    1    3    3  502    0  0.59815179763E+02 -0.40530986302E+02  0.21369743323E+03  0.22562065940E+03  0.41800000000E+01 0. -1.
         -5    1    3    3    0  502 -0.27323165407E+02  0.20638177867E+02  0.14573602594E+02  0.37447991216E+02  0.41800000000E+01 0. -1.
        -11    1    1    2    0    0 -0.58769499431E+02  0.20719169500E+01  0.19779766691E+03  0.20635421958E+03  0.00000000000E+00 0. -1.
         11    1    1    2    0    0  0.26277485075E+02  0.17820891485E+02  0.13700825405E+03  0.14063908445E+03  0.00000000000E+00 0.  1.
</event>
<event>
 7    1  0.4966153E-006  0.1020376E+03  0.7561462E-02  0.1276069E+00
          1   -1    0    0  501    0  0.00000000000E+00  0.00000000000E+00  0.26425914070E+03  0.26425914070E+03  0.00000000000E+00 0. -1.
         -1   -1    0    0    0  501 -0.00000000000E+00 -0.00000000000E+00 -0.45379344836E+02  0.45379344836E+02  0.00000000000E+00 0.  1.
         23    2    1    2    0    0 -0.12899039290E+02  0.21674213810E+00  0.11814213443E+03  0.17254374071E+03  0.12508935342E+03 0.  0.
          5    1    3    3  502    0  0.52933341185E+02 -0.19457757820E+02  0.46776609076E+02  0.73389825623E+02  0.41800000000E+01 0.  1.
         -5    1    3    3    0  502 -0.65832380475E+02  0.19674499958E+02  0.71365525355E+02  0.99153915085E+02  0.41800000000E+01 0.  1.
        -11    1    1    2    0    0 -0.10856314362E+02  0.34754780109E+02  0.11227136017E+02  0.38102531216E+02  0.00000000000E+00 0.  1.
         11    1    1    2    0    0  0.23755353652E+02 -0.34971522247E+02  0.89510525411E+02  0.98992213607E+02  0.00000000000E+00 0. -1.
</event>
<event>
 7    1  0.4966153E-006  0.1087853E+03  0.7561462E-02  0.1262836E+00
         -2   -1    0    0    0  501 -0.00000000000E+00  0.00000000000E+00  0.18904207907E+03  0.18904207907E+03  0.00000000000E+00 0.  1.
          2   -1    0    0  501    0  0.00000000000E+00 -0.00000000000E+00 -0.90020470318E+02  0.90020470318E+02  0.00000000000E+00 0. -1.
         23    2    1    2    0    0 -0.51798117457E+01  0.62280715316E+02  0.90092872569E+02  0.16634279295E+03  0.12508989219E+03 0.  0.
          5    1    3    3  502    0  0.27982556479E+02  0.91033638094E+02  0.67451232168E+02  0.11677879881E+03  0.41800000000E+01 0.  1.
         -5    1    3    3    0  502 -0.33162368225E+02 -0.28752922778E+02  0.22641640402E+02  0.49563994135E+02  0.41800000000E+01 0.  1.
        -11    1    1    2    0    0 -0.20081364200E+02 -0.17044194005E+02  0.43201773431E+02  0.50598013449E+02  0.00000000000E+00 0.  1.
         11    1    1    2    0    0  0.25261175946E+02 -0.45236521310E+02 -0.34273037245E+02  0.62121742992E+02  0.00000000000E+00 0. -1.
</event>
<event>
 7    1  0.4966153E-006  0.1682185E+03  0.7561462E-02  0.1179718E+00
         -2   -1    0    0    0  501 -0.00000000000E+00  0.00000000000E+00  0.31329708629E+03  0.31329708629E+03  0.00000000000E+00 0.  1.
          2   -1    0    0  501    0  0.00000000000E+00 -0.00000000000E+00 -0.10352236984E+03  0.10352236984E+03  0.00000000000E+00 0. -1.
         23    2    1    2    0    0 -0.54101094372E+02  0.13140681947E+03  0.83947236638E+02  0.20709673712E+03  0.12508892586E+03 0.  0.
          5    1    3    3  502    0  0.21297520665E+02  0.68093311370E+02 -0.85051174398E+01  0.71972861986E+02  0.41800000000E+01 0. -1.
         -5    1    3    3    0  502 -0.75398615037E+02  0.63313508100E+02  0.92452354078E+02  0.13512387514E+03  0.41800000000E+01 0. -1.
        -11    1    1    2    0    0 -0.22760667257E+02 -0.47271823649E+02  0.52434688095E+02  0.74175938152E+02  0.00000000000E+00 0.  1.
         11    1    1    2    0    0  0.76861761629E+02 -0.84134995820E+02  0.73392791719E+02  0.13554678085E+03  0.00000000000E+00 0. -1.
</event>
<event>
 7    1  0.4966153E-006  0.1503231E+03  0.7561462E-02  0.1200077E+00
          3   -1    0    0  501    0  0.00000000000E+00  0.00000000000E+00  0.48912782069E+02  0.48912782069E+02  0.00000000000E+00 0. -1.
         -3   -1    0    0    0  501 -0.00000000000E+00 -0.00000000000E+00 -0.49930918918E+03  0.49930918918E+03  0.00000000000E+00 0.  1.
         23    2    1    2    0    0  0.35240514930E+02  0.10617362805E+03 -0.25636949200E+03  0.30641038992E+03  0.12508907802E+03 0.  0.
          5    1    3    3  502    0  0.68326307626E+02  0.11062942464E+03 -0.17260853051E+03  0.21614469948E+03  0.41800000000E+01 0.  1.
         -5    1    3    3    0  502 -0.33085792696E+02 -0.44557965859E+01 -0.83760961490E+02  0.90265690443E+02  0.41800000000E+01 0.  1.
        -11    1    1    2    0    0  0.25578318461E+02 -0.33198185387E+02 -0.98715810692E+02  0.10724356003E+03  0.00000000000E+00 0. -1.
         11    1    1    2    0    0 -0.60818833391E+02 -0.72975442668E+02 -0.95311104422E+02  0.13456802129E+03  0.00000000000E+00 0.  1.
</event>
<event>
 7    1  0.4966153E-006  0.1049670E+03  0.7561462E-02  0.1270185E+00
         -1   -1    0    0    0  501 -0.00000000000E+00  0.00000000000E+00  0.19225087249E+02  0.19225087249E+02  0.00000000000E+00 0.  1.
          1   -1    0    0  501    0  0.00000000000E+00 -0.00000000000E+00 -0.62572708915E+03  0.62572708915E+03  0.00000000000E+00 0. -1.
         23    2    1    2    0    0 -0.10249283029E+02  0.10724672621E+01 -0.39368614247E+03  0.41321088255E+03  0.12509299219E+03 0.  0.
          5    1    3    3  502    0 -0.35471995588E+02 -0.53987029270E+02 -0.19587254252E+03  0.20629199479E+03  0.41800000000E+01 0.  1.
         -5    1    3    3    0  502  0.25222712559E+02  0.55059496532E+02 -0.19781359995E+03  0.20691888776E+03  0.41800000000E+01 0.  1.
        -11    1    1    2    0    0  0.40429728521E+02 -0.23618677744E+02 -0.16105094717E+03  0.16771944572E+03  0.00000000000E+00 0.  1.
         11    1    1    2    0    0 -0.30180445492E+02  0.22546210482E+02 -0.51764912262E+02  0.64021848136E+02  0.00000000000E+00 0. -1.
</event>
<event>
 7    1  0.4966153E-006  0.1340055E+03  0.7561462E-02  0.1221630E+00
         -2   -1    0    0    0  501 -0.00000000000E+00  0.00000000000E+00  0.60257377079E+02  0.60257377079E+02  0.00000000000E+00 0.  1.
          2   -1    0    0  501    0  0.00000000000E+00 -0.00000000000E+00 -0.35768359666E+03  0.35768359666E+03  0.00000000000E+00 0. -1.
         23    2    1    2    0    0 -0.75125291154E+02  0.54133695633E+02 -0.12080909788E+03  0.19702169471E+03  0.12509373958E+03 0.  0.
          5    1    3    3  502    0 -0.13910719081E+02 -0.32904239385E+02 -0.70715796964E+02  0.79337213306E+02  0.41800000000E+01 0. -1.
         -5    1    3    3    0  502 -0.61214572073E+02  0.87037935018E+02 -0.50093300920E+02  0.11768448140E+03  0.41800000000E+01 0. -1.
        -11    1    1    2    0    0  0.41346454734E+02  0.18615361459E+02 -0.31832647304E+02  0.55401971406E+02  0.00000000000E+00 0.  1.
         11    1    1    2    0    0  0.33778836420E+02 -0.72749057092E+02 -0.14478447439E+03  0.16551730762E+03  0.00000000000E+00 0. -1.
</event>
<event>
 7    1  0.4966153E-006  0.8924158E+02  0.7561462E-02  0.1304699E+00
         -2   -1    0    0    0  501 -0.00000000000E+00  0.00000000000E+00  0.33460666164E+03  0.33460666164E+03  0.00000000000E+00 0.  1.
          2   -1    0    0  501    0  0.00000000000E+00 -0.00000000000E+00 -0.31687247947E+02  0.31687247947E+02  0.00000000000E+00 0. -1.
         23    2    1    2    0    0  0.11067418744E+02 -0.98237555878E+01  0.15920262996E+03  0.19513702439E+03  0.11186593303E+03 0.  0.
          5    1    3    3  502    0 -0.41724061844E+02 -0.17146141361E+02  0.12163236436E+03  0.12979519236E+03  0.41800000000E+01 0. -1.
         -5    1    3    3    0  502  0.52791480588E+02  0.73223857730E+01  0.37570265598E+02  0.65341832031E+02  0.41800000000E+01 0.  1.
        -11    1    1    2    0    0 -0.13107780253E+02 -0.33694125818E+02  0.23075481688E+02  0.42890393714E+02  0.00000000000E+00 0. -1.
         11    1    1    2    0    0  0.20403615085E+01  0.43517881406E+02  0.12064130205E+03  0.12826649148E+03  0.00000000000E+00 0.  1.
</event>
<event>
 7    1  0.4966153E-006  0.1121498E+03  0.7561462E-02  0.1256640E+00
         -2   -1    0    0    0  501 -0.00000000000E+00  0.00000000000E+00  0.40121827671E+02  0.40121827671E+02  0.00000000000E+00 0.  1.
          2   -1    0    0  501    0  0.00000000000E+00 -0.00000000000E+00 -0.39533890161E+03  0.39533890161E+03  0.00000000000E+00 0. -1.
         23    2    1    2    0    0 -0.48661237605E+02 -0.27708906931E+02 -0.15643827219E+03  0.20798268937E+03  0.12509263169E+03 0.  0.
          5    1    3    3  502    0  0.28249353537E+02 -0.31115468142E+02 -0.11431415398E+02  0.43753262632E+02  0.41800000000E+01 0. -1.
         -5    1    3    3    0  502 -0.76910591142E+02  0.34065612106E+01 -0.14500685679E+03  0.16422942674E+03  0.41800000000E+01 0. -1.
        -11    1    1    2    0    0  0.53096580657E+01  0.54003609520E+02 -0.66596896667E+02  0.85905348818E+02  0.00000000000E+00 0.  1.
         11    1    1    2    0    0  0.43351579539E+02 -0.26294702589E+02 -0.13218190508E+03  0.14157269110E+03  0.00000000000E+00 0. -1.
</event>
<event>
 7    1  0.4966153E-006  0.1659935E+03  0.7561462E-02  0.1182092E+00
         -2   -1    0    0    0  501 -0.00000000000E+00  0.00000000000E+00  0.16463123959E+04  0.16463123959E+04  0.00000000000E+00 0.  1.
          2   -1    0    0  501    0  0.00000000000E+00 -0.00000000000E+00 -0.22698892939E+02  0.22698892939E+02  0.00000000000E+00 0. -1.
         23    2    1    2    0    0 -0.13381766172E+03  0.72348986835E+02  0.10701729051E+04  0.10881447722E+04  0.12508979225E+03 0.  0.
          5    1    3    3  502    0 -0.69680620613E+02 -0.82941395900E+01  0.20227985200E+03  0.21414666134E+03  0.41800000000E+01 0.  1.
         -5    1    3    3    0  502 -0.64137041110E+02  0.80643126425E+02  0.86789305306E+03  0.87399811089E+03  0.41800000000E+01 0.  1.
        -11    1    1    2    0    0  0.36715234450E+02  0.12309040935E+01  0.45292138765E+02  0.58317247873E+02  0.00000000000E+00 0. -1.
         11    1    1    2    0    0  0.97102427274E+02 -0.73579890928E+02  0.50814845912E+03  0.52254926871E+03  0.00000000000E+00 0.  1.
</event>
<event>
 7    1  0.4966153E-006  0.1287245E+03  0.7561462E-02  0.1229361E+00
          2   -1    0    0  501    0  0.00000000000E+00  0.00000000000E+00  0.65244612498E+02  0.65244612498E+02  0.00000000000E+00 0. -1.
         -2   -1    0    0    0  501 -0.00000000000E+00 -0.00000000000E+00 -0.37471383605E+03  0.37471383605E+03  0.00000000000E+00 0.  1.
         23    2    1    2    0    0 -0.10343030382E+03 -0.38559498836E+02 -0.18286359171E+03  0.24753136883E+03  0.12509205682E+03 0.  0.
          5    1    3    3  502    0 -0.21564422765E+02 -0.28083656110E-01 -0.14934471537E+03  0.15095145420E+03  0.41800000000E+01 0.  1.
         -5    1    3    3    0  502 -0.81865881059E+02 -0.38531415180E+02 -0.33518876343E+02  0.96579914623E+02  0.41800000000E+01 0.  1.
        -11    1    1    2    0    0  0.82030800186E+02  0.69344863366E+02 -0.94521373924E+02  0.14308058003E+03  0.00000000000E+00 0. -1.
         11    1    1    2    0    0  0.21399503637E+02 -0.30785364530E+02 -0.32084257915E+02  0.49346499685E+02  0.00000000000E+00 0.  1.
</event>
<event>
 7    1  0.4966153E-006  0.1229569E+03  0.7561462E-02  0.1238297E+00
         -1   -1    0    0    0  501 -0.00000000000E+00  0.00000000000E+00  0.58824877639E+03  0.58824877639E+03  0.00000000000E+00 0.  1.
          1   -1    0    0  501    0  0.00000000000E+00 -0.00000000000E+00 -0.60622714154E+02  0.60622714154E+02  0.00000000000E+00 0. -1.
         23    2    1    2    0    0 -0.10240334572E+03  0.52383558566E+02  0.45478301617E+03  0.48549515753E+03  0.12508986277E+03 0.  0.
          5    1    3    3  502    0 -0.68582982148E+02  0.62891619238E+02  0.13669598730E+03  0.16541537581E+03  0.41800000000E+01 0.  1.
         -5    1    3    3    0  502 -0.33820363571E+02 -0.10508060672E+02  0.31808702887E+03  0.32007978172E+03  0.41800000000E+01 0.  1.
        -11    1    1    2    0    0  0.55842832063E+02 -0.16221170450E+02  0.85188150747E+02  0.10314344037E+03  0.00000000000E+00 0.  1.
         11    1    1    2    0    0  0.46560513656E+02 -0.36162388116E+02 -0.12345104684E+02  0.60232892640E+02  0.00000000000E+00 0. -1.
</event>
<event>
 7    1  0.4966153E-006  0.8702090E+02  0.7561462E-02  0.1310231E+00
         -1   -1    0    0    0  501 -0.00000000000E+00  0.00000000000E+00  0.40081262707E+03  0.40081262707E+03  0.00000000000E+00 0.  1.
          1   -1    0    0  501    0  0.00000000000E+00 -0.00000000000E+00 -0.52614337248E+02  0.52614337248E+02  0.00000000000E+00 0. -1.
         23    2    1    2    0    0 -0.38901752184E+02 -0.46303857776E+02  0.29983493515E+03  0.33046285447E+03  0.12508923327E+03 0.  0.
          5    1    3    3  502    0 -0.27655555335E+02 -0.30198876399E+02  0.30653930160E+03  0.30929050697E+03  0.41800000000E+01 0.  1.
         -5    1    3    3    0  502 -0.11246196849E+02 -0.16104981376E+02 -0.67043664576E+01  0.21172347492E+02  0.41800000000E+01 0.  1.
        -11    1    1    2    0    0  0.29029268619E+02  0.76078499354E+02  0.38575344260E+02  0.90103793956E+02  0.00000000000E+00 0.  1.
         11    1    1    2    0    0  0.98724835652E+01 -0.29774641578E+02  0.97880104155E+01  0.32860315895E+02  0.00000000000E+00 0. -1.
</event>
<event>
 7    1  0.4966153E-006  0.1114592E+03  0.7561462E-02  0.1257891E+00
         -2   -1    0    0    0  501 -0.00000000000E+00  0.00000000000E+00  0.46774263502E+02  0.46774263502E+02  0.00000000000E+00 0.  1.
          2   -1    0    0  501    0  0.00000000000E+00 -0.00000000000E+00 -0.37531017675E+03  0.37531017675E+03  0.00000000000E+00 0. -1.
         23    2    1    2    0    0  0.27396435330E+02 -0.30636009603E+02 -0.77652219764E+02  0.15286091620E+03  0.12508981858E+03 0.  0.
          5    1    3    3  502    0  0.59307396546E+02  0.26895762625E+02 -0.32031741578E+02  0.72692875860E+02  0.41800000000E+01 0. -1.
         -5    1    3    3    0  502 -0.31910961216E+02 -0.57531772227E+02 -0.45620478186E+02  0.80168040336E+02  0.41800000000E+01 0. -1.
        -11    1    1    2    0    0 -0.33727241762E+02 -0.20992183215E+02 -0.64811916183E+02  0.76018307481E+02  0.00000000000E+00 0.  1.
         11    1    1    2    0    0  0.63308064318E+01  0.51628192818E+02 -0.18607177730E+03  0.19320521657E+03  0.00000000000E+00 0. -1.
</event>
<event>
 7    1  0.4966153E-006  0.1072282E+03  0.7561462E-02  0.1265791E+00
         -1   -1    0    0    0  501 -0.00000000000E+00  0.00000000000E+00  0.18935910824E+03  0.18935910824E+03  0.00000000000E+00 0.  1.
          1   -1    0    0  501    0  0.00000000000E+00 -0.00000000000E+00 -0.66361640045E+02  0.66361640045E+02  0.00000000000E+00 0. -1.
         23    2    1    2    0    0 -0.15028349485E+01 -0.16449833455E+02  0.10078224244E+03  0.16148657113E+03  0.12509195310E+03 0.  0.
          5    1    3    3  502    0  0.36099406597E+02 -0.58963951729E+02  0.55946070525E+02  0.89035666827E+02  0.41800000000E+01 0. -1.
         -5    1    3    3    0  502 -0.37602241545E+02  0.42514118274E+02  0.44836171916E+02  0.72450904300E+02  0.41800000000E+01 0. -1.
        -11    1    1    2    0    0 -0.31333683357E+02 -0.21573812426E+02 -0.27338823458E+01  0.38140571679E+02  0.00000000000E+00 0. -1.
         11    1    1    2    0    0  0.32836518305E+02  0.38023645881E+02  0.24949108097E+02  0.56093605477E+02  0.00000000000E+00 0.  1.
</event>
<event>
 7    1  0.4966153E-006  0.1054376E+03  0.7561462E-02  0.1269260E+00
          2   -1    0    0  501    0  0.00000000000E+00  0.00000000000E+00  0.55404571823E+03  0.55404571823E+03  0.00000000000E+00 0. -1.
         -2   -1    0    0    0  501 -0.00000000000E+00 -0.00000000000E+00 -0.29747760752E+02  0.29747760752E+02  0.00000000000E+00 0.  1.
         23    2    1    2    0    0 -0.56228525218E+02  0.24407888962E+02  0.26202100839E+03  0.29674760716E+03  0.12508693548E+03 0.  0.
          5    1    3    3  502    0 -0.26661001384E+01 -0.46028555010E+02  0.57179165771E+02  0.73570818702E+02  0.41800000000E+01 0.  1.
         -5    1    3    3    0  502 -0.53562425079E+02  0.70436443973E+02  0.20484184262E+03  0.22317678846E+03  0.41800000000E+01 0.  1.
        -11    1    1    2    0    0 -0.41335184506E+01 -0.14180730347E+02 -0.27628018807E+01  0.15027047687E+02  0.00000000000E+00 0.  1.
         11    1    1    2    0    0  0.60362043668E+02 -0.10227158616E+02  0.26503975097E+03  0.27201882413E+03  0.00000000000E+00 0. -1.
</event>
<event>
 7    1  0.4966153E-006  0.1042554E+03  0.7561462E-02  0.1271594E+00
          1   -1    0    0  501    0  0.00000000000E+00  0.00000000000E+00  0.11602020361E+03  0.11602020361E+03  0.00000000000E+00 0. -1.
         -1   -1    0    0    0  501 -0.00000000000E+00 -0.00000000000E+00 -0.10946609498E+03  0.10946609498E+03  0.00000000000E+00 0.  1.
         23    2    1    2    0    0 -0.25626706359E+02 -0.10733450564E+02 -0.51421732879E+01  0.12824045811E+03  0.12508892081E+03 0.  0.
          5    1    3    3  502    0  0.38958193967E+02 -0.38782475119E+02  0.10172247529E+02  0.56060398440E+02  0.41800000000E+01 0. -1.
         -5    1    3    3    0  502 -0.64584900326E+02  0.28049024555E+02 -0.15314420817E+02  0.72180059667E+02  0.41800000000E+01 0. -1.
        -11    1    1    2    0    0 -0.10196580616E+02 -0.28170598957E+02  0.28906392013E+02  0.41630906801E+02  0.00000000000E+00 0. -1.
         11    1    1    2    0    0  0.35823286975E+02  0.38904049520E+02 -0.17210110097E+02  0.55614933681E+02  0.00000000000E+00 0.  1.
</event>
<event>
 7    1  0.4966153E-006  0.1221576E+03  0.7561462E-02  0.1239579E+00
          1   -1    0    0  501    0  0.00000000000E+00  0.00000000000E+00  0.10125025892E+04  0.10125025892E+04  0.00000000000E+00 0. -1.
         -1   -1    0    0    0  501 -0.00000000000E+00 -0.00000000000E+00 -0.20873927295E+02  0.20873927295E+02  0.00000000000E+00 0.  1.
         23    2    1    2    0    0  0.70270648092E+02 -0.53698201270E+02  0.39822294107E+03  0.42667165056E+03  0.12508287570E+03 0.  0.
          5    1    3    3  502    0  0.51618069900E+02 -0.73927655615E+02  0.38575540264E+03  0.39617474234E+03  0.41800000000E+01 0. -1.
         -5    1    3    3    0  502  0.18652578191E+02  0.20229454345E+02  0.12467538430E+02  0.30496908217E+02  0.41800000000E+01 0. -1.
        -11    1    1    2    0    0 -0.15492137403E+02  0.67889342353E+02  0.31454566639E+03  0.32216136543E+03  0.00000000000E+00 0.  1.
         11    1    1    2    0    0 -0.54778510689E+02 -0.14191141083E+02  0.27886005446E+03  0.28454350052E+03  0.00000000000E+00 0. -1.
</event>
<event>
 7    1  0.6063445E-006  0.1806971E+03  0.7561462E-02  0.1167130E+00
          2   -1    0    0  501    0  0.00000000000E+00  0.00000000000E+00  0.14884044591E+04  0.14884044591E+04  0.00000000000E+00 0. -1.
         -2   -1    0    0    0  501 -0.00000000000E+00 -0.00000000000E+00 -0.28097593793E+02  0.28097593793E+02  0.00000000000E+00 0.  1.
         23    2    1    2    0    0 -0.14664789161E+03 -0.26212305177E+02  0.43743024407E+03  0.47873265946E+03  0.12508817590E+03 0.  0.
          5    1    3    3  502    0 -0.15265968471E+03 -0.50497282961E+02  0.41420813597E+03  0.44434311880E+03  0.41800000000E+01 0. -1.
         -5    1    3    3    0  502  0.60117930987E+01  0.24284977784E+02  0.23222108103E+02  0.34389540662E+02  0.41800000000E+01 0. -1.
        -11    1    1    2    0    0  0.10140671173E+03 -0.27387311624E+02  0.61114116286E+03  0.62010233588E+03  0.00000000000E+00 0.  1.
         11    1    1    2    0    0  0.45241179880E+02  0.53599616801E+02  0.41173545836E+03  0.41766705753E+03  0.00000000000E+00 0. -1.
</event>
<event>
 7    1  0.4966153E-006  0.1050650E+03  0.7561462E-02  0.1269992E+00
          1   -1    0    0  501    0  0.00000000000E+00  0.00000000000E+00  0.36665843572E+03  0.36665843572E+03  0.00000000000E+00 0. -1.
         -1   -1    0    0    0  501 -0.00000000000E+00 -0.00000000000E+00 -0.51826185475E+02  0.51826185475E+02  0.00000000000E+00 0.  1.
         23    2    1    2    0    0  0.77906171510E+02  0.35567974284E+02  0.15517004475E+03  0.21693364381E+03  0.12509200883E+03 0.  0.
          5    1    3    3  502    0  0.15474163321E+02 -0.96428395293E+01  0.13614984236E+03  0.13742883998E+03  0.41800000000E+01 0. -1.
         -5    1    3    3    0  502  0.62432008190E+02  0.45210813814E+02  0.19020202395E+02  0.79504803826E+02  0.41800000000E+01 0. -1.
        -11    1    1    2    0    0 -0.69131728178E+02  0.81752761602E+01  0.13150576729E+03  0.14879448179E+03  0.00000000000E+00 0. -1.
         11    1    1    2    0    0 -0.87744433322E+01 -0.43743250444E+02  0.28156438202E+02  0.52756495595E+02  0.00000000000E+00 0.  1.
</event>
<event>
 7    1  0.4966153E-006  0.9248486E+02  0.7561462E-02  0.1296943E+00
          2   -1    0    0  501    0  0.00000000000E+00  0.00000000000E+00  0.25778126991E+03  0.25778126991E+03  0.00000000000E+00 0. -1.
         -2   -1    0    0    0  501 -0.00000000000E+00 -0.00000000000E+00 -0.43106888133E+02  0.43106888133E+02  0.00000000000E+00 0.  1.
         23    2    1    2    0    0  0.39493566078E+01 -0.41461063125E+01  0.92353816222E+02  0.14768838331E+03  0.11510796488E+03 0.  0.
          5    1    3    3  502    0  0.12629974297E+02 -0.57900975666E+02  0.37332217937E+02  0.70165562279E+02  0.41800000000E+01 0. -1.
         -5    1    3    3    0  502 -0.86806176891E+01  0.53754869354E+02  0.55021598285E+02  0.77522821031E+02  0.41800000000E+01 0.  1.
        -11    1    1    2    0    0  0.32348313158E+02 -0.67615100397E+01  0.10756579503E+03  0.11252791495E+03  0.00000000000E+00 0.  1.
         11    1    1    2    0    0 -0.36297669766E+02  0.10907616352E+02  0.14754770522E+02  0.40671859782E+02  0.00000000000E+00 0. -1.
</event>
<event>
 7    1  0.4966153E-006  0.9780215E+02  0.7561462E-02  0.1284987E+00
         -1   -1    0    0    0  501 -0.00000000000E+00  0.00000000000E+00  0.67673830268E+03  0.67673830268E+03  0.00000000000E+00 0.  1.
          1   -1    0    0  501    0  0.00000000000E+00 -0.00000000000E+00 -0.35983739282E+02  0.35983739282E+02  0.00000000000E+00 0. -1.
         23    2    1    2    0    0 -0.35617583368E+02 -0.53499399266E+02  0.55399423187E+03  0.57156681913E+03  0.12509285282E+03 0.  0.
          5    1    3    3  502    0  0.25808355451E+02 -0.10134545807E+02  0.26033026769E+02  0.38261875445E+02  0.41800000000E+01 0. -1.
         -5    1    3    3    0  502 -0.61425938819E+02 -0.43364853458E+02  0.52796120510E+03  0.53330494369E+03  0.41800000000E+01 0. -1.
        -11    1    1    2    0    0  0.51284264778E+02  0.19580724717E+02  0.88061591745E+02  0.10377053789E+03  0.00000000000E+00 0.  1.
         11    1    1    2    0    0 -0.15666681411E+02  0.33918674549E+02 -0.13012602111E+01  0.37384684935E+02  0.00000000000E+00 0. -1.
</event>
<event>
 7    1  0.4966153E-006  0.2657376E+03  0.7561462E-02  0.1103744E+00
         -2   -1    0    0    0  501 -0.00000000000E+00  0.00000000000E+00  0.85201061578E+03  0.85201061578E+03  0.00000000000E+00 0.  1.
          2   -1    0    0  501    0  0.00000000000E+00 -0.00000000000E+00 -0.10925796824E+03  0.10925796824E+03  0.00000000000E+00 0. -1.
         23    2    1    2    0    0 -0.76744431619E+02  0.24867290230E+03  0.56082459562E+03  0.63079320895E+03  0.12509166752E+03 0.  0.
          5    1    3    3  502    0 -0.39913405771E+02  0.16602895899E+03  0.47968244077E+03  0.50918701040E+03  0.41800000000E+01 0.  1.
         -5    1    3    3    0  502 -0.36831025848E+02  0.82643943309E+02  0.81142154852E+02  0.12160619855E+03  0.41800000000E+01 0.  1.
        -11    1    1    2    0    0 -0.13724832163E+02 -0.48822151058E+02  0.63203620726E+02  0.81034999382E+02  0.00000000000E+00 0. -1.
         11    1    1    2    0    0  0.90469263782E+02 -0.19985075124E+03  0.11872443119E+03  0.24944037569E+03  0.00000000000E+00 0.  1.
</event>
<event>
 7    1  0.4966153E-006  0.9704139E+02  0.7561462E-02  0.1286643E+00
          1   -1    0    0  501    0  0.00000000000E+00  0.00000000000E+00  0.61815738253E+02  0.61815738253E+02  0.00000000000E+00 0. -1.
         -1   -1    0    0    0  501 -0.00000000000E+00 -0.00000000000E+00 -0.25415752873E+03  0.25415752873E+03  0.00000000000E+00 0.  1.
         23    2    1    2    0    0 -0.30770052278E+01 -0.51729226353E+01 -0.18450929207E+03  0.22299599295E+03  0.12508919585E+03 0.  0.
          5    1    3    3  502    0 -0.41784383759E+02  0.28175270762E+02 -0.26939778356E+02  0.57297510125E+02  0.41800000000E+01 0.  1.
         -5    1    3    3    0  502  0.38707378532E+02 -0.33348193397E+02 -0.15756951372E+03  0.16569848282E+03  0.41800000000E+01 0.  1.
        -11    1    1    2    0    0  0.46996866081E+02  0.10055719329E+02 -0.83675136269E+01  0.48783585323E+02  0.00000000000E+00 0.  1.
         11    1    1    2    0    0 -0.43919860853E+02 -0.48827966933E+01  0.53501522423E+00  0.44193688715E+02  0.00000000000E+00 0. -1.
</event>
<event>
 7    1  0.4966153E-006  0.1442592E+03  0.7561462E-02  0.1207710E+00
          1   -1    0    0  501    0  0.00000000000E+00  0.00000000000E+00  0.60674491062E+03  0.60674491062E+03  0.00000000000E+00 0. -1.
         -1   -1    0    0    0  501 -0.00000000000E+00 -0.00000000000E+00 -0.76150687024E+02  0.76150687024E+02  0.00000000000E+00 0.  1.
         23    2    1    2    0    0  0.11779136296E+03 -0.73188874502E+02  0.81313262569E+02  0.20369030428E+03  0.12508587789E+03 0.  0.
          5    1    3    3  502    0  0.96254242321E+02 -0.73385259187E+02  0.17138488868E+01  0.12112260362E+03  0.41800000000E+01 0. -1.
         -5    1    3    3    0  502  0.21537120641E+02  0.19638468415E+00  0.79599413683E+02  0.82567700653E+02  0.41800000000E+01 0. -1.
        -11    1    1    2    0    0 -0.53525583917E+02  0.58986287437E+02  0.12433057526E+03  0.14765656837E+03  0.00000000000E+00 0.  1.
         11    1    1    2    0    0 -0.64265779046E+02  0.14202587066E+02  0.32495038577E+03  0.33154872500E+03  0.00000000000E+00 0. -1.
</event>
<event>
 7    1  0.4966153E-006  0.1286802E+03  0.7561462E-02  0.1229427E+00
          2   -1    0    0  501    0  0.00000000000E+00  0.00000000000E+00  0.11993340807E+03  0.11993340807E+03  0.00000000000E+00 0. -1.
         -2   -1    0    0    0  501 -0.00000000000E+00 -0.00000000000E+00 -0.19808504884E+03  0.19808504884E+03  0.00000000000E+00 0.  1.
         23    2    1    2    0    0  0.31020555536E+02 -0.95471624448E+02 -0.89613972180E+02  0.18372543170E+03  0.12508902550E+03 0.  0.
          5    1    3    3  502    0  0.51244877845E+02 -0.91990985851E+02 -0.15266285210E+02  0.10648432207E+03  0.41800000000E+01 0. -1.
         -5    1    3    3    0  502 -0.20224322309E+02 -0.34806385971E+01 -0.74347686970E+02  0.77241109622E+02  0.41800000000E+01 0. -1.
        -11    1    1    2    0    0 -0.57825253552E+02  0.83759543957E+02 -0.26483918012E+01  0.10181569197E+03  0.00000000000E+00 0.  1.
         11    1    1    2    0    0  0.26804698016E+02  0.11712080491E+02  0.14110723204E+02  0.32477333242E+02  0.00000000000E+00 0. -1.
</event>
<event>
 7    1  0.4966153E-006  0.3102027E+03  0.7561462E-02  0.1080249E+00
          2   -1    0    0  501    0  0.00000000000E+00  0.00000000000E+00  0.14137357583E+04  0.14137357583E+04  0.00000000000E+00 0. -1.
         -2   -1    0    0    0  501 -0.00000000000E+00 -0.00000000000E+00 -0.76701891142E+02  0.76701891142E+02  0.00000000000E+00 0.  1.
         23    2    1    2    0    0  0.25399854447E+03  0.15509248236E+03  0.47629274117E+03  0.57539059357E+03  0.12510244282E+03 0.  0.
          5    1    3    3  502    0  0.65884131256E+01 -0.14613834777E+02  0.61728408816E+01  0.17679019174E+02  0.41800000000E+01 0. -1.
         -5    1    3    3    0  502  0.24741013134E+03  0.16970631714E+03  0.47011990029E+03  0.55771157440E+03  0.41800000000E+01 0. -1.
        -11    1    1    2    0    0 -0.17607623612E+03 -0.13874381182E+03  0.71032264405E+03  0.74485632500E+03  0.00000000000E+00 0. -1.
         11    1    1    2    0    0 -0.77922308351E+02 -0.16348670547E+02  0.15041848197E+03  0.17019073091E+03  0.00000000000E+00 0.  1.
</event>
<event>
 7    1  0.4966153E-006  0.1457127E+03  0.7561462E-02  0.1205842E+00
         -2   -1    0    0    0  501 -0.00000000000E+00  0.00000000000E+00  0.31727202633E+02  0.31727202633E+02  0.00000000000E+00 0.  1.
          2   -1    0    0  501    0  0.00000000000E+00 -0.00000000000E+00 -0.80794158354E+03  0.80794158354E+03  0.00000000000E+00 0. -1.
         23    2    1    2    0    0 -0.10885501948E+03  0.48997480581E+02 -0.46854858294E+03  0.49943441941E+03  0.12508715499E+03 0.  0.
          5    1    3    3  502    0 -0.63152533238E+01  0.65534058121E+02 -0.22880435655E+03  0.23812496966E+03  0.41800000000E+01 0.  1.
         -5    1    3    3    0  502 -0.10253976616E+03 -0.16536577540E+02 -0.23974422639E+03  0.26130944975E+03  0.41800000000E+01 0.  1.
        -11    1    1    2    0    0  0.74048298739E+02 -0.44549952386E+02 -0.11208407469E+03  0.14152981525E+03  0.00000000000E+00 0.  1.
         11    1    1    2    0    0  0.34806720745E+02 -0.44475281949E+01 -0.19558172327E+03  0.19870455151E+03  0.00000000000E+00 0. -1.
</event>
<event>
 7    1  0.4966153E-006  0.2255787E+03  0.7561462E-02  0.1129791E+00
         -2   -1    0    0    0  501 -0.00000000000E+00  0.00000000000E+00  0.31278033593E+03  0.31278033593E+03  0.00000000000E+00 0.  1.
          2   -1    0    0  501    0  0.00000000000E+00 -0.00000000000E+00 -0.20104674258E+03  0.20104674258E+03  0.00000000000E+00 0. -1.
         23    2    1    2    0    0  0.15751243465E+03  0.11918743964E+03  0.16926249631E+03  0.28864064389E+03  0.12509122993E+03 0.  0.
          5    1    3    3  502    0  0.28261057166E+02 -0.26516180936E+02  0.29200210642E+02  0.48702360365E+02  0.41800000000E+01 0. -1.
         -5    1    3    3    0  502  0.12925137749E+03  0.14570362058E+03  0.14006228567E+03  0.23993828352E+03  0.41800000000E+01 0. -1.
        -11    1    1    2    0    0 -0.63830836909E+02  0.23961147467E+01 -0.22754613578E+02  0.67807739569E+02  0.00000000000E+00 0. -1.
         11    1    1    2    0    0 -0.93681597744E+02 -0.12158355439E+03 -0.34774289388E+02  0.15737869505E+03  0.00000000000E+00 0.  1.
</event>
<event>
 7    1  0.4966153E-006  0.8345322E+02  0.7561462E-02  0.1319528E+00
          3   -1    0    0  501    0  0.00000000000E+00  0.00000000000E+00  0.67966955224E+02  0.67966955224E+02  0.00000000000E+00 0. -1.
         -3   -1    0    0    0  501 -0.00000000000E+00 -0.00000000000E+00 -0.18582333718E+03  0.18582333718E+03  0.00000000000E+00 0.  1.
         23    2    1    2    0    0 -0.26147308937E+02 -0.40120093979E+02 -0.74423509335E+02  0.14282232220E+03  0.11209840887E+03 0.  0.
          5    1    3    3  502    0  0.34656447384E+02 -0.41303509552E+02 -0.11647007812E+02  0.55318843422E+02  0.41800000000E+01 0. -1.
         -5    1    3    3    0  502 -0.60803756321E+02  0.11834155734E+01 -0.62776501523E+02  0.87503478780E+02  0.41800000000E+01 0.  1.
        -11    1    1    2    0    0  0.46798198177E+01  0.25428279376E+02 -0.69492606410E+02  0.74146614564E+02  0.00000000000E+00 0.  1.
         11    1    1    2    0    0  0.21467489119E+02  0.14691814603E+02  0.26059733793E+02  0.36821355635E+02  0.00000000000E+00 0. -1.
</event>
<event>
 7    1  0.4966153E-006  0.1271074E+03  0.7561462E-02  0.1231812E+00
          2   -1    0    0  501    0  0.00000000000E+00  0.00000000000E+00  0.59611023205E+03  0.59611023205E+03  0.00000000000E+00 0.  1.
         -2   -1    0    0    0  501 -0.00000000000E+00 -0.00000000000E+00 -0.30215937086E+02  0.30215937086E+02  0.00000000000E+00 0. -1.
         23    2    1    2    0    0 -0.63762477357E+02 -0.42581394772E+01  0.21756191919E+03  0.25897095900E+03  0.12509589783E+03 0.  0.
          5    1    3    3  502    0 -0.28364839392E+02  0.60225176039E+02  0.98677536861E+02  0.11910652637E+03  0.41800000000E+01 0.  1.
         -5    1    3    3    0  502 -0.35397637964E+02 -0.64483315516E+02  0.11888438233E+03  0.13986443263E+03  0.41800000000E+01 0.  1.
        -11    1    1    2    0    0  0.88738796946E+02  0.45655260228E+01  0.23344521971E+03  0.24978408419E+03  0.00000000000E+00 0. -1.
         11    1    1    2    0    0 -0.24976319589E+02 -0.30738654560E+00  0.11488715606E+03  0.11757112594E+03  0.00000000000E+00 0.  1.
</event>
<event>
 7    1  0.4966153E-006  0.1230992E+03  0.7561462E-02  0.1238070E+00
         -1   -1    0    0    0  501 -0.00000000000E+00  0.00000000000E+00  0.60211559986E+02  0.60211559986E+02  0.00000000000E+00 0.  1.
          1   -1    0    0  501    0  0.00000000000E+00 -0.00000000000E+00 -0.36005378813E+03  0.36005378813E+03  0.00000000000E+00 0. -1.
         23    2    1    2    0    0  0.84843491226E+02  0.16592585829E+02 -0.92506955410E+02  0.17794184294E+03  0.12502811988E+03 0.  0.
          5    1    3    3  502    0  0.70635238788E+02 -0.26618329268E+02 -0.10610447208E+03  0.13028240022E+03  0.41800000000E+01 0.  1.
         -5    1    3    3    0  502  0.14208252438E+02  0.43210915098E+02  0.13597516667E+02  0.47659442721E+02  0.41800000000E+01 0.  1.
        -11    1    1    2    0    0 -0.55592138171E+02  0.34942726285E+02 -0.11984263874E+03  0.13665188622E+03  0.00000000000E+00 0. -1.
         11    1    1    2    0    0 -0.29251353055E+02 -0.51535312114E+02 -0.87492633989E+02  0.10567161895E+03  0.00000000000E+00 0.  1.
</event>
<event>
 7    1  0.4966153E-006  0.9426695E+02  0.7561462E-02  0.1292836E+00
         -2   -1    0    0    0  501 -0.00000000000E+00  0.00000000000E+00  0.33027380677E+02  0.33027380677E+02  0.00000000000E+00 0.  1.
          2   -1    0    0  501    0  0.00000000000E+00 -0.00000000000E+00 -0.47531675787E+03  0.47531675787E+03  0.00000000000E+00 0. -1.
         23    2    1    2    0    0 -0.18677119420E+02  0.32122841446E+01 -0.14599097545E+03  0.19315506563E+03  0.12504543538E+03 0.  0.
          5    1    3    3  502    0  0.25327009411E+02 -0.24391146822E+02  0.27818592121E+01  0.35518960988E+02  0.41800000000E+01 0.  1.
         -5    1    3    3    0  502 -0.44004128832E+02  0.27603430966E+02 -0.14877283466E+03  0.15763610465E+03  0.41800000000E+01 0.  1.
        -11    1    1    2    0    0  0.40373616073E+02  0.37356399278E+02 -0.21345771752E+03  0.22043077509E+03  0.00000000000E+00 0.  1.
         11    1    1    2    0    0 -0.21696496653E+02 -0.40568683423E+02 -0.82840684229E+02  0.94758297817E+02  0.00000000000E+00 0. -1.
</event>
<event>
 7    1  0.4966153E-006  0.1073897E+03  0.7561462E-02  0.1265482E+00
          2   -1    0    0  501    0  0.00000000000E+00  0.00000000000E+00  0.40969822942E+02  0.40969822942E+02  0.00000000000E+00 0. -1.
         -2   -1    0    0    0  501 -0.00000000000E+00 -0.00000000000E+00 -0.42311979169E+03  0.42311979169E+03  0.00000000000E+00 0.  1.
         23    2    1    2    0    0 -0.65482394614E+02  0.25207386546E+02 -0.26146370656E+03  0.29821826928E+03  0.12509000738E+03 0.  0.
          5    1    3    3  502    0  0.18256675836E+02 -0.31853609678E+02 -0.38989509398E+02  0.53717901162E+02  0.41800000000E+01 0. -1.
         -5    1    3    3    0  502 -0.83739070450E+02  0.57060996224E+02 -0.22247419716E+03  0.24450036812E+03  0.41800000000E+01 0. -1.
        -11    1    1    2    0    0  0.33078795737E+02 -0.28731788325E+02 -0.12549509626E+03  0.13292381868E+03  0.00000000000E+00 0.  1.
         11    1    1    2    0    0  0.32403598877E+02  0.35244017782E+01  0.48088340730E+01  0.32947526663E+02  0.00000000000E+00 0. -1.
</event>
<event>
 7    1  0.4966153E-006  0.1065758E+03  0.7561462E-02  0.1267046E+00
         -2   -1    0    0    0  501 -0.00000000000E+00  0.00000000000E+00  0.50351599716E+02  0.50351599716E+02  0.00000000000E+00 0.  1.
          2   -1    0    0  501    0  0.00000000000E+00 -0.00000000000E+00 -0.45935196587E+03  0.45935196587E+03  0.00000000000E+00 0. -1.
         23    2    1    2    0    0 -0.71252820503E+02 -0.64128713007E+02 -0.14423819282E+03  0.21363841314E+03  0.12508900446E+03 0.  0.
          5    1    3    3  502    0 -0.47708442491E+02 -0.96425268407E+01 -0.14615671035E+03  0.15410493240E+03  0.41800000000E+01 0. -1.
         -5    1    3    3    0  502 -0.23544378011E+02 -0.54486186166E+02  0.19185175308E+01  0.59533480734E+02  0.41800000000E+01 0. -1.
        -11    1    1    2    0    0  0.55363769310E+02  0.68729777657E+02 -0.26521848980E+03  0.27951704173E+03  0.00000000000E+00 0. -1.
         11    1    1    2    0    0  0.15889051193E+02 -0.46010646506E+01  0.45631646282E+00  0.16548110721E+02  0.00000000000E+00 0.  1.
</event>
<event>
 7    1  0.4966153E-006  0.1730731E+03  0.7561462E-02  0.1174680E+00
          4   -1    0    0  501    0  0.00000000000E+00  0.00000000000E+00  0.69567536516E+02  0.69567536516E+02  0.00000000000E+00 0. -1.
         -4   -1    0    0    0  501 -0.00000000000E+00 -0.00000000000E+00 -0.75219088424E+03  0.75219088424E+03  0.00000000000E+00 0.  1.
         23    2    1    2    0    0 -0.52709248692E+02 -0.14388225969E+03 -0.58664558517E+03  0.61909592142E+03  0.12508536193E+03 0.  0.
          5    1    3    3  502    0 -0.20209946794E+02  0.83198938001E+01 -0.21512145124E+03  0.21626921594E+03  0.41800000000E+01 0.  1.
         -5    1    3    3    0  502 -0.32499301898E+02 -0.15220215350E+03 -0.37152413393E+03  0.40282670548E+03  0.41800000000E+01 0.  1.
        -11    1    1    2    0    0  0.58089303738E+02  0.57770240890E+02 -0.12988679740E+02  0.82948621101E+02  0.00000000000E+00 0.  1.
         11    1    1    2    0    0 -0.53800550456E+01  0.86112018805E+02 -0.82989082813E+02  0.11971387823E+03  0.00000000000E+00 0. -1.
</event>
<event>
 7    1  0.4966153E-006  0.1167980E+03  0.7561462E-02  0.1248475E+00
         -1   -1    0    0    0  501 -0.00000000000E+00  0.00000000000E+00  0.52411430680E+03  0.52411430680E+03  0.00000000000E+00 0.  1.
          1   -1    0    0  501    0  0.00000000000E+00 -0.00000000000E+00 -0.31033678400E+02  0.31033678400E+02  0.00000000000E+00 0. -1.
         23    2    1    2    0    0  0.36441600201E+02  0.49784044196E+02  0.32815314564E+03  0.35656469027E+03  0.12508976805E+03 0.  0.
          5    1    3    3  502    0  0.45712163183E+02 -0.22182349367E+02  0.22289601439E+03  0.22865205907E+03  0.41800000000E+01 0.  1.
         -5    1    3    3    0  502 -0.92705629824E+01  0.71966393563E+02  0.10525713125E+03  0.12791263119E+03  0.41800000000E+01 0.  1.
        -11    1    1    2    0    0 -0.53873750118E+02  0.33842177493E+01  0.70046221980E+02  0.88432500220E+02  0.00000000000E+00 0. -1.
         11    1    1    2    0    0  0.17432149917E+02 -0.53168261945E+02  0.94881260782E+02  0.11015079472E+03  0.00000000000E+00 0.  1.
</event>
<event>
 7    1  0.4966153E-006  0.2495229E+03  0.7561462E-02  0.1113607E+00
         -1   -1    0    0    0  501 -0.00000000000E+00  0.00000000000E+00  0.21964129338E+03  0.21964129338E+03  0.00000000000E+00 0.  1.
          1   -1    0    0  501    0  0.00000000000E+00 -0.00000000000E+00 -0.47474081839E+03  0.47474081839E+03  0.00000000000E+00 0. -1.
         23    2    1    2    0    0 -0.22065252872E+03  0.54432352687E+02  0.87501384687E+02  0.27377736561E+03  0.12508850526E+03 0.  0.
          5    1    3    3  502    0 -0.13123615248E+03  0.94032469241E+02  0.52307835131E+02  0.16976046361E+03  0.41800000000E+01 0.  1.
         -5    1    3    3    0  502 -0.89416376237E+02 -0.39600116554E+02  0.35193549556E+02  0.10401690200E+03  0.41800000000E+01 0.  1.
        -11    1    1    2    0    0  0.13525779091E+02 -0.27689805840E+02 -0.21554476464E+02  0.37606748106E+02  0.00000000000E+00 0.  1.
         11    1    1    2    0    0  0.20712674963E+03 -0.26742546846E+02 -0.32104643323E+03  0.38299799806E+03  0.00000000000E+00 0. -1.
</event>
<event>
 7    1  0.4966153E-006  0.1111384E+03  0.7561462E-02  0.1258476E+00
          2   -1    0    0  501    0  0.00000000000E+00  0.00000000000E+00  0.13855842178E+03  0.13855842178E+03  0.00000000000E+00 0. -1.
         -2   -1    0    0    0  501 -0.00000000000E+00 -0.00000000000E+00 -0.13170498247E+03  0.13170498247E+03  0.00000000000E+00 0.  1.
         23    2    1    2    0    0  0.13880099128E+02  0.77020526366E+02 -0.89772251963E+01  0.14782581172E+03  0.12508821449E+03 0.  0.
          5    1    3    3  502    0  0.18314267613E+02 -0.23662261675E+02  0.27214664790E+02  0.40662333989E+02  0.41800000000E+01 0.  1.
         -5    1    3    3    0  502 -0.44341684850E+01  0.10068278804E+03 -0.36191889987E+02  0.10716347773E+03  0.41800000000E+01 0.  1.
        -11    1    1    2    0    0  0.17083274257E+02 -0.35562575738E+02 -0.32891185158E+02  0.51365018384E+02  0.00000000000E+00 0.  1.
         11    1    1    2    0    0 -0.30963373385E+02 -0.41457950628E+02  0.48721849666E+02  0.71072574152E+02  0.00000000000E+00 0. -1.
</event>
<event>
 7    1  0.4966153E-006  0.2250628E+03  0.7561462E-02  0.1130164E+00
          3   -1    0    0  501    0  0.00000000000E+00  0.00000000000E+00  0.32342256393E+02  0.32342256393E+02  0.00000000000E+00 0. -1.
         -3   -1    0    0    0  501 -0.00000000000E+00 -0.00000000000E+00 -0.20024349709E+04  0.20024349709E+04  0.00000000000E+00 0.  1.
         23    2    1    2    0    0  0.23931108162E+02 -0.20697835251E+03 -0.13656687933E+04  0.13871233493E+04  0.12508875575E+03 0.  0.
          5    1    3    3  502    0 -0.43257610771E+02 -0.43088357917E+02 -0.24458062447E+03  0.25212096649E+03  0.41800000000E+01 0.  1.
         -5    1    3    3    0  502  0.67188718932E+02 -0.16388999459E+03 -0.11210881689E+04  0.11350023828E+04  0.41800000000E+01 0.  1.
        -11    1    1    2    0    0  0.10219231897E+02  0.59292695961E+02 -0.31749601627E+03  0.32314668007E+03  0.00000000000E+00 0.  1.
         11    1    1    2    0    0 -0.34150340059E+02  0.14768565655E+03 -0.28692790496E+03  0.32450719795E+03  0.00000000000E+00 0. -1.
</event>
<event>
 7    1  0.4966153E-006  0.1012811E+03  0.7561462E-02  0.1277625E+00
          1   -1    0    0  501    0  0.00000000000E+00  0.00000000000E+00  0.33974895917E+03  0.33974895917E+03  0.00000000000E+00 0. -1.
         -1   -1    0    0    0  501 -0.00000000000E+00 -0.00000000000E+00 -0.38856466028E+02  0.38856466028E+02  0.00000000000E+00 0.  1.
         23    2    1    2    0    0  0.14889450833E+02 -0.18540240360E+02  0.12283064749E+03  0.17691780314E+03  0.12508838813E+03 0.  0.
          5    1    3    3  502    0  0.15346816210E+02 -0.62242268927E+02  0.23655649182E+02  0.68459381732E+02  0.41800000000E+01 0. -1.
         -5    1    3    3    0  502 -0.45736537731E+00  0.43702028566E+02  0.99174998309E+02  0.10845842140E+03  0.41800000000E+01 0. -1.
        -11    1    1    2    0    0 -0.29642447416E+02  0.50871487287E+02  0.11872400212E+03  0.13252158914E+03  0.00000000000E+00 0. -1.
         11    1    1    2    0    0  0.14752996583E+02 -0.32331246926E+02  0.59337843531E+02  0.69166032927E+02  0.00000000000E+00 0.  1.
</event>
<event>
 7    1  0.4966153E-006  0.1488739E+03  0.7561462E-02  0.1201864E+00
         -1   -1    0    0    0  501 -0.00000000000E+00  0.00000000000E+00  0.35419280833E+02  0.35419280833E+02  0.00000000000E+00 0.  1.
          1   -1    0    0  501    0  0.00000000000E+00 -0.00000000000E+00 -0.86198458228E+03  0.86198458228E+03  0.00000000000E+00 0. -1.
         23    2    1    2    0    0 -0.11609492827E+03  0.19915793171E+02 -0.27298114971E+03  0.32255641967E+03  0.12509702069E+03 0.  0.
          5    1    3    3  502    0 -0.10478526851E+03 -0.21656894809E+02 -0.25330398577E+03  0.27500791843E+03  0.41800000000E+01 0. -1.
         -5    1    3    3    0  502 -0.11309659763E+02  0.41572687980E+02 -0.19677163937E+02  0.47548501243E+02  0.41800000000E+01 0. -1.
        -11    1    1    2    0    0  0.28209489837E+02  0.34074098109E+02 -0.25846047297E+03  0.26221867891E+03  0.00000000000E+00 0. -1.
         11    1    1    2    0    0  0.87885438432E+02 -0.53989891281E+02 -0.29512367876E+03  0.31262876454E+03  0.00000000000E+00 0.  1.
</event>
<event>
 7    1  0.4966153E-006  0.1181780E+03  0.7561462E-02  0.1246133E+00
          4   -1    0    0  501    0  0.00000000000E+00  0.00000000000E+00  0.46635719675E+03  0.46635719675E+03  0.00000000000E+00 0. -1.
         -4   -1    0    0    0  501 -0.00000000000E+00 -0.00000000000E+00 -0.38498855595E+02  0.38498855595E+02  0.00000000000E+00 0.  1.
         23    2    1    2    0    0 -0.12127205275E+02  0.45102725924E+02  0.11748502968E+03  0.17784724583E+03  0.12508231553E+03 0.  0.
          5    1    3    3  502    0  0.45760104317E+02  0.58023736554E+02  0.67402249168E+02  0.10010632719E+03  0.41800000000E+01 0.  1.
         -5    1    3    3    0  502 -0.57887309592E+02 -0.12921010630E+02  0.50082780508E+02  0.77740918640E+02  0.41800000000E+01 0.  1.
        -11    1    1    2    0    0 -0.26868305148E+02  0.15349526736E+02  0.87201803396E+02  0.92529283516E+02  0.00000000000E+00 0.  1.
         11    1    1    2    0    0  0.38995510423E+02 -0.60452252660E+02  0.22317150808E+03  0.23447952300E+03  0.00000000000E+00 0. -1.
</event>
<event>
 7    1  0.4966153E-006  0.1000880E+03  0.7561462E-02  0.1280111E+00
          1   -1    0    0  501    0  0.00000000000E+00  0.00000000000E+00  0.30096916063E+03  0.30096916063E+03  0.00000000000E+00 0. -1.
         -1   -1    0    0    0  501 -0.00000000000E+00 -0.00000000000E+00 -0.50990712873E+02  0.50990712873E+02  0.00000000000E+00 0.  1.
         23    2    1    2    0    0  0.15841616603E+02 -0.19602599378E+02  0.63562035375E+02  0.14255663311E+03  0.12508813926E+03 0.  0.
          5    1    3    3  502    0 -0.57589652960E+01 -0.66480257010E+02  0.92204798220E+01  0.67492813703E+02  0.41800000000E+01 0. -1.
         -5    1    3    3    0  502  0.21600581899E+02  0.46877657632E+02  0.54341555553E+02  0.75063819403E+02  0.41800000000E+01 0. -1.
        -11    1    1    2    0    0 -0.34020341112E+02  0.41116553825E+02  0.61843269503E+02  0.81685644948E+02  0.00000000000E+00 0.  1.
         11    1    1    2    0    0  0.18178724509E+02 -0.21513954447E+02  0.12457314288E+03  0.12771759545E+03  0.00000000000E+00 0. -1.
</event>
<event>
 7    1  0.4966153E-006  0.1431599E+03  0.7561462E-02  0.1209139E+00
         -1   -1    0    0    0  501 -0.00000000000E+00  0.00000000000E+00  0.27103735316E+02  0.27103735316E+02  0.00000000000E+00 0.  1.
          1   -1    0    0  501    0  0.00000000000E+00 -0.00000000000E+00 -0.10676692805E+04  0.10676692805E+04  0.00000000000E+00 0. -1.
         23    2    1    2    0    0 -0.10549492380E+03 -0.57235380441E+02 -0.38954042674E+03  0.42637498656E+03  0.12509523326E+03 0.  0.
          5    1    3    3  502    0  0.96926105066E+01 -0.28237871368E+02 -0.20273536140E+03  0.20496444385E+03  0.41800000000E+01 0.  1.
         -5    1    3    3    0  502 -0.11518753431E+03 -0.28997509073E+02 -0.18680506533E+03  0.22141054272E+03  0.41800000000E+01 0.  1.
        -11    1    1    2    0    0  0.92153470040E+02  0.15430502642E+02 -0.55514299099E+03  0.56295124380E+03  0.00000000000E+00 0. -1.
         11    1    1    2    0    0  0.13341453764E+02  0.41804877798E+02 -0.95882127478E+02  0.10544678547E+03  0.00000000000E+00 0.  1.
</event>
<event>
 7    1  0.4966153E-006  0.1584655E+03  0.7561462E-02  0.1190440E+00
          2   -1    0    0  501    0  0.00000000000E+00  0.00000000000E+00  0.10709556307E+04  0.10709556307E+04  0.00000000000E+00 0. -1.
         -2   -1    0    0    0  501 -0.00000000000E+00 -0.00000000000E+00 -0.24582010605E+02  0.24582010605E+02  0.00000000000E+00 0.  1.
         23    2    1    2    0    0  0.65276290745E+02 -0.94645121490E+02  0.44388508582E+03  0.47528996751E+03  0.12509152908E+03 0.  0.
          5    1    3    3  502    0  0.10290942330E+03 -0.67466457066E+02  0.33124309449E+03  0.35338581222E+03  0.41800000000E+01 0. -1.
         -5    1    3    3    0  502 -0.37633132555E+02 -0.27178664424E+02  0.11264199133E+03  0.12190415529E+03  0.41800000000E+01 0. -1.
        -11    1    1    2    0    0 -0.11240960486E+02  0.92436360279E+02  0.39495321904E+03  0.40578181961E+03  0.00000000000E+00 0. -1.
         11    1    1    2    0    0 -0.54035330259E+02  0.22087612112E+01  0.20753531523E+03  0.21446585418E+03  0.00000000000E+00 0.  1.
</event>
<event>
 7    1  0.4966153E-006  0.1135524E+03  0.7561462E-02  0.1254129E+00
         -1   -1    0    0    0  501 -0.00000000000E+00  0.00000000000E+00  0.26490545808E+02  0.26490545808E+02  0.00000000000E+00 0.  1.
          1   -1    0    0  501    0  0.00000000000E+00 -0.00000000000E+00 -0.53217075202E+03  0.53217075202E+03  0.00000000000E+00 0. -1.
         23    2    1    2    0    0 -0.24740545037E+02 -0.38935378547E+02 -0.25302092227E+03  0.28599747713E+03  0.12508761549E+03 0.  0.
          5    1    3    3  502    0 -0.28205992435E+02  0.38072435911E+02 -0.14934209306E+03  0.15673423858E+03  0.41800000000E+01 0.  1.
         -5    1    3    3    0  502  0.34654473976E+01 -0.77007814457E+02 -0.10367882921E+03  0.12926323854E+03  0.41800000000E+01 0.  1.
        -11    1    1    2    0    0  0.32343235303E+01 -0.29976085104E+02 -0.81835802511E+02  0.87213101651E+02  0.00000000000E+00 0. -1.
         11    1    1    2    0    0  0.21506221507E+02  0.68911463651E+02 -0.17082348143E+03  0.18545071904E+03  0.00000000000E+00 0.  1.
</event>
<event>
 7    1  0.4966153E-006  0.1686372E+03  0.7561462E-02  0.1179277E+00
          2   -1    0    0  501    0  0.00000000000E+00  0.00000000000E+00  0.13588557282E+03  0.13588557282E+03  0.00000000000E+00 0. -1.
         -2   -1    0    0    0  501 -0.00000000000E+00 -0.00000000000E+00 -0.32373104350E+03  0.32373104350E+03  0.00000000000E+00 0.  1.
         23    2    1    2    0    0  0.10758906518E+03  0.96624532539E+02 -0.21096272844E+03  0.28471799720E+03  0.12508939965E+03 0.  0.
          5    1    3    3  502    0  0.74703478914E+02  0.12617235063E+03 -0.16592356467E+03  0.22146822241E+03  0.41800000000E+01 0. -1.
         -5    1    3    3    0  502  0.32885586262E+02 -0.29547818090E+02 -0.45039163775E+02  0.63249774792E+02  0.41800000000E+01 0. -1.
        -11    1    1    2    0    0 -0.27175750230E+02 -0.37759479395E+02 -0.36180319559E+02  0.58934838663E+02  0.00000000000E+00 0.  1.
         11    1    1    2    0    0 -0.80413314945E+02 -0.58865053144E+02  0.59297577318E+02  0.11596378046E+03  0.00000000000E+00 0. -1.
</event>
<event>
 7    1  0.4966153E-006  0.1157762E+03  0.7561462E-02  0.1250232E+00
          1   -1    0    0  501    0  0.00000000000E+00  0.00000000000E+00  0.23556824440E+03  0.23556824440E+03  0.00000000000E+00 0. -1.
         -1   -1    0    0    0  501 -0.00000000000E+00 -0.00000000000E+00 -0.64936432843E+02  0.64936432843E+02  0.00000000000E+00 0.  1.
         23    2    1    2    0    0  0.57013779848E+02  0.29807633301E+02  0.66286828230E+02  0.14744623911E+03  0.11492338202E+03 0.  0.
          5    1    3    3  502    0  0.70281791082E+02  0.56898434544E+02  0.72965756654E+02  0.11626880947E+03  0.41800000000E+01 0. -1.
         -5    1    3    3    0  502 -0.13268011234E+02 -0.27090801243E+02 -0.66789284238E+01  0.31177429640E+02  0.41800000000E+01 0.  1.
        -11    1    1    2    0    0  0.24133890474E+02 -0.14006659949E+02  0.37504512433E+02  0.46746332960E+02  0.00000000000E+00 0. -1.
         11    1    1    2    0    0 -0.81147670321E+02 -0.15800973352E+02  0.66840470896E+02  0.10631210518E+03  0.00000000000E+00 0.  1.
</event>
<event>
 7    1  0.4966153E-006  0.1955156E+03  0.7561462E-02  0.1153579E+00
         -2   -1    0    0    0  501 -0.00000000000E+00  0.00000000000E+00  0.51167021097E+03  0.51167021097E+03  0.00000000000E+00 0.  1.
          2   -1    0    0  501    0  0.00000000000E+00 -0.00000000000E+00 -0.77292348881E+02  0.77292348881E+02  0.00000000000E+00 0. -1.
         23    2    1    2    0    0 -0.15618237499E+03  0.56553442540E+02  0.21436037469E+03  0.29864874497E+03  0.12509786775E+03 0.  0.
          5    1    3    3  502    0 -0.98340006743E+02 -0.30617401065E+02  0.10042178243E+03  0.14391035043E+03  0.41800000000E+01 0. -1.
         -5    1    3    3    0  502 -0.57842368247E+02  0.87170843605E+02  0.11393859226E+03  0.15473839455E+03  0.41800000000E+01 0. -1.
        -11    1    1    2    0    0  0.10048209822E+03  0.45306509357E+01  0.15661522992E+03  0.18613304140E+03  0.00000000000E+00 0.  1.
         11    1    1    2    0    0  0.55700276772E+02 -0.61084093475E+02  0.63402257479E+02  0.10418077347E+03  0.00000000000E+00 0. -1.
</event>
<event>
 7    1  0.4966153E-006  0.9241118E+02  0.7561462E-02  0.1297116E+00
          1   -1    0    0  501    0  0.00000000000E+00  0.00000000000E+00  0.17069642153E+03  0.17069642153E+03  0.00000000000E+00 0. -1.
         -1   -1    0    0    0  501 -0.00000000000E+00 -0.00000000000E+00 -0.11758087468E+03  0.11758087468E+03  0.00000000000E+00 0.  1.
         23    2    1    2    0    0 -0.41060281887E+02 -0.42737169272E+02 -0.41028077471E+02  0.14436993791E+03  0.12508782293E+03 0.  0.
          5    1    3    3  502    0 -0.43656488736E+02 -0.11839048140E+02 -0.81445756349E+02  0.93257362695E+02  0.41800000000E+01 0. -1.
         -5    1    3    3    0  502  0.25962068490E+01 -0.30898121132E+02  0.40417678878E+02  0.51112575218E+02  0.41800000000E+01 0. -1.
        -11    1    1    2    0    0  0.12741766533E+02 -0.28625230363E+02  0.19981106796E+02  0.37161822568E+02  0.00000000000E+00 0.  1.
         11    1    1    2    0    0  0.28318515354E+02  0.71362399635E+02  0.74162517525E+02  0.10674553573E+03  0.00000000000E+00 0. -1.
</event>
<event>
 7    1  0.4966153E-006  0.1376490E+03  0.7561462E-02  0.1216528E+00
         -2   -1    0    0    0  501 -0.00000000000E+00  0.00000000000E+00  0.91763808517E+02  0.91763808517E+02  0.00000000000E+00 0.  1.
          2   -1    0    0  501    0  0.00000000000E+00 -0.00000000000E+00 -0.20819261725E+03  0.20819261725E+03  0.00000000000E+00 0. -1.
         23    2    1    2    0    0  0.15057232792E+02 -0.82373923642E+02 -0.51503817864E+02  0.15909832712E+03  0.12508977129E+03 0.  0.
          5    1    3    3  502    0 -0.74336794537E+01  0.32367460595E+02 -0.13328156327E+02  0.36028103567E+02  0.41800000000E+01 0.  1.
         -5    1    3    3    0  502  0.22490912246E+02 -0.11474138424E+03 -0.38175661538E+02  0.12307022355E+03  0.41800000000E+01 0.  1.
        -11    1    1    2    0    0  0.18188993059E+02  0.89073644839E+02 -0.50574500775E+02  0.10403236901E+03  0.00000000000E+00 0. -1.
         11    1    1    2    0    0 -0.33246225852E+02 -0.66997211968E+01 -0.14350490091E+02  0.36825729638E+02  0.00000000000E+00 0.  1.
</event>
<event>
 7    1  0.4966153E-006  0.1342981E+03  0.7561462E-02  0.1221214E+00
         -1   -1    0    0    0  501 -0.00000000000E+00  0.00000000000E+00  0.24105168025E+03  0.24105168025E+03  0.00000000000E+00 0.  1.
          1   -1    0    0  501    0  0.00000000000E+00 -0.00000000000E+00 -0.90076525558E+02  0.90076525558E+02  0.00000000000E+00 0. -1.
         23    2    1    2    0    0  0.50079946990E+02 -0.73199088526E+02  0.13379674151E+03  0.20351303643E+03  0.12509948164E+03 0.  0.
          5    1    3    3  502    0  0.10484613617E+02  0.30200193345E+02  0.66430563100E+02  0.73840848550E+02  0.41800000000E+01 0. -1.
         -5    1    3    3    0  502  0.39595333372E+02 -0.10339928187E+03  0.67366178408E+02  0.12967218788E+03  0.41800000000E+01 0. -1.
        -11    1    1    2    0    0 -0.27897608814E+02 -0.16999752436E+02 -0.21475005795E+01  0.32739577260E+02  0.00000000000E+00 0. -1.
         11    1    1    2    0    0 -0.22182338176E+02  0.90198840961E+02  0.19325913767E+02  0.94875592123E+02  0.00000000000E+00 0.  1.
</event>
<event>
 7    1  0.4966153E-006  0.2232328E+03  0.7561462E-02  0.1131496E+00
         -1   -1    0    0    0  501 -0.00000000000E+00  0.00000000000E+00  0.43714178757E+03  0.43714178757E+03  0.00000000000E+00 0.  1.
          1   -1    0    0  501    0  0.00000000000E+00 -0.00000000000E+00 -0.13251232297E+03  0.13251232297E+03  0.00000000000E+00 0. -1.
         23    2    1    2    0    0  0.15561612952E+03 -0.13566410431E+03  0.22628778390E+03  0.33087039962E+03  0.12509169133E+03 0.  0.
          5    1    3    3  502    0  0.56115795841E+02 -0.12831079502E+03  0.14958436413E+03  0.20495267027E+03  0.41800000000E+01 0.  1.
         -5    1    3    3    0  502  0.99500333682E+02 -0.73533092963E+01  0.76703419770E+02  0.12591772935E+03  0.41800000000E+01 0.  1.
        -11    1    1    2    0    0 -0.35057358778E+02  0.28074811447E+02  0.61739217034E+02  0.76347523616E+02  0.00000000000E+00 0.  1.
         11    1    1    2    0    0 -0.12055877074E+03  0.10758929287E+03  0.16602463671E+02  0.16243618730E+03  0.00000000000E+00 0. -1.
</event>
<event>
 7    1  0.4966153E-006  0.2912769E+03  0.7561462E-02  0.1089684E+00
         -2   -1    0    0    0  501 -0.00000000000E+00  0.00000000000E+00  0.61674521159E+02  0.61674521159E+02  0.00000000000E+00 0. -1.
          2   -1    0    0  501    0  0.00000000000E+00 -0.00000000000E+00 -0.16152382211E+04  0.16152382211E+04  0.00000000000E+00 0.  1.
         23    2    1    2    0    0  0.17897710876E+03  0.20703963922E+03 -0.48546140693E+03  0.57115459271E+03  0.12508626416E+03 0.  0.
          5    1    3    3  502    0  0.12886979089E+03  0.54022007532E+02 -0.22080158549E+03  0.26133620655E+03  0.41800000000E+01 0. -1.
         -5    1    3    3    0  502  0.50107317873E+02  0.15301763169E+03 -0.26465982145E+03  0.30981838616E+03  0.41800000000E+01 0. -1.
        -11    1    1    2    0    0 -0.50502408116E+02 -0.10883035661E+03 -0.36158088372E+03  0.38096623895E+03  0.00000000000E+00 0. -1.
         11    1    1    2    0    0 -0.12847470065E+03 -0.98209282609E+02 -0.70652140933E+03  0.72479191065E+03  0.00000000000E+00 0.  1.
</event>
<event>
 7    1  0.4966153E-006  0.1775516E+03  0.7561462E-02  0.1170194E+00
         -1   -1    0    0    0  501 -0.00000000000E+00  0.00000000000E+00  0.18710457211E+03  0.18710457211E+03  0.00000000000E+00 0.  1.
          1   -1    0    0  501    0  0.00000000000E+00 -0.00000000000E+00 -0.25986741188E+03  0.25986741188E+03  0.00000000000E+00 0. -1.
         23    2    1    2    0    0 -0.12565152101E+03 -0.65875604987E+02  0.94676112970E+02  0.20941860369E+03  0.12151002075E+03 0.  0.
          5    1    3    3  502    0 -0.14524024833E+03 -0.34438338633E+02  0.79520314271E+02  0.16917943635E+03  0.41800000000E+01 0. -1.
         -5    1    3    3    0  502  0.19588727324E+02 -0.31437266354E+02  0.15155798699E+02  0.40239167340E+02  0.41800000000E+01 0.  1.
        -11    1    1    2    0    0  0.10444526971E+03  0.55898168617E+01 -0.10274246442E+03  0.14661539623E+03  0.00000000000E+00 0.  1.
         11    1    1    2    0    0  0.21206251296E+02  0.60285788125E+02 -0.64696488328E+02  0.90937984065E+02  0.00000000000E+00 0. -1.
</event>
<event>
 7    1  0.4966153E-006  0.7531524E+02  0.7561462E-02  0.1342898E+00
         -2   -1    0    0    0  501 -0.00000000000E+00  0.00000000000E+00  0.11283479067E+03  0.11283479067E+03  0.00000000000E+00 0. -1.
          2   -1    0    0  501    0  0.00000000000E+00 -0.00000000000E+00 -0.13304345091E+03  0.13304345091E+03  0.00000000000E+00 0.  1.
         23    2    1    2    0    0 -0.38938482009E+02  0.15128962844E+02  0.26007185426E+02  0.13442084165E+03  0.12508995995E+03 0.  0.
          5    1    3    3  502    0  0.38489532895E+01 -0.10886714839E+02  0.67898211994E+02  0.68999815894E+02  0.41800000000E+01 0.  1.
         -5    1    3    3    0  502 -0.42787435299E+02  0.26015677683E+02 -0.41891026567E+02  0.65421025761E+02  0.41800000000E+01 0.  1.
        -11    1    1    2    0    0  0.32935236322E+02 -0.46042286584E+02 -0.54830056746E+02  0.78809625480E+02  0.00000000000E+00 0.  1.
         11    1    1    2    0    0  0.60032456870E+01  0.30913323740E+02  0.86142110757E+01  0.32647774440E+02  0.00000000000E+00 0. -1.
</event>
<event>
 7    1  0.4966153E-006  0.7856817E+02  0.7561462E-02  0.1333165E+00
         -1   -1    0    0    0  501 -0.00000000000E+00  0.00000000000E+00  0.11560550458E+03  0.11560550458E+03  0.00000000000E+00 0.  1.
          1   -1    0    0  501    0  0.00000000000E+00 -0.00000000000E+00 -0.11668173284E+03  0.11668173284E+03  0.00000000000E+00 0. -1.
         23    2    1    2    0    0  0.35251201534E+01  0.25143698295E+02  0.33675749550E+02  0.13200839894E+03  0.12509008453E+03 0.  0.
          5    1    3    3  502    0 -0.34658836200E+02  0.29899228530E+02  0.66785283782E+02  0.81073703031E+02  0.41800000000E+01 0. -1.
         -5    1    3    3    0  502  0.38183956353E+02 -0.47555302349E+01 -0.33109534232E+02  0.50934695912E+02  0.41800000000E+01 0. -1.
        -11    1    1    2    0    0  0.20706101319E+02 -0.39287590293E+02  0.11777034405E+02  0.45945140355E+02  0.00000000000E+00 0.  1.
         11    1    1    2    0    0 -0.24231221472E+02  0.14143891998E+02 -0.46529012206E+02  0.54333698123E+02  0.00000000000E+00 0. -1.
</event>
<event>
 7    1  0.4966153E-006  0.1732619E+03  0.7561462E-02  0.1174488E+00
          2   -1    0    0  501    0  0.00000000000E+00  0.00000000000E+00  0.66994191511E+03  0.66994191511E+03  0.00000000000E+00 0. -1.
         -2   -1    0    0    0  501 -0.00000000000E+00 -0.00000000000E+00 -0.62132891259E+02  0.62132891259E+02  0.00000000000E+00 0.  1.
         23    2    1    2    0    0 -0.13607698710E+03  0.61699803704E+02  0.16068810712E+03  0.25257112018E+03  0.12509073021E+03 0.  0.
          5    1    3    3  502    0  0.22403759372E+02  0.20850975400E+02  0.30417488395E+02  0.43351904334E+02  0.41800000000E+01 0. -1.
         -5    1    3    3    0  502 -0.15848074648E+03  0.40848828304E+02  0.13027061872E+03  0.20921921585E+03  0.41800000000E+01 0. -1.
        -11    1    1    2    0    0  0.56540018980E+02 -0.11004255380E+02  0.69426081257E+02  0.90210022401E+02  0.00000000000E+00 0.  1.
         11    1    1    2    0    0  0.79536968125E+02 -0.50695548323E+02  0.37769483548E+03  0.38929366379E+03  0.00000000000E+00 0. -1.
</event>
<event>
 7    1  0.4966153E-006  0.1081309E+03  0.7561462E-02  0.1264071E+00
          4   -1    0    0  501    0  0.00000000000E+00  0.00000000000E+00  0.24170815506E+03  0.24170815506E+03  0.00000000000E+00 0. -1.
         -4   -1    0    0    0  501 -0.00000000000E+00 -0.00000000000E+00 -0.52679551531E+02  0.52679551531E+02  0.00000000000E+00 0.  1.
         23    2    1    2    0    0  0.36912190139E+02 -0.18052515584E+02  0.81455103789E+02  0.15485620069E+03  0.12512835753E+03 0.  0.
          5    1    3    3  502    0 -0.43399488990E+02  0.93585422523E+01  0.41695493171E+02  0.61049852649E+02  0.41800000000E+01 0.  1.
         -5    1    3    3    0  502  0.80311679128E+02 -0.27411057837E+02  0.39759610618E+02  0.93806348040E+02  0.41800000000E+01 0.  1.
        -11    1    1    2    0    0  0.74840092391E+01 -0.24251966297E+02  0.18577860998E+02  0.31453222138E+02  0.00000000000E+00 0.  1.
         11    1    1    2    0    0 -0.44396199378E+02  0.42304481882E+02  0.88995638741E+02  0.10807828376E+03  0.00000000000E+00 0. -1.
</event>
<event>
 7    1  0.4966153E-006  0.1218677E+03  0.7561462E-02  0.1240047E+00
         -1   -1    0    0    0  501 -0.00000000000E+00  0.00000000000E+00  0.66406092633E+03  0.66406092633E+03  0.00000000000E+00 0.  1.
          1   -1    0    0  501    0  0.00000000000E+00 -0.00000000000E+00 -0.25055081343E+02  0.25055081343E+02  0.00000000000E+00 0. -1.
         23    2    1    2    0    0 -0.25103574146E+02  0.65887854004E+02  0.34606563527E+03  0.37467374369E+03  0.12509033359E+03 0.  0.
          5    1    3    3  502    0 -0.31494825869E+02 -0.24277124118E+02  0.19097160659E+03  0.19511260783E+03  0.41800000000E+01 0. -1.
         -5    1    3    3    0  502  0.63912517231E+01  0.90164978122E+02  0.15509402868E+03  0.17956113586E+03  0.41800000000E+01 0. -1.
        -11    1    1    2    0    0 -0.32789981457E+02 -0.14501535587E+02  0.74185079679E+02  0.82394802417E+02  0.00000000000E+00 0.  1.
         11    1    1    2    0    0  0.57893555603E+02 -0.51386318416E+02  0.21875513004E+03  0.23204746156E+03  0.00000000000E+00 0. -1.
</event>
<event>
 7    1  0.4966153E-006  0.1081112E+03  0.7561462E-02  0.1264108E+00
         -4   -1    0    0    0  501 -0.00000000000E+00  0.00000000000E+00  0.10621601630E+03  0.10621601630E+03  0.00000000000E+00 0. -1.
          4   -1    0    0  501    0  0.00000000000E+00 -0.00000000000E+00 -0.12381294248E+03  0.12381294248E+03  0.00000000000E+00 0.  1.
         23    2    1    2    0    0 -0.13552220931E+02 -0.23389634151E+02  0.22741541979E+02  0.12998215092E+03  0.12508974438E+03 0.  0.
          5    1    3    3  502    0  0.49899205234E+02 -0.33851154135E+02 -0.31666182434E+01  0.60525459026E+02  0.41800000000E+01 0. -1.
         -5    1    3    3    0  502 -0.63451426165E+02  0.10461519985E+02  0.25908160223E+02  0.69456691894E+02  0.41800000000E+01 0. -1.
        -11    1    1    2    0    0  0.69380921454E+01 -0.33425078295E+02 -0.11760555279E+02  0.36106559545E+02  0.00000000000E+00 0.  1.
         11    1    1    2    0    0  0.66141287860E+01  0.56814712446E+02 -0.28577912881E+02  0.63940248315E+02  0.00000000000E+00 0. -1.
</event>
<event>
 7    1  0.4966153E-006  0.1167530E+03  0.7561462E-02  0.1248552E+00
          1   -1    0    0  501    0  0.00000000000E+00  0.00000000000E+00  0.56119322647E+02  0.56119322647E+02  0.00000000000E+00 0. -1.
         -1   -1    0    0    0  501 -0.00000000000E+00 -0.00000000000E+00 -0.38137165290E+03  0.38137165290E+03  0.00000000000E+00 0.  1.
         23    2    1    2    0    0 -0.71723133888E+02  0.64335299855E+02 -0.20814192943E+03  0.26125457024E+03  0.12509056295E+03 0.  0.
          5    1    3    3  502    0 -0.22009176421E+02  0.52327815184E+02 -0.11557312632E+02  0.58083112554E+02  0.41800000000E+01 0. -1.
         -5    1    3    3    0  502 -0.49713957467E+02  0.12007484671E+02 -0.19658461680E+03  0.20317145768E+03  0.41800000000E+01 0. -1.
        -11    1    1    2    0    0  0.42561907416E+02  0.11444063190E+02 -0.68946064473E+02  0.81829348962E+02  0.00000000000E+00 0.  1.
         11    1    1    2    0    0  0.29161226472E+02 -0.75779363045E+02 -0.48164336355E+02  0.94407056353E+02  0.00000000000E+00 0. -1.
</event>
<event>
 7    1  0.4966153E-006  0.7346034E+02  0.7561462E-02  0.1348706E+00
          2   -1    0    0  501    0  0.00000000000E+00  0.00000000000E+00  0.55502616786E+02  0.55502616786E+02  0.00000000000E+00 0. -1.
         -2   -1    0    0    0  501 -0.00000000000E+00 -0.00000000000E+00 -0.24340567290E+03  0.24340567290E+03  0.00000000000E+00 0.  1.
         23    2    1    2    0    0 -0.19128938280E+02  0.10582306353E+02 -0.15359660917E+03  0.19929095102E+03  0.12508822215E+03 0.  0.
          5    1    3    3  502    0 -0.19679762831E+01 -0.19391332135E+02  0.16373658070E+02  0.25796623253E+02  0.41800000000E+01 0.  1.
         -5    1    3    3    0  502 -0.17160961997E+02  0.29973638488E+02 -0.16997026724E+03  0.17349432777E+03  0.41800000000E+01 0.  1.
        -11    1    1    2    0    0  0.54587317943E+02  0.18569468661E+01 -0.12011233744E+02  0.55923995458E+02  0.00000000000E+00 0. -1.
         11    1    1    2    0    0 -0.35458379663E+02 -0.12439253219E+02 -0.22295213195E+02  0.43693343205E+02  0.00000000000E+00 0.  1.
</event>
<event>
 7    1  0.4966153E-006  0.1220879E+03  0.7561462E-02  0.1239692E+00
          3   -1    0    0  501    0  0.00000000000E+00  0.00000000000E+00  0.26254376060E+03  0.26254376060E+03  0.00000000000E+00 0. -1.
         -3   -1    0    0    0  501 -0.00000000000E+00 -0.00000000000E+00 -0.70148951131E+02  0.70148951131E+02  0.00000000000E+00 0.  1.
         23    2    1    2    0    0  0.86376464578E+01  0.81305726964E+02  0.11131939584E+03  0.18634576828E+03  0.12508999676E+03 0.  0.
          5    1    3    3  502    0 -0.40148478678E+02 -0.81019574544E+01  0.58503874729E+02  0.71538226236E+02  0.41800000000E+01 0. -1.
         -5    1    3    3    0  502  0.48786125136E+02  0.89407684419E+02  0.52815521111E+02  0.11480754204E+03  0.41800000000E+01 0. -1.
        -11    1    1    2    0    0 -0.34329737844E+02 -0.45516048928E+02  0.34803500862E+01  0.57117024145E+02  0.00000000000E+00 0.  1.
         11    1    1    2    0    0  0.25692091386E+02 -0.35789678036E+02  0.77595063539E+02  0.89229919306E+02  0.00000000000E+00 0. -1.
</event>
<event>
 7    1  0.4966153E-006  0.9582829E+02  0.7561462E-02  0.1289321E+00
         -2   -1    0    0    0  501 -0.00000000000E+00  0.00000000000E+00  0.32591462915E+03  0.32591462915E+03  0.00000000000E+00 0. -1.
          2   -1    0    0  501    0  0.00000000000E+00 -0.00000000000E+00 -0.42425639112E+02  0.42425639112E+02  0.00000000000E+00 0.  1.
         23    2    1    2    0    0 -0.53194218496E+01  0.18133345509E+02  0.22915892971E+03  0.26176068982E+03  0.12509088377E+03 0.  0.
          5    1    3    3  502    0 -0.13091682561E+02 -0.41941052100E+02  0.17472808132E+03  0.18021603371E+03  0.41800000000E+01 0.  1.
         -5    1    3    3    0  502  0.77722607114E+01  0.60074397610E+02  0.54430848388E+02  0.81544656116E+02  0.41800000000E+01 0.  1.
        -11    1    1    2    0    0 -0.96739935651E+01  0.32545053398E+02  0.38666575544E+02  0.51457465119E+02  0.00000000000E+00 0. -1.
         11    1    1    2    0    0  0.14993415415E+02 -0.50678398907E+02  0.15663484788E+02  0.55122113324E+02  0.00000000000E+00 0.  1.
</event>
<event>
 7    1  0.4966153E-006  0.2403435E+03  0.7561462E-02  0.1119564E+00
         -1   -1    0    0    0  501 -0.00000000000E+00  0.00000000000E+00  0.22528365179E+02  0.22528365179E+02  0.00000000000E+00 0.  1.
          1   -1    0    0  501    0  0.00000000000E+00 -0.00000000000E+00 -0.32365445695E+04  0.32365445695E+04  0.00000000000E+00 0. -1.
         23    2    1    2    0    0 -0.13754657453E+03 -0.17203433287E+03 -0.23218737747E+04  0.23356499641E+04  0.12509219430E+03 0.  0.
          5    1    3    3  502    0 -0.14849561021E+03 -0.10318190141E+03 -0.18142855456E+04  0.18232791790E+04  0.41800000000E+01 0.  1.
         -5    1    3    3    0  502  0.10949035673E+02 -0.68852431460E+02 -0.50758822910E+03  0.51237078509E+03  0.41800000000E+01 0.  1.
        -11    1    1    2    0    0  0.10575477198E+03  0.80011910632E+02 -0.62948676231E+03  0.64330363092E+03  0.00000000000E+00 0.  1.
         11    1    1    2    0    0  0.31791802557E+02  0.92022422241E+02 -0.26265566731E+03  0.28011933970E+03  0.00000000000E+00 0. -1.
</event>
<event>
 7    1  0.4966153E-006  0.7934764E+02  0.7561462E-02  0.1330913E+00
          1   -1    0    0  501    0  0.00000000000E+00  0.00000000000E+00  0.12724276471E+03  0.12724276471E+03  0.00000000000E+00 0. -1.
         -1   -1    0    0    0  501 -0.00000000000E+00 -0.00000000000E+00 -0.11438095947E+03  0.11438095947E+03  0.00000000000E+00 0.  1.
         23    2    1    2    0    0  0.11181353594E+02  0.10119251204E+02 -0.43669476866E+02  0.13335095309E+03  0.12509209235E+03 0.  0.
          5    1    3    3  502    0  0.32496888358E+02  0.56287960190E+02  0.15870373338E+01  0.65148854962E+02  0.41800000000E+01 0. -1.
         -5    1    3    3    0  502 -0.21315534764E+02 -0.46168708986E+02 -0.45256514199E+02  0.68202098129E+02  0.41800000000E+01 0. -1.
        -11    1    1    2    0    0 -0.24508877892E+02 -0.14544367528E+02  0.77760843601E+02  0.82818914022E+02  0.00000000000E+00 0. -1.
         11    1    1    2    0    0  0.13327524298E+02  0.44251163242E+01 -0.21229561490E+02  0.25453857065E+02  0.00000000000E+00 0.  1.
</event>
<event>
 7    1  0.4966153E-006  0.1237803E+03  0.7561462E-02  0.1236988E+00
          2   -1    0    0  501    0  0.00000000000E+00  0.00000000000E+00  0.36478537482E+03  0.36478537482E+03  0.00000000000E+00 0. -1.
         -2   -1    0    0    0  501 -0.00000000000E+00 -0.00000000000E+00 -0.43592628473E+02  0.43592628473E+02  0.00000000000E+00 0.  1.
         23    2    1    2    0    0  0.19978620498E+02 -0.59054465580E+02  0.15836165826E+03  0.21121535377E+03  0.12508771194E+03 0.  0.
          5    1    3    3  502    0 -0.17353429057E+02 -0.88873129728E+02  0.90275003059E+02  0.12793210412E+03  0.41800000000E+01 0. -1.
         -5    1    3    3    0  502  0.37332049555E+02  0.29818664148E+02  0.68086655198E+02  0.83283249646E+02  0.41800000000E+01 0. -1.
        -11    1    1    2    0    0  0.36458655089E+00  0.79855252211E+02  0.10040525719E+03  0.12828955492E+03  0.00000000000E+00 0.  1.
         11    1    1    2    0    0 -0.20343207049E+02 -0.20800786632E+02  0.62425830897E+02  0.68873094607E+02  0.00000000000E+00 0. -1.
</event>
<event>
 6    1  0.4966153E-006  0.2344659E+03  0.7561462E-02  0.1123535E+00
         -1   -1    0    0    0  501 -0.00000000000E+00  0.00000000000E+00  0.19109557647E+03  0.19109557647E+03  0.00000000000E+00 0.  1.
          1   -1    0    0  501    0  0.00000000000E+00 -0.00000000000E+00 -0.36665590891E+03  0.36665590891E+03  0.00000000000E+00 0. -1.
          5    1    1    2  502    0  0.10206946120E+03  0.19035629963E+03 -0.78718973919E+01  0.21617847924E+03  0.41800000000E+01 0. -1.
         -5    1    1    2    0  502 -0.22903261702E+02 -0.10197222983E+03  0.14460432765E+02  0.10559105819E+03  0.41800000000E+01 0.  1.
        -11    1    1    2    0    0 -0.56148007281E+02  0.84090321081E+00 -0.86824424063E+02  0.10340109503E+03  0.00000000000E+00 0. -1.
         11    1    1    2    0    0 -0.23018192217E+02 -0.89224973015E+02 -0.95324443752E+02  0.13258085291E+03  0.00000000000E+00 0.  1.
</event>
<event>
 7    1  0.4966153E-006  0.2088507E+03  0.7561462E-02  0.1142479E+00
         -2   -1    0    0    0  501 -0.00000000000E+00  0.00000000000E+00  0.17937960905E+03  0.17937960905E+03  0.00000000000E+00 0.  1.
          2   -1    0    0  501    0  0.00000000000E+00 -0.00000000000E+00 -0.69367436386E+03  0.69367436386E+03  0.00000000000E+00 0. -1.
         23    2    1    2    0    0 -0.11807451308E+03  0.14505959889E+03  0.83974362191E+02  0.24017573221E+03  0.12509520760E+03 0.  0.
          5    1    3    3  502    0 -0.11253836237E+03  0.40212216770E+02  0.37908637571E+02  0.12544497832E+03  0.41800000000E+01 0.  1.
         -5    1    3    3    0  502 -0.55361507078E+01  0.10484738213E+03  0.46065724620E+02  0.11473075389E+03  0.41800000000E+01 0.  1.
        -11    1    1    2    0    0  0.68044070521E+02 -0.11787786855E+03 -0.50991250092E+03  0.52776504812E+03  0.00000000000E+00 0. -1.
         11    1    1    2    0    0  0.50030442558E+02 -0.27181730347E+02 -0.88356616082E+02  0.10511319257E+03  0.00000000000E+00 0.  1.
</event>
<event>
 7    1  0.4966153E-006  0.6848703E+02  0.7561462E-02  0.1365315E+00
         -1   -1    0    0    0  501 -0.00000000000E+00  0.00000000000E+00  0.39582120383E+03  0.39582120383E+03  0.00000000000E+00 0.  1.
          1   -1    0    0  501    0  0.00000000000E+00 -0.00000000000E+00 -0.46890858149E+02  0.46890858149E+02  0.00000000000E+00 0. -1.
         23    2    1    2    0    0 -0.22427580107E+02 -0.19844950376E+02  0.25367517990E+03  0.28442101155E+03  0.12508955394E+03 0.  0.
          5    1    3    3  502    0 -0.22864323349E+02 -0.96152006344E+01 -0.48857501086E+01  0.25623667177E+02  0.41800000000E+01 0.  1.
         -5    1    3    3    0  502  0.43674324247E+00 -0.10229749741E+02  0.25856093001E+03  0.25879734437E+03  0.41800000000E+01 0.  1.
        -11    1    1    2    0    0 -0.36267708413E+02  0.21277066090E+02  0.90006691653E+02  0.99344173242E+02  0.00000000000E+00 0.  1.
         11    1    1    2    0    0  0.58695288519E+02 -0.14321157141E+01  0.52484741253E+01  0.58946877190E+02  0.00000000000E+00 0. -1.
</event>
<event>
 7    1  0.4966153E-006  0.1353928E+03  0.7561462E-02  0.1219666E+00
         -1   -1    0    0    0  501 -0.00000000000E+00  0.00000000000E+00  0.43449467751E+02  0.43449467751E+02  0.00000000000E+00 0.  1.
          1   -1    0    0  501    0  0.00000000000E+00 -0.00000000000E+00 -0.59822063755E+03  0.59822063755E+03  0.00000000000E+00 0. -1.
         23    2    1    2    0    0 -0.85407440731E+02  0.22643921799E+02 -0.13859060871E+03  0.20654728745E+03  0.12508895636E+03 0.  0.
          5    1    3    3  502    0 -0.35130648376E+01  0.61838157772E+02 -0.51317058214E+02  0.80543232149E+02  0.41800000000E+01 0. -1.
         -5    1    3    3    0  502 -0.81894375894E+02 -0.39194235973E+02 -0.87273550497E+02  0.12600405530E+03  0.41800000000E+01 0. -1.
        -11    1    1    2    0    0  0.99142482542E+02 -0.28089902525E+02 -0.40063991164E+03  0.41367936046E+03  0.00000000000E+00 0.  1.
         11    1    1    2    0    0 -0.13735041811E+02  0.54459807258E+01 -0.15540649440E+02  0.21443457385E+02  0.00000000000E+00 0. -1.
</event>
<event>
 7    1  0.4966153E-006  0.2280616E+03  0.7561462E-02  0.1128012E+00
          2   -1    0    0  501    0  0.00000000000E+00  0.00000000000E+00  0.20371346334E+03  0.20371346334E+03  0.00000000000E+00 0.  1.
         -2   -1    0    0    0  501 -0.00000000000E+00 -0.00000000000E+00 -0.34997054322E+03  0.34997054322E+03  0.00000000000E+00 0. -1.
         23    2    1    2    0    0 -0.15787372446E+03  0.15120269646E+03 -0.18645804908E+03  0.31336970187E+03  0.12509035811E+03 0.  0.
          5    1    3    3  502    0 -0.67736281249E+02  0.74922572654E+02 -0.16466708274E+03  0.19322090008E+03  0.41800000000E+01 0. -1.
         -5    1    3    3    0  502 -0.90137443207E+02  0.76280123811E+02 -0.21790966335E+02  0.12014880178E+03  0.41800000000E+01 0. -1.
        -11    1    1    2    0    0  0.14253698540E+03 -0.78800954275E+02  0.29935513246E+02  0.16559745637E+03  0.00000000000E+00 0. -1.
         11    1    1    2    0    0  0.15336739052E+02 -0.72401742189E+02  0.10265455953E+02  0.74716848319E+02  0.00000000000E+00 0.  1.
</event>
<event>
 7    1  0.4966153E-006  0.1252109E+03  0.7561462E-02  0.1234740E+00
          1   -1    0    0  501    0  0.00000000000E+00  0.00000000000E+00  0.36986419631E+03  0.36986419631E+03  0.00000000000E+00 0. -1.
         -1   -1    0    0    0  501 -0.00000000000E+00 -0.00000000000E+00 -0.72780383560E+02  0.72780383560E+02  0.00000000000E+00 0.  1.
         23    2    1    2    0    0 -0.81978755856E+02 -0.52821159469E+02  0.58665629145E+02  0.16909196131E+03  0.12505936206E+03 0.  0.
          5    1    3    3  502    0 -0.69631831785E+02 -0.88414621592E+02  0.65926942437E+02  0.13049740016E+03  0.41800000000E+01 0. -1.
         -5    1    3    3    0  502 -0.12346924071E+02  0.35593462123E+02 -0.72613132926E+01  0.38594561153E+02  0.41800000000E+01 0. -1.
        -11    1    1    2    0    0  0.14527090364E+02  0.20436313871E+02  0.15205506694E+01  0.25119541266E+02  0.00000000000E+00 0. -1.
         11    1    1    2    0    0  0.67451665493E+02  0.32384845599E+02  0.23689763293E+03  0.24843307729E+03  0.00000000000E+00 0.  1.
</event>
<event>
 7    1  0.4966153E-006  0.9349187E+02  0.7561462E-02  0.1294609E+00
          2   -1    0    0  501    0  0.00000000000E+00  0.00000000000E+00  0.24365371546E+03  0.24365371546E+03  0.00000000000E+00 0. -1.
         -2   -1    0    0    0  501 -0.00000000000E+00 -0.00000000000E+00 -0.53206707298E+02  0.53206707298E+02  0.00000000000E+00 0.  1.
         23    2    1    2    0    0  0.78346585693E+01  0.10513573565E+02  0.60598758492E+02  0.13961157351E+03  0.12508902759E+03 0.  0.
          5    1    3    3  502    0  0.27114408927E+02 -0.38840689461E+02 -0.12560045261E+02  0.49183508072E+02  0.41800000000E+01 0.  1.
         -5    1    3    3    0  502 -0.19279750358E+02  0.49354263026E+02  0.73158803753E+02  0.90428065441E+02  0.41800000000E+01 0.  1.
        -11    1    1    2    0    0  0.16528946447E+02  0.32717862100E+02  0.37666951569E+02  0.52559145842E+02  0.00000000000E+00 0.  1.
         11    1    1    2    0    0 -0.24363605017E+02 -0.43231435665E+02  0.92181298098E+02  0.10468970340E+03  0.00000000000E+00 0. -1.
</event>
<event>
 7    1  0.4966153E-006  0.3263090E+03  0.7561462E-02  0.1072782E+00
          1   -1    0    0  501    0  0.00000000000E+00  0.00000000000E+00  0.97719842886E+03  0.97719842886E+03  0.00000000000E+00 0. -1.
         -1   -1    0    0    0  501 -0.00000000000E+00 -0.00000000000E+00 -0.12850897850E+03  0.12850897850E+03  0.00000000000E+00 0.  1.
         23    2    1    2    0    0  0.31358354454E+03  0.17272501515E+02  0.23887157215E+03  0.41393309606E+03  0.12509197145E+03 0.  0.
          5    1    3    3  502    0  0.16893958286E+03  0.67848335970E+02  0.10370013203E+03  0.20955946443E+03  0.41800000000E+01 0. -1.
         -5    1    3    3    0  502  0.14464396167E+03 -0.50575834455E+02  0.13517144012E+03  0.20437363163E+03  0.41800000000E+01 0. -1.
        -11    1    1    2    0    0 -0.26348913717E+03 -0.30945506665E+02  0.43606529361E+03  0.51042833982E+03  0.00000000000E+00 0. -1.
         11    1    1    2    0    0 -0.50094407363E+02  0.13673005150E+02  0.17375258460E+03  0.18134597148E+03  0.00000000000E+00 0.  1.
</event>
<event>
 7    1  0.4966153E-006  0.1373927E+03  0.7561462E-02  0.1216881E+00
          2   -1    0    0  501    0  0.00000000000E+00  0.00000000000E+00  0.92088613701E+02  0.92088613701E+02  0.00000000000E+00 0.  1.
         -2   -1    0    0    0  501 -0.00000000000E+00 -0.00000000000E+00 -0.31642812491E+03  0.31642812491E+03  0.00000000000E+00 0. -1.
         23    2    1    2    0    0  0.74081644382E+02  0.55785513014E+02 -0.23130601298E+03  0.27883752992E+03  0.12509109862E+03 0.  0.
          5    1    3    3  502    0  0.28406745112E+01  0.80085754328E+02 -0.12386172204E+03  0.14758386113E+03  0.41800000000E+01 0.  1.
         -5    1    3    3    0  502  0.71240969871E+02 -0.24300241315E+02 -0.10744429094E+03  0.13125366879E+03  0.41800000000E+01 0.  1.
        -11    1    1    2    0    0 -0.62477457350E+02 -0.74439803369E+02  0.26010985263E+02  0.10060461399E+03  0.00000000000E+00 0.  1.
         11    1    1    2    0    0 -0.11604187032E+02  0.18654290356E+02 -0.19044483486E+02  0.29074594694E+02  0.00000000000E+00 0. -1.
</event>
<event>
 7    1  0.4966153E-006  0.1478329E+03  0.7561462E-02  0.1203161E+00
         -1   -1    0    0    0  501 -0.00000000000E+00  0.00000000000E+00  0.20173299586E+03  0.20173299586E+03  0.00000000000E+00 0.  1.
          1   -1    0    0  501    0  0.00000000000E+00 -0.00000000000E+00 -0.11358973754E+03  0.11358973754E+03  0.00000000000E+00 0. -1.
         23    2    1    2    0    0 -0.95264442793E+02 -0.51148987311E+02  0.64930284655E+02  0.17764005098E+03  0.12509401618E+03 0.  0.
          5    1    3    3  502    0 -0.91651863488E+02 -0.85531226491E+02  0.68005879204E+02  0.14268120686E+03  0.41800000000E+01 0.  1.
         -5    1    3    3    0  502 -0.36125793049E+01  0.34382239180E+02 -0.30755945490E+01  0.34958844119E+02  0.41800000000E+01 0.  1.
        -11    1    1    2    0    0  0.59947417878E+02  0.72552223007E+02  0.20334674776E+02  0.96286120348E+02  0.00000000000E+00 0. -1.
         11    1    1    2    0    0  0.35317024915E+02 -0.21403235696E+02  0.28782988845E+01  0.41396562074E+02  0.00000000000E+00 0.  1.
</event>
<event>
 7    1  0.4966153E-006  0.9748304E+02  0.7561462E-02  0.1285680E+00
          1   -1    0    0  501    0  0.00000000000E+00  0.00000000000E+00  0.22698013258E+03  0.22698013258E+03  0.00000000000E+00 0. -1.
         -1   -1    0    0    0  501 -0.00000000000E+00 -0.00000000000E+00 -0.78098687997E+03  0.78098687997E+03  0.00000000000E+00 0.  1.
         23    2    1    2    0    0 -0.16858853976E+02  0.36263862842E+02 -0.76515205788E+03  0.77471089816E+03  0.11454263552E+03 0.  0.
          5    1    3    3  502    0  0.30301330986E+02  0.39832145084E+02 -0.15994771847E+03  0.16764699665E+03  0.41800000000E+01 0. -1.
         -5    1    3    3    0  502 -0.47160184962E+02 -0.35682822420E+01 -0.60520433940E+03  0.60706390151E+03  0.41800000000E+01 0.  1.
        -11    1    1    2    0    0 -0.22664386779E+02  0.18826251615E+02  0.44762004222E+02  0.53588610730E+02  0.00000000000E+00 0.  1.
         11    1    1    2    0    0  0.39523240755E+02 -0.55090114457E+02  0.16638330626E+03  0.17966750366E+03  0.00000000000E+00 0. -1.
</event>
<event>
 7    1  0.4966153E-006  0.1026622E+03  0.7561462E-02  0.1274795E+00
         -2   -1    0    0    0  501 -0.00000000000E+00  0.00000000000E+00  0.19037041985E+02  0.19037041985E+02  0.00000000000E+00 0.  1.
          2   -1    0    0  501    0  0.00000000000E+00 -0.00000000000E+00 -0.78829305206E+03  0.78829305206E+03  0.00000000000E+00 0. -1.
         23    2    1    2    0    0 -0.33056992452E+02 -0.45440797497E+02 -0.39785225199E+03  0.42082197511E+03  0.12508832679E+03 0.  0.
          5    1    3    3  502    0  0.32599508649E+02 -0.69570657145E+01 -0.29630559524E+02  0.44794767387E+02  0.41800000000E+01 0.  1.
         -5    1    3    3    0  502 -0.65656501102E+02 -0.38483731782E+02 -0.36822169246E+03  0.37602720772E+03  0.41800000000E+01 0.  1.
        -11    1    1    2    0    0  0.31332636637E+02 -0.15214723198E+02 -0.61134240677E+02  0.70360623247E+02  0.00000000000E+00 0.  1.
         11    1    1    2    0    0  0.17243558151E+01  0.60655520695E+02 -0.31026951741E+03  0.31614749568E+03  0.00000000000E+00 0. -1.
</event>
<event>
 7    1  0.4966153E-006  0.1022980E+03  0.7561462E-02  0.1275537E+00
          1   -1    0    0  501    0  0.00000000000E+00  0.00000000000E+00  0.37273761631E+02  0.37273761631E+02  0.00000000000E+00 0. -1.
         -1   -1    0    0    0  501 -0.00000000000E+00 -0.00000000000E+00 -0.37356212077E+03  0.37356212077E+03  0.00000000000E+00 0.  1.
         23    2    1    2    0    0  0.15622556521E+02  0.38770398163E+02 -0.22424649746E+03  0.26015768755E+03  0.12509325609E+03 0.  0.
          5    1    3    3  502    0  0.60315266342E+02  0.21831947816E+02 -0.56159545139E+02  0.85357672236E+02  0.41800000000E+01 0.  1.
         -5    1    3    3    0  502 -0.44692709821E+02  0.16938450348E+02 -0.16808695232E+03  0.17480001531E+03  0.41800000000E+01 0.  1.
        -11    1    1    2    0    0 -0.49338384719E+02 -0.29020756750E+02 -0.96706013048E+02  0.11237674799E+03  0.00000000000E+00 0.  1.
         11    1    1    2    0    0  0.33715828198E+02 -0.97496414131E+01 -0.15335848628E+02  0.38301446864E+02  0.00000000000E+00 0. -1.
</event>
<event>
 7    1  0.4966153E-006  0.1297408E+03  0.7561462E-02  0.1227841E+00
          2   -1    0    0  501    0  0.00000000000E+00  0.00000000000E+00  0.10968880226E+04  0.10968880226E+04  0.00000000000E+00 0. -1.
         -2   -1    0    0    0  501 -0.00000000000E+00 -0.00000000000E+00 -0.20543046867E+02  0.20543046867E+02  0.00000000000E+00 0.  1.
         23    2    1    2    0    0  0.10214699036E+03 -0.81581730023E+01  0.50424586388E+03  0.52953900045E+03  0.12508836207E+03 0.  0.
          5    1    3    3  502    0  0.27607638904E+02 -0.35069179981E+02  0.45111461298E+02  0.63596740882E+02  0.41800000000E+01 0. -1.
         -5    1    3    3    0  502  0.74539351458E+02  0.26911006979E+02  0.45913440259E+03  0.46594225957E+03  0.41800000000E+01 0. -1.
        -11    1    1    2    0    0  0.62243522776E+01  0.24875504366E+02  0.10202265138E+03  0.10519579209E+03  0.00000000000E+00 0.  1.
         11    1    1    2    0    0 -0.10837134264E+03 -0.16717331364E+02  0.47007646047E+03  0.48269627693E+03  0.00000000000E+00 0. -1.
</event>
<event>
 7    1  0.4966153E-006  0.1205537E+03  0.7561462E-02  0.1242186E+00
         -2   -1    0    0    0  501 -0.00000000000E+00  0.00000000000E+00  0.26263692935E+02  0.26263692935E+02  0.00000000000E+00 0.  1.
          2   -1    0    0  501    0  0.00000000000E+00 -0.00000000000E+00 -0.61557677218E+03  0.61557677218E+03  0.00000000000E+00 0. -1.
         23    2    1    2    0    0  0.57060865580E+02  0.33449986216E+02 -0.30136755449E+03  0.33293308269E+03  0.12508873127E+03 0.  0.
          5    1    3    3  502    0 -0.28791223555E+02 -0.15065529293E+02 -0.13992733682E+03  0.14371164433E+03  0.41800000000E+01 0. -1.
         -5    1    3    3    0  502  0.85852089135E+02  0.48515515509E+02 -0.16144021767E+03  0.18922143836E+03  0.41800000000E+01 0. -1.
        -11    1    1    2    0    0 -0.80634381599E+02 -0.22939066382E+02 -0.24329495964E+03  0.25733352220E+03  0.00000000000E+00 0. -1.
         11    1    1    2    0    0  0.23573516019E+02 -0.10510919834E+02 -0.44650565120E+02  0.51573860228E+02  0.00000000000E+00 0.  1.
</event>
<event>
 7    1  0.4966153E-006  0.1282190E+03  0.7561462E-02  0.1230123E+00
         -1   -1    0    0    0  501 -0.00000000000E+00  0.00000000000E+00  0.31375326455E+02  0.31375326455E+02  0.00000000000E+00 0.  1.
          1   -1    0    0  501    0  0.00000000000E+00 -0.00000000000E+00 -0.79128568367E+03  0.79128568367E+03  0.00000000000E+00 0. -1.
         23    2    1    2    0    0  0.50035829662E+02 -0.98630757122E+02 -0.34383049326E+03  0.38222806489E+03  0.12508906822E+03 0.  0.
          5    1    3    3  502    0 -0.64996911996E+01 -0.15415439879E+02 -0.22841053843E+03  0.22906053400E+03  0.41800000000E+01 0. -1.
         -5    1    3    3    0  502  0.56535520861E+02 -0.83215317243E+02 -0.11541995484E+03  0.15316753089E+03  0.41800000000E+01 0. -1.
        -11    1    1    2    0    0 -0.37977069880E+02 -0.11524034107E+01 -0.65419380730E+02  0.75652371049E+02  0.00000000000E+00 0.  1.
         11    1    1    2    0    0 -0.12058759782E+02  0.99783160532E+02 -0.35066048322E+03  0.36478057419E+03  0.00000000000E+00 0. -1.
</event>
<event>
 7    1  0.4966153E-006  0.7144470E+02  0.7561462E-02  0.1355248E+00
         -1   -1    0    0    0  501 -0.00000000000E+00  0.00000000000E+00  0.64090914324E+02  0.64090914324E+02  0.00000000000E+00 0.  1.
          1   -1    0    0  501    0  0.00000000000E+00 -0.00000000000E+00 -0.22701705419E+03  0.22701705419E+03  0.00000000000E+00 0. -1.
         23    2    1    2    0    0  0.52282099593E+02 -0.13342922182E+02 -0.81697000205E+02  0.15885476160E+03  0.12509589893E+03 0.  0.
          5    1    3    3  502    0  0.52588927860E+02 -0.26105361569E+02  0.15392936874E+02  0.60839955142E+02  0.41800000000E+01 0.  1.
         -5    1    3    3    0  502 -0.30682826707E+00  0.12762439387E+02 -0.97089937079E+02  0.98014806457E+02  0.41800000000E+01 0.  1.
        -11    1    1    2    0    0 -0.49624785505E+02  0.27128898151E+02 -0.73264225218E+01  0.57028702583E+02  0.00000000000E+00 0.  1.
         11    1    1    2    0    0 -0.26573140884E+01 -0.13785975970E+02 -0.73902717136E+02  0.75224504330E+02  0.00000000000E+00 0. -1.
</event>
<event>
 7    1  0.4966153E-006  0.1571786E+03  0.7561462E-02  0.1191919E+00
          1   -1    0    0  501    0  0.00000000000E+00  0.00000000000E+00  0.23161520255E+03  0.23161520255E+03  0.00000000000E+00 0. -1.
         -1   -1    0    0    0  501 -0.00000000000E+00 -0.00000000000E+00 -0.13915587308E+03  0.13915587308E+03  0.00000000000E+00 0.  1.
         23    2    1    2    0    0  0.11437191770E+03 -0.40331687676E+02 -0.29179844968E+02  0.17665374847E+03  0.12508997925E+03 0.  0.
          5    1    3    3  502    0  0.15218662103E+02 -0.64953593475E+02 -0.32551352132E+02  0.74348099553E+02  0.41800000000E+01 0.  1.
         -5    1    3    3    0  502  0.99153255595E+02  0.24621905798E+02  0.33715071643E+01  0.10230564892E+03  0.41800000000E+01 0.  1.
        -11    1    1    2    0    0 -0.42249677486E+02  0.57280751219E+02  0.86789215704E+02  0.11224298495E+03  0.00000000000E+00 0. -1.
         11    1    1    2    0    0 -0.72122240212E+02 -0.16949063543E+02  0.34849958739E+02  0.81874342210E+02  0.00000000000E+00 0.  1.
</event>
<event>
 7    1  0.4966153E-006  0.1065128E+03  0.7561462E-02  0.1267167E+00
          1   -1    0    0  501    0  0.00000000000E+00  0.00000000000E+00  0.18068707183E+03  0.18068707183E+03  0.00000000000E+00 0. -1.
         -1   -1    0    0    0  501 -0.00000000000E+00 -0.00000000000E+00 -0.10283466024E+03  0.10283466024E+03  0.00000000000E+00 0.  1.
         23    2    1    2    0    0  0.40748843699E+02 -0.71738430072E+02  0.49469940598E+02  0.15778889957E+03  0.12507274361E+03 0.  0.
          5    1    3    3  502    0 -0.30965091788E+02 -0.11803779783E+02 -0.22054327073E+02  0.40025390307E+02  0.41800000000E+01 0.  1.
         -5    1    3    3    0  502  0.71713935486E+02 -0.59934650290E+02  0.71524267671E+02  0.11776350926E+03  0.41800000000E+01 0.  1.
        -11    1    1    2    0    0 -0.19242490839E+01  0.26016353385E+02  0.54414940176E+02  0.60345166272E+02  0.00000000000E+00 0. -1.
         11    1    1    2    0    0 -0.38824594615E+02  0.45722076688E+02 -0.26032469179E+02  0.65387666232E+02  0.00000000000E+00 0.  1.
</event>
<event>
 7    1  0.4966153E-006  0.1324818E+03  0.7561462E-02  0.1223819E+00
         -2   -1    0    0    0  501 -0.00000000000E+00  0.00000000000E+00  0.16258464194E+03  0.16258464194E+03  0.00000000000E+00 0.  1.
          2   -1    0    0  501    0  0.00000000000E+00 -0.00000000000E+00 -0.15804450460E+03  0.15804450460E+03  0.00000000000E+00 0. -1.
         23    2    1    2    0    0 -0.31371800391E+02 -0.96772752824E+02  0.63545238983E+02  0.17330404188E+03  0.12508852060E+03 0.  0.
          5    1    3    3  502    0 -0.53697247207E+02 -0.28722220362E+01 -0.59976463513E+01  0.54268666639E+02  0.41800000000E+01 0. -1.
         -5    1    3    3    0  502  0.22325446816E+02 -0.93900530788E+02  0.69542885334E+02  0.11903537524E+03  0.41800000000E+01 0. -1.
        -11    1    1    2    0    0 -0.21662683339E+01  0.73651208276E+02  0.23011244096E+01  0.73718982444E+02  0.00000000000E+00 0. -1.
         11    1    1    2    0    0  0.33538068725E+02  0.23121544547E+02 -0.61306226054E+02  0.73606122225E+02  0.00000000000E+00 0.  1.
</event>
<event>
 7    1  0.4966153E-006  0.2775819E+03  0.7561462E-02  0.1097017E+00
          2   -1    0    0  501    0  0.00000000000E+00  0.00000000000E+00  0.51648998475E+03  0.51648998475E+03  0.00000000000E+00 0. -1.
         -2   -1    0    0    0  501 -0.00000000000E+00 -0.00000000000E+00 -0.16256648078E+03  0.16256648078E+03  0.00000000000E+00 0.  1.
         23    2    1    2    0    0 -0.22047574982E+03 -0.15180898315E+03  0.17150427519E+03  0.34163846077E+03  0.12509035874E+03 0.  0.
          5    1    3    3  502    0  0.81181783372E+01  0.45823298109E+01 -0.67425437197E+01  0.12240786814E+02  0.41800000000E+01 0. -1.
         -5    1    3    3    0  502 -0.22859392815E+03 -0.15639131297E+03  0.17824681891E+03  0.32939767396E+03  0.41800000000E+01 0. -1.
        -11    1    1    2    0    0  0.27665709229E+02  0.23948674245E+02 -0.83785924477E+01  0.37538397364E+02  0.00000000000E+00 0.  1.
         11    1    1    2    0    0  0.19281004059E+03  0.12786030891E+03  0.19079782123E+03  0.29987960740E+03  0.00000000000E+00 0. -1.
</event>
<event>
 7    1  0.4966153E-006  0.1165569E+03  0.7561462E-02  0.1248888E+00
         -2   -1    0    0    0  501 -0.00000000000E+00  0.00000000000E+00  0.87240436762E+02  0.87240436762E+02  0.00000000000E+00 0.  1.
          2   -1    0    0  501    0  0.00000000000E+00 -0.00000000000E+00 -0.17925653374E+03  0.17925653374E+03  0.00000000000E+00 0. -1.
         23    2    1    2    0    0 -0.17281423535E+02 -0.63571143050E+02 -0.32727144692E+02  0.14511044588E+03  0.12508412239E+03 0.  0.
          5    1    3    3  502    0 -0.40533655971E+02 -0.92000550013E+02 -0.38427656612E+02  0.10770903241E+03  0.41800000000E+01 0. -1.
         -5    1    3    3    0  502  0.23252232437E+02  0.28429406963E+02  0.57005119202E+01  0.37401413472E+02  0.41800000000E+01 0. -1.
        -11    1    1    2    0    0  0.64197883991E+01  0.77555975087E+02 -0.23229952121E+02  0.81214368373E+02  0.00000000000E+00 0.  1.
         11    1    1    2    0    0  0.10861635136E+02 -0.13984832037E+02 -0.36059000162E+02  0.40172156248E+02  0.00000000000E+00 0. -1.
</event>
<event>
 7    1  0.4966153E-006  0.1273008E+03  0.7561462E-02  0.1231517E+00
         -1   -1    0    0    0  501 -0.00000000000E+00  0.00000000000E+00  0.81793034657E+02  0.81793034657E+02  0.00000000000E+00 0.  1.
          1   -1    0    0  501    0  0.00000000000E+00 -0.00000000000E+00 -0.26980541769E+03  0.26980541769E+03  0.00000000000E+00 0. -1.
         23    2    1    2    0    0 -0.66966819163E+02 -0.56094148664E+02 -0.40723367341E+02  0.15790978501E+03  0.12508396849E+03 0.  0.
          5    1    3    3  502    0  0.10727462738E+02 -0.60437384868E+02 -0.50202911080E+02  0.79407560266E+02  0.41800000000E+01 0.  1.
         -5    1    3    3    0  502 -0.77694281900E+02  0.43432362048E+01  0.94795437398E+01  0.78502224747E+02  0.41800000000E+01 0.  1.
        -11    1    1    2    0    0 -0.15975525256E+02  0.19384772957E+01  0.11489033477E+00  0.16093113472E+02  0.00000000000E+00 0. -1.
         11    1    1    2    0    0  0.82942344419E+02  0.54155671368E+02 -0.14740390602E+03  0.17759555386E+03  0.00000000000E+00 0.  1.
</event>
<event>
 7    1  0.4966153E-006  0.9184294E+02  0.7561462E-02  0.1298449E+00
         -1   -1    0    0    0  501 -0.00000000000E+00  0.00000000000E+00  0.28676813055E+03  0.28676813055E+03  0.00000000000E+00 0.  1.
          1   -1    0    0  501    0  0.00000000000E+00 -0.00000000000E+00 -0.47749371604E+02  0.47749371604E+02  0.00000000000E+00 0. -1.
         23    2    1    2    0    0  0.39321440128E+02 -0.20429504369E+02  0.14923049145E+03  0.19968482304E+03  0.12506297881E+03 0.  0.
          5    1    3    3  502    0  0.78543768364E+02 -0.30728769787E+01  0.54876940465E+02  0.95955808144E+02  0.41800000000E+01 0.  1.
         -5    1    3    3    0  502 -0.39222328236E+02 -0.17356627391E+02  0.94353550990E+02  0.10372901489E+03  0.41800000000E+01 0.  1.
        -11    1    1    2    0    0 -0.72675893610E+01 -0.13418234896E+02 -0.14218031155E+02  0.20857116118E+02  0.00000000000E+00 0. -1.
         11    1    1    2    0    0 -0.32053850767E+02  0.33847739266E+02  0.10400629865E+03  0.11397556300E+03  0.00000000000E+00 0.  1.
</event>
<event>
 7    1  0.4966153E-006  0.1342297E+03  0.7561462E-02  0.1221311E+00
          2   -1    0    0  501    0  0.00000000000E+00  0.00000000000E+00  0.22867153286E+03  0.22867153286E+03  0.00000000000E+00 0. -1.
         -2   -1    0    0    0  501 -0.00000000000E+00 -0.00000000000E+00 -0.90946078094E+02  0.90946078094E+02  0.00000000000E+00 0.  1.
         23    2    1    2    0    0  0.16158875763E+02 -0.78052124908E+02  0.17416641388E+02  0.14934907305E+03  0.12509421552E+03 0.  0.
          5    1    3    3  502    0  0.59148289569E+02 -0.28947902807E+00  0.93828558944E+01  0.60034276391E+02  0.41800000000E+01 0. -1.
         -5    1    3    3    0  502 -0.42989413806E+02 -0.77762645880E+02  0.80337854937E+01  0.89314796663E+02  0.41800000000E+01 0. -1.
        -11    1    1    2    0    0  0.31632599386E+02  0.62332838880E+02  0.75604917266E+02  0.10296653661E+03  0.00000000000E+00 0. -1.
         11    1    1    2    0    0 -0.47791475149E+02  0.15719286028E+02  0.44703896116E+02  0.67302001294E+02  0.00000000000E+00 0.  1.
</event>
<event>
 7    1  0.4966153E-006  0.1027263E+03  0.7561462E-02  0.1274665E+00
         -2   -1    0    0    0  501 -0.00000000000E+00  0.00000000000E+00  0.78192627268E+02  0.78192627268E+02  0.00000000000E+00 0.  1.
          2   -1    0    0  501    0  0.00000000000E+00 -0.00000000000E+00 -0.22569368836E+03  0.22569368836E+03  0.00000000000E+00 0. -1.
         23    2    1    2    0    0  0.15965553267E+02  0.15941786073E+02  0.21329383239E+01  0.12712692556E+03  0.12509063251E+03 0.  0.
          5    1    3    3  502    0  0.40325876762E+02  0.56781910609E+02 -0.22631694125E+02  0.73348672026E+02  0.41800000000E+01 0. -1.
         -5    1    3    3    0  502 -0.24360323495E+02 -0.40840124536E+02  0.24764632449E+02  0.53778253535E+02  0.41800000000E+01 0. -1.
        -11    1    1    2    0    0  0.33383594680E+02  0.60342833839E+01 -0.29185008251E+02  0.44750884643E+02  0.00000000000E+00 0.  1.
         11    1    1    2    0    0 -0.49349147947E+02 -0.21976069457E+02 -0.12044899117E+03  0.13200850543E+03  0.00000000000E+00 0. -1.
</event>
<event>
 7    1  0.4966153E-006  0.9881027E+02  0.7561462E-02  0.1282818E+00
          2   -1    0    0  501    0  0.00000000000E+00  0.00000000000E+00  0.28573814134E+03  0.28573814134E+03  0.00000000000E+00 0. -1.
         -2   -1    0    0    0  501 -0.00000000000E+00 -0.00000000000E+00 -0.42777986737E+02  0.42777986737E+02  0.00000000000E+00 0.  1.
         23    2    1    2    0    0  0.10087857451E+02  0.19012539708E+02  0.12256203490E+03  0.17642888331E+03  0.12506980824E+03 0.  0.
          5    1    3    3  502    0 -0.46563374703E+02  0.25192625941E+02  0.10326075939E+03  0.11611663574E+03  0.41800000000E+01 0. -1.
         -5    1    3    3    0  502  0.56651232155E+02 -0.61800862333E+01  0.19301275503E+02  0.60312247567E+02  0.41800000000E+01 0. -1.
        -11    1    1    2    0    0  0.31092602827E+02  0.14474167806E+02  0.74111553592E+02  0.81662560944E+02  0.00000000000E+00 0. -1.
         11    1    1    2    0    0 -0.41180460278E+02 -0.33486707514E+02  0.46286566114E+02  0.70424683823E+02  0.00000000000E+00 0.  1.
</event>
<event>
 7    1  0.4966153E-006  0.1160397E+03  0.7561462E-02  0.1249777E+00
          2   -1    0    0  501    0  0.00000000000E+00  0.00000000000E+00  0.15797496973E+03  0.15797496973E+03  0.00000000000E+00 0. -1.
         -2   -1    0    0    0  501 -0.00000000000E+00 -0.00000000000E+00 -0.10696071051E+03  0.10696071051E+03  0.00000000000E+00 0.  1.
         23    2    1    2    0    0 -0.43324303065E+02 -0.14509436155E+02 -0.27102463456E+02  0.13590165639E+03  0.12508875933E+03 0.  0.
          5    1    3    3  502    0 -0.85618544834E+02 -0.22883782554E+02 -0.26442820421E+02  0.92579143846E+02  0.41800000000E+01 0. -1.
         -5    1    3    3    0  502  0.42294241768E+02  0.83743463992E+01 -0.65964303518E+00  0.43322512546E+02  0.41800000000E+01 0. -1.
        -11    1    1    2    0    0  0.68041645143E+02 -0.54639852325E+01  0.66215211092E+02  0.95099814870E+02  0.00000000000E+00 0. -1.
         11    1    1    2    0    0 -0.24717342077E+02  0.19973421388E+02  0.11901511579E+02  0.33934208981E+02  0.00000000000E+00 0.  1.
</event>
<event>
 7    1  0.4966153E-006  0.1163456E+03  0.7561462E-02  0.1249250E+00
         -3   -1    0    0    0  501 -0.00000000000E+00  0.00000000000E+00  0.29696443939E+03  0.29696443939E+03  0.00000000000E+00 0.  1.
          3   -1    0    0  501    0  0.00000000000E+00 -0.00000000000E+00 -0.73679709213E+02  0.73679709213E+02  0.00000000000E+00 0. -1.
         23    2    1    2    0    0 -0.37514459278E+02  0.31729926935E+02  0.23049816005E+03  0.26681605547E+03  0.12508909925E+03 0.  0.
          5    1    3    3  502    0 -0.80323754940E+02  0.94133407664E+01  0.17693209775E+03  0.19458405949E+03  0.41800000000E+01 0.  1.
         -5    1    3    3    0  502  0.42809295662E+02  0.22316586168E+02  0.53566062300E+02  0.72231995983E+02  0.41800000000E+01 0.  1.
        -11    1    1    2    0    0  0.55948743729E+02  0.10725281756E+02 -0.80655553387E+01  0.57535613115E+02  0.00000000000E+00 0. -1.
         11    1    1    2    0    0 -0.18434284450E+02 -0.42455208690E+02  0.85212546071E+00  0.46292480015E+02  0.00000000000E+00 0.  1.
</event>
<event>
 7    1  0.4966153E-006  0.1320077E+03  0.7561462E-02  0.1224507E+00
         -3   -1    0    0    0  501 -0.00000000000E+00  0.00000000000E+00  0.36371400508E+03  0.36371400508E+03  0.00000000000E+00 0.  1.
          3   -1    0    0  501    0  0.00000000000E+00 -0.00000000000E+00 -0.11027392184E+03  0.11027392184E+03  0.00000000000E+00 0. -1.
         23    2    1    2    0    0 -0.34604307530E+02  0.79581336644E+02  0.30262928062E+03  0.33876585893E+03  0.12508868233E+03 0.  0.
          5    1    3    3  502    0 -0.65573929477E+02  0.15222627305E+02  0.78506467005E+02  0.10350075541E+03  0.41800000000E+01 0.  1.
         -5    1    3    3    0  502  0.30969621946E+02  0.64358709339E+02  0.22412281362E+03  0.23526510352E+03  0.41800000000E+01 0.  1.
        -11    1    1    2    0    0 -0.22341463027E+02  0.51565131085E+01 -0.28571843776E+01  0.23106148537E+02  0.00000000000E+00 0.  1.
         11    1    1    2    0    0  0.56945770557E+02 -0.84737849753E+02 -0.46332013009E+02  0.11211591945E+03  0.00000000000E+00 0. -1.
</event>
<event>
 7    1  0.4966153E-006  0.8153376E+02  0.7561462E-02  0.1324754E+00
          1   -1    0    0  501    0  0.00000000000E+00  0.00000000000E+00  0.32934877625E+02  0.32934877625E+02  0.00000000000E+00 0. -1.
         -1   -1    0    0    0  501 -0.00000000000E+00 -0.00000000000E+00 -0.40701140292E+03  0.40701140292E+03  0.00000000000E+00 0.  1.
         23    2    1    2    0    0 -0.11230476430E+02 -0.15186572465E+02 -0.28132135982E+03  0.30845869023E+03  0.12509316730E+03 0.  0.
          5    1    3    3  502    0  0.28469563351E+02  0.31476801519E+02 -0.36753834815E+02  0.56299394711E+02  0.41800000000E+01 0. -1.
         -5    1    3    3    0  502 -0.39700039781E+02 -0.46663373984E+02 -0.24456752500E+03  0.25215929552E+03  0.41800000000E+01 0. -1.
        -11    1    1    2    0    0  0.82689309621E+01  0.36534842637E+02 -0.12513728466E+01  0.37479806294E+02  0.00000000000E+00 0. -1.
         11    1    1    2    0    0  0.29615454675E+01 -0.21348270172E+02 -0.91503792626E+02  0.94007784018E+02  0.00000000000E+00 0.  1.
</event>
<event>
 7    1  0.4966153E-006  0.1161549E+03  0.7561462E-02  0.1249579E+00
         -2   -1    0    0    0  501 -0.00000000000E+00  0.00000000000E+00  0.17153752566E+03  0.17153752566E+03  0.00000000000E+00 0. -1.
          2   -1    0    0  501    0  0.00000000000E+00 -0.00000000000E+00 -0.12731223973E+03  0.12731223973E+03  0.00000000000E+00 0.  1.
         23    2    1    2    0    0 -0.91480022508E+02  0.78867206569E+01  0.62446805628E+02  0.16726590035E+03  0.12508989970E+03 0.  0.
          5    1    3    3  502    0 -0.37899380534E+02 -0.20704302617E+02  0.90404927650E+02  0.10027738796E+03  0.41800000000E+01 0. -1.
         -5    1    3    3    0  502 -0.53580641974E+02  0.28591023274E+02 -0.27958122022E+02  0.66988512397E+02  0.41800000000E+01 0. -1.
        -11    1    1    2    0    0  0.53468277898E+02  0.40095791980E+02 -0.21710520240E+02  0.70270021808E+02  0.00000000000E+00 0. -1.
         11    1    1    2    0    0  0.38011744611E+02 -0.47982512637E+02  0.34890005398E+01  0.61313843234E+02  0.00000000000E+00 0.  1.
</event>
<event>
 7    1  0.4966153E-006  0.1483661E+03  0.7561462E-02  0.1202495E+00
          2   -1    0    0  501    0  0.00000000000E+00  0.00000000000E+00  0.37979385952E+03  0.37979385952E+03  0.00000000000E+00 0. -1.
         -2   -1    0    0    0  501 -0.00000000000E+00 -0.00000000000E+00 -0.66737146629E+02  0.66737146629E+02  0.00000000000E+00 0.  1.
         23    2    1    2    0    0  0.10862736791E+03 -0.31715859242E+02  0.13369665688E+03  0.21524010448E+03  0.12509078995E+03 0.  0.
          5    1    3    3  502    0 -0.27776043582E+02 -0.12835983335E+02  0.26111965228E+02  0.40442282247E+02  0.41800000000E+01 0.  1.
         -5    1    3    3    0  502  0.13640341149E+03 -0.18879875907E+02  0.10758469165E+03  0.17479782224E+03  0.41800000000E+01 0.  1.
        -11    1    1    2    0    0 -0.65797189606E+01  0.24958326730E+02  0.11700257524E+01  0.25837564418E+02  0.00000000000E+00 0.  1.
         11    1    1    2    0    0 -0.10204764895E+03  0.67575325113E+01  0.17819003026E+03  0.20545333725E+03  0.00000000000E+00 0. -1.
</event>
<event>
 7    1  0.4966153E-006  0.1261152E+03  0.7561462E-02  0.1233337E+00
          2   -1    0    0  501    0  0.00000000000E+00  0.00000000000E+00  0.72517814641E+03  0.72517814641E+03  0.00000000000E+00 0. -1.
         -2   -1    0    0    0  501 -0.00000000000E+00 -0.00000000000E+00 -0.23023676348E+02  0.23023676348E+02  0.00000000000E+00 0.  1.
         23    2    1    2    0    0 -0.38327352290E+02 -0.51312475523E+02  0.31726261194E+03  0.34699461689E+03  0.12509093945E+03 0.  0.
          5    1    3    3  502    0 -0.41314218342E+02  0.34032232817E+02  0.14639525160E+03  0.15592979061E+03  0.41800000000E+01 0. -1.
         -5    1    3    3    0  502  0.29868660521E+01 -0.85344708340E+02  0.17086736034E+03  0.19106482628E+03  0.41800000000E+01 0. -1.
        -11    1    1    2    0    0  0.33829699080E+02  0.78503047033E+02  0.28026094517E+03  0.29300746461E+03  0.00000000000E+00 0.  1.
         11    1    1    2    0    0  0.44976532098E+01 -0.27190571509E+02  0.10463091295E+03  0.10819974126E+03  0.00000000000E+00 0. -1.
</event>
<event>
 7    1  0.4966153E-006  0.1241999E+03  0.7561462E-02  0.1236325E+00
         -2   -1    0    0    0  501 -0.00000000000E+00  0.00000000000E+00  0.87761448451E+02  0.87761448451E+02  0.00000000000E+00 0.  1.
          2   -1    0    0  501    0  0.00000000000E+00 -0.00000000000E+00 -0.26656835890E+03  0.26656835890E+03  0.00000000000E+00 0. -1.
         23    2    1    2    0    0 -0.75135208892E+02 -0.25757630710E+01 -0.15569882969E+02  0.14676872630E+03  0.12508678424E+03 0.  0.
          5    1    3    3  502    0  0.41046869617E+01  0.46727209467E+02  0.13396537468E+02  0.48961415173E+02  0.41800000000E+01 0. -1.
         -5    1    3    3    0  502 -0.79239895854E+02 -0.49302972538E+02 -0.28966420436E+02  0.97807311122E+02  0.41800000000E+01 0. -1.
        -11    1    1    2    0    0  0.37663599121E+02  0.39990677003E+02 -0.13873307173E+03  0.14921349181E+03  0.00000000000E+00 0. -1.
         11    1    1    2    0    0  0.37471609771E+02 -0.37414913932E+02 -0.24503955748E+02  0.58347589245E+02  0.00000000000E+00 0.  1.
</event>
<event>
 7    1  0.4966153E-006  0.8892688E+02  0.7561462E-02  0.1305471E+00
          1   -1    0    0  501    0  0.00000000000E+00  0.00000000000E+00  0.13675308867E+03  0.13675308867E+03  0.00000000000E+00 0. -1.
         -1   -1    0    0    0  501 -0.00000000000E+00 -0.00000000000E+00 -0.95663625418E+02  0.95663625418E+02  0.00000000000E+00 0.  1.
         23    2    1    2    0    0  0.19640024888E+02 -0.24503248811E+02 -0.31969137709E+01  0.12900604598E+03  0.12508477070E+03 0.  0.
          5    1    3    3  502    0 -0.39726627686E+02 -0.42291669473E+02  0.21696041770E+02  0.62088492352E+02  0.41800000000E+01 0.  1.
         -5    1    3    3    0  502  0.59366652574E+02  0.17788420662E+02 -0.24892955540E+02  0.66917553624E+02  0.41800000000E+01 0.  1.
        -11    1    1    2    0    0 -0.25326020375E+00  0.35348924823E+02 -0.16265601282E+02  0.38912471162E+02  0.00000000000E+00 0.  1.
         11    1    1    2    0    0 -0.19386764684E+02 -0.10845676012E+02  0.60551978303E+02  0.64498196947E+02  0.00000000000E+00 0. -1.
</event>
<event>
 7    1  0.4966153E-006  0.1158209E+03  0.7561462E-02  0.1250155E+00
          2   -1    0    0  501    0  0.00000000000E+00  0.00000000000E+00  0.30255987065E+03  0.30255987065E+03  0.00000000000E+00 0.  1.
         -2   -1    0    0    0  501 -0.00000000000E+00 -0.00000000000E+00 -0.74215741352E+02  0.74215741352E+02  0.00000000000E+00 0. -1.
         23    2    1    2    0    0  0.83743207653E+02  0.16816026041E+02  0.53021233178E+02  0.16048440106E+03  0.12509311834E+03 0.  0.
          5    1    3    3  502    0  0.10789730517E+03  0.25273309357E+02  0.68440295325E+02  0.13031544441E+03  0.41800000000E+01 0. -1.
         -5    1    3    3    0  502 -0.24154097512E+02 -0.84572833161E+01 -0.15419062147E+02  0.30168956648E+02  0.41800000000E+01 0. -1.
        -11    1    1    2    0    0 -0.73002170079E+01  0.11225297436E+02 -0.80708214842E+01  0.15634533262E+02  0.00000000000E+00 0. -1.
         11    1    1    2    0    0 -0.76442990645E+02 -0.28041323477E+02  0.18339371760E+03  0.20065667768E+03  0.00000000000E+00 0.  1.
</event>
<event>
 7    1  0.4966153E-006  0.1406306E+03  0.7561462E-02  0.1212483E+00
         -2   -1    0    0    0  501 -0.00000000000E+00  0.00000000000E+00  0.29929772982E+02  0.29929772982E+02  0.00000000000E+00 0.  1.
          2   -1    0    0  501    0  0.00000000000E+00 -0.00000000000E+00 -0.74754483262E+03  0.74754483262E+03  0.00000000000E+00 0. -1.
         23    2    1    2    0    0 -0.39710881918E+02 -0.92734065117E+02 -0.35113895107E+03  0.38616415627E+03  0.12509049384E+03 0.  0.
          5    1    3    3  502    0 -0.76244766168E+02 -0.20145084722E+02 -0.18578707475E+03  0.20187470954E+03  0.41800000000E+01 0. -1.
         -5    1    3    3    0  502  0.36533884249E+02 -0.72588980395E+02 -0.16535187632E+03  0.18428944673E+03  0.41800000000E+01 0. -1.
        -11    1    1    2    0    0  0.35751248230E+02  0.87056792700E+01 -0.40782746963E+02  0.54928799836E+02  0.00000000000E+00 0.  1.
         11    1    1    2    0    0  0.39596336885E+01  0.84028385847E+02 -0.32569336161E+03  0.33638164950E+03  0.00000000000E+00 0. -1.
</event>
<event>
 7    1  0.4966153E-006  0.1268254E+03  0.7561462E-02  0.1232244E+00
         -1   -1    0    0    0  501 -0.00000000000E+00  0.00000000000E+00  0.27754849523E+03  0.27754849523E+03  0.00000000000E+00 0.  1.
          1   -1    0    0  501    0  0.00000000000E+00 -0.00000000000E+00 -0.68584904306E+02  0.68584904306E+02  0.00000000000E+00 0. -1.
         23    2    1    2    0    0 -0.46017108298E+02  0.54861977953E+02  0.16522889179E+03  0.21926129233E+03  0.12509003457E+03 0.  0.
          5    1    3    3  502    0 -0.73470862391E+02 -0.92789327103E+01  0.88437641479E+02  0.11542423941E+03  0.41800000000E+01 0.  1.
         -5    1    3    3    0  502  0.27453754093E+02  0.64140910663E+02  0.76791250316E+02  0.10383705292E+03  0.41800000000E+01 0.  1.
        -11    1    1    2    0    0  0.21556139044E+02  0.20867472287E+02 -0.90960015257E+01  0.31350530679E+02  0.00000000000E+00 0.  1.
         11    1    1    2    0    0  0.24460969254E+02 -0.75729450239E+02  0.52830700657E+02  0.95521576528E+02  0.00000000000E+00 0. -1.
</event>
<event>
 7    1  0.4966153E-006  0.1255155E+03  0.7561462E-02  0.1234266E+00
          2   -1    0    0  501    0  0.00000000000E+00  0.00000000000E+00  0.41126612267E+03  0.41126612267E+03  0.00000000000E+00 0. -1.
         -2   -1    0    0    0  501 -0.00000000000E+00 -0.00000000000E+00 -0.84038722433E+02  0.84038722433E+02  0.00000000000E+00 0.  1.
         23    2    1    2    0    0 -0.57080230018E+02  0.89548984685E+02  0.29654813543E+02  0.16679826542E+03  0.12516021757E+03 0.  0.
          5    1    3    3  502    0  0.27970076803E+02  0.27711118922E+02 -0.26374955891E+02  0.47574594129E+02  0.41800000000E+01 0. -1.
         -5    1    3    3    0  502 -0.85050306821E+02  0.61837865763E+02  0.56029769434E+02  0.11922367129E+03  0.41800000000E+01 0. -1.
        -11    1    1    2    0    0  0.34456450500E+02 -0.53107401994E+02  0.60437149892E+02  0.87523095322E+02  0.00000000000E+00 0.  1.
         11    1    1    2    0    0  0.22623779519E+02 -0.36441582691E+02  0.23713543680E+03  0.24098348436E+03  0.00000000000E+00 0. -1.
</event>
<event>
 7    1  0.4966153E-006  0.1504043E+03  0.7561462E-02  0.1199977E+00
         -1   -1    0    0    0  501 -0.00000000000E+00  0.00000000000E+00  0.11339519212E+04  0.11339519212E+04  0.00000000000E+00 0.  1.
          1   -1    0    0  501    0  0.00000000000E+00 -0.00000000000E+00 -0.23387377713E+02  0.23387377713E+02  0.00000000000E+00 0. -1.
         23    2    1    2    0    0 -0.96316082107E+02  0.60209752844E+02  0.74408145309E+03  0.76298119403E+03  0.12482424284E+03 0.  0.
          5    1    3    3  502    0 -0.98884125177E+02  0.21629087639E+01  0.59015215439E+03  0.59839768225E+03  0.41800000000E+01 0. -1.
         -5    1    3    3    0  502  0.25680430691E+01  0.58046844080E+02  0.15392929870E+03  0.16458351178E+03  0.41800000000E+01 0. -1.
        -11    1    1    2    0    0  0.53179841701E+02  0.16390069763E+02  0.17554767680E+03  0.18415677229E+03  0.00000000000E+00 0.  1.
         11    1    1    2    0    0  0.43136240406E+02 -0.76599822607E+02  0.19093541362E+03  0.21020133262E+03  0.00000000000E+00 0. -1.
</event>
<event>
 7    1  0.4966153E-006  0.1443823E+03  0.7561462E-02  0.1207551E+00
         -2   -1    0    0    0  501 -0.00000000000E+00  0.00000000000E+00  0.25807700553E+03  0.25807700553E+03  0.00000000000E+00 0.  1.
          2   -1    0    0  501    0  0.00000000000E+00 -0.00000000000E+00 -0.12890322407E+03  0.12890322407E+03  0.00000000000E+00 0. -1.
         23    2    1    2    0    0  0.12674525436E+03  0.45450789232E+01  0.13703787659E+03  0.22474821897E+03  0.12508942827E+03 0.  0.
          5    1    3    3  502    0 -0.63925239989E+01  0.14763375444E+02 -0.14975555302E+02  0.22373226727E+02  0.41800000000E+01 0.  1.
         -5    1    3    3    0  502  0.13313777835E+03 -0.10218296521E+02  0.15201343189E+03  0.20237499224E+03  0.41800000000E+01 0.  1.
        -11    1    1    2    0    0 -0.48067075467E+02 -0.29023222813E+02  0.38123982894E+02  0.67869207142E+02  0.00000000000E+00 0.  1.
         11    1    1    2    0    0 -0.78678178888E+02  0.24478143890E+02 -0.45988078027E+02  0.94362803488E+02  0.00000000000E+00 0. -1.
</event>
<event>
 7    1  0.4966153E-006  0.1502468E+03  0.7561462E-02  0.1200170E+00
         -2   -1    0    0    0  501 -0.00000000000E+00  0.00000000000E+00  0.20036599281E+02  0.20036599281E+02  0.00000000000E+00 0.  1.
          2   -1    0    0  501    0  0.00000000000E+00 -0.00000000000E+00 -0.14163551217E+04  0.14163551217E+04  0.00000000000E+00 0. -1.
         23    2    1    2    0    0  0.96452614619E+02  0.77275809937E+02 -0.93480005816E+03  0.95119816244E+03  0.12510850418E+03 0.  0.
          5    1    3    3  502    0 -0.24058085743E+02 -0.89982474318E+01 -0.19095221175E+03  0.19271735656E+03  0.41800000000E+01 0. -1.
         -5    1    3    3    0  502  0.12051070036E+03  0.86274057369E+02 -0.74384784641E+03  0.75848080588E+03  0.41800000000E+01 0. -1.
        -11    1    1    2    0    0 -0.55233961744E+02 -0.27894209776E+02 -0.97089673778E+02  0.11513158656E+03  0.00000000000E+00 0. -1.
         11    1    1    2    0    0 -0.41218652875E+02 -0.49381600161E+02 -0.36442879046E+03  0.37006197196E+03  0.00000000000E+00 0.  1.
</event>
<event>
 7    1  0.4966153E-006  0.7600176E+02  0.7561462E-02  0.1340797E+00
         -2   -1    0    0    0  501 -0.00000000000E+00  0.00000000000E+00  0.70975440490E+02  0.70975440490E+02  0.00000000000E+00 0.  1.
          2   -1    0    0  501    0  0.00000000000E+00 -0.00000000000E+00 -0.18049996128E+03  0.18049996128E+03  0.00000000000E+00 0. -1.
         23    2    1    2    0    0 -0.40795330150E+01  0.24865863250E+02 -0.39291559547E+02  0.13351673338E+03  0.12509171714E+03 0.  0.
          5    1    3    3  502    0 -0.52174033103E+02 -0.14105526212E+02  0.89282900310E+01  0.54938896629E+02  0.41800000000E+01 0.  1.
         -5    1    3    3    0  502  0.48094500088E+02  0.38971389461E+02 -0.48219849578E+02  0.78577836752E+02  0.41800000000E+01 0.  1.
        -11    1    1    2    0    0  0.14755200342E+02 -0.11894377722E+02  0.19190049388E+02  0.26971283878E+02  0.00000000000E+00 0.  1.
         11    1    1    2    0    0 -0.10675667327E+02 -0.12971485528E+02 -0.89423010629E+02  0.90987384508E+02  0.00000000000E+00 0. -1.
</event>
<event>
 7    1  0.4966153E-006  0.1007741E+03  0.7561462E-02  0.1278677E+00
         -2   -1    0    0    0  501 -0.00000000000E+00  0.00000000000E+00  0.13788751049E+02  0.13788751049E+02  0.00000000000E+00 0.  1.
          2   -1    0    0  501    0  0.00000000000E+00 -0.00000000000E+00 -0.87501594627E+03  0.87501594627E+03  0.00000000000E+00 0. -1.
         23    2    1    2    0    0  0.13482721969E+02  0.14874132807E+02 -0.51834313676E+03  0.53360652086E+03  0.12511310106E+03 0.  0.
          5    1    3    3  502    0  0.29408972390E+02  0.58728521803E+02 -0.41442617283E+03  0.41961941334E+03  0.41800000000E+01 0.  1.
         -5    1    3    3    0  502 -0.15926250421E+02 -0.43854388996E+02 -0.10391696394E+03  0.11398710752E+03  0.41800000000E+01 0.  1.
        -11    1    1    2    0    0  0.13336443016E+02 -0.45947908494E+02 -0.13314320303E+03  0.14147856205E+03  0.00000000000E+00 0.  1.
         11    1    1    2    0    0 -0.26819164985E+02  0.31073775687E+02 -0.20974085543E+03  0.21371961441E+03  0.00000000000E+00 0. -1.
</event>
<event>
 7    1  0.4966153E-006  0.1281535E+03  0.7561462E-02  0.1230222E+00
         -2   -1    0    0    0  501 -0.00000000000E+00  0.00000000000E+00  0.60241483571E+02  0.60241483571E+02  0.00000000000E+00 0.  1.
          2   -1    0    0  501    0  0.00000000000E+00 -0.00000000000E+00 -0.32248772237E+03  0.32248772237E+03  0.00000000000E+00 0. -1.
         23    2    1    2    0    0  0.30669971757E+02 -0.68071846481E+02 -0.83720327585E+02  0.16802444171E+03  0.12509474934E+03 0.  0.
          5    1    3    3  502    0 -0.95918179573E+01 -0.91673024778E+02 -0.78001178880E+02  0.12082053944E+03  0.41800000000E+01 0.  1.
         -5    1    3    3    0  502  0.40261789715E+02  0.23601178297E+02 -0.57191487047E+01  0.47203902275E+02  0.41800000000E+01 0.  1.
        -11    1    1    2    0    0 -0.53758585446E+02  0.99886328147E+01 -0.63530750946E+02  0.83820729002E+02  0.00000000000E+00 0.  1.
         11    1    1    2    0    0  0.23088613689E+02  0.58083213666E+02 -0.11499516027E+03  0.13088403523E+03  0.00000000000E+00 0. -1.
</event>
<event>
 7    1  0.4966153E-006  0.1264698E+03  0.7561462E-02  0.1232790E+00
         -2   -1    0    0    0  501 -0.00000000000E+00  0.00000000000E+00  0.24636670226E+03  0.24636670226E+03  0.00000000000E+00 0.  1.
          2   -1    0    0  501    0  0.00000000000E+00 -0.00000000000E+00 -0.83647245061E+02  0.83647245061E+02  0.00000000000E+00 0. -1.
         23    2    1    2    0    0 -0.37591004569E+02  0.56665300798E+02  0.16097114241E+03  0.21490276688E+03  0.12508977010E+03 0.  0.
          5    1    3    3  502    0 -0.82001799530E+02  0.38957525903E+02  0.12672223707E+03  0.15594223841E+03  0.41800000000E+01 0. -1.
         -5    1    3    3    0  502  0.44410794961E+02  0.17707774895E+02  0.34248905332E+02  0.58960528468E+02  0.41800000000E+01 0. -1.
        -11    1    1    2    0    0  0.57110945231E+02 -0.32599125833E+01 -0.68173510398E+01  0.57608709154E+02  0.00000000000E+00 0.  1.
         11    1    1    2    0    0 -0.19519940662E+02 -0.53405388215E+02  0.85656658379E+01  0.57502471295E+02  0.00000000000E+00 0. -1.
</event>
<event>
 7    1  0.4966153E-006  0.1525211E+03  0.7561462E-02  0.1197409E+00
          1   -1    0    0  501    0  0.00000000000E+00  0.00000000000E+00  0.96586970722E+03  0.96586970722E+03  0.00000000000E+00 0. -1.
         -1   -1    0    0    0  501 -0.00000000000E+00 -0.00000000000E+00 -0.34247949281E+02  0.34247949281E+02  0.00000000000E+00 0.  1.
         23    2    1    2    0    0 -0.88604884099E+02 -0.10997711589E+03  0.40522047056E+03  0.44698545586E+03  0.12508627614E+03 0.  0.
          5    1    3    3  502    0 -0.29804125576E+02 -0.79620842893E+02  0.35146833228E+03  0.36162857398E+03  0.41800000000E+01 0.  1.
         -5    1    3    3    0  502 -0.58800758522E+02 -0.30356273000E+02  0.53752138280E+02  0.85356881872E+02  0.41800000000E+01 0.  1.
        -11    1    1    2    0    0  0.78179348610E+02  0.11723679906E+03  0.52029022261E+03  0.53903468659E+03  0.00000000000E+00 0. -1.
         11    1    1    2    0    0  0.10425535489E+02 -0.72596831688E+01  0.61110647645E+01  0.14097514054E+02  0.00000000000E+00 0.  1.
</event>
<event>
 7    1  0.4966153E-006  0.1199712E+03  0.7561462E-02  0.1243145E+00
          3   -1    0    0  501    0  0.00000000000E+00  0.00000000000E+00  0.83111889390E+02  0.83111889390E+02  0.00000000000E+00 0. -1.
         -3   -1    0    0    0  501 -0.00000000000E+00 -0.00000000000E+00 -0.21271827418E+03  0.21271827418E+03  0.00000000000E+00 0.  1.
         23    2    1    2    0    0 -0.49543928398E+02 -0.59822686087E+02 -0.73093361598E+02  0.16438869021E+03  0.12509055658E+03 0.  0.
          5    1    3    3  502    0  0.12437515802E+02 -0.59117496463E+02 -0.81672176268E+02  0.10167294116E+03  0.41800000000E+01 0.  1.
         -5    1    3    3    0  502 -0.61981444200E+02 -0.70518962336E+00  0.85788146694E+01  0.62715749048E+02  0.41800000000E+01 0.  1.
        -11    1    1    2    0    0  0.68667299013E+02  0.67837278122E+02 -0.53866876904E+02  0.11053838557E+03  0.00000000000E+00 0.  1.
         11    1    1    2    0    0 -0.19123370615E+02 -0.80145920348E+01 -0.26461462862E+01  0.20903087794E+02  0.00000000000E+00 0. -1.
</event>
<event>
 7    1  0.4966153E-006  0.2282738E+03  0.7561462E-02  0.1127861E+00
          2   -1    0    0  501    0  0.00000000000E+00  0.00000000000E+00  0.15532617136E+04  0.15532617136E+04  0.00000000000E+00 0. -1.
         -2   -1    0    0    0  501 -0.00000000000E+00 -0.00000000000E+00 -0.39615298713E+02  0.39615298713E+02  0.00000000000E+00 0.  1.
         23    2    1    2    0    0  0.13972881575E+03  0.16640409502E+03  0.60269833835E+03  0.65277226944E+03  0.12510748945E+03 0.  0.
          5    1    3    3  502    0  0.12423072724E+02 -0.38630558557E+01  0.17676744535E-02  0.13664857833E+02  0.41800000000E+01 0. -1.
         -5    1    3    3    0  502  0.12730574302E+03  0.17026715087E+03  0.60269657067E+03  0.63910741161E+03  0.41800000000E+01 0. -1.
        -11    1    1    2    0    0 -0.12566007244E+03 -0.95163599102E+02  0.56237569026E+03  0.58404878340E+03  0.00000000000E+00 0.  1.
         11    1    1    2    0    0 -0.14068743309E+02 -0.71240495915E+02  0.34857238628E+03  0.35605595947E+03  0.00000000000E+00 0. -1.
</event>
<event>
 7    1  0.4966153E-006  0.1903057E+03  0.7561462E-02  0.1158186E+00
         -1   -1    0    0    0  501 -0.00000000000E+00  0.00000000000E+00  0.61950165958E+02  0.61950165958E+02  0.00000000000E+00 0.  1.
          1   -1    0    0  501    0  0.00000000000E+00 -0.00000000000E+00 -0.78355308729E+03  0.78355308729E+03  0.00000000000E+00 0. -1.
         23    2    1    2    0    0  0.10556034509E+03 -0.12564329370E+03 -0.19273235493E+03  0.28235570212E+03  0.12509899351E+03 0.  0.
          5    1    3    3  502    0  0.11238811493E+03 -0.13445583197E+03 -0.12931034487E+03  0.21782584057E+03  0.41800000000E+01 0.  1.
         -5    1    3    3    0  502 -0.68277698471E+01  0.88125382709E+01 -0.63422010057E+02  0.64529861549E+02  0.41800000000E+01 0.  1.
        -11    1    1    2    0    0 -0.12569124637E+03  0.98870781371E+02 -0.44233752650E+03  0.47035753228E+03  0.00000000000E+00 0.  1.
         11    1    1    2    0    0  0.20130901280E+02  0.26772512331E+02 -0.86533039904E+02  0.92790018848E+02  0.00000000000E+00 0. -1.
</event>
<event>
 7    1  0.4966153E-006  0.1357925E+03  0.7561462E-02  0.1219105E+00
          1   -1    0    0  501    0  0.00000000000E+00  0.00000000000E+00  0.61699748203E+02  0.61699748203E+02  0.00000000000E+00 0. -1.
         -1   -1    0    0    0  501 -0.00000000000E+00 -0.00000000000E+00 -0.33573418358E+03  0.33573418358E+03  0.00000000000E+00 0.  1.
         23    2    1    2    0    0 -0.68883263898E+02 -0.54613123705E+02 -0.19702951375E+03  0.24939114889E+03  0.12509124083E+03 0.  0.
          5    1    3    3  502    0 -0.91667357966E+02 -0.65345502137E+01 -0.15956847918E+03  0.18418788453E+03  0.41800000000E+01 0.  1.
         -5    1    3    3    0  502  0.22784094068E+02 -0.48078573492E+02 -0.37461034571E+02  0.65203264355E+02  0.41800000000E+01 0.  1.
        -11    1    1    2    0    0  0.46507530617E+02  0.79904309699E+02 -0.52500142643E+02  0.10631986686E+03  0.00000000000E+00 0. -1.
         11    1    1    2    0    0  0.22375733281E+02 -0.25291185993E+02 -0.24504778993E+02  0.41722916033E+02  0.00000000000E+00 0.  1.
</event>
<event>
 7    1  0.4966153E-006  0.1096242E+03  0.7561462E-02  0.1261267E+00
          2   -1    0    0  501    0  0.00000000000E+00  0.00000000000E+00  0.14880503458E+03  0.14880503458E+03  0.00000000000E+00 0. -1.
         -2   -1    0    0    0  501 -0.00000000000E+00 -0.00000000000E+00 -0.14912061584E+03  0.14912061584E+03  0.00000000000E+00 0.  1.
         23    2    1    2    0    0  0.20784636786E+02 -0.63481256391E+02 -0.75069957616E+02  0.16044946784E+03  0.12508661860E+03 0.  0.
          5    1    3    3  502    0 -0.44340467727E+02 -0.60534608934E+02 -0.29193430718E+02  0.80624095370E+02  0.41800000000E+01 0.  1.
         -5    1    3    3    0  502  0.65125104513E+02 -0.29466474564E+01 -0.45876526897E+02  0.79825372465E+02  0.41800000000E+01 0.  1.
        -11    1    1    2    0    0  0.12895939317E+02  0.19371618935E+02 -0.17976762611E+02  0.29406272546E+02  0.00000000000E+00 0. -1.
         11    1    1    2    0    0 -0.33680576103E+02  0.44109637456E+02  0.92731138962E+02  0.10806991004E+03  0.00000000000E+00 0.  1.
</event>
<event>
 7    1  0.4966153E-006  0.1429200E+03  0.7561462E-02  0.1209453E+00
          1   -1    0    0  501    0  0.00000000000E+00  0.00000000000E+00  0.14378348232E+03  0.14378348232E+03  0.00000000000E+00 0. -1.
         -1   -1    0    0    0  501 -0.00000000000E+00 -0.00000000000E+00 -0.17128223950E+03  0.17128223950E+03  0.00000000000E+00 0.  1.
         23    2    1    2    0    0  0.40203017264E+02 -0.10044012248E+03 -0.49863984077E+02  0.17273746486E+03  0.12508922439E+03 0.  0.
          5    1    3    3  502    0  0.43072705138E+02 -0.11997104360E+03 -0.68933046653E+02  0.14497429617E+03  0.41800000000E+01 0.  1.
         -5    1    3    3    0  502 -0.28696878737E+01  0.19530921118E+02  0.19069062575E+02  0.27763168690E+02  0.41800000000E+01 0.  1.
        -11    1    1    2    0    0  0.16344137195E+02  0.73850742996E+02  0.25343690949E+02  0.79770707235E+02  0.00000000000E+00 0. -1.
         11    1    1    2    0    0 -0.56547154460E+02  0.26589379484E+02 -0.29784640505E+01  0.62557549720E+02  0.00000000000E+00 0.  1.
</event>
<event>
 7    1  0.4966153E-006  0.1313288E+03  0.7561462E-02  0.1225497E+00
         -1   -1    0    0    0  501 -0.00000000000E+00  0.00000000000E+00  0.30103048060E+02  0.30103048060E+02  0.00000000000E+00 0.  1.
          1   -1    0    0  501    0  0.00000000000E+00 -0.00000000000E+00 -0.82789713416E+03  0.82789713416E+03  0.00000000000E+00 0. -1.
         23    2    1    2    0    0  0.79810029614E+02  0.56639487528E+02 -0.30024154577E+03  0.33966148618E+03  0.12508903634E+03 0.  0.
          5    1    3    3  502    0  0.54787826112E+02 -0.37575305237E+00 -0.30602775283E+02  0.62895543049E+02  0.41800000000E+01 0.  1.
         -5    1    3    3    0  502  0.25022203502E+02  0.57015240581E+02 -0.26963877048E+03  0.27676594313E+03  0.41800000000E+01 0.  1.
        -11    1    1    2    0    0  0.23342024251E+01  0.27568378354E+02 -0.97184334941E+02  0.10104582596E+03  0.00000000000E+00 0. -1.
         11    1    1    2    0    0 -0.82144232039E+02 -0.84207865882E+02 -0.40036820539E+03  0.41729287008E+03  0.00000000000E+00 0.  1.
</event>
<event>
 7    1  0.4966153E-006  0.2285615E+03  0.7561462E-02  0.1127656E+00
          1   -1    0    0  501    0  0.00000000000E+00  0.00000000000E+00  0.23571731905E+03  0.23571731905E+03  0.00000000000E+00 0. -1.
         -1   -1    0    0    0  501 -0.00000000000E+00 -0.00000000000E+00 -0.23787775466E+03  0.23787775466E+03  0.00000000000E+00 0.  1.
         23    2    1    2    0    0  0.20802524400E+03  0.34634920785E+02 -0.21945881315E+02  0.24617713451E+03  0.12508988755E+03 0.  0.
          5    1    3    3  502    0  0.35708211691E+01 -0.19433242583E+02 -0.28051037524E+02  0.34564935807E+02  0.41800000000E+01 0. -1.
         -5    1    3    3    0  502  0.20445442283E+03  0.54068163368E+02  0.61051562097E+01  0.21161219870E+03  0.41800000000E+01 0. -1.
        -11    1    1    2    0    0 -0.85897911390E+02 -0.54416634428E+02  0.20336790072E+02  0.10369766783E+03  0.00000000000E+00 0. -1.
         11    1    1    2    0    0 -0.12212733261E+03  0.19781713643E+02 -0.55134436554E+00  0.12372027136E+03  0.00000000000E+00 0.  1.
</event>
<event>
 7    1  0.4966153E-006  0.1131766E+03  0.7561462E-02  0.1254798E+00
         -1   -1    0    0    0  501 -0.00000000000E+00  0.00000000000E+00  0.38060038639E+03  0.38060038639E+03  0.00000000000E+00 0.  1.
          1   -1    0    0  501    0  0.00000000000E+00 -0.00000000000E+00 -0.50622150907E+02  0.50622150907E+02  0.00000000000E+00 0. -1.
         23    2    1    2    0    0  0.26058970260E+02  0.50160140544E+02  0.28189098517E+03  0.31353822800E+03  0.12509429751E+03 0.  0.
          5    1    3    3  502    0 -0.40300722673E+02 -0.13483918322E+02  0.63266577423E+02  0.76328870817E+02  0.41800000000E+01 0. -1.
         -5    1    3    3    0  502  0.66359692933E+02  0.63644058866E+02  0.21862440774E+03  0.23720935719E+03  0.41800000000E+01 0. -1.
        -11    1    1    2    0    0 -0.46415689498E+02 -0.11347286383E+02  0.55499038791E+02  0.73234694282E+02  0.00000000000E+00 0.  1.
         11    1    1    2    0    0  0.20356719239E+02 -0.38812854161E+02 -0.74117884760E+01  0.44449615012E+02  0.00000000000E+00 0. -1.
</event>
<event>
 7    1  0.4966153E-006  0.1797027E+03  0.7561462E-02  0.1168091E+00
         -2   -1    0    0    0  501 -0.00000000000E+00  0.00000000000E+00  0.10398364253E+03  0.10398364253E+03  0.00000000000E+00 0.  1.
          2   -1    0    0  501    0  0.00000000000E+00 -0.00000000000E+00 -0.40713219788E+03  0.40713219788E+03  0.00000000000E+00 0. -1.
         23    2    1    2    0    0 -0.14659847051E+03 -0.98230859088E+02 -0.14085150396E+03  0.25796128215E+03  0.12475761976E+03 0.  0.
          5    1    3    3  502    0 -0.11109939701E+03 -0.64214287371E+02 -0.23318475434E+02  0.13049051465E+03  0.41800000000E+01 0. -1.
         -5    1    3    3    0  502 -0.35499073498E+02 -0.34016571717E+02 -0.11753302853E+03  0.12747076749E+03  0.41800000000E+01 0. -1.
        -11    1    1    2    0    0  0.73889749867E+02  0.23817144586E+02 -0.26387006888E+02  0.81995278182E+02  0.00000000000E+00 0.  1.
         11    1    1    2    0    0  0.72708720639E+02  0.74413714503E+02 -0.13591004450E+03  0.17115928009E+03  0.00000000000E+00 0. -1.
</event>
<event>
 7    1  0.4966153E-006  0.1251194E+03  0.7561462E-02  0.1234883E+00
          2   -1    0    0  501    0  0.00000000000E+00  0.00000000000E+00  0.69146437526E+03  0.69146437526E+03  0.00000000000E+00 0.  1.
         -2   -1    0    0    0  501 -0.00000000000E+00 -0.00000000000E+00 -0.32588801133E+02  0.32588801133E+02  0.00000000000E+00 0. -1.
         23    2    1    2    0    0  0.68311719321E+02 -0.56672014108E+02  0.22875433631E+03  0.27541671436E+03  0.12509041527E+03 0.  0.
          5    1    3    3  502    0  0.41375324697E+02  0.20337089537E+02  0.18503785979E+02  0.49853557548E+02  0.41800000000E+01 0.  1.
         -5    1    3    3    0  502  0.26936394624E+02 -0.77009103645E+02  0.21025055033E+03  0.22556315681E+03  0.41800000000E+01 0.  1.
        -11    1    1    2    0    0 -0.34056566844E+02 -0.19137846637E+02  0.20379747181E+03  0.20750787078E+03  0.00000000000E+00 0.  1.
         11    1    1    2    0    0 -0.34255152477E+02  0.75809860745E+02  0.22632376602E+03  0.24112859126E+03  0.00000000000E+00 0. -1.
</event>
<event>
 7    1  0.4966153E-006  0.9662013E+02  0.7561462E-02  0.1287568E+00
          1   -1    0    0  501    0  0.00000000000E+00  0.00000000000E+00  0.22644678173E+03  0.22644678173E+03  0.00000000000E+00 0. -1.
         -1   -1    0    0    0  501 -0.00000000000E+00 -0.00000000000E+00 -0.76483211592E+02  0.76483211592E+02  0.00000000000E+00 0.  1.
         23    2    1    2    0    0 -0.39279140178E+02 -0.61965782225E+02  0.72807659594E+02  0.16226744037E+03  0.12508860015E+03 0.  0.
          5    1    3    3  502    0  0.16600755763E+02 -0.21159201708E+02  0.87304126580E+02  0.91448235777E+02  0.41800000000E+01 0.  1.
         -5    1    3    3    0  502 -0.55879895941E+02 -0.40806580517E+02 -0.14496466986E+02  0.70819204592E+02  0.41800000000E+01 0.  1.
        -11    1    1    2    0    0  0.10295407741E+02  0.66565605157E+02  0.10946360776E+02  0.68240735816E+02  0.00000000000E+00 0.  1.
         11    1    1    2    0    0  0.28983732437E+02 -0.45998229324E+01  0.66209549764E+02  0.72421817134E+02  0.00000000000E+00 0. -1.
</event>
<event>
 7    1  0.4966153E-006  0.1376139E+03  0.7561462E-02  0.1216576E+00
          2   -1    0    0  501    0  0.00000000000E+00  0.00000000000E+00  0.78370715115E+02  0.78370715115E+02  0.00000000000E+00 0. -1.
         -2   -1    0    0    0  501 -0.00000000000E+00 -0.00000000000E+00 -0.33232143586E+03  0.33232143586E+03  0.00000000000E+00 0.  1.
         23    2    1    2    0    0 -0.94814572614E+02  0.76719244501E+02 -0.15696112143E+03  0.23100619199E+03  0.11769206193E+03 0.  0.
          5    1    3    3  502    0  0.50976832496E-01  0.88954161903E+01  0.18112292303E+02  0.20607245335E+02  0.41800000000E+01 0. -1.
         -5    1    3    3    0  502 -0.94865549447E+02  0.67823828310E+02 -0.17507341373E+03  0.21039894666E+03  0.41800000000E+01 0.  1.
        -11    1    1    2    0    0  0.60000761444E+02  0.46725138701E+01 -0.23411290341E+02  0.64575632209E+02  0.00000000000E+00 0.  1.
         11    1    1    2    0    0  0.34813811170E+02 -0.81391758371E+02 -0.73578308978E+02  0.11511032678E+03  0.00000000000E+00 0. -1.
</event>
<event>
 7    1  0.4966153E-006  0.1480729E+03  0.7561462E-02  0.1202861E+00
          1   -1    0    0  501    0  0.00000000000E+00  0.00000000000E+00  0.13379759154E+04  0.13379759154E+04  0.00000000000E+00 0. -1.
         -1   -1    0    0    0  501 -0.00000000000E+00 -0.00000000000E+00 -0.18857713103E+02  0.18857713103E+02  0.00000000000E+00 0.  1.
         23    2    1    2    0    0  0.11211703441E+03  0.11376508889E+02  0.81391974219E+03  0.83114826794E+03  0.12506974937E+03 0.  0.
          5    1    3    3  502    0  0.60289958698E+02 -0.54877767935E+02  0.47210420125E+03  0.47910990156E+03  0.41800000000E+01 0.  1.
         -5    1    3    3    0  502  0.51827075709E+02  0.66254276825E+02  0.34181554094E+03  0.35203836638E+03  0.41800000000E+01 0.  1.
        -11    1    1    2    0    0 -0.62206625553E+02  0.26521050515E+02  0.37667840125E+03  0.38270046819E+03  0.00000000000E+00 0. -1.
         11    1    1    2    0    0 -0.49910408854E+02 -0.37897559404E+02  0.12852005889E+03  0.14298489241E+03  0.00000000000E+00 0.  1.
</event>
<event>
 6    1  0.4966153E-006  0.1564296E+03  0.7561462E-02  0.1192788E+00
          2   -1    0    0  501    0  0.00000000000E+00  0.00000000000E+00  0.62159784679E+03  0.62159784679E+03  0.00000000000E+00 0. -1.
         -2   -1    0    0    0  501 -0.00000000000E+00 -0.00000000000E+00 -0.52357334427E+02  0.52357334427E+02  0.00000000000E+00 0.  1.
          5    1    1    2  502    0 -0.84206688426E+01 -0.82103334757E+02  0.15059793895E+03  0.17178206210E+03  0.41800000000E+01 0. -1.
         -5    1    1    2    0  502  0.62275035068E+02  0.11120629810E+03  0.92177019355E+02  0.15735023364E+03  0.41800000000E+01 0.  1.
        -11    1    1    2    0    0 -0.56791099717E+02 -0.53559227700E+02  0.17852970726E+03  0.19485039454E+03  0.00000000000E+00 0. -1.
         11    1    1    2    0    0  0.29367334907E+01  0.24456264356E+02  0.14793584680E+03  0.14997249093E+03  0.00000000000E+00 0.  1.
</event>
<event>
 7    1  0.4966153E-006  0.7944541E+02  0.7561462E-02  0.1330633E+00
          2   -1    0    0  501    0  0.00000000000E+00  0.00000000000E+00  0.15245380752E+03  0.15245380752E+03  0.00000000000E+00 0. -1.
         -2   -1    0    0    0  501 -0.00000000000E+00 -0.00000000000E+00 -0.10124491525E+03  0.10124491525E+03  0.00000000000E+00 0.  1.
         23    2    1    2    0    0 -0.18130357205E+02 -0.35148383996E+02 -0.34193656812E+02  0.12228029865E+03  0.11054024843E+03 0.  0.
          5    1    3    3  502    0 -0.43917623957E+02 -0.12005286830E+02  0.26076778556E+02  0.52634165575E+02  0.41800000000E+01 0. -1.
         -5    1    3    3    0  502  0.25787266752E+02 -0.23143097166E+02 -0.60270435368E+02  0.69646133076E+02  0.41800000000E+01 0.  1.
        -11    1    1    2    0    0  0.27194078575E+02  0.52256523918E+02  0.18461796347E+02  0.61734108287E+02  0.00000000000E+00 0.  1.
         11    1    1    2    0    0 -0.90637213698E+01 -0.17108139922E+02  0.66940752735E+02  0.69684315835E+02  0.00000000000E+00 0. -1.
</event>
<event>
 7    1  0.4966153E-006  0.7997484E+02  0.7561462E-02  0.1329123E+00
          2   -1    0    0  501    0  0.00000000000E+00  0.00000000000E+00  0.29095571461E+02  0.29095571461E+02  0.00000000000E+00 0. -1.
         -2   -1    0    0    0  501 -0.00000000000E+00 -0.00000000000E+00 -0.35633474995E+03  0.35633474995E+03  0.00000000000E+00 0.  1.
         23    2    1    2    0    0 -0.39978388253E+02 -0.44414341136E+00 -0.29951873117E+03  0.32504067595E+03  0.11975600991E+03 0.  0.
          5    1    3    3  502    0  0.21644995839E+02  0.31832543712E+02 -0.37465300866E+02  0.53878918447E+02  0.41800000000E+01 0. -1.
         -5    1    3    3    0  502 -0.61623384092E+02 -0.32276687124E+02 -0.26205343030E+03  0.27116175750E+03  0.41800000000E+01 0.  1.
        -11    1    1    2    0    0  0.23220085642E+02  0.16377868073E+02 -0.68245706996E+01  0.29222965371E+02  0.00000000000E+00 0.  1.
         11    1    1    2    0    0  0.16758302610E+02 -0.15933724662E+02 -0.20895876618E+02  0.31166680086E+02  0.00000000000E+00 0. -1.
</event>
<event>
 7    1  0.4966153E-006  0.9109701E+02  0.7561462E-02  0.1300217E+00
          1   -1    0    0  501    0  0.00000000000E+00  0.00000000000E+00  0.43710740460E+02  0.43710740460E+02  0.00000000000E+00 0. -1.
         -1   -1    0    0    0  501 -0.00000000000E+00 -0.00000000000E+00 -0.37240791872E+03  0.37240791872E+03  0.00000000000E+00 0.  1.
         23    2    1    2    0    0  0.60130943679E+02 -0.18993301977E+02 -0.19979697014E+03  0.24401523631E+03  0.12509248725E+03 0.  0.
          5    1    3    3  502    0  0.61517897484E+02 -0.32317414012E+02 -0.33730451035E+02  0.77356852872E+02  0.41800000000E+01 0.  1.
         -5    1    3    3    0  502 -0.13869538053E+01  0.13324112035E+02 -0.16606651911E+03  0.16665838344E+03  0.41800000000E+01 0.  1.
        -11    1    1    2    0    0 -0.60833308758E+02 -0.16510882692E+02 -0.35868975853E+02  0.72525058638E+02  0.00000000000E+00 0. -1.
         11    1    1    2    0    0  0.70236507909E+00  0.35504184669E+02 -0.93031232263E+02  0.99578364227E+02  0.00000000000E+00 0.  1.
</event>
<event>
 7    1  0.4966153E-006  0.9126344E+02  0.7561462E-02  0.1299821E+00
          1   -1    0    0  501    0  0.00000000000E+00  0.00000000000E+00  0.85274079295E+02  0.85274079295E+02  0.00000000000E+00 0. -1.
         -1   -1    0    0    0  501 -0.00000000000E+00 -0.00000000000E+00 -0.18165133194E+03  0.18165133194E+03  0.00000000000E+00 0.  1.
         23    2    1    2    0    0 -0.36926119866E+02  0.37265723543E+02 -0.78946354173E+02  0.15694677816E+03  0.12508993508E+03 0.  0.
          5    1    3    3  502    0 -0.69066466391E+01 -0.19384860922E+02  0.26290620122E+02  0.33647343241E+02  0.41800000000E+01 0.  1.
         -5    1    3    3    0  502 -0.30019473227E+02  0.56650584465E+02 -0.10523697429E+03  0.12329943492E+03  0.41800000000E+01 0.  1.
        -11    1    1    2    0    0 -0.16197902778E+02 -0.40940336544E+02 -0.32398729715E+02  0.54664073192E+02  0.00000000000E+00 0.  1.
         11    1    1    2    0    0  0.53124022645E+02  0.36746130007E+01  0.14967831243E+02  0.55314559881E+02  0.00000000000E+00 0. -1.
</event>
<event>
 7    1  0.4966153E-006  0.9533885E+02  0.7561462E-02  0.1290415E+00
          2   -1    0    0  501    0  0.00000000000E+00  0.00000000000E+00  0.73432861807E+03  0.73432861807E+03  0.00000000000E+00 0. -1.
         -2   -1    0    0    0  501 -0.00000000000E+00 -0.00000000000E+00 -0.16512073511E+02  0.16512073511E+02  0.00000000000E+00 0.  1.
         23    2    1    2    0    0  0.13011352601E+02  0.93940136702E+01  0.39174016809E+03  0.41153857590E+03  0.12508436100E+03 0.  0.
          5    1    3    3  502    0 -0.33873355247E+02 -0.22387252080E+02  0.47428961826E+02  0.62574532130E+02  0.41800000000E+01 0.  1.
         -5    1    3    3    0  502  0.46884707848E+02  0.31781265750E+02  0.34431120627E+03  0.34896404377E+03  0.41800000000E+01 0.  1.
        -11    1    1    2    0    0 -0.52313252133E+02 -0.12016791477E+02  0.16659578008E+03  0.17502923632E+03  0.00000000000E+00 0.  1.
         11    1    1    2    0    0  0.39301899532E+02  0.26227778072E+01  0.15948059639E+03  0.16427287937E+03  0.00000000000E+00 0. -1.
</event>
<event>
 7    1  0.4966153E-006  0.1103285E+03  0.7561462E-02  0.1259963E+00
         -2   -1    0    0    0  501 -0.00000000000E+00  0.00000000000E+00  0.45937163468E+02  0.45937163468E+02  0.00000000000E+00 0.  1.
          2   -1    0    0  501    0  0.00000000000E+00 -0.00000000000E+00 -0.37209287474E+03  0.37209287474E+03  0.00000000000E+00 0. -1.
         23    2    1    2    0    0 -0.46919577893E+02 -0.43597167592E+02 -0.14823222155E+03  0.20426336203E+03  0.12509424347E+03 0.  0.
          5    1    3    3  502    0 -0.18754055251E+01 -0.55272294300E+02 -0.14745113631E+03  0.15753683271E+03  0.41800000000E+01 0. -1.
         -5    1    3    3    0  502 -0.45044172368E+02  0.11675126708E+02 -0.78108524744E+00  0.46726529318E+02  0.41800000000E+01 0. -1.
        -11    1    1    2    0    0 -0.25195925891E+02  0.38718473786E+02 -0.70922098217E+02  0.84639818698E+02  0.00000000000E+00 0.  1.
         11    1    1    2    0    0  0.72115503783E+02  0.48786938062E+01 -0.10700139150E+03  0.12912685748E+03  0.00000000000E+00 0. -1.
</event>
<event>
 7    1  0.4966153E-006  0.3826687E+02  0.7561462E-02  0.1521367E+00
         -4   -1    0    0    0  501 -0.00000000000E+00  0.00000000000E+00  0.71366692070E+02  0.71366692070E+02  0.00000000000E+00 0. -1.
          4   -1    0    0  501    0  0.00000000000E+00 -0.00000000000E+00 -0.86171511867E+02  0.86171511867E+02  0.00000000000E+00 0.  1.
         23    2    1    2    0    0  0.67699497359E+01 -0.69334596076E-01  0.14721591076E+01  0.11555693914E+03  0.11534904379E+03 0.  0.
          5    1    3    3  502    0 -0.39735668738E+01  0.20767958643E+02  0.53858909561E+02  0.58011652958E+02  0.41800000000E+01 0. -1.
         -5    1    3    3    0  502  0.10743516610E+02 -0.20837293239E+02 -0.52386750453E+02  0.57545286182E+02  0.41800000000E+01 0.  1.
        -11    1    1    2    0    0 -0.13910325320E+01 -0.15052298863E+02 -0.20419036133E+02  0.25405584212E+02  0.00000000000E+00 0.  1.
         11    1    1    2    0    0 -0.53789172040E+01  0.15121633459E+02  0.41420572276E+01  0.16575680585E+02  0.00000000000E+00 0. -1.
</event>
<event>
 7    1  0.4966153E-006  0.1216513E+03  0.7561462E-02  0.1240397E+00
         -2   -1    0    0    0  501 -0.00000000000E+00  0.00000000000E+00  0.17424166414E+02  0.17424166414E+02  0.00000000000E+00 0.  1.
          2   -1    0    0  501    0  0.00000000000E+00 -0.00000000000E+00 -0.97836165126E+03  0.97836165126E+03  0.00000000000E+00 0. -1.
         23    2    1    2    0    0  0.57188039590E+02 -0.26513171487E+02 -0.41857155683E+03  0.44138888482E+03  0.12509428173E+03 0.  0.
          5    1    3    3  502    0  0.83852046899E+02 -0.47028233327E+02 -0.36894414668E+03  0.38128739327E+03  0.41800000000E+01 0.  1.
         -5    1    3    3    0  502 -0.26664007309E+02  0.20515061841E+02 -0.49627410144E+02  0.60101491543E+02  0.41800000000E+01 0.  1.
        -11    1    1    2    0    0 -0.44318194684E+01  0.53657989730E+02 -0.30586589524E+03  0.31056845744E+03  0.00000000000E+00 0.  1.
         11    1    1    2    0    0 -0.52756220122E+02 -0.27144818243E+02 -0.23650003278E+03  0.24382847542E+03  0.00000000000E+00 0. -1.
</event>
<event>
 7    1  0.4966153E-006  0.1088564E+03  0.7561462E-02  0.1262702E+00
         -1   -1    0    0    0  501 -0.00000000000E+00  0.00000000000E+00  0.33955126943E+02  0.33955126943E+02  0.00000000000E+00 0. -1.
          1   -1    0    0  501    0  0.00000000000E+00 -0.00000000000E+00 -0.57615968886E+03  0.57615968886E+03  0.00000000000E+00 0.  1.
         23    2    1    2    0    0 -0.17846549777E+02  0.84548421824E+02 -0.25762082428E+03  0.29913622395E+03  0.12508819451E+03 0.  0.
          5    1    3    3  502    0 -0.19439775540E+02 -0.85499438902E+01  0.34579933980E+01  0.21918862468E+02  0.41800000000E+01 0.  1.
         -5    1    3    3    0  502  0.15932257623E+01  0.93098365715E+02 -0.26107881768E+03  0.27721736149E+03  0.41800000000E+01 0.  1.
        -11    1    1    2    0    0 -0.16111602271E+02 -0.58333270800E+01 -0.40069706308E+01  0.17597364752E+02  0.00000000000E+00 0. -1.
         11    1    1    2    0    0  0.33958152049E+02 -0.78715094744E+02 -0.28057676700E+03  0.29338122709E+03  0.00000000000E+00 0.  1.
</event>
<event>
 6    1  0.4966153E-006  0.9626448E+02  0.7561462E-02  0.1288353E+00
          2   -1    0    0  501    0  0.00000000000E+00  0.00000000000E+00  0.78588251730E+02  0.78588251730E+02  0.00000000000E+00 0. -1.
         -2   -1    0    0    0  501 -0.00000000000E+00 -0.00000000000E+00 -0.18899932431E+03  0.18899932431E+03  0.00000000000E+00 0.  1.
          5    1    1    2  502    0  0.23152882450E+02  0.47894424378E+02 -0.86007071489E+01  0.54049758702E+02  0.41800000000E+01 0. -1.
         -5    1    1    2    0  502 -0.47591465290E+02 -0.46784443442E+02 -0.10192596570E+03  0.12190203690E+03  0.41800000000E+01 0.  1.
        -11    1    1    2    0    0 -0.21991424971E+02  0.10606099744E+02 -0.27164959312E+02  0.36524610038E+02  0.00000000000E+00 0.  1.
         11    1    1    2    0    0  0.46430007811E+02 -0.11716080681E+02  0.27280559581E+02  0.55111170400E+02  0.00000000000E+00 0. -1.
</event>
<event>
 7    1  0.4966153E-006  0.5167006E+02  0.7561462E-02  0.1436536E+00
         -3   -1    0    0    0  501 -0.00000000000E+00  0.00000000000E+00  0.39447668951E+02  0.39447668951E+02  0.00000000000E+00 0.  1.
          3   -1    0    0  501    0  0.00000000000E+00 -0.00000000000E+00 -0.34324809104E+03  0.34324809104E+03  0.00000000000E+00 0. -1.
         23    2    1    2    0    0 -0.42303171300E+02  0.13272584252E+02 -0.16106825876E+03  0.20870693160E+03  0.12509947850E+03 0.  0.
          5    1    3    3  502    0 -0.12441674802E+02  0.20539718978E+02  0.15859964312E+02  0.29080684234E+02  0.41800000000E+01 0.  1.
         -5    1    3    3    0  502 -0.29861496498E+02 -0.72671347258E+01 -0.17692822308E+03  0.17962624736E+03  0.41800000000E+01 0.  1.
        -11    1    1    2    0    0  0.19829039498E+02  0.31984570335E+01  0.73154086760E+01  0.21376064627E+02  0.00000000000E+00 0.  1.
         11    1    1    2    0    0  0.22474131802E+02 -0.16471041285E+02 -0.15004757200E+03  0.15261276376E+03  0.00000000000E+00 0. -1.
</event>
<event>
 7    1  0.4966153E-006  0.1185873E+03  0.7561462E-02  0.1245446E+00
         -2   -1    0    0    0  501 -0.00000000000E+00  0.00000000000E+00  0.31872669111E+02  0.31872669111E+02  0.00000000000E+00 0.  1.
          2   -1    0    0  501    0  0.00000000000E+00 -0.00000000000E+00 -0.45245007205E+03  0.45245007205E+03  0.00000000000E+00 0. -1.
         23    2    1    2    0    0 -0.34180854991E+02  0.31712312736E+02 -0.20998581788E+03  0.24883627226E+03  0.12510573550E+03 0.  0.
          5    1    3    3  502    0 -0.63688080776E+02  0.62500895290E+02 -0.15761224191E+03  0.18116739426E+03  0.41800000000E+01 0.  1.
         -5    1    3    3    0  502  0.29507225785E+02 -0.30788582554E+02 -0.52373575975E+02  0.67668877999E+02  0.41800000000E+01 0.  1.
        -11    1    1    2    0    0  0.47976080944E+02 -0.58021618334E+02 -0.14159121465E+03  0.16036297766E+03  0.00000000000E+00 0.  1.
         11    1    1    2    0    0 -0.13795225953E+02  0.26309305598E+02 -0.69000370409E+02  0.75123491244E+02  0.00000000000E+00 0. -1.
</event>
<event>
 7    1  0.4966153E-006  0.7694361E+02  0.7561462E-02  0.1337956E+00
         -2   -1    0    0    0  501 -0.00000000000E+00  0.00000000000E+00  0.82955645660E+02  0.82955645660E+02  0.00000000000E+00 0.  1.
          2   -1    0    0  501    0  0.00000000000E+00 -0.00000000000E+00 -0.27767436636E+03  0.27767436636E+03  0.00000000000E+00 0. -1.
         23    2    1    2    0    0 -0.45521307234E+02 -0.32657664159E+02  0.14074433945E+01  0.13706934358E+03  0.12508921461E+03 0.  0.
          5    1    3    3  502    0 -0.31617225938E+02 -0.16355080279E+02  0.62580641803E+02  0.72117589778E+02  0.41800000000E+01 0.  1.
         -5    1    3    3    0  502 -0.13904081296E+02 -0.16302583880E+02 -0.61173198409E+02  0.64951753798E+02  0.41800000000E+01 0.  1.
        -11    1    1    2    0    0  0.63666112304E+02  0.59725422687E+01 -0.17129997492E+03  0.18284618269E+03  0.00000000000E+00 0. -1.
         11    1    1    2    0    0 -0.18144805070E+02  0.26685121890E+02 -0.24826189179E+02  0.40714485757E+02  0.00000000000E+00 0.  1.
</event>
<event>
 6    1  0.4966153E-006  0.7902451E+02  0.7561462E-02  0.1331843E+00
          1   -1    0    0  501    0  0.00000000000E+00  0.00000000000E+00  0.21901781034E+03  0.21901781034E+03  0.00000000000E+00 0. -1.
         -1   -1    0    0    0  501 -0.00000000000E+00 -0.00000000000E+00 -0.12830825791E+03  0.12830825791E+03  0.00000000000E+00 0.  1.
          5    1    1    2  502    0 -0.12937300181E+02 -0.29764060993E+02  0.55851760686E+02  0.64731481016E+02  0.41800000000E+01 0. -1.
         -5    1    1    2    0  502  0.38554599749E+02  0.41333294252E+02 -0.10192680018E+03  0.11662522613E+03  0.41800000000E+01 0.  1.
        -11    1    1    2    0    0 -0.35387315299E+02  0.16414380219E+02  0.16965272219E+02  0.42538387646E+02  0.00000000000E+00 0.  1.
         11    1    1    2    0    0  0.97700157313E+01 -0.27983613478E+02  0.11981931971E+03  0.12343097345E+03  0.00000000000E+00 0. -1.
</event>
<event>
 7    1  0.4966153E-006  0.6791714E+02  0.7561462E-02  0.1367323E+00
          2   -1    0    0  501    0  0.00000000000E+00  0.00000000000E+00  0.62657119913E+03  0.62657119913E+03  0.00000000000E+00 0. -1.
         -2   -1    0    0    0  501 -0.00000000000E+00 -0.00000000000E+00 -0.25626830536E+02  0.25626830536E+02  0.00000000000E+00 0.  1.
         23    2    1    2    0    0 -0.53439162712E+01  0.36848157631E+02  0.19823710195E+03  0.23734430974E+03  0.12509208054E+03 0.  0.
          5    1    3    3  502    0 -0.86860067454E+01  0.81130883554E+01 -0.16425334324E+02  0.20701036773E+02  0.41800000000E+01 0. -1.
         -5    1    3    3    0  502  0.33420904742E+01  0.28735069276E+02  0.21466243627E+03  0.21664327297E+03  0.41800000000E+01 0. -1.
        -11    1    1    2    0    0 -0.39992911460E+02 -0.24936581926E+02  0.27066691563E+03  0.27473959544E+03  0.00000000000E+00 0. -1.
         11    1    1    2    0    0  0.45336827732E+02 -0.11911575705E+02  0.13204035101E+03  0.14011412449E+03  0.00000000000E+00 0.  1.
</event>
<event>
 7    1  0.4966153E-006  0.1231511E+03  0.7561462E-02  0.1237987E+00
          2   -1    0    0  501    0  0.00000000000E+00  0.00000000000E+00  0.37760938626E+03  0.37760938626E+03  0.00000000000E+00 0. -1.
         -2   -1    0    0    0  501 -0.00000000000E+00 -0.00000000000E+00 -0.96587821494E+02  0.96587821494E+02  0.00000000000E+00 0.  1.
         23    2    1    2    0    0 -0.64637378399E+02  0.23625848667E+02 -0.27207862021E+02  0.14535174860E+03  0.12510272441E+03 0.  0.
          5    1    3    3  502    0 -0.67817192952E+02  0.67889289630E+02 -0.66913350102E+01  0.96282779720E+02  0.41800000000E+01 0. -1.
         -5    1    3    3    0  502  0.31798145525E+01 -0.44263440963E+02 -0.20516527011E+02  0.49068968881E+02  0.41800000000E+01 0. -1.
        -11    1    1    2    0    0 -0.15799109358E+02 -0.19553589530E+02  0.14110440846E+03  0.14332623210E+03  0.00000000000E+00 0. -1.
         11    1    1    2    0    0  0.80436487757E+02 -0.40722591374E+01  0.16712501833E+03  0.18551922706E+03  0.00000000000E+00 0.  1.
</event>
<event>
 7    1  0.4966153E-006  0.7887053E+02  0.7561462E-02  0.1332288E+00
         -2   -1    0    0    0  501 -0.00000000000E+00  0.00000000000E+00  0.22866729479E+02  0.22866729479E+02  0.00000000000E+00 0.  1.
          2   -1    0    0  501    0  0.00000000000E+00 -0.00000000000E+00 -0.53732447664E+03  0.53732447664E+03  0.00000000000E+00 0. -1.
         23    2    1    2    0    0  0.18834099961E+02  0.84903091006E+01 -0.25759656831E+03  0.28710864379E+03  0.12509425511E+03 0.  0.
          5    1    3    3  502    0 -0.14295580274E+02 -0.31275723853E+02 -0.12903151476E+02  0.36966176917E+02  0.41800000000E+01 0.  1.
         -5    1    3    3    0  502  0.33129680235E+02  0.39766032954E+02 -0.24469341683E+03  0.25014246687E+03  0.41800000000E+01 0.  1.
        -11    1    1    2    0    0  0.24716144660E+02  0.57084200917E+01 -0.21342683877E+02  0.33150927919E+02  0.00000000000E+00 0.  1.
         11    1    1    2    0    0 -0.43550244621E+02 -0.14198729192E+02 -0.23551849497E+03  0.23993163441E+03  0.00000000000E+00 0. -1.
</event>
<event>
 7    1  0.4966153E-006  0.1135888E+03  0.7561462E-02  0.1254065E+00
          1   -1    0    0  501    0  0.00000000000E+00  0.00000000000E+00  0.29761404225E+03  0.29761404225E+03  0.00000000000E+00 0. -1.
         -1   -1    0    0    0  501 -0.00000000000E+00 -0.00000000000E+00 -0.52263258387E+02  0.52263258387E+02  0.00000000000E+00 0.  1.
         23    2    1    2    0    0 -0.27866675015E+02 -0.50251861894E+02  0.10404510882E+03  0.17255449751E+03  0.12509144152E+03 0.  0.
          5    1    3    3  502    0 -0.15847497779E+02 -0.92275881616E+02  0.69184278742E+02  0.11648999244E+03  0.41800000000E+01 0.  1.
         -5    1    3    3    0  502 -0.12019177236E+02  0.42024019722E+02  0.34860830077E+02  0.56064505070E+02  0.41800000000E+01 0.  1.
        -11    1    1    2    0    0  0.41479041891E+02  0.43912371594E+01  0.11585717708E+03  0.12313683187E+03  0.00000000000E+00 0. -1.
         11    1    1    2    0    0 -0.13612366876E+02  0.45860624735E+02  0.25448497959E+02  0.54185971260E+02  0.00000000000E+00 0.  1.
</event>
<event>
 7    1  0.4966153E-006  0.7019653E+02  0.7561462E-02  0.1359426E+00
          2   -1    0    0  501    0  0.00000000000E+00  0.00000000000E+00  0.23205218993E+03  0.23205218993E+03  0.00000000000E+00 0.  1.
         -2   -1    0    0    0  501 -0.00000000000E+00 -0.00000000000E+00 -0.62146300335E+02  0.62146300335E+02  0.00000000000E+00 0. -1.
         23    2    1    2    0    0 -0.44178351239E+00  0.50711258547E+02  0.86355520302E+02  0.16023633808E+03  0.12508629516E+03 0.  0.
          5    1    3    3  502    0  0.20735318971E+02  0.89689739047E+01  0.10661468617E+03  0.10906218251E+03  0.41800000000E+01 0.  1.
         -5    1    3    3    0  502 -0.21177102483E+02  0.41742284642E+02 -0.20259165868E+02  0.51174155571E+02  0.41800000000E+01 0.  1.
        -11    1    1    2    0    0  0.10164502734E+02 -0.57611973567E+02  0.98668699676E+02  0.11470819025E+03  0.00000000000E+00 0.  1.
         11    1    1    2    0    0 -0.97227192221E+01  0.69007150203E+01 -0.15118330383E+02  0.19253961941E+02  0.00000000000E+00 0. -1.
</event>
<event>
 7    1  0.4966153E-006  0.2038953E+03  0.7561462E-02  0.1146494E+00
          1   -1    0    0  501    0  0.00000000000E+00  0.00000000000E+00  0.10025178706E+04  0.10025178706E+04  0.00000000000E+00 0. -1.
         -1   -1    0    0    0  501 -0.00000000000E+00 -0.00000000000E+00 -0.47556734829E+02  0.47556734829E+02  0.00000000000E+00 0.  1.
         23    2    1    2    0    0 -0.17214080041E+03 -0.78772632391E+02  0.53590298703E+03  0.58195961809E+03  0.12508957910E+03 0.  0.
          5    1    3    3  502    0 -0.12583148528E+03 -0.10363586968E+03  0.47044981243E+03  0.49791008685E+03  0.41800000000E+01 0.  1.
         -5    1    3    3    0  502 -0.46309315133E+02  0.24863237286E+02  0.65453174599E+02  0.84049531239E+02  0.41800000000E+01 0.  1.
        -11    1    1    2    0    0  0.33505354149E+02  0.30167018118E+02  0.19532465984E+03  0.20046042123E+03  0.00000000000E+00 0. -1.
         11    1    1    2    0    0  0.13863544626E+03  0.48605614273E+02  0.22373348886E+03  0.26765456606E+03  0.00000000000E+00 0.  1.
</event>
<event>
 7    1  0.4966153E-006  0.1297217E+03  0.7561462E-02  0.1227869E+00
         -2   -1    0    0    0  501 -0.00000000000E+00  0.00000000000E+00  0.11711043252E+03  0.11711043252E+03  0.00000000000E+00 0.  1.
          2   -1    0    0  501    0  0.00000000000E+00 -0.00000000000E+00 -0.22991111657E+03  0.22991111657E+03  0.00000000000E+00 0. -1.
         23    2    1    2    0    0 -0.49790502983E+02 -0.91006734876E+02  0.97941531086E+01  0.16279759204E+03  0.12508321454E+03 0.  0.
          5    1    3    3  502    0  0.10767841320E+02 -0.43845558604E+02 -0.48447824634E+02  0.66355433295E+02  0.41800000000E+01 0. -1.
         -5    1    3    3    0  502 -0.60558344303E+02 -0.47161176272E+02  0.58241977742E+02  0.96442158745E+02  0.41800000000E+01 0. -1.
        -11    1    1    2    0    0 -0.22926014294E+02  0.46849674925E+02 -0.52336657309E+02  0.73889240558E+02  0.00000000000E+00 0.  1.
         11    1    1    2    0    0  0.72716517277E+02  0.44157059952E+02 -0.70258179851E+02  0.11033471650E+03  0.00000000000E+00 0. -1.
</event>
<event>
 7    1  0.4966153E-006  0.1925771E+03  0.7561462E-02  0.1156157E+00
          1   -1    0    0  501    0  0.00000000000E+00  0.00000000000E+00  0.51053971329E+03  0.51053971329E+03  0.00000000000E+00 0. -1.
         -1   -1    0    0    0  501 -0.00000000000E+00 -0.00000000000E+00 -0.74979974550E+02  0.74979974550E+02  0.00000000000E+00 0.  1.
         23    2    1    2    0    0 -0.21127372022E+02  0.15934157050E+03  0.27265189917E+03  0.34032791624E+03  0.12509168841E+03 0.  0.
          5    1    3    3  502    0  0.51386083949E+02  0.61967486949E+02  0.12994881287E+03  0.15292045457E+03  0.41800000000E+01 0.  1.
         -5    1    3    3    0  502 -0.72513455971E+02  0.97374083554E+02  0.14270308631E+03  0.18740746166E+03  0.41800000000E+01 0.  1.
        -11    1    1    2    0    0  0.31721669593E+02 -0.98757887642E+01  0.33910806793E+02  0.47473554142E+02  0.00000000000E+00 0. -1.
         11    1    1    2    0    0 -0.10594297571E+02 -0.14946578174E+03  0.12899703277E+03  0.19771821746E+03  0.00000000000E+00 0.  1.
</event>
<event>
 7    1  0.4966153E-006  0.8423363E+02  0.7561462E-02  0.1317449E+00
         -2   -1    0    0    0  501 -0.00000000000E+00  0.00000000000E+00  0.13465147486E+03  0.13465147486E+03  0.00000000000E+00 0.  1.
          2   -1    0    0  501    0  0.00000000000E+00 -0.00000000000E+00 -0.10111239654E+03  0.10111239654E+03  0.00000000000E+00 0. -1.
         23    2    1    2    0    0  0.18262603161E+01  0.30760806887E+02  0.49620928441E+02  0.13805465124E+03  0.12508911913E+03 0.  0.
          5    1    3    3  502    0  0.97035434852E+01  0.49994261422E+02 -0.27530835768E+02  0.58043124049E+02  0.41800000000E+01 0.  1.
         -5    1    3    3    0  502 -0.78772831692E+01 -0.19233454535E+02  0.77151764210E+02  0.80011527196E+02  0.41800000000E+01 0.  1.
        -11    1    1    2    0    0 -0.33767619759E+02  0.17702052315E+02 -0.32428826740E+01  0.38263965926E+02  0.00000000000E+00 0. -1.
         11    1    1    2    0    0  0.31941359443E+02 -0.48462859201E+02 -0.12838967446E+02  0.59445254227E+02  0.00000000000E+00 0.  1.
</event>
<event>
 7    1  0.4966153E-006  0.1517037E+03  0.7561462E-02  0.1198395E+00
          2   -1    0    0  501    0  0.00000000000E+00  0.00000000000E+00  0.15659154682E+04  0.15659154682E+04  0.00000000000E+00 0.  1.
         -2   -1    0    0    0  501 -0.00000000000E+00 -0.00000000000E+00 -0.18790298270E+02  0.18790298270E+02  0.00000000000E+00 0. -1.
         23    2    1    2    0    0 -0.78673949474E+02  0.10556358897E+03  0.82957951275E+03  0.84922502689E+03  0.12509083368E+03 0.  0.
          5    1    3    3  502    0 -0.44066223199E+02  0.16739615069E+02  0.75313656037E+02  0.88947545921E+02  0.41800000000E+01 0. -1.
         -5    1    3    3    0  502 -0.34607726275E+02  0.88823973900E+02  0.75426585671E+03  0.76027748096E+03  0.41800000000E+01 0. -1.
        -11    1    1    2    0    0 -0.15184180738E+02  0.46698931110E+01  0.95237652495E+02  0.96553496566E+02  0.00000000000E+00 0.  1.
         11    1    1    2    0    0  0.93858130212E+02 -0.11023348208E+03  0.62230800470E+03  0.63892724303E+03  0.00000000000E+00 0. -1.
</event>
<event>
 7    1  0.4966153E-006  0.1247234E+03  0.7561462E-02  0.1235502E+00
         -2   -1    0    0    0  501 -0.00000000000E+00  0.00000000000E+00  0.34116021340E+02  0.34116021340E+02  0.00000000000E+00 0.  1.
          2   -1    0    0  501    0  0.00000000000E+00 -0.00000000000E+00 -0.52568328466E+03  0.52568328466E+03  0.00000000000E+00 0. -1.
         23    2    1    2    0    0  0.13758418379E+02 -0.75417201633E+02 -0.23650863916E+03  0.27831599398E+03  0.12508560162E+03 0.  0.
          5    1    3    3  502    0 -0.25412473026E+02  0.19474977810E+02 -0.18264015824E+02  0.37096027011E+02  0.41800000000E+01 0.  1.
         -5    1    3    3    0  502  0.39170891406E+02 -0.94892179443E+02 -0.21824462333E+03  0.24121996697E+03  0.41800000000E+01 0.  1.
        -11    1    1    2    0    0  0.14284046994E+02  0.83907503950E+02 -0.21939981758E+03  0.23533122014E+03  0.00000000000E+00 0. -1.
         11    1    1    2    0    0 -0.28042465374E+02 -0.84903023167E+01 -0.35658806576E+02  0.46152091871E+02  0.00000000000E+00 0.  1.
</event>
<event>
 7    1  0.4966153E-006  0.1179732E+03  0.7561462E-02  0.1246479E+00
          2   -1    0    0  501    0  0.00000000000E+00  0.00000000000E+00  0.14305688609E+03  0.14305688609E+03  0.00000000000E+00 0. -1.
         -2   -1    0    0    0  501 -0.00000000000E+00 -0.00000000000E+00 -0.13099963979E+03  0.13099963979E+03  0.00000000000E+00 0.  1.
         23    2    1    2    0    0 -0.36329560807E+02 -0.69468700006E+02 -0.92849337963E+01  0.14791916927E+03  0.12509249927E+03 0.  0.
          5    1    3    3  502    0 -0.33878496558E+02 -0.87020822986E+02  0.35174549718E+02  0.99875409936E+02  0.41800000000E+01 0.  1.
         -5    1    3    3    0  502 -0.24510642490E+01  0.17552122979E+02 -0.44459483514E+02  0.48043759338E+02  0.41800000000E+01 0.  1.
        -11    1    1    2    0    0  0.65242464253E+02  0.22322772281E+02  0.99345563867E+01  0.69667644676E+02  0.00000000000E+00 0.  1.
         11    1    1    2    0    0 -0.28912903446E+02  0.47145927726E+02  0.11407623715E+02  0.56469711931E+02  0.00000000000E+00 0. -1.
</event>
<event>
 7    1  0.4966153E-006  0.1148435E+03  0.7561462E-02  0.1251855E+00
          2   -1    0    0  501    0  0.00000000000E+00  0.00000000000E+00  0.93256561104E+02  0.93256561104E+02  0.00000000000E+00 0. -1.
         -2   -1    0    0    0  501 -0.00000000000E+00 -0.00000000000E+00 -0.14638812127E+03  0.14638812127E+03  0.00000000000E+00 0.  1.
         23    2    1    2    0    0  0.27497170917E+02  0.39235528561E+02 -0.34732827729E+02  0.13563959121E+03  0.12205002364E+03 0.  0.
          5    1    3    3  502    0  0.73826971885E+02  0.41007228677E+02 -0.23235840753E+02  0.87689174229E+02  0.41800000000E+01 0. -1.
         -5    1    3    3    0  502 -0.46329800968E+02 -0.17717001160E+01 -0.11496986976E+02  0.47950416980E+02  0.41800000000E+01 0.  1.
        -11    1    1    2    0    0 -0.44945886108E+02 -0.57723945126E+02 -0.93869510881E+00  0.73164661329E+02  0.00000000000E+00 0.  1.
         11    1    1    2    0    0  0.17448715190E+02  0.18488416565E+02 -0.17460037323E+02  0.30840429831E+02  0.00000000000E+00 0. -1.
</event>
<event>
 7    1  0.4966153E-006  0.9282219E+02  0.7561462E-02  0.1296158E+00
         -2   -1    0    0    0  501 -0.00000000000E+00  0.00000000000E+00  0.13170024022E+03  0.13170024022E+03  0.00000000000E+00 0.  1.
          2   -1    0    0  501    0  0.00000000000E+00 -0.00000000000E+00 -0.97089622317E+02  0.97089622317E+02  0.00000000000E+00 0. -1.
         23    2    1    2    0    0  0.25772213396E+02 -0.21587494759E+02  0.31874854373E+02  0.13339082680E+03  0.12508748706E+03 0.  0.
          5    1    3    3  502    0  0.66242690879E+02 -0.56927053674E+00  0.51056619232E+02  0.83741679774E+02  0.41800000000E+01 0.  1.
         -5    1    3    3    0  502 -0.40470477483E+02 -0.21018224223E+02 -0.19181764859E+02  0.49649147025E+02  0.41800000000E+01 0.  1.
        -11    1    1    2    0    0  0.21673683130E+02  0.12949765866E+02  0.30624352722E+02  0.39689998187E+02  0.00000000000E+00 0.  1.
         11    1    1    2    0    0 -0.47445896526E+02  0.86377288929E+01 -0.27888589193E+02  0.55709037550E+02  0.00000000000E+00 0. -1.
</event>
<event>
 7    1  0.4966153E-006  0.1239573E+03  0.7561462E-02  0.1236708E+00
          2   -1    0    0  501    0  0.00000000000E+00  0.00000000000E+00  0.68457872061E+03  0.68457872061E+03  0.00000000000E+00 0. -1.
         -2   -1    0    0    0  501 -0.00000000000E+00 -0.00000000000E+00 -0.34184944869E+02  0.34184944869E+02  0.00000000000E+00 0.  1.
         23    2    1    2    0    0 -0.75819173449E+02  0.65563310420E+02  0.25983909479E+03  0.30531110106E+03  0.12510562941E+03 0.  0.
          5    1    3    3  502    0 -0.20747606435E+02  0.51145678922E+02  0.23774510441E+03  0.24410356555E+03  0.41800000000E+01 0. -1.
         -5    1    3    3    0  502 -0.55071567014E+02  0.14417631497E+02  0.22093990382E+02  0.61207535503E+02  0.41800000000E+01 0. -1.
        -11    1    1    2    0    0 -0.12799591055E+02 -0.41823946810E+02  0.11575326619E+03  0.12374122471E+03  0.00000000000E+00 0. -1.
         11    1    1    2    0    0  0.88618764504E+02 -0.23739363610E+02  0.27480141476E+03  0.28971133972E+03  0.00000000000E+00 0.  1.
</event>
<event>
 7    1  0.4966153E-006  0.1687721E+03  0.7561462E-02  0.1179134E+00
          3   -1    0    0  501    0  0.00000000000E+00  0.00000000000E+00  0.34932717019E+03  0.34932717019E+03  0.00000000000E+00 0. -1.
         -3   -1    0    0    0  501 -0.00000000000E+00 -0.00000000000E+00 -0.10577466993E+03  0.10577466993E+03  0.00000000000E+00 0.  1.
         23    2    1    2    0    0 -0.56373340622E+02  0.14534197109E+03  0.94827944940E+02  0.22129658145E+03  0.12521020615E+03 0.  0.
          5    1    3    3  502    0 -0.31575696121E+02  0.12237379488E+02 -0.23502304373E+02  0.41431977422E+02  0.41800000000E+01 0.  1.
         -5    1    3    3    0  502 -0.24797644501E+02  0.13310459160E+03  0.11833024931E+03  0.17986460402E+03  0.41800000000E+01 0.  1.
        -11    1    1    2    0    0  0.65372900675E+02 -0.86431818874E+02  0.52009632443E+02  0.12020431491E+03  0.00000000000E+00 0.  1.
         11    1    1    2    0    0 -0.89995600523E+01 -0.58910152216E+02  0.96714922880E+02  0.11360094376E+03  0.00000000000E+00 0. -1.
</event>
<event>
 7    1  0.4966153E-006  0.9267129E+02  0.7561462E-02  0.1296509E+00
          2   -1    0    0  501    0  0.00000000000E+00  0.00000000000E+00  0.51667723471E+03  0.51667723471E+03  0.00000000000E+00 0. -1.
         -2   -1    0    0    0  501 -0.00000000000E+00 -0.00000000000E+00 -0.27403773299E+02  0.27403773299E+02  0.00000000000E+00 0.  1.
         23    2    1    2    0    0 -0.16579797433E+02  0.30415133958E+02  0.19973705685E+03  0.23820521881E+03  0.12508742676E+03 0.  0.
          5    1    3    3  502    0 -0.36203973973E+02 -0.13462519170E+02  0.69445887095E+01  0.39467288558E+02  0.41800000000E+01 0. -1.
         -5    1    3    3    0  502  0.19624176540E+02  0.43877653128E+02  0.19279246814E+03  0.19873793025E+03  0.41800000000E+01 0. -1.
        -11    1    1    2    0    0 -0.29011938855E+02  0.16042413780E+02  0.85211800708E+02  0.91433596757E+02  0.00000000000E+00 0. -1.
         11    1    1    2    0    0  0.45591736288E+02 -0.46457547738E+02  0.20432460386E+03  0.21444219244E+03  0.00000000000E+00 0.  1.
</event>
<event>
 7    1  0.4966153E-006  0.1029308E+03  0.7561462E-02  0.1274251E+00
         -1   -1    0    0    0  501 -0.00000000000E+00  0.00000000000E+00  0.42760448276E+02  0.42760448276E+02  0.00000000000E+00 0.  1.
          1   -1    0    0  501    0  0.00000000000E+00 -0.00000000000E+00 -0.29996537134E+03  0.29996537134E+03  0.00000000000E+00 0. -1.
         23    2    1    2    0    0  0.77579165675E+01  0.20061078234E+02 -0.10518163966E+03  0.16484182080E+03  0.12508803473E+03 0.  0.
          5    1    3    3  502    0  0.23836569508E+02  0.64759194138E+02 -0.29006077281E+02  0.74971729275E+02  0.41800000000E+01 0.  1.
         -5    1    3    3    0  502 -0.16078652941E+02 -0.44698115903E+02 -0.76175562384E+02  0.89870091522E+02  0.41800000000E+01 0.  1.
        -11    1    1    2    0    0  0.39469177585E+02 -0.10742931757E+02 -0.93847758149E+02  0.10237493967E+03  0.00000000000E+00 0. -1.
         11    1    1    2    0    0 -0.47227094153E+02 -0.93181464777E+01 -0.58175525248E+02  0.75509059150E+02  0.00000000000E+00 0.  1.
</event>
<event>
 7    1  0.4966153E-006  0.1119453E+03  0.7561462E-02  0.1257009E+00
          1   -1    0    0  501    0  0.00000000000E+00  0.00000000000E+00  0.54821873312E+03  0.54821873312E+03  0.00000000000E+00 0.  1.
         -1   -1    0    0    0  501 -0.00000000000E+00 -0.00000000000E+00 -0.39819315610E+02  0.39819315610E+02  0.00000000000E+00 0. -1.
         23    2    1    2    0    0  0.77197036186E+02 -0.63302937203E+02  0.28673661480E+03  0.32838870295E+03  0.12511838277E+03 0.  0.
          5    1    3    3  502    0  0.46840413536E+02 -0.71741113278E+02  0.28378742950E+03  0.29646852989E+03  0.41800000000E+01 0.  1.
         -5    1    3    3    0  502  0.30356622650E+02  0.84381760750E+01  0.29491852977E+01  0.31920173058E+02  0.41800000000E+01 0.  1.
        -11    1    1    2    0    0 -0.27648364175E+02  0.46327360186E+02  0.31647588403E+02  0.62547791289E+02  0.00000000000E+00 0. -1.
         11    1    1    2    0    0 -0.49548672011E+02  0.16975577017E+02  0.19001521431E+03  0.19710155449E+03  0.00000000000E+00 0.  1.
</event>
<event>
 7    1  0.4966153E-006  0.8720663E+02  0.7561462E-02  0.1309761E+00
          1   -1    0    0  501    0  0.00000000000E+00  0.00000000000E+00  0.31551853783E+02  0.31551853783E+02  0.00000000000E+00 0. -1.
         -1   -1    0    0    0  501 -0.00000000000E+00 -0.00000000000E+00 -0.39829368331E+03  0.39829368331E+03  0.00000000000E+00 0.  1.
         23    2    1    2    0    0  0.56182781792E+02 -0.41755315764E+01 -0.31369960553E+03  0.34238703445E+03  0.12508996289E+03 0.  0.
          5    1    3    3  502    0  0.44456443287E+02 -0.45045754779E+02 -0.28237245750E+03  0.28940831454E+03  0.41800000000E+01 0. -1.
         -5    1    3    3    0  502  0.11726338504E+02  0.40870223203E+02 -0.31327148039E+02  0.52978719913E+02  0.41800000000E+01 0. -1.
        -11    1    1    2    0    0 -0.29073924919E+02 -0.17163696292E+02 -0.34581887211E+02  0.48330037282E+02  0.00000000000E+00 0.  1.
         11    1    1    2    0    0 -0.27108856873E+02  0.21339227869E+02 -0.18460336777E+02  0.39128465353E+02  0.00000000000E+00 0. -1.
</event>
<event>
 7    1  0.4966153E-006  0.1488654E+03  0.7561462E-02  0.1201874E+00
         -2   -1    0    0    0  501 -0.00000000000E+00  0.00000000000E+00  0.26837128123E+03  0.26837128123E+03  0.00000000000E+00 0.  1.
          2   -1    0    0  501    0  0.00000000000E+00 -0.00000000000E+00 -0.13106169681E+03  0.13106169681E+03  0.00000000000E+00 0. -1.
         23    2    1    2    0    0  0.12474340488E+03 -0.72161628485E+02  0.12382415294E+03  0.22748177679E+03  0.12508924907E+03 0.  0.
          5    1    3    3  502    0  0.12917973119E+03 -0.70711651154E+02  0.14420747644E+03  0.20615724392E+03  0.41800000000E+01 0.  1.
         -5    1    3    3    0  502 -0.44363263057E+01 -0.14499773313E+01 -0.20383323500E+02  0.21324532873E+02  0.41800000000E+01 0.  1.
        -11    1    1    2    0    0 -0.47456846728E+02  0.29030638664E+02  0.51328029375E+02  0.75693440153E+02  0.00000000000E+00 0.  1.
         11    1    1    2    0    0 -0.77286558157E+02  0.43130989822E+02 -0.37842597891E+02  0.96257761089E+02  0.00000000000E+00 0. -1.
</event>
<event>
 7    1  0.4966153E-006  0.1032896E+03  0.7561462E-02  0.1273527E+00
          2   -1    0    0  501    0  0.00000000000E+00  0.00000000000E+00  0.23199384406E+03  0.23199384406E+03  0.00000000000E+00 0. -1.
         -2   -1    0    0    0  501 -0.00000000000E+00 -0.00000000000E+00 -0.10942977872E+03  0.10942977872E+03  0.00000000000E+00 0.  1.
         23    2    1    2    0    0 -0.32795993887E+02 -0.45958195601E+02 -0.42305458281E+02  0.14364009215E+03  0.12511990774E+03 0.  0.
          5    1    3    3  502    0 -0.48550347936E+02 -0.62797948538E+02 -0.71008063848E+02  0.10658487771E+03  0.41800000000E+01 0. -1.
         -5    1    3    3    0  502  0.15754354049E+02  0.16839752937E+02  0.28702605567E+02  0.37055214435E+02  0.41800000000E+01 0. -1.
        -11    1    1    2    0    0  0.28873787627E+02 -0.21553071253E+02  0.29904571899E+02  0.46824287639E+02  0.00000000000E+00 0.  1.
         11    1    1    2    0    0  0.39222062593E+01  0.67511266854E+02  0.13496495172E+03  0.15095924300E+03  0.00000000000E+00 0. -1.
</event>
<event>
 7    1  0.4966153E-006  0.1028556E+03  0.7561462E-02  0.1274403E+00
         -2   -1    0    0    0  501 -0.00000000000E+00  0.00000000000E+00  0.22196473599E+03  0.22196473599E+03  0.00000000000E+00 0.  1.
          2   -1    0    0  501    0  0.00000000000E+00 -0.00000000000E+00 -0.63694390171E+02  0.63694390171E+02  0.00000000000E+00 0. -1.
         23    2    1    2    0    0 -0.80685404591E+01 -0.39428145948E+02  0.12865674698E+03  0.18389819782E+03  0.12508520528E+03 0.  0.
          5    1    3    3  502    0 -0.50183130359E+02  0.28999900772E+01  0.10611249056E+02  0.51544422798E+02  0.41800000000E+01 0. -1.
         -5    1    3    3    0  502  0.42114589900E+02 -0.42328136025E+02  0.11804549792E+03  0.13235377502E+03  0.41800000000E+01 0. -1.
        -11    1    1    2    0    0  0.36518358475E+02  0.52623711218E+02  0.10154632114E+02  0.64853388819E+02  0.00000000000E+00 0.  1.
         11    1    1    2    0    0 -0.28449818015E+02 -0.13195565270E+02  0.19458966729E+02  0.36907539529E+02  0.00000000000E+00 0. -1.
</event>
<event>
 7    1  0.4966153E-006  0.1141473E+03  0.7561462E-02  0.1253077E+00
          1   -1    0    0  501    0  0.00000000000E+00  0.00000000000E+00  0.86096695064E+02  0.86096695064E+02  0.00000000000E+00 0. -1.
         -1   -1    0    0    0  501 -0.00000000000E+00 -0.00000000000E+00 -0.17892356833E+03  0.17892356833E+03  0.00000000000E+00 0.  1.
         23    2    1    2    0    0  0.34108100541E+02  0.29265049506E+02 -0.92756544355E+02  0.16208303112E+03  0.12508927537E+03 0.  0.
          5    1    3    3  502    0 -0.42546210892E+02 -0.13645003373E+02 -0.34262014091E+02  0.56459934360E+02  0.41800000000E+01 0.  1.
         -5    1    3    3    0  502  0.76654311433E+02  0.42910052878E+02 -0.58494530264E+02  0.10562309676E+03  0.41800000000E+01 0.  1.
        -11    1    1    2    0    0 -0.32793706078E+02  0.24971893478E+02  0.19056969149E+02  0.45411349852E+02  0.00000000000E+00 0. -1.
         11    1    1    2    0    0 -0.13143944623E+01 -0.54236942984E+02 -0.19127298060E+02  0.57525882419E+02  0.00000000000E+00 0.  1.
</event>
<event>
 7    1  0.4966153E-006  0.1231535E+03  0.7561462E-02  0.1237984E+00
         -3   -1    0    0    0  501 -0.00000000000E+00  0.00000000000E+00  0.54432674085E+03  0.54432674085E+03  0.00000000000E+00 0.  1.
          3   -1    0    0  501    0  0.00000000000E+00 -0.00000000000E+00 -0.35107398818E+02  0.35107398818E+02  0.00000000000E+00 0. -1.
         23    2    1    2    0    0  0.62966108172E+02 -0.51730301596E+01  0.39654212119E+03  0.42057895800E+03  0.12509802164E+03 0.  0.
          5    1    3    3  502    0  0.24660163819E+02  0.57578675246E+02  0.23137175253E+03  0.23973691370E+03  0.41800000000E+01 0.  1.
         -5    1    3    3    0  502  0.38305944353E+02 -0.62751705405E+02  0.16517036866E+03  0.18084204430E+03  0.41800000000E+01 0.  1.
        -11    1    1    2    0    0  0.12862099711E+02  0.27907852105E+02  0.46177782041E+02  0.55467732713E+02  0.00000000000E+00 0.  1.
         11    1    1    2    0    0 -0.75828207883E+02 -0.22734821945E+02  0.66499438804E+02  0.10338744895E+03  0.00000000000E+00 0. -1.
</event>
<event>
 7    1  0.4966153E-006  0.1053364E+03  0.7561462E-02  0.1269458E+00
         -2   -1    0    0    0  501 -0.00000000000E+00  0.00000000000E+00  0.22357767203E+02  0.22357767203E+02  0.00000000000E+00 0.  1.
          2   -1    0    0  501    0  0.00000000000E+00 -0.00000000000E+00 -0.70237763041E+03  0.70237763041E+03  0.00000000000E+00 0. -1.
         23    2    1    2    0    0 -0.45602663669E+02 -0.50915009399E+01 -0.31514586509E+03  0.34215556860E+03  0.12509192832E+03 0.  0.
          5    1    3    3  502    0 -0.33029073254E+02 -0.54196430769E+02 -0.25768206954E+03  0.26541607741E+03  0.41800000000E+01 0.  1.
         -5    1    3    3    0  502 -0.12573590415E+02  0.49104929829E+02 -0.57463795551E+02  0.76739491193E+02  0.41800000000E+01 0.  1.
        -11    1    1    2    0    0 -0.25216770004E+02  0.19276218858E+00 -0.25509231331E+02  0.35869813630E+02  0.00000000000E+00 0.  1.
         11    1    1    2    0    0  0.70819433673E+02  0.48987387513E+01 -0.33936476679E+03  0.34671001538E+03  0.00000000000E+00 0. -1.
</event>
<event>
 7    1  0.4966153E-006  0.1766097E+03  0.7561462E-02  0.1171125E+00
          2   -1    0    0  501    0  0.00000000000E+00  0.00000000000E+00  0.59340045183E+03  0.59340045183E+03  0.00000000000E+00 0. -1.
         -2   -1    0    0    0  501 -0.00000000000E+00 -0.00000000000E+00 -0.13213134427E+03  0.13213134427E+03  0.00000000000E+00 0.  1.
         23    2    1    2    0    0  0.10909472404E+03  0.11614979590E+03 -0.26284238808E+02  0.20428823779E+03  0.12510151473E+03 0.  0.
          5    1    3    3  502    0  0.12450513279E+03  0.89497368584E+02  0.13300737658E+02  0.15396651940E+03  0.41800000000E+01 0. -1.
         -5    1    3    3    0  502 -0.15410408747E+02  0.26652427312E+02 -0.39584976467E+02  0.50321718385E+02  0.41800000000E+01 0. -1.
        -11    1    1    2    0    0 -0.89262906893E+00 -0.31150620811E+02  0.29284421487E+02  0.42763714822E+02  0.00000000000E+00 0.  1.
         11    1    1    2    0    0 -0.10820209497E+03 -0.84999175085E+02  0.45826892488E+03  0.47847984349E+03  0.00000000000E+00 0. -1.
</event>
<event>
 7    1  0.4966153E-006  0.1635805E+03  0.7561462E-02  0.1184713E+00
         -1   -1    0    0    0  501 -0.00000000000E+00  0.00000000000E+00  0.16943307864E+03  0.16943307864E+03  0.00000000000E+00 0.  1.
          1   -1    0    0  501    0  0.00000000000E+00 -0.00000000000E+00 -0.31558719732E+03  0.31558719732E+03  0.00000000000E+00 0. -1.
         23    2    1    2    0    0 -0.11528711878E+03  0.91144003576E+02  0.72127646726E+02  0.20603867657E+03  0.12510471484E+03 0.  0.
          5    1    3    3  502    0 -0.72553272256E+02  0.87122439029E+02  0.10281422086E+03  0.15310954610E+03  0.41800000000E+01 0.  1.
         -5    1    3    3    0  502 -0.42733846525E+02  0.40215645468E+01 -0.30686574130E+02  0.52929130468E+02  0.41800000000E+01 0.  1.
        -11    1    1    2    0    0  0.39096242979E+02  0.13303297215E+02 -0.32058117340E+02  0.52280176159E+02  0.00000000000E+00 0.  1.
         11    1    1    2    0    0  0.76190875802E+02 -0.10444730079E+03 -0.18622364806E+03  0.22670142323E+03  0.00000000000E+00 0. -1.
</event>
<event>
 7    1  0.4966153E-006  0.1423778E+03  0.7561462E-02  0.1210165E+00
         -1   -1    0    0    0  501 -0.00000000000E+00  0.00000000000E+00  0.34490871610E+03  0.34490871610E+03  0.00000000000E+00 0.  1.
          1   -1    0    0  501    0  0.00000000000E+00 -0.00000000000E+00 -0.60308225104E+02  0.60308225104E+02  0.00000000000E+00 0. -1.
         23    2    1    2    0    0  0.55264738665E+02  0.52422072972E+02  0.16265739083E+03  0.21887261157E+03  0.12508208596E+03 0.  0.
          5    1    3    3  502    0 -0.37344911141E+02  0.36493884622E+02  0.57244068485E+02  0.77593825654E+02  0.41800000000E+01 0. -1.
         -5    1    3    3    0  502  0.92609649806E+02  0.15928188349E+02  0.10541332234E+03  0.14127878591E+03  0.41800000000E+01 0. -1.
        -11    1    1    2    0    0 -0.43194399777E+02 -0.89467316241E+02  0.70542701071E+02  0.12184592534E+03  0.00000000000E+00 0. -1.
         11    1    1    2    0    0 -0.12070338888E+02  0.37045243269E+02  0.51400399095E+02  0.64498404297E+02  0.00000000000E+00 0.  1.
</event>
<event>
 7    1  0.4966153E-006  0.2752229E+03  0.7561462E-02  0.1098327E+00
          1   -1    0    0  501    0  0.00000000000E+00  0.00000000000E+00  0.74574791253E+03  0.74574791253E+03  0.00000000000E+00 0. -1.
         -1   -1    0    0    0  501 -0.00000000000E+00 -0.00000000000E+00 -0.13705608922E+03  0.13705608922E+03  0.00000000000E+00 0.  1.
         23    2    1    2    0    0 -0.20634937985E+03 -0.17175751921E+03  0.12338678919E+03  0.32086266568E+03  0.12509132068E+03 0.  0.
          5    1    3    3  502    0 -0.20274385102E+03 -0.14961777608E+03  0.68092154323E+02  0.26104513389E+03  0.41800000000E+01 0. -1.
         -5    1    3    3    0  502 -0.36055288271E+01 -0.22139743130E+02  0.55294634869E+02  0.59817531789E+02  0.41800000000E+01 0. -1.
        -11    1    1    2    0    0  0.10999378916E+03  0.13085278110E+03  0.36103337539E+03  0.39945735958E+03  0.00000000000E+00 0. -1.
         11    1    1    2    0    0  0.96355590691E+02  0.40904738110E+02  0.12427165872E+03  0.16248397650E+03  0.00000000000E+00 0.  1.
</event>
<event>
 7    1  0.4966153E-006  0.8536799E+02  0.7561462E-02  0.1314473E+00
         -1   -1    0    0    0  501 -0.00000000000E+00  0.00000000000E+00  0.71187331913E+03  0.71187331913E+03  0.00000000000E+00 0.  1.
          1   -1    0    0  501    0  0.00000000000E+00 -0.00000000000E+00 -0.25961993345E+02  0.25961993345E+02  0.00000000000E+00 0. -1.
         23    2    1    2    0    0 -0.29732381416E+02 -0.17938604025E+02  0.57667679340E+03  0.59111222472E+03  0.12510687490E+03 0.  0.
          5    1    3    3  502    0  0.31700707665E+02 -0.21735049452E+02  0.43336192363E+03  0.43508318342E+03  0.41800000000E+01 0. -1.
         -5    1    3    3    0  502 -0.61433089082E+02  0.37964454278E+01  0.14331486977E+03  0.15602904130E+03  0.41800000000E+01 0. -1.
        -11    1    1    2    0    0 -0.16838577837E+02 -0.61779967928E+01  0.88547205394E+02  0.90345519707E+02  0.00000000000E+00 0.  1.
         11    1    1    2    0    0  0.46570959254E+02  0.24116600817E+02  0.20687326986E+02  0.56377568045E+02  0.00000000000E+00 0. -1.
</event>
<event>
 7    1  0.4966153E-006  0.1006663E+03  0.7561462E-02  0.1278901E+00
         -1   -1    0    0    0  501 -0.00000000000E+00  0.00000000000E+00  0.19396965464E+03  0.19396965464E+03  0.00000000000E+00 0.  1.
          1   -1    0    0  501    0  0.00000000000E+00 -0.00000000000E+00 -0.16597074782E+03  0.16597074782E+03  0.00000000000E+00 0. -1.
         23    2    1    2    0    0 -0.19149284307E+02 -0.23521786175E+01  0.15996834721E+03  0.19725061036E+03  0.11377918678E+03 0.  0.
          5    1    3    3  502    0  0.35068140362E+02 -0.35151661848E+02  0.52208928392E+02  0.72171035762E+02  0.41800000000E+01 0. -1.
         -5    1    3    3    0  502 -0.54217424669E+02  0.32799483230E+02  0.10775941882E+03  0.12507957460E+03  0.41800000000E+01 0.  1.
        -11    1    1    2    0    0  0.33463047286E+02 -0.34743728257E+02 -0.10222177430E+03  0.11303182440E+03  0.00000000000E+00 0. -1.
         11    1    1    2    0    0 -0.14313762979E+02  0.37095906874E+02 -0.29747666090E+02  0.49657967691E+02  0.00000000000E+00 0.  1.
</event>
<event>
 7    1  0.4966153E-006  0.1310799E+03  0.7561462E-02  0.1225862E+00
          2   -1    0    0  501    0  0.00000000000E+00  0.00000000000E+00  0.22851731708E+03  0.22851731708E+03  0.00000000000E+00 0. -1.
         -2   -1    0    0    0  501 -0.00000000000E+00 -0.00000000000E+00 -0.14389935294E+03  0.14389935294E+03  0.00000000000E+00 0.  1.
         23    2    1    2    0    0 -0.87094068242E+02 -0.32213572723E+02 -0.70194503568E+02  0.17087303728E+03  0.12508891057E+03 0.  0.
          5    1    3    3  502    0  0.24396495984E+02 -0.17183345596E+02 -0.47159464388E+02  0.55963772778E+02  0.41800000000E+01 0.  1.
         -5    1    3    3    0  502 -0.11149056423E+03 -0.15030227127E+02 -0.23035039180E+02  0.11490926450E+03  0.41800000000E+01 0.  1.
        -11    1    1    2    0    0  0.82156437604E+01 -0.22169191934E+02  0.68948473960E+02  0.72889381495E+02  0.00000000000E+00 0. -1.
         11    1    1    2    0    0  0.78878424482E+02  0.54382764657E+02  0.85863993753E+02  0.12865425125E+03  0.00000000000E+00 0.  1.
</event>
<event>
 7    1  0.4966153E-006  0.1296246E+03  0.7561462E-02  0.1228014E+00
         -1   -1    0    0    0  501 -0.00000000000E+00  0.00000000000E+00  0.84085442838E+02  0.84085442838E+02  0.00000000000E+00 0.  1.
          1   -1    0    0  501    0  0.00000000000E+00 -0.00000000000E+00 -0.21147233587E+03  0.21147233587E+03  0.00000000000E+00 0. -1.
         23    2    1    2    0    0  0.72325419143E+02  0.20845068723E+02 -0.56143142883E+02  0.15641212967E+03  0.12508884311E+03 0.  0.
          5    1    3    3  502    0  0.82967743330E+02  0.59955074130E+02 -0.53506762197E+02  0.11557985702E+03  0.41800000000E+01 0. -1.
         -5    1    3    3    0  502 -0.10642324188E+02 -0.39110005407E+02 -0.26363806854E+01  0.40832272655E+02  0.41800000000E+01 0. -1.
        -11    1    1    2    0    0 -0.43694213716E+02  0.33211104524E+02 -0.50421519320E+02  0.74528460245E+02  0.00000000000E+00 0. -1.
         11    1    1    2    0    0 -0.28631205427E+02 -0.54056173247E+02 -0.20822230826E+02  0.64617188788E+02  0.00000000000E+00 0.  1.
</event>
<event>
 7    1  0.4966153E-006  0.9052104E+02  0.7561462E-02  0.1301595E+00
         -2   -1    0    0    0  501 -0.00000000000E+00  0.00000000000E+00  0.11513749463E+03  0.11513749463E+03  0.00000000000E+00 0.  1.
          2   -1    0    0  501    0  0.00000000000E+00 -0.00000000000E+00 -0.14213990164E+03  0.14213990164E+03  0.00000000000E+00 0. -1.
         23    2    1    2    0    0 -0.31809426381E+02  0.52484063119E+02 -0.19195299861E+02  0.14065290257E+03  0.12509341700E+03 0.  0.
          5    1    3    3  502    0 -0.32790634002E+01 -0.72397674445E+01  0.46466503310E+02  0.47326259300E+02  0.41800000000E+01 0.  1.
         -5    1    3    3    0  502 -0.28530362980E+02  0.59723830564E+02 -0.65661803171E+02  0.93326643273E+02  0.41800000000E+01 0.  1.
        -11    1    1    2    0    0  0.25345241242E+00  0.23481461011E+02  0.18894360993E+02  0.30140340520E+02  0.00000000000E+00 0.  1.
         11    1    1    2    0    0  0.31555973968E+02 -0.75965524131E+02 -0.26701468144E+02  0.86484153176E+02  0.00000000000E+00 0. -1.
</event>
<event>
 7    1  0.4966153E-006  0.1553090E+03  0.7561462E-02  0.1194097E+00
          2   -1    0    0  501    0  0.00000000000E+00  0.00000000000E+00  0.10537540394E+04  0.10537540394E+04  0.00000000000E+00 0. -1.
         -2   -1    0    0    0  501 -0.00000000000E+00 -0.00000000000E+00 -0.27022435179E+02  0.27022435179E+02  0.00000000000E+00 0.  1.
         23    2    1    2    0    0 -0.40119791984E+02  0.12271809417E+03  0.56954988206E+03  0.59724605069E+03  0.12508576486E+03 0.  0.
          5    1    3    3  502    0  0.27099412200E+02  0.73191616570E+02  0.14680678238E+03  0.16631624885E+03  0.41800000000E+01 0. -1.
         -5    1    3    3    0  502 -0.67219204184E+02  0.49526477601E+02  0.42274309967E+03  0.43092980184E+03  0.41800000000E+01 0. -1.
        -11    1    1    2    0    0 -0.19654698063E+02 -0.55658555722E+02  0.10910930826E+03  0.12405250150E+03  0.00000000000E+00 0.  1.
         11    1    1    2    0    0  0.59774490048E+02 -0.67059538449E+02  0.34807241393E+03  0.35947792241E+03  0.00000000000E+00 0. -1.
</event>
<event>
 7    1  0.4966153E-006  0.1536816E+03  0.7561462E-02  0.1196021E+00
          1   -1    0    0  501    0  0.00000000000E+00  0.00000000000E+00  0.99483978516E+03  0.99483978516E+03  0.00000000000E+00 0. -1.
         -1   -1    0    0    0  501 -0.00000000000E+00 -0.00000000000E+00 -0.25563229303E+02  0.25563229303E+02  0.00000000000E+00 0.  1.
         23    2    1    2    0    0 -0.10017422315E+03 -0.58747109750E+02  0.43855634518E+03  0.47062497721E+03  0.12518028354E+03 0.  0.
          5    1    3    3  502    0 -0.66005614618E+02  0.31535676503E+02  0.16610730043E+03  0.18154984910E+03  0.41800000000E+01 0. -1.
         -5    1    3    3    0  502 -0.34168608536E+02 -0.90282786253E+02  0.27244904475E+03  0.28907512811E+03  0.41800000000E+01 0. -1.
        -11    1    1    2    0    0  0.76239072316E+02  0.24314238046E+01  0.37049854990E+03  0.37826906224E+03  0.00000000000E+00 0. -1.
         11    1    1    2    0    0  0.23935150838E+02  0.56315685945E+02  0.16022166078E+03  0.17150897502E+03  0.00000000000E+00 0.  1.
</event>
<event>
 7    1  0.4966153E-006  0.1079011E+03  0.7561462E-02  0.1264507E+00
          2   -1    0    0  501    0  0.00000000000E+00  0.00000000000E+00  0.23734035686E+03  0.23734035686E+03  0.00000000000E+00 0. -1.
         -2   -1    0    0    0  501 -0.00000000000E+00 -0.00000000000E+00 -0.19686854523E+03  0.19686854523E+03  0.00000000000E+00 0.  1.
         23    2    1    2    0    0 -0.43716953572E+02  0.99099433180E+01 -0.15933651065E+03  0.20745761181E+03  0.12506461557E+03 0.  0.
          5    1    3    3  502    0 -0.10307363274E+02  0.53563374702E+02 -0.13781517919E+03  0.14827600231E+03  0.41800000000E+01 0.  1.
         -5    1    3    3    0  502 -0.33409590298E+02 -0.43653431384E+02 -0.21521331462E+02  0.59181609503E+02  0.41800000000E+01 0.  1.
        -11    1    1    2    0    0  0.40242622604E+01  0.41120168401E+02  0.61642059125E+02  0.74207859349E+02  0.00000000000E+00 0.  1.
         11    1    1    2    0    0  0.39692691312E+02 -0.51030111719E+02  0.13816626315E+03  0.15254343092E+03  0.00000000000E+00 0. -1.
</event>
<event>
 7    1  0.4966153E-006  0.1169859E+03  0.7561462E-02  0.1248154E+00
          2   -1    0    0  501    0  0.00000000000E+00  0.00000000000E+00  0.42886079613E+03  0.42886079613E+03  0.00000000000E+00 0. -1.
         -2   -1    0    0    0  501 -0.00000000000E+00 -0.00000000000E+00 -0.55176594588E+02  0.55176594588E+02  0.00000000000E+00 0.  1.
         23    2    1    2    0    0  0.10532047804E+03 -0.14723927428E+02  0.16572159966E+03  0.23328312929E+03  0.12509265640E+03 0.  0.
          5    1    3    3  502    0  0.10394794153E+03 -0.19768564378E+02  0.18484150249E+03  0.21302540724E+03  0.41800000000E+01 0. -1.
         -5    1    3    3    0  502  0.13725365100E+01  0.50446369503E+01 -0.19119902831E+02  0.20257722052E+02  0.41800000000E+01 0. -1.
        -11    1    1    2    0    0 -0.75932000829E+02 -0.17343367647E+02  0.18678921649E+03  0.20237754951E+03  0.00000000000E+00 0. -1.
         11    1    1    2    0    0 -0.29388477215E+02  0.32067295075E+02  0.21173385397E+02  0.48376711913E+02  0.00000000000E+00 0.  1.
</event>
<event>
 7    1  0.4966153E-006  0.1683601E+03  0.7561462E-02  0.1179569E+00
          1   -1    0    0  501    0  0.00000000000E+00  0.00000000000E+00  0.52689149689E+02  0.52689149689E+02  0.00000000000E+00 0. -1.
         -1   -1    0    0    0  501 -0.00000000000E+00 -0.00000000000E+00 -0.55518960870E+03  0.55518960870E+03  0.00000000000E+00 0.  1.
         23    2    1    2    0    0 -0.89708062363E+02  0.95885739797E+02 -0.28488032309E+03  0.33770685215E+03  0.12508999941E+03 0.  0.
          5    1    3    3  502    0  0.21516159704E+02  0.52978138433E+02 -0.59029466194E+02  0.82289601769E+02  0.41800000000E+01 0. -1.
         -5    1    3    3    0  502 -0.11122422207E+03  0.42907601364E+02 -0.22585085690E+03  0.25541725038E+03  0.41800000000E+01 0. -1.
        -11    1    1    2    0    0 -0.10632199573E+02 -0.47550564480E+02 -0.67415362393E+02  0.83180111425E+02  0.00000000000E+00 0.  1.
         11    1    1    2    0    0  0.10034026194E+03 -0.48335175317E+02 -0.15020477353E+03  0.18699179481E+03  0.00000000000E+00 0. -1.
</event>
<event>
 7    1  0.4966153E-006  0.8683413E+02  0.7561462E-02  0.1310705E+00
         -3   -1    0    0    0  501 -0.00000000000E+00  0.00000000000E+00  0.13578597562E+03  0.13578597562E+03  0.00000000000E+00 0. -1.
          3   -1    0    0  501    0  0.00000000000E+00 -0.00000000000E+00 -0.96385031407E+02  0.96385031407E+02  0.00000000000E+00 0.  1.
         23    2    1    2    0    0 -0.17189273587E+02  0.11617214783E+02  0.53587872025E+02  0.13766067740E+03  0.12509345014E+03 0.  0.
          5    1    3    3  502    0  0.24000404133E+02  0.27126050738E+02 -0.27253487297E+02  0.45519962621E+02  0.41800000000E+01 0. -1.
         -5    1    3    3    0  502 -0.41189677720E+02 -0.15508835955E+02  0.80841359322E+02  0.92140714781E+02  0.41800000000E+01 0. -1.
        -11    1    1    2    0    0  0.50028992139E+02 -0.26870646428E+02 -0.13124835166E+02  0.58285444084E+02  0.00000000000E+00 0.  1.
         11    1    1    2    0    0 -0.32839718552E+02  0.15253431645E+02 -0.10620926470E+01  0.36224885539E+02  0.00000000000E+00 0. -1.
</event>
<event>
 7    1  0.4966153E-006  0.1305058E+03  0.7561462E-02  0.1226707E+00
         -2   -1    0    0    0  501 -0.00000000000E+00  0.00000000000E+00  0.24617780626E+02  0.24617780626E+02  0.00000000000E+00 0. -1.
          2   -1    0    0  501    0  0.00000000000E+00 -0.00000000000E+00 -0.84848855702E+03  0.84848855702E+03  0.00000000000E+00 0.  1.
         23    2    1    2    0    0  0.82215537602E+02  0.23061226757E+02 -0.32211506980E+03  0.35594476948E+03  0.12508935178E+03 0.  0.
          5    1    3    3  502    0 -0.32776262800E+02 -0.35748008080E+01 -0.76479443247E+02  0.83388489873E+02  0.41800000000E+01 0. -1.
         -5    1    3    3    0  502  0.11499180040E+03  0.26636027565E+02 -0.24563562655E+03  0.27255627961E+03  0.41800000000E+01 0. -1.
        -11    1    1    2    0    0 -0.80813139717E+02  0.55665219340E+01 -0.45622429290E+03  0.46335985492E+03  0.00000000000E+00 0.  1.
         11    1    1    2    0    0 -0.14023978850E+01 -0.28627748691E+02 -0.45531413697E+02  0.53801713245E+02  0.00000000000E+00 0. -1.
</event>
<event>
 7    1  0.4966153E-006  0.2619101E+03  0.7561462E-02  0.1106001E+00
          1   -1    0    0  501    0  0.00000000000E+00  0.00000000000E+00  0.25724619612E+03  0.25724619612E+03  0.00000000000E+00 0. -1.
         -1   -1    0    0    0  501 -0.00000000000E+00 -0.00000000000E+00 -0.36212419914E+03  0.36212419914E+03  0.00000000000E+00 0.  1.
         23    2    1    2    0    0  0.24406406861E+03  0.80137649277E+02 -0.18003650535E+03  0.33771340021E+03  0.12509150653E+03 0.  0.
          5    1    3    3  502    0  0.14787069704E+03  0.63849806499E+02 -0.38328593252E+02  0.16561731278E+03  0.41800000000E+01 0. -1.
         -5    1    3    3    0  502  0.96193371569E+02  0.16287842779E+02 -0.14170791210E+03  0.17209608743E+03  0.41800000000E+01 0. -1.
        -11    1    1    2    0    0 -0.15498825930E+00 -0.11723900588E+02  0.18775901972E+02  0.22136132481E+02  0.00000000000E+00 0.  1.
         11    1    1    2    0    0 -0.24390908035E+03 -0.68413748689E+02  0.56382600365E+02  0.25952086257E+03  0.00000000000E+00 0. -1.
</event>
<event>
 6    1  0.4966153E-006  0.2087430E+03  0.7561462E-02  0.1142565E+00
         -2   -1    0    0    0  501 -0.00000000000E+00  0.00000000000E+00  0.27938745970E+03  0.27938745970E+03  0.00000000000E+00 0.  1.
          2   -1    0    0  501    0  0.00000000000E+00 -0.00000000000E+00 -0.17465638440E+03  0.17465638440E+03  0.00000000000E+00 0. -1.
          5    1    1    2  502    0  0.53686445775E+02  0.74331769051E+02  0.35992569733E+02  0.98592006908E+02  0.41800000000E+01 0. -1.
         -5    1    1    2    0  502 -0.16718646533E+03 -0.58024524405E+01  0.94608772329E+02  0.19223234599E+03  0.41800000000E+01 0.  1.
        -11    1    1    2    0    0 -0.13396990864E+02 -0.16389319394E+02 -0.14290765687E+02  0.25540460809E+02  0.00000000000E+00 0.  1.
         11    1    1    2    0    0  0.12689701042E+03 -0.52139997216E+02 -0.11579501072E+02  0.13767903039E+03  0.00000000000E+00 0. -1.
</event>
<event>
 6    1  0.4966153E-006  0.1226982E+03  0.7561462E-02  0.1238711E+00
         -1   -1    0    0    0  501 -0.00000000000E+00  0.00000000000E+00  0.48197081476E+02  0.48197081476E+02  0.00000000000E+00 0.  1.
          1   -1    0    0  501    0  0.00000000000E+00 -0.00000000000E+00 -0.37587783787E+03  0.37587783787E+03  0.00000000000E+00 0. -1.
          5    1    1    2  502    0  0.71945417528E+02  0.32838837284E+02 -0.10309224225E+03  0.13000005827E+03  0.41800000000E+01 0. -1.
         -5    1    1    2    0  502 -0.73282408823E+02 -0.25800674368E+02 -0.39200812907E+02  0.87121537941E+02  0.41800000000E+01 0.  1.
        -11    1    1    2    0    0 -0.63847006353E+01 -0.47133704052E+02 -0.12775366584E+03  0.13632075996E+03  0.00000000000E+00 0.  1.
         11    1    1    2    0    0  0.77216919299E+01  0.40095541135E+02 -0.57634035399E+02  0.70632563181E+02  0.00000000000E+00 0. -1.
</event>
<event>
 7    1  0.4966153E-006  0.1362125E+03  0.7561462E-02  0.1218518E+00
          1   -1    0    0  501    0  0.00000000000E+00  0.00000000000E+00  0.58126205089E+02  0.58126205089E+02  0.00000000000E+00 0. -1.
         -1   -1    0    0    0  501 -0.00000000000E+00 -0.00000000000E+00 -0.36016335601E+03  0.36016335601E+03  0.00000000000E+00 0.  1.
         23    2    1    2    0    0 -0.33105685044E+02 -0.77927813395E+02 -0.22862883015E+03  0.27402460070E+03  0.12509839859E+03 0.  0.
          5    1    3    3  502    0 -0.18114474664E+02 -0.11172207092E+03 -0.16115825215E+03  0.19697565829E+03  0.41800000000E+01 0. -1.
         -5    1    3    3    0  502 -0.14991210380E+02  0.33794257525E+02 -0.67470578001E+02  0.77048942407E+02  0.41800000000E+01 0. -1.
        -11    1    1    2    0    0 -0.26941477644E+02  0.48448240511E+01 -0.28640867841E+02  0.39618365039E+02  0.00000000000E+00 0.  1.
         11    1    1    2    0    0  0.60047162688E+02  0.73082989343E+02 -0.44767452923E+02  0.10464659536E+03  0.00000000000E+00 0. -1.
</event>
<event>
 7    1  0.4966153E-006  0.9794899E+02  0.7561462E-02  0.1284669E+00
         -1   -1    0    0    0  501 -0.00000000000E+00  0.00000000000E+00  0.97440846322E+02  0.97440846322E+02  0.00000000000E+00 0.  1.
          1   -1    0    0  501    0  0.00000000000E+00 -0.00000000000E+00 -0.14089607641E+03  0.14089607641E+03  0.00000000000E+00 0. -1.
         23    2    1    2    0    0 -0.15477986000E+02 -0.11141449133E+02  0.25382305863E+01  0.12644513323E+03  0.12497291372E+03 0.  0.
          5    1    3    3  502    0  0.17951878346E+02  0.36195944650E+02 -0.37980917642E+02  0.55609701043E+02  0.41800000000E+01 0. -1.
         -5    1    3    3    0  502 -0.33429864346E+02 -0.47337393783E+02  0.40519148228E+02  0.70835432189E+02  0.41800000000E+01 0.  1.
        -11    1    1    2    0    0 -0.29033806631E+02  0.35956776147E+02 -0.38961671243E+02  0.60447196001E+02  0.00000000000E+00 0. -1.
         11    1    1    2    0    0  0.44511792631E+02 -0.24815327013E+02 -0.70317894353E+01  0.51444593503E+02  0.00000000000E+00 0.  1.
</event>
<event>
 7    1  0.4966153E-006  0.1591453E+03  0.7561462E-02  0.1189665E+00
         -3   -1    0    0    0  501 -0.00000000000E+00  0.00000000000E+00  0.37903406392E+02  0.37903406392E+02  0.00000000000E+00 0.  1.
          3   -1    0    0  501    0  0.00000000000E+00 -0.00000000000E+00 -0.10098852175E+04  0.10098852175E+04  0.00000000000E+00 0. -1.
         23    2    1    2    0    0 -0.14018685664E+03  0.71523369937E+02 -0.40280975366E+03  0.45019205500E+03  0.12509692849E+03 0.  0.
          5    1    3    3  502    0 -0.66381886396E+02  0.16910096453E+02 -0.31736536778E+03  0.32470102443E+03  0.41800000000E+01 0. -1.
         -5    1    3    3    0  502 -0.73804970245E+02  0.54613273484E+02 -0.85444385882E+02  0.12549103057E+03  0.41800000000E+01 0. -1.
        -11    1    1    2    0    0  0.64326909272E+02 -0.38906240079E+02 -0.12540611564E+03  0.14621333938E+03  0.00000000000E+00 0.  1.
         11    1    1    2    0    0  0.75859947369E+02 -0.32617129858E+02 -0.44376594180E+03  0.45138322951E+03  0.00000000000E+00 0. -1.
</event>
<event>
 7    1  0.4966153E-006  0.1232165E+03  0.7561462E-02  0.1237883E+00
          1   -1    0    0  501    0  0.00000000000E+00  0.00000000000E+00  0.32763936790E+03  0.32763936790E+03  0.00000000000E+00 0. -1.
         -1   -1    0    0    0  501 -0.00000000000E+00 -0.00000000000E+00 -0.46973895099E+02  0.46973895099E+02  0.00000000000E+00 0.  1.
         23    2    1    2    0    0  0.55250544954E+02  0.50398717253E+01  0.13646971873E+03  0.19326004343E+03  0.12508971674E+03 0.  0.
          5    1    3    3  502    0 -0.40070567183E+02 -0.51601841405E+01  0.46217434992E+02  0.61528867631E+02  0.41800000000E+01 0.  1.
         -5    1    3    3    0  502  0.95321112136E+02  0.10200055866E+02  0.90252283739E+02  0.13173117580E+03  0.41800000000E+01 0.  1.
        -11    1    1    2    0    0 -0.41558680530E+02  0.43062932757E+02  0.74231559377E+02  0.95351269066E+02  0.00000000000E+00 0. -1.
         11    1    1    2    0    0 -0.13691864424E+02 -0.48102804482E+02  0.69964194695E+02  0.86001950500E+02  0.00000000000E+00 0.  1.
</event>
<event>
 7    1  0.4966153E-006  0.9831942E+02  0.7561462E-02  0.1283870E+00
         -2   -1    0    0    0  501 -0.00000000000E+00  0.00000000000E+00  0.16521231925E+03  0.16521231925E+03  0.00000000000E+00 0. -1.
          2   -1    0    0  501    0  0.00000000000E+00 -0.00000000000E+00 -0.12134067651E+03  0.12134067651E+03  0.00000000000E+00 0.  1.
         23    2    1    2    0    0  0.25702819561E+02 -0.47750092672E+02  0.99776157861E+02  0.16894762772E+03  0.12508921996E+03 0.  0.
          5    1    3    3  502    0 -0.26320825877E+02 -0.87558992803E+01  0.99935239704E+02  0.10379776578E+03  0.41800000000E+01 0.  1.
         -5    1    3    3    0  502  0.52023645438E+02 -0.38994193392E+02 -0.15908184288E+00  0.65149861933E+02  0.41800000000E+01 0.  1.
        -11    1    1    2    0    0  0.85698295787E+01 -0.23151359170E+02 -0.12116575639E+02  0.27499796647E+02  0.00000000000E+00 0. -1.
         11    1    1    2    0    0 -0.34272649140E+02  0.70901451842E+02 -0.43787939479E+02  0.90105571394E+02  0.00000000000E+00 0.  1.
</event>
<event>
 7    1  0.4966153E-006  0.1742111E+03  0.7561462E-02  0.1173526E+00
          2   -1    0    0  501    0  0.00000000000E+00  0.00000000000E+00  0.20857953263E+03  0.20857953263E+03  0.00000000000E+00 0. -1.
         -2   -1    0    0    0  501 -0.00000000000E+00 -0.00000000000E+00 -0.24655404265E+03  0.24655404265E+03  0.00000000000E+00 0.  1.
         23    2    1    2    0    0 -0.15303092191E+03  0.47658096544E+02 -0.13749480879E+03  0.24544302334E+03  0.12509075918E+03 0.  0.
          5    1    3    3  502    0 -0.11688243696E+03  0.21155373087E+02 -0.21189222943E+02  0.12072907458E+03  0.41800000000E+01 0. -1.
         -5    1    3    3    0  502 -0.36148484954E+02  0.26502723457E+02 -0.11630558585E+03  0.12471394876E+03  0.41800000000E+01 0. -1.
        -11    1    1    2    0    0  0.41294198423E+02  0.27746202965E+02  0.25469022740E+02  0.55890372353E+02  0.00000000000E+00 0. -1.
         11    1    1    2    0    0  0.11173672349E+03 -0.75404299510E+02  0.74051276036E+02  0.15380017959E+03  0.00000000000E+00 0.  1.
</event>
<event>
 7    1  0.4966153E-006  0.1186365E+03  0.7561462E-02  0.1245364E+00
         -3   -1    0    0    0  501 -0.00000000000E+00  0.00000000000E+00  0.17267383237E+03  0.17267383237E+03  0.00000000000E+00 0.  1.
          3   -1    0    0  501    0  0.00000000000E+00 -0.00000000000E+00 -0.11029742814E+03  0.11029742814E+03  0.00000000000E+00 0. -1.
         23    2    1    2    0    0 -0.14189368808E+02 -0.83392790007E+02  0.29910900910E+02  0.15394306862E+03  0.12509240893E+03 0.  0.
          5    1    3    3  502    0  0.55206465027E+02 -0.29785955195E+02  0.17671523458E+02  0.65304762835E+02  0.41800000000E+01 0.  1.
         -5    1    3    3    0  502 -0.69395833835E+02 -0.53606834812E+02  0.12239377453E+02  0.88638305786E+02  0.41800000000E+01 0.  1.
        -11    1    1    2    0    0  0.16232864898E+02  0.39915439874E+02  0.62666285993E+02  0.76051375025E+02  0.00000000000E+00 0.  1.
         11    1    1    2    0    0 -0.20434960894E+01  0.43477350133E+02 -0.30200782670E+02  0.52976816861E+02  0.00000000000E+00 0. -1.
</event>
<event>
 7    1  0.4966153E-006  0.1512299E+03  0.7561462E-02  0.1198970E+00
          2   -1    0    0  501    0  0.00000000000E+00  0.00000000000E+00  0.35438377392E+03  0.35438377392E+03  0.00000000000E+00 0. -1.
         -2   -1    0    0    0  501 -0.00000000000E+00 -0.00000000000E+00 -0.87691216711E+02  0.87691216711E+02  0.00000000000E+00 0.  1.
         23    2    1    2    0    0  0.74504213010E+02  0.90276205537E+02  0.53512557540E+02  0.17947574643E+03  0.12508908305E+03 0.  0.
          5    1    3    3  502    0 -0.34517100133E+02  0.17228006879E+02  0.34468246133E+01  0.38956224439E+02  0.41800000000E+01 0. -1.
         -5    1    3    3    0  502  0.10902131314E+03  0.73048198657E+02  0.50065732926E+02  0.14051952199E+03  0.41800000000E+01 0. -1.
        -11    1    1    2    0    0 -0.46509484151E+02 -0.10316844222E+02  0.14866791739E+03  0.15611444216E+03  0.00000000000E+00 0. -1.
         11    1    1    2    0    0 -0.27994728859E+02 -0.79959361314E+02  0.64512082280E+02  0.10648480204E+03  0.00000000000E+00 0.  1.
</event>
<event>
 7    1  0.4966153E-006  0.5437916E+02  0.7561462E-02  0.1423058E+00
          1   -1    0    0  501    0  0.00000000000E+00  0.00000000000E+00  0.94644514755E+02  0.94644514755E+02  0.00000000000E+00 0. -1.
         -1   -1    0    0    0  501 -0.00000000000E+00 -0.00000000000E+00 -0.21509582339E+03  0.21509582339E+03  0.00000000000E+00 0.  1.
         23    2    1    2    0    0  0.25242570209E+02 -0.58033820708E+01 -0.16417216656E+03  0.20801654289E+03  0.12509002857E+03 0.  0.
          5    1    3    3  502    0  0.10948737865E+02 -0.25175495727E+02 -0.17785607456E+03  0.18001093329E+03  0.41800000000E+01 0.  1.
         -5    1    3    3    0  502  0.14293832344E+02  0.19372113656E+02  0.13683908004E+02  0.28005609596E+02  0.41800000000E+01 0.  1.
        -11    1    1    2    0    0 -0.26061170145E+02 -0.18675126272E+02  0.62910508401E+02  0.70609326564E+02  0.00000000000E+00 0. -1.
         11    1    1    2    0    0  0.81859993549E+00  0.24478508343E+02 -0.19189650478E+02  0.31114468693E+02  0.00000000000E+00 0.  1.
</event>
<event>
 7    1  0.5303785E-006  0.1579799E+03  0.7561462E-02  0.1190997E+00
         -2   -1    0    0    0  501 -0.00000000000E+00  0.00000000000E+00  0.54926610089E+02  0.54926610089E+02  0.00000000000E+00 0. -1.
          2   -1    0    0  501    0  0.00000000000E+00 -0.00000000000E+00 -0.55667756515E+03  0.55667756515E+03  0.00000000000E+00 0.  1.
         23    2    1    2    0    0  0.25520199038E+02 -0.12723271363E+03 -0.18720508124E+03  0.25987050455E+03  0.12508993851E+03 0.  0.
          5    1    3    3  502    0  0.55342415326E+02 -0.44344988866E+02 -0.25126342554E+02  0.75352945940E+02  0.41800000000E+01 0. -1.
         -5    1    3    3    0  502 -0.29822216288E+02 -0.82887724766E+02 -0.16207873868E+03  0.18451755861E+03  0.41800000000E+01 0. -1.
        -11    1    1    2    0    0 -0.54915402234E+02  0.50675462466E+02 -0.13374292719E+03  0.15320207072E+03  0.00000000000E+00 0.  1.
         11    1    1    2    0    0  0.29395203196E+02  0.76557251166E+02 -0.18080294663E+03  0.19853159997E+03  0.00000000000E+00 0. -1.
</event>
<event>
 7    1  0.4966153E-006  0.1395386E+03  0.7561462E-02  0.1213951E+00
          1   -1    0    0  501    0  0.00000000000E+00  0.00000000000E+00  0.73427456122E+03  0.73427456122E+03  0.00000000000E+00 0. -1.
         -1   -1    0    0    0  501 -0.00000000000E+00 -0.00000000000E+00 -0.37025644892E+02  0.37025644892E+02  0.00000000000E+00 0.  1.
         23    2    1    2    0    0 -0.90206430392E+02 -0.79146161508E+02  0.30278525386E+03  0.34889190202E+03  0.12508131105E+03 0.  0.
          5    1    3    3  502    0 -0.76498568590E+02 -0.39978650321E+02  0.66733757247E+02  0.10918420323E+03  0.41800000000E+01 0. -1.
         -5    1    3    3    0  502 -0.13707861802E+02 -0.39167511187E+02  0.23605149661E+03  0.23970769880E+03  0.41800000000E+01 0. -1.
        -11    1    1    2    0    0 -0.13125036367E+02 -0.83486782711E+01  0.35528844745E+02  0.38784865829E+02  0.00000000000E+00 0. -1.
         11    1    1    2    0    0  0.10333146676E+03  0.87494839779E+02  0.35893481772E+03  0.38362343826E+03  0.00000000000E+00 0.  1.
</event>
<event>
 7    1  0.4966153E-006  0.2708686E+03  0.7561462E-02  0.1100783E+00
          2   -1    0    0  501    0  0.00000000000E+00  0.00000000000E+00  0.18930494252E+03  0.18930494252E+03  0.00000000000E+00 0. -1.
         -2   -1    0    0    0  501 -0.00000000000E+00 -0.00000000000E+00 -0.45994739965E+03  0.45994739965E+03  0.00000000000E+00 0.  1.
         23    2    1    2    0    0 -0.26116070952E+03 -0.65369715015E+02 -0.19565204801E+03  0.35553422405E+03  0.12508694873E+03 0.  0.
          5    1    3    3  502    0 -0.17707673559E+02 -0.14801654436E+02 -0.76048279707E+02  0.79583063043E+02  0.41800000000E+01 0.  1.
         -5    1    3    3    0  502 -0.24345303596E+03 -0.50568060579E+02 -0.11960376830E+03  0.27595116101E+03  0.41800000000E+01 0.  1.
        -11    1    1    2    0    0  0.13123662279E+03  0.40227795051E+02  0.80290792956E+01  0.13749833734E+03  0.00000000000E+00 0. -1.
         11    1    1    2    0    0  0.12992408673E+03  0.25141919964E+02 -0.83019488417E+02  0.15621978078E+03  0.00000000000E+00 0.  1.
</event>
<event>
 7    1  0.4966153E-006  0.1137354E+03  0.7561462E-02  0.1253805E+00
         -3   -1    0    0    0  501 -0.00000000000E+00  0.00000000000E+00  0.13583038143E+03  0.13583038143E+03  0.00000000000E+00 0.  1.
          3   -1    0    0  501    0  0.00000000000E+00 -0.00000000000E+00 -0.10030797126E+03  0.10030797126E+03  0.00000000000E+00 0. -1.
         23    2    1    2    0    0  0.30284810666E+02 -0.28194115829E+02  0.45134662711E+02  0.13928692731E+03  0.12510648431E+03 0.  0.
          5    1    3    3  502    0  0.50292953923E+01  0.49178799355E+02  0.23898863002E+02  0.55067923249E+02  0.41800000000E+01 0. -1.
         -5    1    3    3    0  502  0.25255515274E+02 -0.77372915184E+02  0.21235799708E+02  0.84219004061E+02  0.41800000000E+01 0. -1.
        -11    1    1    2    0    0  0.50320908597E+01  0.52977679419E+02 -0.45509611605E+01  0.53410370739E+02  0.00000000000E+00 0.  1.
         11    1    1    2    0    0 -0.35316901526E+02 -0.24783563590E+02 -0.50612913754E+01  0.43441054637E+02  0.00000000000E+00 0. -1.
</event>
<event>
 7    1  0.4966153E-006  0.1720140E+03  0.7561462E-02  0.1175764E+00
          1   -1    0    0  501    0  0.00000000000E+00  0.00000000000E+00  0.49112533633E+03  0.49112533633E+03  0.00000000000E+00 0. -1.
         -1   -1    0    0    0  501 -0.00000000000E+00 -0.00000000000E+00 -0.10754029681E+03  0.10754029681E+03  0.00000000000E+00 0.  1.
         23    2    1    2    0    0 -0.52716004914E+02  0.15625010672E+03  0.45716311877E+02  0.21196766653E+03  0.12508891821E+03 0.  0.
          5    1    3    3  502    0 -0.39852663295E+02  0.27651541046E+02 -0.34616533867E+02  0.59737921883E+02  0.41800000000E+01 0. -1.
         -5    1    3    3    0  502 -0.12863341619E+02  0.12859856567E+03  0.80332845744E+02  0.15222974465E+03  0.41800000000E+01 0. -1.
        -11    1    1    2    0    0  0.29055086584E+02 -0.11364050771E+03  0.30789385213E+03  0.32947987378E+03  0.00000000000E+00 0. -1.
         11    1    1    2    0    0  0.23660918330E+02 -0.42609599008E+02  0.29974875516E+02  0.57218092821E+02  0.00000000000E+00 0.  1.
</event>
<event>
 7    1  0.4966153E-006  0.1560812E+03  0.7561462E-02  0.1193193E+00
         -1   -1    0    0    0  501 -0.00000000000E+00  0.00000000000E+00  0.19219917303E+03  0.19219917303E+03  0.00000000000E+00 0.  1.
          1   -1    0    0  501    0  0.00000000000E+00 -0.00000000000E+00 -0.22299793713E+03  0.22299793713E+03  0.00000000000E+00 0. -1.
         23    2    1    2    0    0 -0.53194656185E+02  0.11790241949E+03  0.10063798925E+03  0.20616624345E+03  0.12508342452E+03 0.  0.
          5    1    3    3  502    0  0.37663227986E+02  0.45391289492E+02  0.56407832592E+02  0.81720278278E+02  0.41800000000E+01 0.  1.
         -5    1    3    3    0  502 -0.90857884171E+02  0.72511129995E+02  0.44230156659E+02  0.12444596517E+03  0.41800000000E+01 0.  1.
        -11    1    1    2    0    0  0.16053464198E+02 -0.34991016059E+01  0.13084844728E+02  0.21004061188E+02  0.00000000000E+00 0.  1.
         11    1    1    2    0    0  0.37141191987E+02 -0.11440331788E+03 -0.14452159807E+03  0.18802680552E+03  0.00000000000E+00 0. -1.
</event>
<event>
 7    1  0.4966153E-006  0.7907206E+02  0.7561462E-02  0.1331706E+00
          2   -1    0    0  501    0  0.00000000000E+00  0.00000000000E+00  0.83131577906E+03  0.83131577906E+03  0.00000000000E+00 0. -1.
         -2   -1    0    0    0  501 -0.00000000000E+00 -0.00000000000E+00 -0.17221935031E+02  0.17221935031E+02  0.00000000000E+00 0.  1.
         23    2    1    2    0    0 -0.25548535768E+02  0.42546777689E+02  0.41647743856E+03  0.43767873883E+03  0.12508503356E+03 0.  0.
          5    1    3    3  502    0 -0.28049101415E+01  0.33502694179E+02  0.17877820263E+02  0.38306486337E+02  0.41800000000E+01 0.  1.
         -5    1    3    3    0  502 -0.22743625626E+02  0.90440835104E+01  0.39859961830E+03  0.39937225249E+03  0.41800000000E+01 0.  1.
        -11    1    1    2    0    0 -0.30004726593E+02 -0.30108288645E+02  0.11591670972E+03  0.12346447366E+03  0.00000000000E+00 0.  1.
         11    1    1    2    0    0  0.55553262360E+02 -0.12438489044E+02  0.28169969575E+03  0.28739450161E+03  0.00000000000E+00 0. -1.
</event>
<event>
 7    1  0.4966153E-006  0.1513374E+03  0.7561462E-02  0.1198839E+00
         -3   -1    0    0    0  501 -0.00000000000E+00  0.00000000000E+00  0.56877582847E+02  0.56877582847E+02  0.00000000000E+00 0.  1.
          3   -1    0    0  501    0  0.00000000000E+00 -0.00000000000E+00 -0.55563487187E+03  0.55563487187E+03  0.00000000000E+00 0. -1.
         23    2    1    2    0    0  0.11811385949E+03 -0.75302047766E+02 -0.25349731939E+03  0.31548297612E+03  0.12508930844E+03 0.  0.
          5    1    3    3  502    0  0.10068203285E+03 -0.35033713155E+02 -0.71994813207E+02  0.12870492735E+03  0.41800000000E+01 0. -1.
         -5    1    3    3    0  502  0.17431826642E+02 -0.40268334611E+02 -0.18150250618E+03  0.18677804877E+03  0.41800000000E+01 0. -1.
        -11    1    1    2    0    0 -0.54572411640E+02  0.69125064061E+02 -0.20070619123E+03  0.21917891731E+03  0.00000000000E+00 0.  1.
         11    1    1    2    0    0 -0.63541447850E+02  0.61769837051E+01 -0.44553778402E+02  0.77850561286E+02  0.00000000000E+00 0. -1.
</event>
<event>
 7    1  0.4966153E-006  0.9699570E+02  0.7561462E-02  0.1286743E+00
          3   -1    0    0  501    0  0.00000000000E+00  0.00000000000E+00  0.77674170920E+02  0.77674170920E+02  0.00000000000E+00 0. -1.
         -3   -1    0    0    0  501 -0.00000000000E+00 -0.00000000000E+00 -0.20086573104E+03  0.20086573104E+03  0.00000000000E+00 0.  1.
         23    2    1    2    0    0  0.49045756118E+02  0.29003683579E+02 -0.98889815088E+02  0.16933027171E+03  0.12508735163E+03 0.  0.
          5    1    3    3  502    0 -0.30462401146E+02  0.46215448878E+02 -0.47138310296E+02  0.72823885478E+02  0.41800000000E+01 0. -1.
         -5    1    3    3    0  502  0.79508157264E+02 -0.17211765299E+02 -0.51751504792E+02  0.96506386237E+02  0.41800000000E+01 0. -1.
        -11    1    1    2    0    0 -0.20082654605E+02 -0.13175423223E+02 -0.57549626566E+02  0.62360759384E+02  0.00000000000E+00 0.  1.
         11    1    1    2    0    0 -0.28963101513E+02 -0.15828260356E+02  0.33247881529E+02  0.46848870865E+02  0.00000000000E+00 0. -1.
</event>
<event>
 7    1  0.4966153E-006  0.8747891E+02  0.7561462E-02  0.1309074E+00
         -1   -1    0    0    0  501 -0.00000000000E+00  0.00000000000E+00  0.67526480699E+02  0.67526480699E+02  0.00000000000E+00 0.  1.
          1   -1    0    0  501    0  0.00000000000E+00 -0.00000000000E+00 -0.20341240842E+03  0.20341240842E+03  0.00000000000E+00 0. -1.
         23    2    1    2    0    0  0.44466990686E+01 -0.40733895785E+02 -0.54938860485E+02  0.14263635501E+03  0.12509127860E+03 0.  0.
          5    1    3    3  502    0  0.30280013988E+02 -0.78552371264E+02 -0.25627591706E+02  0.88099944012E+02  0.41800000000E+01 0. -1.
         -5    1    3    3    0  502 -0.25833314919E+02  0.37818475479E+02 -0.29311268779E+02  0.54536411000E+02  0.41800000000E+01 0. -1.
        -11    1    1    2    0    0  0.51137923284E+01  0.29439203820E+02 -0.99890933954E+02  0.10426416585E+03  0.00000000000E+00 0. -1.
         11    1    1    2    0    0 -0.95604913970E+01  0.11294691965E+02  0.18943866719E+02  0.24038368260E+02  0.00000000000E+00 0.  1.
</event>
<event>
 7    1  0.4966153E-006  0.1169943E+03  0.7561462E-02  0.1248140E+00
         -3   -1    0    0    0  501 -0.00000000000E+00  0.00000000000E+00  0.53946900868E+03  0.53946900868E+03  0.00000000000E+00 0.  1.
          3   -1    0    0  501    0  0.00000000000E+00 -0.00000000000E+00 -0.32035502722E+02  0.32035502722E+02  0.00000000000E+00 0. -1.
         23    2    1    2    0    0  0.26653068166E+02 -0.83063275195E+02  0.32318994889E+03  0.35735912014E+03  0.12507559296E+03 0.  0.
          5    1    3    3  502    0  0.41553977742E+02 -0.10882776632E+03  0.20930707932E+03  0.23957700566E+03  0.41800000000E+01 0. -1.
         -5    1    3    3    0  502 -0.14900909575E+02  0.25764491126E+02  0.11388286956E+03  0.11778211447E+03  0.41800000000E+01 0. -1.
        -11    1    1    2    0    0 -0.17334429589E+02  0.61036118837E+02  0.17864973477E+03  0.18958274706E+03  0.00000000000E+00 0.  1.
         11    1    1    2    0    0 -0.93186385777E+01  0.22027156358E+02  0.55938223011E+01  0.24562644200E+02  0.00000000000E+00 0. -1.
</event>
<event>
 6    1  0.4966153E-006  0.2239143E+03  0.7561462E-02  0.1130998E+00
         -1   -1    0    0    0  501 -0.00000000000E+00  0.00000000000E+00  0.44716657595E+02  0.44716657595E+02  0.00000000000E+00 0.  1.
          1   -1    0    0  501    0  0.00000000000E+00 -0.00000000000E+00 -0.12082393883E+04  0.12082393883E+04  0.00000000000E+00 0. -1.
          5    1    1    2  502    0 -0.21814042804E+02  0.11220259075E+03 -0.17808661092E+03  0.21165440515E+03  0.41800000000E+01 0. -1.
         -5    1    1    2    0  502 -0.11677331015E+03 -0.12217052862E+03 -0.44905738214E+03  0.47982460220E+03  0.41800000000E+01 0.  1.
        -11    1    1    2    0    0  0.15115734540E+03  0.12118940109E+02 -0.51171752790E+03  0.53371363121E+03  0.00000000000E+00 0. -1.
         11    1    1    2    0    0 -0.12569992441E+02 -0.21510022358E+01 -0.24661209801E+02  0.27763407381E+02  0.00000000000E+00 0.  1.
</event>
<event>
 7    1  0.4966153E-006  0.1070440E+03  0.7561462E-02  0.1266144E+00
         -2   -1    0    0    0  501 -0.00000000000E+00  0.00000000000E+00  0.16217309635E+02  0.16217309635E+02  0.00000000000E+00 0.  1.
          2   -1    0    0  501    0  0.00000000000E+00 -0.00000000000E+00 -0.86882065606E+03  0.86882065606E+03  0.00000000000E+00 0. -1.
         23    2    1    2    0    0 -0.18325579929E+02  0.42300062811E+02 -0.43228668365E+03  0.45237578829E+03  0.12508778830E+03 0.  0.
          5    1    3    3  502    0  0.41981166912E+02  0.10960005790E+02 -0.61453416411E+02  0.75342782606E+02  0.41800000000E+01 0.  1.
         -5    1    3    3    0  502 -0.60306746842E+02  0.31340057020E+02 -0.37083326723E+03  0.37703300569E+03  0.41800000000E+01 0.  1.
        -11    1    1    2    0    0  0.33771874324E+02 -0.65987622620E+02 -0.31628533397E+03  0.32485584237E+03  0.00000000000E+00 0. -1.
         11    1    1    2    0    0 -0.15446294394E+02  0.23687559809E+02 -0.10403132881E+03  0.10780633503E+03  0.00000000000E+00 0.  1.
</event>
<event>
 7    1  0.4966153E-006  0.1631404E+03  0.7561462E-02  0.1185196E+00
         -4   -1    0    0    0  501 -0.00000000000E+00  0.00000000000E+00  0.25607072471E+03  0.25607072471E+03  0.00000000000E+00 0.  1.
          4   -1    0    0  501    0  0.00000000000E+00 -0.00000000000E+00 -0.12129254299E+03  0.12129254299E+03  0.00000000000E+00 0. -1.
         23    2    1    2    0    0 -0.10779527209E+03  0.84775244649E+02  0.52921485287E+02  0.19301545345E+03  0.12509044279E+03 0.  0.
          5    1    3    3  502    0 -0.76801407627E+02  0.11684839323E+03  0.48237779700E+02  0.14797418357E+03  0.41800000000E+01 0. -1.
         -5    1    3    3    0  502 -0.30993864467E+02 -0.32073148581E+02  0.46837055864E+01  0.45041269881E+02  0.41800000000E+01 0. -1.
        -11    1    1    2    0    0  0.79889573607E+02 -0.41303587953E+02  0.95232170261E+02  0.13098662757E+03  0.00000000000E+00 0.  1.
         11    1    1    2    0    0  0.27905698487E+02 -0.43471656696E+02 -0.13375473828E+02  0.53361186681E+02  0.00000000000E+00 0. -1.
</event>
<event>
 7    1  0.4966153E-006  0.1172349E+03  0.7561462E-02  0.1247730E+00
         -2   -1    0    0    0  501 -0.00000000000E+00  0.00000000000E+00  0.32381395656E+02  0.32381395656E+02  0.00000000000E+00 0.  1.
          2   -1    0    0  501    0  0.00000000000E+00 -0.00000000000E+00 -0.83869737267E+03  0.83869737267E+03  0.00000000000E+00 0. -1.
         23    2    1    2    0    0  0.92552255782E+02 -0.43537563129E+02 -0.24634606686E+03  0.29460725902E+03  0.12508242465E+03 0.  0.
          5    1    3    3  502    0  0.98047619651E+02 -0.31424664572E+02 -0.25711158150E+03  0.27699220748E+03  0.41800000000E+01 0. -1.
         -5    1    3    3    0  502 -0.54953638684E+01 -0.12112898557E+02  0.10765514637E+02  0.17615051544E+02  0.41800000000E+01 0. -1.
        -11    1    1    2    0    0 -0.17219500553E+02 -0.14399443976E+02 -0.27079750539E+02  0.35173400111E+02  0.00000000000E+00 0.  1.
         11    1    1    2    0    0 -0.75332755229E+02  0.57937007105E+02 -0.53289015961E+03  0.54129810919E+03  0.00000000000E+00 0. -1.
</event>
<event>
 6    1  0.4966153E-006  0.1392680E+03  0.7561462E-02  0.1214317E+00
         -2   -1    0    0    0  501 -0.00000000000E+00  0.00000000000E+00  0.14786954988E+03  0.14786954988E+03  0.00000000000E+00 0.  1.
          2   -1    0    0  501    0  0.00000000000E+00 -0.00000000000E+00 -0.26759976440E+03  0.26759976440E+03  0.00000000000E+00 0. -1.
          5    1    1    2  502    0  0.55753484595E+02  0.73853432423E+02 -0.11328329978E+03  0.14633304115E+03  0.41800000000E+01 0. -1.
         -5    1    1    2    0  502 -0.73628023997E+02 -0.68294028018E+02  0.89955877448E+02  0.13488770318E+03  0.41800000000E+01 0.  1.
        -11    1    1    2    0    0  0.48365682763E+02 -0.19140608726E+02 -0.83676204167E+02  0.98525678457E+02  0.00000000000E+00 0. -1.
         11    1    1    2    0    0 -0.30491143360E+02  0.13581204321E+02 -0.12726588017E+02  0.35722891496E+02  0.00000000000E+00 0.  1.
</event>
<event>
 7    1  0.4966153E-006  0.8991541E+02  0.7561462E-02  0.1303057E+00
          2   -1    0    0  501    0  0.00000000000E+00  0.00000000000E+00  0.45217887059E+03  0.45217887059E+03  0.00000000000E+00 0. -1.
         -2   -1    0    0    0  501 -0.00000000000E+00 -0.00000000000E+00 -0.27432690117E+02  0.27432690117E+02  0.00000000000E+00 0.  1.
         23    2    1    2    0    0 -0.21571618103E+02  0.13772171537E+02  0.15123867268E+03  0.19010074781E+03  0.11229492770E+03 0.  0.
          5    1    3    3  502    0  0.17292120637E+02 -0.25651007186E+02  0.12473627057E+03  0.12858305176E+03  0.41800000000E+01 0. -1.
         -5    1    3    3    0  502 -0.38863738740E+02  0.39423178723E+02  0.26502402119E+02  0.61517696052E+02  0.41800000000E+01 0.  1.
        -11    1    1    2    0    0  0.48852114868E+02 -0.33670736320E+02  0.14568294584E+03  0.15730152040E+03  0.00000000000E+00 0. -1.
         11    1    1    2    0    0 -0.27280496765E+02  0.19898564783E+02  0.12782456194E+03  0.13220929249E+03  0.00000000000E+00 0.  1.
</event>
<event>
 7    1  0.4966153E-006  0.1225520E+03  0.7561462E-02  0.1238945E+00
         -1   -1    0    0    0  501 -0.00000000000E+00  0.00000000000E+00  0.34196770057E+02  0.34196770057E+02  0.00000000000E+00 0.  1.
          1   -1    0    0  501    0  0.00000000000E+00 -0.00000000000E+00 -0.59194653353E+03  0.59194653353E+03  0.00000000000E+00 0. -1.
         23    2    1    2    0    0  0.21646691452E+02  0.46907312478E+02 -0.14362397754E+03  0.19734281918E+03  0.12508983228E+03 0.  0.
          5    1    3    3  502    0 -0.25445033430E+02  0.74748016824E+02 -0.70586503808E+02  0.10599359728E+03  0.41800000000E+01 0. -1.
         -5    1    3    3    0  502  0.47091724882E+02 -0.27840704346E+02 -0.73037473733E+02  0.91349221892E+02  0.41800000000E+01 0. -1.
        -11    1    1    2    0    0 -0.30545391912E+02  0.24531612915E+02 -0.15221977462E+03  0.15718040840E+03  0.00000000000E+00 0.  1.
         11    1    1    2    0    0  0.88987004591E+01 -0.71438925393E+02 -0.26190601131E+03  0.27162007601E+03  0.00000000000E+00 0. -1.
</event>
<event>
 7    1  0.6073629E-006  0.2200559E+03  0.7561462E-02  0.1133841E+00
          1   -1    0    0  501    0  0.00000000000E+00  0.00000000000E+00  0.29557400411E+03  0.29557400411E+03  0.00000000000E+00 0. -1.
         -1   -1    0    0    0  501 -0.00000000000E+00 -0.00000000000E+00 -0.22376137940E+03  0.22376137940E+03  0.00000000000E+00 0.  1.
         23    2    1    2    0    0  0.12014535398E+03  0.17738816757E+03 -0.55682330179E+02  0.25426272656E+03  0.12509014409E+03 0.  0.
          5    1    3    3  502    0  0.11213129580E+03  0.16589312616E+03 -0.37527454968E+01  0.20031353499E+03  0.41800000000E+01 0. -1.
         -5    1    3    3    0  502  0.80140581851E+01  0.11495041411E+02 -0.51929584682E+02  0.53949191569E+02  0.41800000000E+01 0. -1.
        -11    1    1    2    0    0 -0.83632162855E+02 -0.61789188647E+02  0.26547393722E+02  0.10731731739E+03  0.00000000000E+00 0.  1.
         11    1    1    2    0    0 -0.36513191127E+02 -0.11559897892E+03  0.10094756117E+03  0.15775533956E+03  0.00000000000E+00 0. -1.
</event>
<event>
 7    1  0.4966153E-006  0.1407362E+03  0.7561462E-02  0.1212342E+00
          2   -1    0    0  501    0  0.00000000000E+00  0.00000000000E+00  0.13465561177E+04  0.13465561177E+04  0.00000000000E+00 0. -1.
         -2   -1    0    0    0  501 -0.00000000000E+00 -0.00000000000E+00 -0.16404310456E+02  0.16404310456E+02  0.00000000000E+00 0.  1.
         23    2    1    2    0    0 -0.87949087302E+02  0.45026518966E+02  0.81544203498E+03  0.83087179291E+03  0.12505916388E+03 0.  0.
          5    1    3    3  502    0  0.14640044607E+02  0.50469215406E+02  0.36876519187E+03  0.37251404235E+03  0.41800000000E+01 0.  1.
         -5    1    3    3    0  502 -0.10258913191E+03 -0.54426964402E+01  0.44667684311E+03  0.45835775056E+03  0.41800000000E+01 0.  1.
        -11    1    1    2    0    0  0.52342400451E+02  0.16474124527E+02  0.32306784652E+03  0.32769491470E+03  0.00000000000E+00 0. -1.
         11    1    1    2    0    0  0.35606686851E+02 -0.61500643493E+02  0.19164192579E+03  0.20439372059E+03  0.00000000000E+00 0.  1.
</event>
<event>
 7    1  0.4966153E-006  0.1037229E+03  0.7561462E-02  0.1272656E+00
         -1   -1    0    0    0  501 -0.00000000000E+00  0.00000000000E+00  0.17658085492E+02  0.17658085492E+02  0.00000000000E+00 0.  1.
          1   -1    0    0  501    0  0.00000000000E+00 -0.00000000000E+00 -0.65910407996E+03  0.65910407996E+03  0.00000000000E+00 0. -1.
         23    2    1    2    0    0  0.11146177461E+01  0.19934689812E+02 -0.33050312966E+03  0.35394627855E+03  0.12508802961E+03 0.  0.
          5    1    3    3  502    0  0.29877765332E+02  0.65751253842E+02 -0.18296012618E+03  0.19674295011E+03  0.41800000000E+01 0. -1.
         -5    1    3    3    0  502 -0.28763147586E+02 -0.45816564030E+02 -0.14754300348E+03  0.15720332845E+03  0.41800000000E+01 0. -1.
        -11    1    1    2    0    0  0.37311265421E+02  0.51953274161E+00 -0.86733323077E+02  0.94419647180E+02  0.00000000000E+00 0.  1.
         11    1    1    2    0    0 -0.38425883167E+02 -0.20454222553E+02 -0.22420954172E+03  0.22839623972E+03  0.00000000000E+00 0. -1.
</event>
<event>
 7    1  0.4966153E-006  0.1141036E+03  0.7561462E-02  0.1253154E+00
          2   -1    0    0  501    0  0.00000000000E+00  0.00000000000E+00  0.21960367895E+03  0.21960367895E+03  0.00000000000E+00 0. -1.
         -2   -1    0    0    0  501 -0.00000000000E+00 -0.00000000000E+00 -0.93477374507E+02  0.93477374507E+02  0.00000000000E+00 0.  1.
         23    2    1    2    0    0 -0.71517540769E+02  0.49556646186E+02  0.32629229092E+02  0.15582837660E+03  0.12508875466E+03 0.  0.
          5    1    3    3  502    0 -0.11510058985E+02 -0.31392606406E+02  0.42790811799E+02  0.54465614558E+02  0.41800000000E+01 0.  1.
         -5    1    3    3    0  502 -0.60007481784E+02  0.80949252592E+02 -0.10161582707E+02  0.10136276204E+03  0.41800000000E+01 0.  1.
        -11    1    1    2    0    0  0.22984622429E+02  0.17288937070E+01 -0.15217968805E+02  0.27620074515E+02  0.00000000000E+00 0.  1.
         11    1    1    2    0    0  0.48532918340E+02 -0.51285539893E+02  0.10871504416E+03  0.12963260234E+03  0.00000000000E+00 0. -1.
</event>
<event>
 7    1  0.4966153E-006  0.1003014E+03  0.7561462E-02  0.1279663E+00
          2   -1    0    0  501    0  0.00000000000E+00  0.00000000000E+00  0.21219928883E+03  0.21219928883E+03  0.00000000000E+00 0. -1.
         -2   -1    0    0    0  501 -0.00000000000E+00 -0.00000000000E+00 -0.87428497082E+02  0.87428497082E+02  0.00000000000E+00 0.  1.
         23    2    1    2    0    0 -0.46636637224E+01  0.79475484076E+02  0.47144735631E+02  0.15559095187E+03  0.12509123022E+03 0.  0.
          5    1    3    3  502    0 -0.26452298597E+02  0.53697566459E+02 -0.33033873022E+02  0.68497167178E+02  0.41800000000E+01 0.  1.
         -5    1    3    3    0  502  0.21788634874E+02  0.25777917617E+02  0.80178608652E+02  0.87093784691E+02  0.41800000000E+01 0.  1.
        -11    1    1    2    0    0  0.37711461166E+02 -0.37746681283E+02  0.44416924301E+01  0.53541524845E+02  0.00000000000E+00 0.  1.
         11    1    1    2    0    0 -0.33047797443E+02 -0.41728802794E+02  0.73184363690E+02  0.90495309200E+02  0.00000000000E+00 0. -1.
</event>
<event>
 7    1  0.4966153E-006  0.9200664E+02  0.7561462E-02  0.1298064E+00
          1   -1    0    0  501    0  0.00000000000E+00  0.00000000000E+00  0.97120635364E+02  0.97120635364E+02  0.00000000000E+00 0. -1.
         -1   -1    0    0    0  501 -0.00000000000E+00 -0.00000000000E+00 -0.27119520246E+03  0.27119520246E+03  0.00000000000E+00 0.  1.
         23    2    1    2    0    0  0.18279363310E+02  0.12452898791E+02 -0.22749552377E+03  0.26055987568E+03  0.12509206877E+03 0.  0.
          5    1    3    3  502    0  0.30153424605E+02 -0.41643195136E+02 -0.18074556586E+03  0.18796227466E+03  0.41800000000E+01 0.  1.
         -5    1    3    3    0  502 -0.11874061296E+02  0.54096093927E+02 -0.46749957914E+02  0.72597601026E+02  0.41800000000E+01 0.  1.
        -11    1    1    2    0    0 -0.39522601632E+02 -0.29770732535E+02  0.61732858746E+02  0.79115601523E+02  0.00000000000E+00 0. -1.
         11    1    1    2    0    0  0.21243238322E+02  0.17317833744E+02 -0.83119020629E+01  0.28640360610E+02  0.00000000000E+00 0.  1.
</event>
<event>
 7    1  0.4966153E-006  0.1165885E+03  0.7561462E-02  0.1248833E+00
         -1   -1    0    0    0  501 -0.00000000000E+00  0.00000000000E+00  0.10449197337E+03  0.10449197337E+03  0.00000000000E+00 0.  1.
          1   -1    0    0  501    0  0.00000000000E+00 -0.00000000000E+00 -0.30301865649E+03  0.30301865649E+03  0.00000000000E+00 0. -1.
         23    2    1    2    0    0  0.34516050388E+02  0.55912837585E+02  0.35409660725E+02  0.14566439019E+03  0.12508663939E+03 0.  0.
          5    1    3    3  502    0  0.74482779402E+02  0.26760612674E+02  0.50257565983E+02  0.93846204807E+02  0.41800000000E+01 0.  1.
         -5    1    3    3    0  502 -0.39966729015E+02  0.29152224911E+02 -0.14847905258E+02  0.51818185379E+02  0.41800000000E+01 0.  1.
        -11    1    1    2    0    0 -0.47800829257E+01  0.21146185798E+02 -0.11510305317E+03  0.11712695341E+03  0.00000000000E+00 0.  1.
         11    1    1    2    0    0 -0.29735967462E+02 -0.77059023383E+02 -0.11883329067E+03  0.14471928627E+03  0.00000000000E+00 0. -1.
</event>
<event>
 6    1  0.4966153E-006  0.1809899E+03  0.7561462E-02  0.1166848E+00
          1   -1    0    0  501    0  0.00000000000E+00  0.00000000000E+00  0.36710148869E+03  0.36710148869E+03  0.00000000000E+00 0. -1.
         -1   -1    0    0    0  501 -0.00000000000E+00 -0.00000000000E+00 -0.10971831163E+03  0.10971831163E+03  0.00000000000E+00 0.  1.
          5    1    1    2  502    0  0.52833484021E+02  0.56289599053E+02  0.12391401076E+02  0.78300161021E+02  0.41800000000E+01 0. -1.
         -5    1    1    2    0  502 -0.99487897565E+02 -0.13439537275E+03  0.71110139513E+02  0.18175280553E+03  0.41800000000E+01 0.  1.
        -11    1    1    2    0    0  0.22108446199E+02  0.88150133730E+02  0.16574450029E+03  0.18902504820E+03  0.00000000000E+00 0. -1.
         11    1    1    2    0    0  0.24545967346E+02 -0.10044360037E+02  0.81371361754E+01  0.27741785570E+02  0.00000000000E+00 0.  1.
</event>
<event>
 7    1  0.4966153E-006  0.8104568E+02  0.7561462E-02  0.1326110E+00
          2   -1    0    0  501    0  0.00000000000E+00  0.00000000000E+00  0.24698824077E+03  0.24698824077E+03  0.00000000000E+00 0. -1.
         -2   -1    0    0    0  501 -0.00000000000E+00 -0.00000000000E+00 -0.50302983573E+02  0.50302983573E+02  0.00000000000E+00 0.  1.
         23    2    1    2    0    0  0.72179213085E+01  0.14104254142E+02  0.80992960019E+02  0.14985620789E+03  0.12508395220E+03 0.  0.
          5    1    3    3  502    0 -0.37571364475E+02  0.28785371729E+02 -0.88328532689E+01  0.48329046659E+02  0.41800000000E+01 0.  1.
         -5    1    3    3    0  502  0.44789285783E+02 -0.14681117587E+02  0.89825813288E+02  0.10152716123E+03  0.41800000000E+01 0.  1.
        -11    1    1    2    0    0  0.26141215367E+02 -0.20586631777E+02  0.76061696283E+01  0.34132482553E+02  0.00000000000E+00 0.  1.
         11    1    1    2    0    0 -0.33359136675E+02  0.64823776350E+01  0.10808612755E+03  0.11330253390E+03  0.00000000000E+00 0. -1.
</event>
<event>
 7    1  0.4966153E-006  0.8162536E+02  0.7561462E-02  0.1324501E+00
          1   -1    0    0  501    0  0.00000000000E+00  0.00000000000E+00  0.61670060994E+02  0.61670060994E+02  0.00000000000E+00 0. -1.
         -1   -1    0    0    0  501 -0.00000000000E+00 -0.00000000000E+00 -0.23264270795E+03  0.23264270795E+03  0.00000000000E+00 0.  1.
         23    2    1    2    0    0  0.91811431052E+01 -0.48968448354E+02 -0.10553260236E+03  0.17106664826E+03  0.12507783842E+03 0.  0.
          5    1    3    3  502    0  0.51163585635E+02 -0.29472894456E+02 -0.39121651487E+01  0.59322351932E+02  0.41800000000E+01 0. -1.
         -5    1    3    3    0  502 -0.41982442529E+02 -0.19495553898E+02 -0.10162043722E+03  0.11174429633E+03  0.41800000000E+01 0. -1.
        -11    1    1    2    0    0  0.10323950025E+02  0.12394917024E+02  0.21530553124E+02  0.26903208545E+02  0.00000000000E+00 0. -1.
         11    1    1    2    0    0 -0.19505093130E+02  0.36573531330E+02 -0.86970597719E+02  0.96342912139E+02  0.00000000000E+00 0.  1.
</event>
<event>
 7    1  0.4966153E-006  0.1417622E+03  0.7561462E-02  0.1210977E+00
          1   -1    0    0  501    0  0.00000000000E+00  0.00000000000E+00  0.51425814878E+03  0.51425814878E+03  0.00000000000E+00 0. -1.
         -1   -1    0    0    0  501 -0.00000000000E+00 -0.00000000000E+00 -0.46999394067E+02  0.46999394067E+02  0.00000000000E+00 0.  1.
         23    2    1    2    0    0  0.10004132928E+03  0.99178336113E+01  0.15569518721E+03  0.22359680866E+03  0.12509160859E+03 0.  0.
          5    1    3    3  502    0  0.32175145445E+02  0.64887415958E+02  0.61870567377E+02  0.95347030587E+02  0.41800000000E+01 0. -1.
         -5    1    3    3    0  502  0.67866183830E+02 -0.54969582347E+02  0.93824619829E+02  0.12824977808E+03  0.41800000000E+01 0. -1.
        -11    1    1    2    0    0 -0.56950210701E+01  0.22941004830E+02  0.11223468041E+03  0.11469675869E+03  0.00000000000E+00 0. -1.
         11    1    1    2    0    0 -0.94346308205E+02 -0.32858838442E+02  0.19932888710E+03  0.22296397550E+03  0.00000000000E+00 0.  1.
</event>
<event>
 7    1  0.4966153E-006  0.1525375E+03  0.7561462E-02  0.1197389E+00
          1   -1    0    0  501    0  0.00000000000E+00  0.00000000000E+00  0.56580874894E+02  0.56580874894E+02  0.00000000000E+00 0. -1.
         -1   -1    0    0    0  501 -0.00000000000E+00 -0.00000000000E+00 -0.45963361021E+03  0.45963361021E+03  0.00000000000E+00 0.  1.
         23    2    1    2    0    0 -0.67545670053E+02 -0.92972627541E+02 -0.26678145149E+03  0.31627207321E+03  0.12509737976E+03 0.  0.
          5    1    3    3  502    0 -0.71175422335E+02 -0.55520556316E+01 -0.66424385277E+02  0.97603470357E+02  0.41800000000E+01 0.  1.
         -5    1    3    3    0  502  0.36297522815E+01 -0.87420571910E+02 -0.20035706621E+03  0.21866860286E+03  0.41800000000E+01 0.  1.
        -11    1    1    2    0    0  0.47174558906E+02 -0.35582337479E+01 -0.37844060220E+02  0.60582777497E+02  0.00000000000E+00 0.  1.
         11    1    1    2    0    0  0.20371111147E+02  0.96530861289E+02 -0.98427223606E+02  0.13935963439E+03  0.00000000000E+00 0. -1.
</event>
<event>
 7    1  0.4966153E-006  0.1008987E+03  0.7561462E-02  0.1278417E+00
         -2   -1    0    0    0  501 -0.00000000000E+00  0.00000000000E+00  0.16690230737E+02  0.16690230737E+02  0.00000000000E+00 0.  1.
          2   -1    0    0  501    0  0.00000000000E+00 -0.00000000000E+00 -0.80201364779E+03  0.80201364779E+03  0.00000000000E+00 0. -1.
         23    2    1    2    0    0 -0.88080668926E+01  0.29758457061E+02 -0.37377137473E+03  0.39536741977E+03  0.12508880142E+03 0.  0.
          5    1    3    3  502    0 -0.39172802326E+02 -0.22106896936E+02 -0.56067024688E+02  0.72001437427E+02  0.41800000000E+01 0. -1.
         -5    1    3    3    0  502  0.30364735433E+02  0.51865353997E+02 -0.31770435004E+03  0.32336598234E+03  0.41800000000E+01 0. -1.
        -11    1    1    2    0    0  0.40770742609E+02 -0.45208216746E+02 -0.20855035816E+03  0.21725397166E+03  0.00000000000E+00 0. -1.
         11    1    1    2    0    0 -0.31962675716E+02  0.15449759685E+02 -0.20300168417E+03  0.20608248710E+03  0.00000000000E+00 0.  1.
</event>
<event>
 7    1  0.4966153E-006  0.3890367E+03  0.7561462E-02  0.1047643E+00
          2   -1    0    0  501    0  0.00000000000E+00  0.00000000000E+00  0.20762061292E+04  0.20762061292E+04  0.00000000000E+00 0. -1.
         -2   -1    0    0    0  501 -0.00000000000E+00 -0.00000000000E+00 -0.75382140146E+02  0.75382140146E+02  0.00000000000E+00 0.  1.
         23    2    1    2    0    0  0.50757640126E+02 -0.37559647336E+03  0.11262891749E+04  0.11941198105E+04  0.11724234429E+03 0.  0.
          5    1    3    3  502    0  0.43966610073E+02 -0.38072885706E+03  0.11166479585E+04  0.11805963158E+04  0.41800000000E+01 0. -1.
         -5    1    3    3    0  502  0.67910300531E+01  0.51323837058E+01  0.96412164734E+01  0.13523494621E+02  0.41800000000E+01 0.  1.
        -11    1    1    2    0    0 -0.14894751401E+02  0.31153990207E+03  0.75897109639E+03  0.82055840094E+03  0.00000000000E+00 0.  1.
         11    1    1    2    0    0 -0.35862888725E+02  0.64056571290E+02  0.11556371768E+03  0.13691005791E+03  0.00000000000E+00 0. -1.
</event>
<event>
 7    1  0.4966153E-006  0.9287114E+02  0.7561462E-02  0.1296044E+00
         -2   -1    0    0    0  501 -0.00000000000E+00  0.00000000000E+00  0.48127883731E+02  0.48127883731E+02  0.00000000000E+00 0.  1.
          2   -1    0    0  501    0  0.00000000000E+00 -0.00000000000E+00 -0.34184864761E+03  0.34184864761E+03  0.00000000000E+00 0. -1.
         23    2    1    2    0    0  0.21752729907E+02 -0.18945391361E+02 -0.68378777996E+02  0.14544505886E+03  0.12508596546E+03 0.  0.
          5    1    3    3  502    0  0.52870013221E+02  0.16919899797E+02  0.71571316195E+01  0.56126805005E+02  0.41800000000E+01 0. -1.
         -5    1    3    3    0  502 -0.31117283314E+02 -0.35865291158E+02 -0.75535909616E+02  0.89318253858E+02  0.41800000000E+01 0. -1.
        -11    1    1    2    0    0  0.26981496433E+02 -0.60285512011E+01 -0.26534301372E+02  0.38319886856E+02  0.00000000000E+00 0. -1.
         11    1    1    2    0    0 -0.48734226340E+02  0.24973942562E+02 -0.19880768451E+03  0.20621158562E+03  0.00000000000E+00 0.  1.
</event>
<event>
 7    1  0.4966153E-006  0.1251858E+03  0.7561462E-02  0.1234779E+00
          1   -1    0    0  501    0  0.00000000000E+00  0.00000000000E+00  0.63343574137E+02  0.63343574137E+02  0.00000000000E+00 0. -1.
         -1   -1    0    0    0  501 -0.00000000000E+00 -0.00000000000E+00 -0.34800248043E+03  0.34800248043E+03  0.00000000000E+00 0.  1.
         23    2    1    2    0    0 -0.35186090036E+02 -0.89493575276E+02 -0.19710285216E+03  0.25247494029E+03  0.12508757011E+03 0.  0.
          5    1    3    3  502    0 -0.23548649809E+02  0.15570013751E+02 -0.11521195076E+03  0.11869385087E+03  0.41800000000E+01 0. -1.
         -5    1    3    3    0  502 -0.11637440227E+02 -0.10506358903E+03 -0.81890901397E+02  0.13378108942E+03  0.41800000000E+01 0. -1.
        -11    1    1    2    0    0  0.46495845403E+02  0.29657846791E+02 -0.80484887671E+02  0.97566739514E+02  0.00000000000E+00 0.  1.
         11    1    1    2    0    0 -0.11309755366E+02  0.59835728485E+02 -0.70711664611E+01  0.61304374762E+02  0.00000000000E+00 0. -1.
</event>
<event>
 7    1  0.4966153E-006  0.1650282E+03  0.7561462E-02  0.1183134E+00
         -1   -1    0    0    0  501 -0.00000000000E+00  0.00000000000E+00  0.30049760592E+02  0.30049760592E+02  0.00000000000E+00 0.  1.
          1   -1    0    0  501    0  0.00000000000E+00 -0.00000000000E+00 -0.10487618188E+04  0.10487618188E+04  0.00000000000E+00 0. -1.
         23    2    1    2    0    0  0.72269347741E+02  0.10824732715E+03 -0.38176382124E+03  0.42229049464E+03  0.12508119044E+03 0.  0.
          5    1    3    3  502    0  0.63036565114E+02  0.13638586384E+03 -0.30891930945E+03  0.34354522926E+03  0.41800000000E+01 0. -1.
         -5    1    3    3    0  502  0.92327826265E+01 -0.28138536692E+02 -0.72844511792E+02  0.78745265384E+02  0.41800000000E+01 0. -1.
        -11    1    1    2    0    0 -0.49959570654E+02 -0.12459634806E+02 -0.12462363320E+03  0.13484157798E+03  0.00000000000E+00 0.  1.
         11    1    1    2    0    0 -0.22309777087E+02 -0.95787692345E+02 -0.51232460376E+03  0.52167950677E+03  0.00000000000E+00 0. -1.
</event>
<event>
 7    1  0.4966153E-006  0.8519224E+02  0.7561462E-02  0.1314931E+00
          1   -1    0    0  501    0  0.00000000000E+00  0.00000000000E+00  0.22740441129E+02  0.22740441129E+02  0.00000000000E+00 0. -1.
         -1   -1    0    0    0  501 -0.00000000000E+00 -0.00000000000E+00 -0.11309455986E+04  0.11309455986E+04  0.00000000000E+00 0.  1.
         23    2    1    2    0    0  0.29307321256E+02  0.33768365352E+01 -0.10000225190E+04  0.10082454872E+04  0.12507438567E+03 0.  0.
          5    1    3    3  502    0  0.27407872054E+02  0.47831694024E+02 -0.21643451539E+03  0.22338405104E+03  0.41800000000E+01 0. -1.
         -5    1    3    3    0  502  0.18994492021E+01 -0.44454857489E+02 -0.78358800360E+03  0.78486143621E+03  0.41800000000E+01 0. -1.
        -11    1    1    2    0    0 -0.35245498592E+02  0.23839399174E+02 -0.10957753859E+03  0.11754913478E+03  0.00000000000E+00 0.  1.
         11    1    1    2    0    0  0.59381773360E+01 -0.27216235710E+02  0.13949000948E+01  0.27891417722E+02  0.00000000000E+00 0. -1.
</event>
<event>
 7    1  0.4966153E-006  0.1335802E+03  0.7561462E-02  0.1222238E+00
          1   -1    0    0  501    0  0.00000000000E+00  0.00000000000E+00  0.76448744147E+02  0.76448744147E+02  0.00000000000E+00 0. -1.
         -1   -1    0    0    0  501 -0.00000000000E+00 -0.00000000000E+00 -0.25895072791E+03  0.25895072791E+03  0.00000000000E+00 0.  1.
         23    2    1    2    0    0  0.57364488454E+02 -0.59196703948E+01 -0.10463222110E+03  0.17297857872E+03  0.12509180617E+03 0.  0.
          5    1    3    3  502    0  0.31464699060E+02 -0.59155419767E+02 -0.20832662261E+02  0.70291273937E+02  0.41800000000E+01 0.  1.
         -5    1    3    3    0  502  0.25899789394E+02  0.53235749373E+02 -0.83799558837E+02  0.10268730478E+03  0.41800000000E+01 0.  1.
        -11    1    1    2    0    0 -0.75051282052E+02  0.52009693815E+02 -0.62737133718E+02  0.11078651152E+03  0.00000000000E+00 0.  1.
         11    1    1    2    0    0  0.17686793597E+02 -0.46090023420E+02 -0.15132628946E+02  0.51634381815E+02  0.00000000000E+00 0. -1.
</event>
<event>
 7    1  0.4966153E-006  0.1334796E+03  0.7561462E-02  0.1222382E+00
         -2   -1    0    0    0  501 -0.00000000000E+00  0.00000000000E+00  0.15572690824E+03  0.15572690824E+03  0.00000000000E+00 0.  1.
          2   -1    0    0  501    0  0.00000000000E+00 -0.00000000000E+00 -0.16424584462E+03  0.16424584462E+03  0.00000000000E+00 0. -1.
         23    2    1    2    0    0 -0.95124719252E+02  0.15667326281E+02  0.67043838280E+02  0.17157069118E+03  0.12508976175E+03 0.  0.
          5    1    3    3  502    0 -0.11573900544E+03  0.42866451457E+02  0.50597953402E+02  0.13345664213E+03  0.41800000000E+01 0.  1.
         -5    1    3    3    0  502  0.20614286188E+02 -0.27199125176E+02  0.16445884878E+02  0.38114049047E+02  0.41800000000E+01 0.  1.
        -11    1    1    2    0    0  0.79793953473E+02  0.87284279577E+01 -0.86108622841E+02  0.11771981733E+03  0.00000000000E+00 0. -1.
         11    1    1    2    0    0  0.15330765779E+02 -0.24395754239E+02  0.10545848187E+02  0.30682244348E+02  0.00000000000E+00 0.  1.
</event>
<event>
 7    1  0.4966153E-006  0.1063309E+03  0.7561462E-02  0.1267519E+00
          2   -1    0    0  501    0  0.00000000000E+00  0.00000000000E+00  0.10036304773E+03  0.10036304773E+03  0.00000000000E+00 0.  1.
         -2   -1    0    0    0  501 -0.00000000000E+00 -0.00000000000E+00 -0.18186118671E+03  0.18186118671E+03  0.00000000000E+00 0. -1.
         23    2    1    2    0    0  0.23729005727E+02 -0.61325788870E+02 -0.94001325475E+02  0.16972776996E+03  0.12508936251E+03 0.  0.
          5    1    3    3  502    0  0.22662417110E+02  0.21919821972E+02 -0.78825909951E+02  0.85000354259E+02  0.41800000000E+01 0. -1.
         -5    1    3    3    0  502  0.10665886162E+01 -0.83245610841E+02 -0.15175415523E+02  0.84727415704E+02  0.41800000000E+01 0. -1.
        -11    1    1    2    0    0 -0.42382701077E+02  0.65845243283E+02 -0.14227901932E+02  0.79588457749E+02  0.00000000000E+00 0. -1.
         11    1    1    2    0    0  0.18653695350E+02 -0.45194544131E+01  0.26731088427E+02  0.32908006729E+02  0.00000000000E+00 0.  1.
</event>
<event>
 7    1  0.4966153E-006  0.1128603E+03  0.7561462E-02  0.1255363E+00
          1   -1    0    0  501    0  0.00000000000E+00  0.00000000000E+00  0.50222366284E+02  0.50222366284E+02  0.00000000000E+00 0. -1.
         -1   -1    0    0    0  501 -0.00000000000E+00 -0.00000000000E+00 -0.34953272969E+03  0.34953272969E+03  0.00000000000E+00 0.  1.
         23    2    1    2    0    0  0.22486655628E+02  0.51729890803E+02 -0.24622605098E+03  0.28188020713E+03  0.12509017431E+03 0.  0.
          5    1    3    3  502    0 -0.36655428078E+02 -0.18909721332E+02 -0.10828549699E+03  0.11595007213E+03  0.41800000000E+01 0. -1.
         -5    1    3    3    0  502  0.59142083706E+02  0.70639612135E+02 -0.13794055399E+03  0.16593013501E+03  0.41800000000E+01 0. -1.
        -11    1    1    2    0    0 -0.47516110007E+02 -0.19818130563E+02 -0.57380701450E+02  0.77091399703E+02  0.00000000000E+00 0.  1.
         11    1    1    2    0    0  0.25029454379E+02 -0.31911760240E+02  0.42963890181E+01  0.40783489143E+02  0.00000000000E+00 0. -1.
</event>
<event>
 7    1  0.4966153E-006  0.1676672E+03  0.7561462E-02  0.1180303E+00
          2   -1    0    0  501    0  0.00000000000E+00  0.00000000000E+00  0.51829128693E+03  0.51829128693E+03  0.00000000000E+00 0. -1.
         -2   -1    0    0    0  501 -0.00000000000E+00 -0.00000000000E+00 -0.58881414538E+02  0.58881414538E+02  0.00000000000E+00 0.  1.
         23    2    1    2    0    0 -0.12880797095E+03 -0.50147759047E+02  0.22524979416E+03  0.29239019718E+03  0.12509303146E+03 0.  0.
          5    1    3    3  502    0  0.18218813024E+02 -0.14553065033E+02  0.35338202029E+01  0.23951558093E+02  0.41800000000E+01 0.  1.
         -5    1    3    3    0  502 -0.14702678398E+03 -0.35594694014E+02  0.22171597396E+03  0.26843863909E+03  0.41800000000E+01 0.  1.
        -11    1    1    2    0    0  0.22898087413E+02  0.49346216970E+02  0.60390651408E+02  0.81279778013E+02  0.00000000000E+00 0. -1.
         11    1    1    2    0    0  0.10590988354E+03  0.80154207684E+00  0.17376942682E+03  0.20350272627E+03  0.00000000000E+00 0.  1.
</event>
<event>
 7    1  0.4966153E-006  0.1147155E+03  0.7561462E-02  0.1252079E+00
         -2   -1    0    0    0  501 -0.00000000000E+00  0.00000000000E+00  0.85597692750E+03  0.85597692750E+03  0.00000000000E+00 0.  1.
          2   -1    0    0  501    0  0.00000000000E+00 -0.00000000000E+00 -0.21710125725E+02  0.21710125725E+02  0.00000000000E+00 0. -1.
         23    2    1    2    0    0  0.83857571261E+02  0.10549797551E+02  0.54900099798E+03  0.56937930643E+03  0.12508920145E+03 0.  0.
          5    1    3    3  502    0  0.85821218375E+02  0.53118411654E+02  0.29554248269E+03  0.31232943930E+03  0.41800000000E+01 0.  1.
         -5    1    3    3    0  502 -0.19636471133E+01 -0.42568614103E+02  0.25345851529E+03  0.25704986713E+03  0.41800000000E+01 0.  1.
        -11    1    1    2    0    0 -0.16407007301E+02 -0.75981422884E+01  0.33102380164E+01  0.18381494241E+02  0.00000000000E+00 0. -1.
         11    1    1    2    0    0 -0.67450563961E+02 -0.29516552624E+01  0.28195556578E+03  0.28992625256E+03  0.00000000000E+00 0.  1.
</event>
<event>
 7    1  0.4966153E-006  0.1460980E+03  0.7561462E-02  0.1205351E+00
          1   -1    0    0  501    0  0.00000000000E+00  0.00000000000E+00  0.73387944786E+03  0.73387944786E+03  0.00000000000E+00 0. -1.
         -1   -1    0    0    0  501 -0.00000000000E+00 -0.00000000000E+00 -0.32861659090E+02  0.32861659090E+02  0.00000000000E+00 0.  1.
         23    2    1    2    0    0 -0.70253317848E+01 -0.99123846580E+02  0.25608945673E+03  0.30183354493E+03  0.12508711666E+03 0.  0.
          5    1    3    3  502    0  0.45460005805E+02 -0.94892733687E+02  0.18999490896E+03  0.21722518469E+03  0.41800000000E+01 0.  1.
         -5    1    3    3    0  502 -0.52485337589E+02 -0.42311128926E+01  0.66094547767E+02  0.84608360241E+02  0.41800000000E+01 0.  1.
        -11    1    1    2    0    0 -0.40821702259E+02  0.58327880113E+02  0.26060047699E+03  0.27015025741E+03  0.00000000000E+00 0. -1.
         11    1    1    2    0    0  0.47847034044E+02  0.40795966467E+02  0.18432785506E+03  0.19475730461E+03  0.00000000000E+00 0.  1.
</event>
<event>
 7    1  0.4966153E-006  0.1945168E+03  0.7561462E-02  0.1154449E+00
         -2   -1    0    0    0  501 -0.00000000000E+00  0.00000000000E+00  0.34512961880E+03  0.34512961880E+03  0.00000000000E+00 0.  1.
          2   -1    0    0  501    0  0.00000000000E+00 -0.00000000000E+00 -0.13147307613E+03  0.13147307613E+03  0.00000000000E+00 0. -1.
         23    2    1    2    0    0 -0.17052953145E+03 -0.38884789254E+02  0.16981313090E+03  0.27400029975E+03  0.12508923577E+03 0.  0.
          5    1    3    3  502    0 -0.12735995896E+03  0.31077996032E+02  0.88039405166E+02  0.15797091582E+03  0.41800000000E+01 0. -1.
         -5    1    3    3    0  502 -0.43169572489E+02 -0.69962785286E+02  0.81773725737E+02  0.11602938393E+03  0.41800000000E+01 0. -1.
        -11    1    1    2    0    0  0.14607995259E+03  0.27766432667E+02 -0.28640783154E+01  0.14872299848E+03  0.00000000000E+00 0. -1.
         11    1    1    2    0    0  0.24449578860E+02  0.11118356587E+02  0.46707490080E+02  0.53879396704E+02  0.00000000000E+00 0.  1.
</event>
<event>
 7    1  0.4966153E-006  0.9498199E+02  0.7561462E-02  0.1291217E+00
         -1   -1    0    0    0  501 -0.00000000000E+00  0.00000000000E+00  0.58116963039E+02  0.58116963039E+02  0.00000000000E+00 0.  1.
          1   -1    0    0  501    0  0.00000000000E+00 -0.00000000000E+00 -0.29083136005E+03  0.29083136005E+03  0.00000000000E+00 0. -1.
         23    2    1    2    0    0  0.35607180286E+02 -0.45872965463E+02 -0.70830556576E+02  0.15504015772E+03  0.12509309538E+03 0.  0.
          5    1    3    3  502    0  0.54020719081E+02 -0.39135178561E+02  0.13646670320E+02  0.68216598434E+02  0.41800000000E+01 0. -1.
         -5    1    3    3    0  502 -0.18413538795E+02 -0.67377869023E+01 -0.84477226896E+02  0.86823559287E+02  0.41800000000E+01 0. -1.
        -11    1    1    2    0    0 -0.32143995073E+02 -0.19511319656E+02 -0.36219002537E+02  0.52208659806E+02  0.00000000000E+00 0.  1.
         11    1    1    2    0    0 -0.34631852130E+01  0.65384285120E+02 -0.12566483790E+03  0.14169950556E+03  0.00000000000E+00 0. -1.
</event>
<event>
 7    1  0.4966153E-006  0.1245702E+03  0.7561462E-02  0.1235743E+00
          4   -1    0    0  501    0  0.00000000000E+00  0.00000000000E+00  0.24965755280E+03  0.24965755280E+03  0.00000000000E+00 0. -1.
         -4   -1    0    0    0  501 -0.00000000000E+00 -0.00000000000E+00 -0.68889320032E+02  0.68889320032E+02  0.00000000000E+00 0.  1.
         23    2    1    2    0    0 -0.67625648001E+02  0.26997798232E+02  0.82310422067E+02  0.16650531386E+03  0.12508758766E+03 0.  0.
          5    1    3    3  502    0 -0.67237297721E+02 -0.38285172368E+02  0.57708172717E+02  0.96614254778E+02  0.41800000000E+01 0. -1.
         -5    1    3    3    0  502 -0.38835028038E+00  0.65282970600E+02  0.24602249351E+02  0.69891059081E+02  0.41800000000E+01 0. -1.
        -11    1    1    2    0    0 -0.26212951769E+01 -0.35392858890E+02  0.66008701847E+01  0.36098436753E+02  0.00000000000E+00 0.  1.
         11    1    1    2    0    0  0.70246943178E+02  0.83950606577E+01  0.91856940519E+02  0.11594312222E+03  0.00000000000E+00 0. -1.
</event>
<event>
 6    1  0.4966153E-006  0.1295760E+03  0.7561462E-02  0.1228086E+00
          1   -1    0    0  501    0  0.00000000000E+00  0.00000000000E+00  0.62972510097E+03  0.62972510097E+03  0.00000000000E+00 0. -1.
         -1   -1    0    0    0  501 -0.00000000000E+00 -0.00000000000E+00 -0.47283918167E+02  0.47283918167E+02  0.00000000000E+00 0.  1.
          5    1    1    2  502    0 -0.59577189723E+02  0.56975470775E+02  0.14990794439E+03  0.17113009670E+03  0.41800000000E+01 0. -1.
         -5    1    1    2    0  502  0.72761044408E+02 -0.35324342222E+02  0.21674805177E+02  0.83840612570E+02  0.41800000000E+01 0.  1.
        -11    1    1    2    0    0 -0.31277447799E+02 -0.51769624863E+02  0.28629305847E+03  0.29261252217E+03  0.00000000000E+00 0. -1.
         11    1    1    2    0    0  0.18093593115E+02  0.30118496310E+02  0.12456537476E+03  0.12942578770E+03  0.00000000000E+00 0.  1.
</event>
<event>
 7    1  0.4966153E-006  0.1304114E+03  0.7561462E-02  0.1226847E+00
          1   -1    0    0  501    0  0.00000000000E+00  0.00000000000E+00  0.30818232143E+03  0.30818232143E+03  0.00000000000E+00 0. -1.
         -1   -1    0    0    0  501 -0.00000000000E+00 -0.00000000000E+00 -0.62884732939E+02  0.62884732939E+02  0.00000000000E+00 0.  1.
         23    2    1    2    0    0 -0.60044917843E+02  0.60327762827E+02  0.15492438614E+03  0.21655236347E+03  0.12509408291E+03 0.  0.
          5    1    3    3  502    0  0.20383563678E+02  0.52584381185E+02  0.11079207416E+03  0.12439036501E+03  0.41800000000E+01 0. -1.
         -5    1    3    3    0  502 -0.80428481521E+02  0.77433816424E+01  0.44132311982E+02  0.92161998458E+02  0.41800000000E+01 0. -1.
        -11    1    1    2    0    0  0.75749855874E+02 -0.17498098321E+02  0.69764778164E+02  0.10445739984E+03  0.00000000000E+00 0. -1.
         11    1    1    2    0    0 -0.15704938031E+02 -0.42829664506E+02  0.20608424193E+02  0.50057291057E+02  0.00000000000E+00 0.  1.
</event>
<event>
 7    1  0.4966153E-006  0.1698568E+03  0.7561462E-02  0.1177997E+00
         -1   -1    0    0    0  501 -0.00000000000E+00  0.00000000000E+00  0.52167165957E+02  0.52167165957E+02  0.00000000000E+00 0.  1.
          1   -1    0    0  501    0  0.00000000000E+00 -0.00000000000E+00 -0.69254183151E+03  0.69254183151E+03  0.00000000000E+00 0. -1.
         23    2    1    2    0    0 -0.30270531114E+02  0.14796188486E+03 -0.30209089333E+03  0.36016285769E+03  0.12509736927E+03 0.  0.
          5    1    3    3  502    0  0.78036706120E+00  0.14923973784E+03 -0.29070501974E+03  0.32680267629E+03  0.41800000000E+01 0.  1.
         -5    1    3    3    0  502 -0.31050898175E+02 -0.12778529839E+01 -0.11385873588E+02  0.33360181401E+02  0.41800000000E+01 0.  1.
        -11    1    1    2    0    0  0.22614104976E+02 -0.18091080377E+02 -0.16681428381E+03  0.16930945106E+03  0.00000000000E+00 0. -1.
         11    1    1    2    0    0  0.76564261381E+01 -0.12987080448E+03 -0.17146948841E+03  0.21523668872E+03  0.00000000000E+00 0.  1.
</event>
<event>
 7    1  0.4966153E-006  0.1459055E+03  0.7561462E-02  0.1205597E+00
          3   -1    0    0  501    0  0.00000000000E+00  0.00000000000E+00  0.34485965584E+03  0.34485965584E+03  0.00000000000E+00 0. -1.
         -3   -1    0    0    0  501 -0.00000000000E+00 -0.00000000000E+00 -0.66088957302E+02  0.66088957302E+02  0.00000000000E+00 0.  1.
         23    2    1    2    0    0  0.97786417062E+02 -0.73408241038E+01  0.11303806022E+03  0.19504797876E+03  0.12510011950E+03 0.  0.
          5    1    3    3  502    0  0.93310742654E+02 -0.56523286788E+02  0.82393880322E+02  0.13677719312E+03  0.41800000000E+01 0. -1.
         -5    1    3    3    0  502  0.44756744083E+01  0.49182462684E+02  0.30644179902E+02  0.58270785639E+02  0.41800000000E+01 0. -1.
        -11    1    1    2    0    0  0.10871642564E+02 -0.18433097907E+02  0.53287904870E+02  0.57424494041E+02  0.00000000000E+00 0. -1.
         11    1    1    2    0    0 -0.10865805963E+03  0.25773922011E+02  0.11244473344E+03  0.15847614034E+03  0.00000000000E+00 0.  1.
</event>
<event>
 7    1  0.4966153E-006  0.1134407E+03  0.7561462E-02  0.1254328E+00
         -3   -1    0    0    0  501 -0.00000000000E+00  0.00000000000E+00  0.98517781200E+02  0.98517781200E+02  0.00000000000E+00 0.  1.
          3   -1    0    0  501    0  0.00000000000E+00 -0.00000000000E+00 -0.19180888449E+03  0.19180888449E+03  0.00000000000E+00 0. -1.
         23    2    1    2    0    0  0.46872858814E+02 -0.58948935809E+02 -0.88755424551E+02  0.17087177301E+03  0.12509034934E+03 0.  0.
          5    1    3    3  502    0  0.67418116874E+01 -0.77416354087E+02 -0.98407863714E+02  0.12546044773E+03  0.41800000000E+01 0.  1.
         -5    1    3    3    0  502  0.40131047127E+02  0.18467418278E+02  0.96524391626E+01  0.45411325274E+02  0.41800000000E+01 0.  1.
        -11    1    1    2    0    0 -0.28326717899E+02 -0.12432300656E+02  0.25234619593E+02  0.39921811989E+02  0.00000000000E+00 0.  1.
         11    1    1    2    0    0 -0.18546140916E+02  0.71381236465E+02 -0.29770298336E+02  0.79533080697E+02  0.00000000000E+00 0. -1.
</event>
<event>
 7    1  0.4966153E-006  0.1137628E+03  0.7561462E-02  0.1253756E+00
          3   -1    0    0  501    0  0.00000000000E+00  0.00000000000E+00  0.85779788648E+02  0.85779788648E+02  0.00000000000E+00 0. -1.
         -3   -1    0    0    0  501 -0.00000000000E+00 -0.00000000000E+00 -0.15618247244E+03  0.15618247244E+03  0.00000000000E+00 0.  1.
         23    2    1    2    0    0 -0.36384678859E+02  0.24479361825E+02 -0.47748841000E+02  0.14089328316E+03  0.12509149217E+03 0.  0.
          5    1    3    3  502    0  0.31524196911E+02  0.48219741361E+02 -0.35502213441E+02  0.67799690316E+02  0.41800000000E+01 0. -1.
         -5    1    3    3    0  502 -0.67908875769E+02 -0.23740379536E+02 -0.12246627559E+02  0.73093592847E+02  0.41800000000E+01 0. -1.
        -11    1    1    2    0    0 -0.93193764777E+01  0.27177309984E+02 -0.12580017937E+02  0.31364212204E+02  0.00000000000E+00 0. -1.
         11    1    1    2    0    0  0.45704055336E+02 -0.51656671808E+02 -0.10073824850E+02  0.69704765717E+02  0.00000000000E+00 0.  1.
</event>
<event>
 7    1  0.4966153E-006  0.7644013E+02  0.7561462E-02  0.1339469E+00
          1   -1    0    0  501    0  0.00000000000E+00  0.00000000000E+00  0.28052755813E+02  0.28052755813E+02  0.00000000000E+00 0. -1.
         -1   -1    0    0    0  501 -0.00000000000E+00 -0.00000000000E+00 -0.80375317973E+03  0.80375317973E+03  0.00000000000E+00 0.  1.
         23    2    1    2    0    0  0.33743773008E+02 -0.35479228904E+02 -0.66849862389E+03  0.68186089822E+03  0.12508579648E+03 0.  0.
          5    1    3    3  502    0  0.13930892371E+02  0.87404462505E+01 -0.66461186776E+01  0.18223843074E+02  0.41800000000E+01 0.  1.
         -5    1    3    3    0  502  0.19812880637E+02 -0.44219675155E+02 -0.66185250521E+03  0.66363705515E+03  0.41800000000E+01 0.  1.
        -11    1    1    2    0    0 -0.43440989942E+02  0.52221707185E+02 -0.37466715791E+02  0.77575647600E+02  0.00000000000E+00 0. -1.
         11    1    1    2    0    0  0.96972169335E+01 -0.16742478281E+02 -0.69735084238E+02  0.72369389724E+02  0.00000000000E+00 0.  1.
</event>
<event>
 7    1  0.4966153E-006  0.2635906E+03  0.7561462E-02  0.1105005E+00
         -2   -1    0    0    0  501 -0.00000000000E+00  0.00000000000E+00  0.21010199401E+03  0.21010199401E+03  0.00000000000E+00 0.  1.
          2   -1    0    0  501    0  0.00000000000E+00 -0.00000000000E+00 -0.47519273032E+03  0.47519273032E+03  0.00000000000E+00 0. -1.
         23    2    1    2    0    0  0.20136775920E+03  0.16977007030E+03  0.12470731538E+02  0.29184673938E+03  0.12509256143E+03 0.  0.
          5    1    3    3  502    0  0.11999694157E+03  0.10619163615E+03  0.68468571933E+02  0.17430245930E+03  0.41800000000E+01 0. -1.
         -5    1    3    3    0  502  0.81370817627E+02  0.63578434149E+02 -0.55997840394E+02  0.11754428008E+03  0.41800000000E+01 0. -1.
        -11    1    1    2    0    0 -0.11360951657E+03 -0.10167056951E+03 -0.22182924744E+03  0.26916954133E+03  0.00000000000E+00 0. -1.
         11    1    1    2    0    0 -0.87758242627E+02 -0.68099500789E+02 -0.55732220419E+02  0.12427844362E+03  0.00000000000E+00 0.  1.
</event>
<event>
 7    1  0.4966153E-006  0.1928799E+03  0.7561462E-02  0.1155889E+00
          2   -1    0    0  501    0  0.00000000000E+00  0.00000000000E+00  0.15969228640E+03  0.15969228640E+03  0.00000000000E+00 0.  1.
         -2   -1    0    0    0  501 -0.00000000000E+00 -0.00000000000E+00 -0.26540834410E+03  0.26540834410E+03  0.00000000000E+00 0. -1.
         23    2    1    2    0    0  0.11678302995E+03 -0.12640770450E+03 -0.60163978096E+02  0.22109778039E+03  0.12508932964E+03 0.  0.
          5    1    3    3  502    0  0.84575850169E+02 -0.12376255965E+02  0.51473715329E+01  0.85733388929E+02  0.41800000000E+01 0. -1.
         -5    1    3    3    0  502  0.32207179776E+02 -0.11403144854E+03 -0.65311349629E+02  0.13536439146E+03  0.41800000000E+01 0. -1.
        -11    1    1    2    0    0 -0.70874576600E+02  0.11369864182E+03  0.56112504187E+01  0.13409725161E+03  0.00000000000E+00 0.  1.
         11    1    1    2    0    0 -0.45908453345E+02  0.12709062684E+02 -0.51163330028E+02  0.69905598505E+02  0.00000000000E+00 0. -1.
</event>
<event>
 7    1  0.4966153E-006  0.1257465E+03  0.7561462E-02  0.1233907E+00
          2   -1    0    0  501    0  0.00000000000E+00  0.00000000000E+00  0.73878167273E+03  0.73878167273E+03  0.00000000000E+00 0. -1.
         -2   -1    0    0    0  501 -0.00000000000E+00 -0.00000000000E+00 -0.38136994058E+02  0.38136994058E+02  0.00000000000E+00 0.  1.
         23    2    1    2    0    0 -0.96635448692E+02 -0.51838379381E+02  0.22153913417E+03  0.27704484653E+03  0.12509449028E+03 0.  0.
          5    1    3    3  502    0 -0.71515598006E+02 -0.21390938057E+02  0.28570608475E+02  0.80036273387E+02  0.41800000000E+01 0.  1.
         -5    1    3    3    0  502 -0.25119850686E+02 -0.30447441324E+02  0.19296852570E+03  0.19700857314E+03  0.41800000000E+01 0.  1.
        -11    1    1    2    0    0  0.10167127237E+03  0.18525152676E+02  0.29174906658E+03  0.30951211085E+03  0.00000000000E+00 0. -1.
         11    1    1    2    0    0 -0.50358236807E+01  0.33313226706E+02  0.18735647791E+03  0.19036170941E+03  0.00000000000E+00 0.  1.
</event>
<event>
 7    1  0.4966153E-006  0.7466903E+02  0.7561462E-02  0.1344899E+00
          1   -1    0    0  501    0  0.00000000000E+00  0.00000000000E+00  0.12242650300E+03  0.12242650300E+03  0.00000000000E+00 0. -1.
         -1   -1    0    0    0  501 -0.00000000000E+00 -0.00000000000E+00 -0.18759522578E+03  0.18759522578E+03  0.00000000000E+00 0.  1.
         23    2    1    2    0    0  0.58088967184E+02  0.39373840416E+02 -0.11556586802E+03  0.18419645920E+03  0.12509291872E+03 0.  0.
          5    1    3    3  502    0  0.52251971605E+02  0.30258614019E+02  0.71383198588E+01  0.60944895351E+02  0.41800000000E+01 0. -1.
         -5    1    3    3    0  502  0.58369955794E+01  0.91152263972E+01 -0.12270418787E+03  0.12325156385E+03  0.41800000000E+01 0. -1.
        -11    1    1    2    0    0 -0.26876567010E+02 -0.37238259637E+02 -0.19002021140E+02  0.49700247911E+02  0.00000000000E+00 0.  1.
         11    1    1    2    0    0 -0.31212400174E+02 -0.21355807790E+01  0.69399166375E+02  0.76125021664E+02  0.00000000000E+00 0. -1.
</event>
<event>
 7    1  0.4966153E-006  0.2467824E+03  0.7561462E-02  0.1115355E+00
          1   -1    0    0  501    0  0.00000000000E+00  0.00000000000E+00  0.81567680711E+03  0.81567680711E+03  0.00000000000E+00 0. -1.
         -1   -1    0    0    0  501 -0.00000000000E+00 -0.00000000000E+00 -0.10941348416E+03  0.10941348416E+03  0.00000000000E+00 0.  1.
         23    2    1    2    0    0  0.77281256754E+02  0.22109293413E+03  0.12778741599E+03  0.29467195265E+03  0.12508979906E+03 0.  0.
          5    1    3    3  502    0 -0.10920330738E+02  0.12655678387E+03  0.10153765663E+03  0.16267526327E+03  0.41800000000E+01 0. -1.
         -5    1    3    3    0  502  0.88201587492E+02  0.94536150262E+02  0.26249759358E+02  0.13199668939E+03  0.41800000000E+01 0. -1.
        -11    1    1    2    0    0 -0.55611649327E+02 -0.19702514866E+03  0.40342964687E+03  0.45240141989E+03  0.00000000000E+00 0.  1.
         11    1    1    2    0    0 -0.21669607427E+02 -0.24067785471E+02  0.17504626009E+03  0.17801691874E+03  0.00000000000E+00 0. -1.
</event>
<event>
 7    1  0.4966153E-006  0.1136344E+03  0.7561462E-02  0.1253984E+00
          2   -1    0    0  501    0  0.00000000000E+00  0.00000000000E+00  0.36654463071E+03  0.36654463071E+03  0.00000000000E+00 0. -1.
         -2   -1    0    0    0  501 -0.00000000000E+00 -0.00000000000E+00 -0.46506492368E+02  0.46506492368E+02  0.00000000000E+00 0.  1.
         23    2    1    2    0    0  0.14049164961E+02  0.46605160505E+02  0.96732914710E+02  0.16544577773E+03  0.12508248701E+03 0.  0.
          5    1    3    3  502    0  0.62395103060E+02  0.56971615072E+02  0.61546121006E+02  0.10461506211E+03  0.41800000000E+01 0. -1.
         -5    1    3    3    0  502 -0.48345938099E+02 -0.10366454567E+02  0.35186793704E+02  0.60830715614E+02  0.41800000000E+01 0. -1.
        -11    1    1    2    0    0 -0.41387890001E+02 -0.50657028682E+02  0.20308675799E+03  0.21336195365E+03  0.00000000000E+00 0. -1.
         11    1    1    2    0    0  0.27338725040E+02  0.40518681765E+01  0.20218465643E+02  0.34243391705E+02  0.00000000000E+00 0.  1.
</event>
<event>
 7    1  0.4966153E-006  0.9815093E+02  0.7561462E-02  0.1284233E+00
         -1   -1    0    0    0  501 -0.00000000000E+00  0.00000000000E+00  0.42723033833E+03  0.42723033833E+03  0.00000000000E+00 0.  1.
          1   -1    0    0  501    0  0.00000000000E+00 -0.00000000000E+00 -0.43087627739E+02  0.43087627739E+02  0.00000000000E+00 0. -1.
         23    2    1    2    0    0  0.13805037350E+02  0.60070319237E+02  0.22022783353E+03  0.26066598231E+03  0.12508970126E+03 0.  0.
          5    1    3    3  502    0 -0.19931907237E+02 -0.24130984184E+02  0.12563652072E+03  0.12954378820E+03  0.41800000000E+01 0. -1.
         -5    1    3    3    0  502  0.33736944587E+02  0.84201303421E+02  0.94591312814E+02  0.13112219411E+03  0.41800000000E+01 0. -1.
        -11    1    1    2    0    0 -0.25492153088E+02 -0.20656284249E+02 -0.72646433670E+01  0.33605163164E+02  0.00000000000E+00 0. -1.
         11    1    1    2    0    0  0.11687115738E+02 -0.39414034989E+02  0.17117952042E+03  0.17604682059E+03  0.00000000000E+00 0.  1.
</event>
<event>
 7    1  0.4966153E-006  0.1039571E+03  0.7561462E-02  0.1272188E+00
          2   -1    0    0  501    0  0.00000000000E+00  0.00000000000E+00  0.21678531594E+03  0.21678531594E+03  0.00000000000E+00 0. -1.
         -2   -1    0    0    0  501 -0.00000000000E+00 -0.00000000000E+00 -0.62994977349E+02  0.62994977349E+02  0.00000000000E+00 0.  1.
         23    2    1    2    0    0 -0.39470416900E+01  0.33390538564E+02  0.56006105640E+02  0.14112074400E+03  0.12509145979E+03 0.  0.
          5    1    3    3  502    0 -0.26609679180E+02  0.72739308259E+02  0.55744463127E+02  0.95519629194E+02  0.41800000000E+01 0. -1.
         -5    1    3    3    0  502  0.22662637490E+02 -0.39348769694E+02  0.26164251305E+00  0.45601114803E+02  0.41800000000E+01 0. -1.
        -11    1    1    2    0    0 -0.15126836317E+02 -0.54345500833E+02  0.27254010602E+02  0.62650105600E+02  0.00000000000E+00 0.  1.
         11    1    1    2    0    0  0.19073878007E+02  0.20954962269E+02  0.70530222352E+02  0.76009443695E+02  0.00000000000E+00 0. -1.
</event>
<event>
 7    1  0.4966153E-006  0.1820408E+03  0.7561462E-02  0.1165842E+00
         -1   -1    0    0    0  501 -0.00000000000E+00  0.00000000000E+00  0.13291266882E+03  0.13291266882E+03  0.00000000000E+00 0.  1.
          1   -1    0    0  501    0  0.00000000000E+00 -0.00000000000E+00 -0.38458574915E+03  0.38458574915E+03  0.00000000000E+00 0. -1.
         23    2    1    2    0    0  0.11371097071E+03  0.98322004844E+02  0.16925969595E+02  0.19629397947E+03  0.12508971354E+03 0.  0.
          5    1    3    3  502    0  0.12484699158E+03  0.11845951298E+03  0.15835444970E+02  0.17288048253E+03  0.41800000000E+01 0. -1.
         -5    1    3    3    0  502 -0.11136020872E+02 -0.20137508137E+02  0.10905246250E+01  0.23413496937E+02  0.41800000000E+01 0. -1.
        -11    1    1    2    0    0 -0.11353586038E+03 -0.10927829511E+03 -0.26713365061E+03  0.31014919742E+03  0.00000000000E+00 0. -1.
         11    1    1    2    0    0 -0.17511033079E+00  0.10956290264E+02 -0.14653993140E+01  0.11055241071E+02  0.00000000000E+00 0.  1.
</event>
<event>
 7    1  0.4966153E-006  0.9663563E+02  0.7561462E-02  0.1287534E+00
         -3   -1    0    0    0  501 -0.00000000000E+00  0.00000000000E+00  0.46407183577E+02  0.46407183577E+02  0.00000000000E+00 0.  1.
          3   -1    0    0  501    0  0.00000000000E+00 -0.00000000000E+00 -0.26868434284E+03  0.26868434284E+03  0.00000000000E+00 0. -1.
         23    2    1    2    0    0 -0.40890824781E+02 -0.59921728307E+00 -0.13047013002E+03  0.17926738584E+03  0.11593930388E+03 0.  0.
          5    1    3    3  502    0 -0.72396273000E+02 -0.17406667763E+02 -0.12092066571E+03  0.14206861801E+03  0.41800000000E+01 0. -1.
         -5    1    3    3    0  502  0.31505448219E+02  0.16807450480E+02 -0.95494643063E+01  0.37198767824E+02  0.41800000000E+01 0.  1.
        -11    1    1    2    0    0 -0.29260086155E+01 -0.29460712766E+02  0.16445672379E+00  0.29606117090E+02  0.00000000000E+00 0.  1.
         11    1    1    2    0    0  0.43816833397E+02  0.30059930049E+02 -0.91971485966E+02  0.10621802349E+03  0.00000000000E+00 0. -1.
</event>
<event>
 7    1  0.4966153E-006  0.5519479E+02  0.7561462E-02  0.1419180E+00
         -1   -1    0    0    0  501 -0.00000000000E+00  0.00000000000E+00  0.28291836303E+04  0.28291836303E+04  0.00000000000E+00 0.  1.
          1   -1    0    0  501    0  0.00000000000E+00 -0.00000000000E+00 -0.35144186326E+02  0.35144186326E+02  0.00000000000E+00 0. -1.
         23    2    1    2    0    0  0.90180536171E+01 -0.16725936704E+02  0.27638714497E+04  0.27667661016E+04  0.12509271919E+03 0.  0.
          5    1    3    3  502    0  0.32852465272E+02  0.17599842564E+02  0.24266123088E+04  0.24269021012E+04  0.41800000000E+01 0.  1.
         -5    1    3    3    0  502 -0.23834411655E+02 -0.34325779267E+02  0.33725914086E+03  0.33986400044E+03  0.41800000000E+01 0.  1.
        -11    1    1    2    0    0 -0.12412344891E+02 -0.13600245725E+01  0.60668434586E+02  0.61940091440E+02  0.00000000000E+00 0.  1.
         11    1    1    2    0    0  0.33942912742E+01  0.18085961277E+02 -0.30500440291E+02  0.35621623580E+02  0.00000000000E+00 0. -1.
</event>
<event>
 7    1  0.4966153E-006  0.1202891E+03  0.7561462E-02  0.1242621E+00
          3   -1    0    0  501    0  0.00000000000E+00  0.00000000000E+00  0.12954658122E+02  0.12954658122E+02  0.00000000000E+00 0. -1.
         -3   -1    0    0    0  501 -0.00000000000E+00 -0.00000000000E+00 -0.19005571210E+04  0.19005571210E+04  0.00000000000E+00 0.  1.
         23    2    1    2    0    0  0.87191896884E+02  0.36515716791E+02 -0.14018309746E+04  0.14105717802E+04  0.12508733392E+03 0.  0.
          5    1    3    3  502    0 -0.14578820348E+02 -0.79894129411E+01 -0.32561784239E+02  0.36798300432E+02  0.41800000000E+01 0. -1.
         -5    1    3    3    0  502  0.10177071723E+03  0.44505129732E+02 -0.13692691904E+04  0.13737734797E+04  0.41800000000E+01 0. -1.
        -11    1    1    2    0    0 -0.29573130340E+02  0.16601535280E+02 -0.51564394344E+02  0.61717645579E+02  0.00000000000E+00 0. -1.
         11    1    1    2    0    0 -0.57618766544E+02 -0.53117252071E+02 -0.43420709389E+03  0.44122235337E+03  0.00000000000E+00 0.  1.
</event>
<event>
 7    1  0.4966153E-006  0.1106670E+03  0.7561462E-02  0.1259340E+00
         -2   -1    0    0    0  501 -0.00000000000E+00  0.00000000000E+00  0.14703135141E+03  0.14703135141E+03  0.00000000000E+00 0.  1.
          2   -1    0    0  501    0  0.00000000000E+00 -0.00000000000E+00 -0.12123705048E+03  0.12123705048E+03  0.00000000000E+00 0. -1.
         23    2    1    2    0    0 -0.27367281762E+02  0.70515155323E+02  0.29709596737E+02  0.14917059169E+03  0.12509136678E+03 0.  0.
          5    1    3    3  502    0  0.17973970331E+00  0.10285995265E+03  0.15085001585E+02  0.10404437437E+03  0.41800000000E+01 0.  1.
         -5    1    3    3    0  502 -0.27547021465E+02 -0.32344797327E+02  0.14624595152E+02  0.45126217314E+02  0.41800000000E+01 0.  1.
        -11    1    1    2    0    0  0.17945290090E+02 -0.42213265595E+02 -0.47662342385E+02  0.66149014431E+02  0.00000000000E+00 0. -1.
         11    1    1    2    0    0  0.94219916716E+01 -0.28301889728E+02  0.43747046577E+02  0.52948795770E+02  0.00000000000E+00 0.  1.
</event>
<event>
 7    1  0.4966153E-006  0.1588405E+03  0.7561462E-02  0.1190012E+00
          1   -1    0    0  501    0  0.00000000000E+00  0.00000000000E+00  0.37281038442E+03  0.37281038442E+03  0.00000000000E+00 0. -1.
         -1   -1    0    0    0  501 -0.00000000000E+00 -0.00000000000E+00 -0.10149964893E+03  0.10149964893E+03  0.00000000000E+00 0.  1.
         23    2    1    2    0    0 -0.64639099438E+01 -0.15126766108E+03  0.74054515257E+02  0.20989405099E+03  0.12509098285E+03 0.  0.
          5    1    3    3  502    0  0.93250287220E+01 -0.35715334564E+02 -0.34362206125E+02  0.50604099572E+02  0.41800000000E+01 0.  1.
         -5    1    3    3    0  502 -0.15788938666E+02 -0.11555232652E+03  0.10841672138E+03  0.15928995142E+03  0.41800000000E+01 0.  1.
        -11    1    1    2    0    0 -0.27966760172E+02  0.78406371831E+02  0.51563318802E+02  0.97920757065E+02  0.00000000000E+00 0.  1.
         11    1    1    2    0    0  0.34430670116E+02  0.72861289252E+02  0.14569290143E+03  0.16649522529E+03  0.00000000000E+00 0. -1.
</event>
<event>
 7    1  0.4966153E-006  0.1045189E+03  0.7561462E-02  0.1271070E+00
         -1   -1    0    0    0  501 -0.00000000000E+00  0.00000000000E+00  0.16154914494E+02  0.16154914494E+02  0.00000000000E+00 0.  1.
          1   -1    0    0  501    0  0.00000000000E+00 -0.00000000000E+00 -0.89940474793E+03  0.89940474793E+03  0.00000000000E+00 0. -1.
         23    2    1    2    0    0  0.34820990291E+02  0.38324835701E+02 -0.45549481642E+03  0.47518914343E+03  0.12509156587E+03 0.  0.
          5    1    3    3  502    0 -0.28957694091E+02  0.32489053865E+02 -0.58463386031E+02  0.73003606584E+02  0.41800000000E+01 0.  1.
         -5    1    3    3    0  502  0.63778684382E+02  0.58357818359E+01 -0.39703143039E+03  0.40218553684E+03  0.41800000000E+01 0.  1.
        -11    1    1    2    0    0 -0.61350446858E+02 -0.42003635048E+02 -0.35823821517E+03  0.36587265749E+03  0.00000000000E+00 0. -1.
         11    1    1    2    0    0  0.26529456567E+02  0.36787993466E+01 -0.69516801844E+02  0.74497861506E+02  0.00000000000E+00 0.  1.
</event>
<event>
 7    1  0.4966153E-006  0.1095075E+03  0.7561462E-02  0.1261485E+00
         -1   -1    0    0    0  501 -0.00000000000E+00  0.00000000000E+00  0.15216338788E+03  0.15216338788E+03  0.00000000000E+00 0.  1.
          1   -1    0    0  501    0  0.00000000000E+00 -0.00000000000E+00 -0.12861039269E+03  0.12861039269E+03  0.00000000000E+00 0. -1.
         23    2    1    2    0    0  0.57887718014E+02  0.74996184862E+02  0.33465243352E+02  0.15034341327E+03  0.11183829291E+03 0.  0.
          5    1    3    3  502    0  0.10869648986E+02  0.18798699053E+02 -0.40501043952E+02  0.46144851461E+02  0.41800000000E+01 0. -1.
         -5    1    3    3    0  502  0.47018069028E+02  0.56197485809E+02  0.73966287303E+02  0.10419856181E+03  0.41800000000E+01 0.  1.
        -11    1    1    2    0    0  0.18573492654E+02 -0.36440298862E+01 -0.17225929835E+02  0.25592698995E+02  0.00000000000E+00 0.  1.
         11    1    1    2    0    0 -0.76461210668E+02 -0.71352154976E+02  0.73136816721E+01  0.10483766831E+03  0.00000000000E+00 0. -1.
</event>
<event>
 7    1  0.4966153E-006  0.2322758E+03  0.7561462E-02  0.1125048E+00
          2   -1    0    0  501    0  0.00000000000E+00  0.00000000000E+00  0.81786465561E+03  0.81786465561E+03  0.00000000000E+00 0. -1.
         -2   -1    0    0    0  501 -0.00000000000E+00 -0.00000000000E+00 -0.16340061356E+03  0.16340061356E+03  0.00000000000E+00 0.  1.
         23    2    1    2    0    0  0.10360107563E+02  0.22505438037E+03 -0.25776569752E+02  0.25897649671E+03  0.12509032076E+03 0.  0.
          5    1    3    3  502    0  0.41406956334E+02  0.17489405251E+03 -0.61356466572E+02  0.18995934835E+03  0.41800000000E+01 0. -1.
         -5    1    3    3    0  502 -0.31046848771E+02  0.50160327859E+02  0.35579896820E+02  0.69017148356E+02  0.41800000000E+01 0. -1.
        -11    1    1    2    0    0  0.80269392650E+00 -0.11751767829E+03  0.21892692732E+03  0.24847544856E+03  0.00000000000E+00 0.  1.
         11    1    1    2    0    0 -0.11162801490E+02 -0.10753670208E+03  0.46131368447E+03  0.47381332391E+03  0.00000000000E+00 0. -1.
</event>
<event>
 7    1  0.4966153E-006  0.1001757E+03  0.7561462E-02  0.1279927E+00
         -1   -1    0    0    0  501 -0.00000000000E+00  0.00000000000E+00  0.37866378399E+02  0.37866378399E+02  0.00000000000E+00 0.  1.
          1   -1    0    0  501    0  0.00000000000E+00 -0.00000000000E+00 -0.51186570727E+03  0.51186570727E+03  0.00000000000E+00 0. -1.
         23    2    1    2    0    0  0.72540188835E+02  0.16634748394E+02 -0.19622961501E+03  0.24432191889E+03  0.12509334273E+03 0.  0.
          5    1    3    3  502    0  0.24578783196E+01  0.45572321573E+02 -0.15654098609E+02  0.48429338863E+02  0.41800000000E+01 0. -1.
         -5    1    3    3    0  502  0.70082310515E+02 -0.28937573180E+02 -0.18057551640E+03  0.19589258003E+03  0.41800000000E+01 0. -1.
        -11    1    1    2    0    0 -0.14402304122E+02 -0.14456833090E+02  0.11968259228E+01  0.20441594343E+02  0.00000000000E+00 0.  1.
         11    1    1    2    0    0 -0.58137884713E+02 -0.21779153039E+01 -0.27896653979E+03  0.28496857243E+03  0.00000000000E+00 0. -1.
</event>
<event>
 7    1  0.4966153E-006  0.1146897E+03  0.7561462E-02  0.1252124E+00
          1   -1    0    0  501    0  0.00000000000E+00  0.00000000000E+00  0.79772515689E+03  0.79772515689E+03  0.00000000000E+00 0. -1.
         -1   -1    0    0    0  501 -0.00000000000E+00 -0.00000000000E+00 -0.17560508101E+02  0.17560508101E+02  0.00000000000E+00 0.  1.
         23    2    1    2    0    0 -0.91639962279E+01  0.48260362555E+02  0.42981756316E+03  0.45033983138E+03  0.12509909954E+03 0.  0.
          5    1    3    3  502    0  0.13166611210E+02  0.87745747349E+02  0.28071521906E+03  0.29443366390E+03  0.41800000000E+01 0. -1.
         -5    1    3    3    0  502 -0.22330607437E+02 -0.39485384794E+02  0.14910234410E+03  0.15590616748E+03  0.41800000000E+01 0. -1.
        -11    1    1    2    0    0  0.45443668754E+02 -0.24458127444E+02  0.12125071327E+03  0.13177656277E+03  0.00000000000E+00 0.  1.
         11    1    1    2    0    0 -0.36279672526E+02 -0.23802235110E+02  0.22909637236E+03  0.23316927084E+03  0.00000000000E+00 0. -1.
</event>
<event>
 7    1  0.4966153E-006  0.1212847E+03  0.7561462E-02  0.1240993E+00
          4   -1    0    0  501    0  0.00000000000E+00  0.00000000000E+00  0.28345888607E+03  0.28345888607E+03  0.00000000000E+00 0.  1.
         -4   -1    0    0    0  501 -0.00000000000E+00 -0.00000000000E+00 -0.67977874933E+02  0.67977874933E+02  0.00000000000E+00 0. -1.
         23    2    1    2    0    0  0.74393804819E+02 -0.41192525993E+02  0.13673833021E+03  0.20390210815E+03  0.12508971327E+03 0.  0.
          5    1    3    3  502    0 -0.10888506748E+02 -0.45498224999E+02  0.10071608552E+03  0.11112988050E+03  0.41800000000E+01 0. -1.
         -5    1    3    3    0  502  0.85282311567E+02  0.43056990058E+01  0.36022244689E+02  0.92772227647E+02  0.41800000000E+01 0. -1.
        -11    1    1    2    0    0 -0.19211163144E+02  0.50603595019E+02  0.73542498197E+02  0.91314246749E+02  0.00000000000E+00 0. -1.
         11    1    1    2    0    0 -0.55182641674E+02 -0.94110690262E+01  0.52001827296E+01  0.56220406107E+02  0.00000000000E+00 0.  1.
</event>
<event>
 7    1  0.4966153E-006  0.1044085E+03  0.7561462E-02  0.1271289E+00
         -2   -1    0    0    0  501 -0.00000000000E+00  0.00000000000E+00  0.21673004514E+02  0.21673004514E+02  0.00000000000E+00 0.  1.
          2   -1    0    0  501    0  0.00000000000E+00 -0.00000000000E+00 -0.71698270446E+03  0.71698270446E+03  0.00000000000E+00 0. -1.
         23    2    1    2    0    0 -0.44491179965E+02 -0.28681468963E+02 -0.27765351279E+03  0.30909700326E+03  0.12508953793E+03 0.  0.
          5    1    3    3  502    0 -0.66914716354E+02 -0.44745589795E+02 -0.26754460807E+03  0.27942322162E+03  0.41800000000E+01 0. -1.
         -5    1    3    3    0  502  0.22423536390E+02  0.16064120831E+02 -0.10108904724E+02  0.29673781644E+02  0.41800000000E+01 0. -1.
        -11    1    1    2    0    0 -0.25202581962E+02  0.70172491512E+00 -0.96621021621E+02  0.99856318651E+02  0.00000000000E+00 0.  1.
         11    1    1    2    0    0  0.69693761927E+02  0.27979744048E+02 -0.32103516553E+03  0.32970238706E+03  0.00000000000E+00 0. -1.
</event>
<event>
 7    1  0.4966153E-006  0.2073491E+03  0.7561462E-02  0.1143683E+00
          1   -1    0    0  501    0  0.00000000000E+00  0.00000000000E+00  0.42016173942E+03  0.42016173942E+03  0.00000000000E+00 0. -1.
         -1   -1    0    0    0  501 -0.00000000000E+00 -0.00000000000E+00 -0.11229863537E+03  0.11229863537E+03  0.00000000000E+00 0.  1.
         23    2    1    2    0    0 -0.16986630709E+03 -0.82472515209E+02  0.18101329356E+03  0.28994245336E+03  0.12507811864E+03 0.  0.
          5    1    3    3  502    0  0.11568882329E+02  0.14957466031E+02  0.24576562030E+02  0.31289688871E+02  0.41800000000E+01 0. -1.
         -5    1    3    3    0  502 -0.18143518942E+03 -0.97429981240E+02  0.15643673153E+03  0.25865276449E+03  0.41800000000E+01 0. -1.
        -11    1    1    2    0    0  0.30245031454E+02  0.20845306409E+02  0.71116268198E+02  0.80042565735E+02  0.00000000000E+00 0. -1.
         11    1    1    2    0    0  0.13962127564E+03  0.61627208800E+02  0.55733542295E+02  0.16247535571E+03  0.00000000000E+00 0.  1.
</event>
<event>
 7    1  0.4966153E-006  0.1386788E+03  0.7561462E-02  0.1215118E+00
         -2   -1    0    0    0  501 -0.00000000000E+00  0.00000000000E+00  0.20484829381E+02  0.20484829381E+02  0.00000000000E+00 0.  1.
          2   -1    0    0  501    0  0.00000000000E+00 -0.00000000000E+00 -0.12244872109E+04  0.12244872109E+04  0.00000000000E+00 0. -1.
         23    2    1    2    0    0  0.38184861516E+02 -0.11525101014E+03 -0.66311741305E+03  0.68316846391E+03  0.11069583372E+03 0.  0.
          5    1    3    3  502    0  0.38589518241E+02 -0.70045211609E+02 -0.60054410811E+03  0.60585986892E+03  0.41800000000E+01 0. -1.
         -5    1    3    3    0  502 -0.40465672506E+00 -0.45205798529E+02 -0.62573304948E+02  0.77308594994E+02  0.41800000000E+01 0.  1.
        -11    1    1    2    0    0 -0.64084922854E+02  0.48781254904E+02 -0.28785837888E+03  0.29891292119E+03  0.00000000000E+00 0. -1.
         11    1    1    2    0    0  0.25900061338E+02  0.66469755234E+02 -0.25302658956E+03  0.26289065515E+03  0.00000000000E+00 0.  1.
</event>
<event>
 7    1  0.4966153E-006  0.1084230E+03  0.7561462E-02  0.1263518E+00
          2   -1    0    0  501    0  0.00000000000E+00  0.00000000000E+00  0.24680822560E+02  0.24680822560E+02  0.00000000000E+00 0. -1.
         -2   -1    0    0    0  501 -0.00000000000E+00 -0.00000000000E+00 -0.52743542811E+03  0.52743542811E+03  0.00000000000E+00 0.  1.
         23    2    1    2    0    0  0.15210121221E+02 -0.36362125315E+02 -0.29450667323E+03  0.32239108612E+03  0.12509308489E+03 0.  0.
          5    1    3    3  502    0  0.60212836986E+02  0.10643828091E+02 -0.10045278357E+03  0.11767374788E+03  0.41800000000E+01 0.  1.
         -5    1    3    3    0  502 -0.45002715765E+02 -0.47005953406E+02 -0.19405388966E+03  0.20471733824E+03  0.41800000000E+01 0.  1.
        -11    1    1    2    0    0 -0.41452338354E+02  0.46428544372E+02 -0.17735656217E+03  0.18796078376E+03  0.00000000000E+00 0.  1.
         11    1    1    2    0    0  0.26242217133E+02 -0.10066419057E+02 -0.30891370142E+02  0.41764380780E+02  0.00000000000E+00 0. -1.
</event>
<event>
 7    1  0.4966153E-006  0.1278068E+03  0.7561462E-02  0.1230747E+00
         -1   -1    0    0    0  501 -0.00000000000E+00  0.00000000000E+00  0.29084677363E+02  0.29084677363E+02  0.00000000000E+00 0.  1.
          1   -1    0    0  501    0  0.00000000000E+00 -0.00000000000E+00 -0.67589308306E+03  0.67589308306E+03  0.00000000000E+00 0. -1.
         23    2    1    2    0    0 -0.32745636459E+02  0.75043749370E+02 -0.27168615891E+03  0.31009950771E+03  0.12507795454E+03 0.  0.
          5    1    3    3  502    0 -0.73435543965E+02  0.69344681573E+02 -0.23088254669E+03  0.25204302558E+03  0.41800000000E+01 0. -1.
         -5    1    3    3    0  502  0.40689907506E+02  0.56990677966E+01 -0.40803612220E+02  0.58056482125E+02  0.41800000000E+01 0. -1.
        -11    1    1    2    0    0  0.29792388189E+02  0.74253272303E+01 -0.44172574952E+02  0.53795336753E+02  0.00000000000E+00 0.  1.
         11    1    1    2    0    0  0.29532482699E+01 -0.82469076600E+02 -0.33094967184E+03  0.34108291596E+03  0.00000000000E+00 0. -1.
</event>
<event>
 7    1  0.4966153E-006  0.1351928E+03  0.7561462E-02  0.1219948E+00
          2   -1    0    0  501    0  0.00000000000E+00  0.00000000000E+00  0.56495143884E+03  0.56495143884E+03  0.00000000000E+00 0. -1.
         -2   -1    0    0    0  501 -0.00000000000E+00 -0.00000000000E+00 -0.33651108873E+02  0.33651108873E+02  0.00000000000E+00 0.  1.
         23    2    1    2    0    0  0.54590854628E+02 -0.60366356243E+02  0.23652808264E+03  0.27967176468E+03  0.12508598525E+03 0.  0.
          5    1    3    3  502    0  0.95022596496E+02 -0.36665971753E+02  0.15424380155E+03  0.18488458575E+03  0.41800000000E+01 0.  1.
         -5    1    3    3    0  502 -0.40431741868E+02 -0.23700384490E+02  0.82284281087E+02  0.94787178929E+02  0.41800000000E+01 0.  1.
        -11    1    1    2    0    0 -0.54838813285E+02  0.82608068225E+02  0.23061898115E+03  0.25103088026E+03  0.00000000000E+00 0.  1.
         11    1    1    2    0    0  0.24795865699E+00 -0.22241711982E+02  0.64153266180E+02  0.67899902776E+02  0.00000000000E+00 0. -1.
</event>
<event>
 7    1  0.4966153E-006  0.8031244E+02  0.7561462E-02  0.1328167E+00
          1   -1    0    0  501    0  0.00000000000E+00  0.00000000000E+00  0.94610513111E+02  0.94610513111E+02  0.00000000000E+00 0. -1.
         -1   -1    0    0    0  501 -0.00000000000E+00 -0.00000000000E+00 -0.14772458022E+03  0.14772458022E+03  0.00000000000E+00 0.  1.
         23    2    1    2    0    0  0.26340178089E+02  0.33151704926E+02 -0.53333208307E+02  0.14242564309E+03  0.12509113550E+03 0.  0.
          5    1    3    3  502    0 -0.12167447173E+02  0.15023619689E+02 -0.86230796807E+02  0.88470213277E+02  0.41800000000E+01 0. -1.
         -5    1    3    3    0  502  0.38507625262E+02  0.18128085237E+02  0.32897588500E+02  0.53955429818E+02  0.41800000000E+01 0. -1.
        -11    1    1    2    0    0  0.18366808108E+01 -0.59484654631E+02  0.94377191995E+01  0.60256684913E+02  0.00000000000E+00 0. -1.
         11    1    1    2    0    0 -0.28176858899E+02  0.26332949705E+02 -0.92185780031E+01  0.39652765326E+02  0.00000000000E+00 0.  1.
</event>
<event>
 7    1  0.4966153E-006  0.2495323E+03  0.7561462E-02  0.1113601E+00
          1   -1    0    0  501    0  0.00000000000E+00  0.00000000000E+00  0.37925390234E+02  0.37925390234E+02  0.00000000000E+00 0. -1.
         -1   -1    0    0    0  501 -0.00000000000E+00 -0.00000000000E+00 -0.19483566185E+04  0.19483566185E+04  0.00000000000E+00 0.  1.
         23    2    1    2    0    0  0.16736240127E+03 -0.16685647980E+03 -0.12682596312E+04  0.12961408476E+04  0.12508935467E+03 0.  0.
          5    1    3    3  502    0  0.16220354226E+03 -0.18313592283E+03 -0.12290773680E+04  0.12531948788E+04  0.41800000000E+01 0. -1.
         -5    1    3    3    0  502  0.51588590073E+01  0.16279443024E+02 -0.39182263194E+02  0.42945968850E+02  0.41800000000E+01 0. -1.
        -11    1    1    2    0    0 -0.73132165923E+02  0.83516725653E+02 -0.42409032266E+03  0.43837878476E+03  0.00000000000E+00 0.  1.
         11    1    1    2    0    0 -0.94230235349E+02  0.83339754151E+02 -0.21808127442E+03  0.25176237632E+03  0.00000000000E+00 0. -1.
</event>
<event>
 7    1  0.4966153E-006  0.1042888E+03  0.7561462E-02  0.1271527E+00
          2   -1    0    0  501    0  0.00000000000E+00  0.00000000000E+00  0.58548677350E+02  0.58548677350E+02  0.00000000000E+00 0. -1.
         -2   -1    0    0    0  501 -0.00000000000E+00 -0.00000000000E+00 -0.25258785444E+03  0.25258785444E+03  0.00000000000E+00 0.  1.
         23    2    1    2    0    0  0.12481718264E+02 -0.16270852557E+02 -0.17333515136E+03  0.21475204244E+03  0.12511127489E+03 0.  0.
          5    1    3    3  502    0  0.59752439971E+02 -0.41429669515E+02 -0.93201537970E+02  0.11828258823E+03  0.41800000000E+01 0.  1.
         -5    1    3    3    0  502 -0.47270721707E+02  0.25158816958E+02 -0.80133613388E+02  0.96469454213E+02  0.41800000000E+01 0.  1.
        -11    1    1    2    0    0  0.13738709128E+02  0.42670217182E+02 -0.34640471495E+02  0.56652112302E+02  0.00000000000E+00 0.  1.
         11    1    1    2    0    0 -0.26220427391E+02 -0.26399364626E+02  0.13936445763E+02  0.39732377046E+02  0.00000000000E+00 0. -1.
</event>
<event>
 7    1  0.4966153E-006  0.1081990E+03  0.7561462E-02  0.1263942E+00
         -1   -1    0    0    0  501 -0.00000000000E+00  0.00000000000E+00  0.16333769181E+03  0.16333769181E+03  0.00000000000E+00 0.  1.
          1   -1    0    0  501    0  0.00000000000E+00 -0.00000000000E+00 -0.10891535703E+03  0.10891535703E+03  0.00000000000E+00 0. -1.
         23    2    1    2    0    0 -0.45700845670E+02  0.49855989024E+02  0.69294431115E+02  0.15818186523E+03  0.12508236234E+03 0.  0.
          5    1    3    3  502    0  0.27127849863E+02 -0.24919894725E+02  0.24997486854E+02  0.44713176362E+02  0.41800000000E+01 0.  1.
         -5    1    3    3    0  502 -0.72828695533E+02  0.74775883749E+02  0.44296944261E+02  0.11346868887E+03  0.41800000000E+01 0.  1.
        -11    1    1    2    0    0  0.12399795992E+02 -0.37238896614E+02  0.35136526251E+02  0.52678893673E+02  0.00000000000E+00 0.  1.
         11    1    1    2    0    0  0.33301049678E+02 -0.12617092410E+02 -0.50008622587E+02  0.61392289936E+02  0.00000000000E+00 0. -1.
</event>
<event>
 7    1  0.4966153E-006  0.8190486E+02  0.7561462E-02  0.1323731E+00
         -2   -1    0    0    0  501 -0.00000000000E+00  0.00000000000E+00  0.18698908125E+02  0.18698908125E+02  0.00000000000E+00 0.  1.
          2   -1    0    0  501    0  0.00000000000E+00 -0.00000000000E+00 -0.87528556374E+03  0.87528556374E+03  0.00000000000E+00 0. -1.
         23    2    1    2    0    0  0.55754303371E+02  0.29325805499E+02 -0.47474510884E+03  0.49497345020E+03  0.12508897961E+03 0.  0.
          5    1    3    3  502    0  0.12910755402E+02  0.88860469389E+00  0.34281402353E+01  0.14025040778E+02  0.41800000000E+01 0.  1.
         -5    1    3    3    0  502  0.42843547969E+02  0.28437200805E+02 -0.47817324908E+03  0.48094840942E+03  0.41800000000E+01 0.  1.
        -11    1    1    2    0    0 -0.47504291704E+02 -0.54399831226E+02 -0.35128313521E+03  0.35863050686E+03  0.00000000000E+00 0.  1.
         11    1    1    2    0    0 -0.82500116678E+01  0.25074025727E+02 -0.30558411564E+02  0.40380514806E+02  0.00000000000E+00 0. -1.
</event>
<event>
 7    1  0.4966153E-006  0.1162594E+03  0.7561462E-02  0.1249399E+00
          2   -1    0    0  501    0  0.00000000000E+00  0.00000000000E+00  0.36397045120E+03  0.36397045120E+03  0.00000000000E+00 0. -1.
         -2   -1    0    0    0  501 -0.00000000000E+00 -0.00000000000E+00 -0.42373495741E+02  0.42373495741E+02  0.00000000000E+00 0.  1.
         23    2    1    2    0    0 -0.17344767273E+02  0.56662611723E+02  0.17114134390E+03  0.22010843675E+03  0.12508745667E+03 0.  0.
          5    1    3    3  502    0  0.62435189583E+00 -0.33645861006E+02  0.11571807786E+02  0.35830335103E+02  0.41800000000E+01 0. -1.
         -5    1    3    3    0  502 -0.17969119169E+02  0.90308472729E+02  0.15956953611E+03  0.18427810164E+03  0.41800000000E+01 0. -1.
        -11    1    1    2    0    0  0.43339297704E+02  0.82087243652E+00  0.39738563051E+02  0.58805798612E+02  0.00000000000E+00 0.  1.
         11    1    1    2    0    0 -0.25994530431E+02 -0.57483484160E+02  0.11071704851E+03  0.12742971159E+03  0.00000000000E+00 0. -1.
</event>
<event>
 7    1  0.4966153E-006  0.1080912E+03  0.7561462E-02  0.1264146E+00
          2   -1    0    0  501    0  0.00000000000E+00  0.00000000000E+00  0.31119384518E+03  0.31119384518E+03  0.00000000000E+00 0. -1.
         -2   -1    0    0    0  501 -0.00000000000E+00 -0.00000000000E+00 -0.65953884754E+02  0.65953884754E+02  0.00000000000E+00 0.  1.
         23    2    1    2    0    0  0.65762233328E+02 -0.56277239702E+02  0.14887383320E+03  0.21284771626E+03  0.12509569563E+03 0.  0.
          5    1    3    3  502    0  0.65485513630E+02 -0.39962442112E+02  0.16957000584E+03  0.18616339209E+03  0.41800000000E+01 0.  1.
         -5    1    3    3    0  502  0.27671969779E+00 -0.16314797590E+02 -0.20696172642E+02  0.26684324166E+02  0.41800000000E+01 0.  1.
        -11    1    1    2    0    0 -0.86084908642E+02  0.54980918280E+02  0.50140095012E+02  0.11378726642E+03  0.00000000000E+00 0.  1.
         11    1    1    2    0    0  0.20322675314E+02  0.12963214220E+01  0.46226032214E+02  0.50512747256E+02  0.00000000000E+00 0. -1.
</event>
<event>
 7    1  0.4966153E-006  0.7391458E+02  0.7561462E-02  0.1347266E+00
          2   -1    0    0  501    0  0.00000000000E+00  0.00000000000E+00  0.86073106781E+03  0.86073106781E+03  0.00000000000E+00 0. -1.
         -2   -1    0    0    0  501 -0.00000000000E+00 -0.00000000000E+00 -0.14326735038E+02  0.14326735038E+02  0.00000000000E+00 0.  1.
         23    2    1    2    0    0  0.14529858618E+02  0.18581074124E+02  0.51582606121E+03  0.53130052901E+03  0.12508938244E+03 0.  0.
          5    1    3    3  502    0  0.17890005376E+02 -0.14067279205E+02  0.48661486214E+03  0.48716469196E+03  0.41800000000E+01 0.  1.
         -5    1    3    3    0  502 -0.33601467574E+01  0.32648353328E+02  0.29211199065E+02  0.44135837050E+02  0.41800000000E+01 0.  1.
        -11    1    1    2    0    0 -0.51503464008E+02 -0.33372219060E+01  0.22536912892E+03  0.23120334800E+03  0.00000000000E+00 0. -1.
         11    1    1    2    0    0  0.36973605390E+02 -0.15243852218E+02  0.10520914265E+03  0.11255392584E+03  0.00000000000E+00 0.  1.
</event>
<event>
 7    1  0.4966153E-006  0.1012251E+03  0.7561462E-02  0.1277741E+00
         -1   -1    0    0    0  501 -0.00000000000E+00  0.00000000000E+00  0.14633174764E+03  0.14633174764E+03  0.00000000000E+00 0.  1.
          1   -1    0    0  501    0  0.00000000000E+00 -0.00000000000E+00 -0.11884585978E+03  0.11884585978E+03  0.00000000000E+00 0. -1.
         23    2    1    2    0    0 -0.43248517554E+01 -0.19191562841E+02  0.87630599537E+02  0.15399344098E+03  0.12509131650E+03 0.  0.
          5    1    3    3  502    0 -0.86518113222E+01 -0.64392667156E+02  0.86649693111E+02  0.10838316815E+03  0.41800000000E+01 0.  1.
         -5    1    3    3    0  502  0.43269595668E+01  0.45201104315E+02  0.98090642587E+00  0.45610272832E+02  0.41800000000E+01 0.  1.
        -11    1    1    2    0    0  0.14676143814E+02  0.53724949830E+02 -0.46786695599E+02  0.72737571561E+02  0.00000000000E+00 0.  1.
         11    1    1    2    0    0 -0.10351292059E+02 -0.34533386989E+02 -0.13358016079E+02  0.38446594879E+02  0.00000000000E+00 0. -1.
</event>
<event>
 7    1  0.4966153E-006  0.1149737E+03  0.7561462E-02  0.1251627E+00
         -2   -1    0    0    0  501 -0.00000000000E+00  0.00000000000E+00  0.10471268016E+03  0.10471268016E+03  0.00000000000E+00 0.  1.
          2   -1    0    0  501    0  0.00000000000E+00 -0.00000000000E+00 -0.17235698857E+03  0.17235698857E+03  0.00000000000E+00 0. -1.
         23    2    1    2    0    0 -0.34562236066E+02 -0.66969662628E+02 -0.14345800592E+02  0.14674119258E+03  0.12509073399E+03 0.  0.
          5    1    3    3  502    0  0.25838063814E+02 -0.61498996551E+02  0.28197710507E+02  0.72541818258E+02  0.41800000000E+01 0.  1.
         -5    1    3    3    0  502 -0.60400299880E+02 -0.54706660777E+01 -0.42543511099E+02  0.74199374320E+02  0.41800000000E+01 0.  1.
        -11    1    1    2    0    0  0.51092760657E+02  0.24335801050E+02 -0.61823305380E+02  0.83814214143E+02  0.00000000000E+00 0. -1.
         11    1    1    2    0    0 -0.16530524591E+02  0.42633861578E+02  0.85247975629E+01  0.46514262004E+02  0.00000000000E+00 0.  1.
</event>
<event>
 7    1  0.4966153E-006  0.1574376E+03  0.7561462E-02  0.1191620E+00
          3   -1    0    0  501    0  0.00000000000E+00  0.00000000000E+00  0.11017372130E+03  0.11017372130E+03  0.00000000000E+00 0. -1.
         -3   -1    0    0    0  501 -0.00000000000E+00 -0.00000000000E+00 -0.24557301021E+03  0.24557301021E+03  0.00000000000E+00 0.  1.
         23    2    1    2    0    0  0.45518371167E+02  0.11031027760E+03 -0.95593809244E+02  0.19755099038E+03  0.12509171827E+03 0.  0.
          5    1    3    3  502    0  0.72069489448E+02  0.17867667800E+02 -0.26090723558E+02  0.78812835996E+02  0.41800000000E+01 0. -1.
         -5    1    3    3    0  502 -0.26551118281E+02  0.92442609795E+02 -0.69503085686E+02  0.11873815439E+03  0.41800000000E+01 0. -1.
        -11    1    1    2    0    0 -0.51568890700E+02 -0.22578117105E+02 -0.41986552429E+02  0.70228145675E+02  0.00000000000E+00 0.  1.
         11    1    1    2    0    0  0.60505195335E+01 -0.87732160490E+02  0.21810727589E+01  0.87967595450E+02  0.00000000000E+00 0. -1.
</event>
<event>
 7    1  0.4966153E-006  0.1281759E+03  0.7561462E-02  0.1230188E+00
         -1   -1    0    0    0  501 -0.00000000000E+00  0.00000000000E+00  0.13704457944E+03  0.13704457944E+03  0.00000000000E+00 0.  1.
          1   -1    0    0  501    0  0.00000000000E+00 -0.00000000000E+00 -0.14426518816E+03  0.14426518816E+03  0.00000000000E+00 0. -1.
         23    2    1    2    0    0  0.87167307243E+02  0.72108458372E+01  0.12619566493E+02  0.15315587129E+03  0.12508929491E+03 0.  0.
          5    1    3    3  502    0  0.70499352155E+02 -0.54094178188E+02  0.81085804124E+01  0.89328384315E+02  0.41800000000E+01 0. -1.
         -5    1    3    3    0  502  0.16667955089E+02  0.61305024025E+02  0.45109860810E+01  0.63827486970E+02  0.41800000000E+01 0. -1.
        -11    1    1    2    0    0  0.89147726033E-01 -0.16023770193E+02  0.24969602142E+02  0.29669010595E+02  0.00000000000E+00 0.  1.
         11    1    1    2    0    0 -0.87256454970E+02  0.88129243558E+01 -0.44809777356E+02  0.98484885725E+02  0.00000000000E+00 0. -1.
</event>
<event>
 7    1  0.4966153E-006  0.1500386E+03  0.7561462E-02  0.1200426E+00
          2   -1    0    0  501    0  0.00000000000E+00  0.00000000000E+00  0.11311353498E+03  0.11311353498E+03  0.00000000000E+00 0. -1.
         -2   -1    0    0    0  501 -0.00000000000E+00 -0.00000000000E+00 -0.20628634972E+03  0.20628634972E+03  0.00000000000E+00 0.  1.
         23    2    1    2    0    0 -0.10780514620E+03  0.18022456591E+01 -0.62726480536E+02  0.17665546138E+03  0.12508934023E+03 0.  0.
          5    1    3    3  502    0 -0.88231656424E+02 -0.55139441974E+02 -0.47244309975E+02  0.11434456910E+03  0.41800000000E+01 0.  1.
         -5    1    3    3    0  502 -0.19573489780E+02  0.56941687633E+02 -0.15482170561E+02  0.62310892290E+02  0.41800000000E+01 0.  1.
        -11    1    1    2    0    0  0.56242437081E+02 -0.42014772823E+02  0.94759269719E+00  0.70209335534E+02  0.00000000000E+00 0. -1.
         11    1    1    2    0    0  0.51562709123E+02  0.40212527164E+02 -0.31393926904E+02  0.72535087782E+02  0.00000000000E+00 0.  1.
</event>
<event>
 7    1  0.5794067E-006  0.1830565E+03  0.7561462E-02  0.1164877E+00
          1   -1    0    0  501    0  0.00000000000E+00  0.00000000000E+00  0.23530442999E+03  0.23530442999E+03  0.00000000000E+00 0. -1.
         -1   -1    0    0    0  501 -0.00000000000E+00 -0.00000000000E+00 -0.17904355186E+03  0.17904355186E+03  0.00000000000E+00 0.  1.
         23    2    1    2    0    0 -0.15366305070E+02  0.17088779584E+03  0.35718742138E+01  0.21236480466E+03  0.12508912773E+03 0.  0.
          5    1    3    3  502    0  0.98855374103E+01  0.40291049045E+01 -0.37010047773E+02  0.38744981254E+02  0.41800000000E+01 0.  1.
         -5    1    3    3    0  502 -0.25251842480E+02  0.16685869093E+03  0.40581921986E+02  0.17361982341E+03  0.41800000000E+01 0.  1.
        -11    1    1    2    0    0 -0.27785962732E+02 -0.89560477690E+02 -0.40111999832E+01  0.93857490986E+02  0.00000000000E+00 0.  1.
         11    1    1    2    0    0  0.43152267802E+02 -0.81327318148E+02  0.56700203900E+02  0.10812568620E+03  0.00000000000E+00 0. -1.
</event>
<event>
 7    1  0.4966153E-006  0.1146426E+03  0.7561462E-02  0.1252206E+00
          2   -1    0    0  501    0  0.00000000000E+00  0.00000000000E+00  0.34222086672E+03  0.34222086672E+03  0.00000000000E+00 0. -1.
         -2   -1    0    0    0  501 -0.00000000000E+00 -0.00000000000E+00 -0.58882679313E+02  0.58882679313E+02  0.00000000000E+00 0.  1.
         23    2    1    2    0    0  0.75681356669E+02  0.46497688953E+02  0.12329944389E+03  0.19682158112E+03  0.12508508746E+03 0.  0.
          5    1    3    3  502    0  0.84710518647E+02  0.23262475821E+02  0.19623034330E+02  0.90108549134E+02  0.41800000000E+01 0. -1.
         -5    1    3    3    0  502 -0.90291619778E+01  0.23235213131E+02  0.10367640956E+03  0.10671303198E+03  0.41800000000E+01 0. -1.
        -11    1    1    2    0    0 -0.32293988989E+02 -0.62067991150E+02  0.13443418554E+03  0.15155160010E+03  0.00000000000E+00 0. -1.
         11    1    1    2    0    0 -0.43387367680E+02  0.15570302198E+02  0.25604557973E+02  0.52730364817E+02  0.00000000000E+00 0.  1.
</event>
<event>
 7    1  0.4966153E-006  0.1115737E+03  0.7561462E-02  0.1257683E+00
         -2   -1    0    0    0  501 -0.00000000000E+00  0.00000000000E+00  0.89697559743E+02  0.89697559743E+02  0.00000000000E+00 0.  1.
          2   -1    0    0  501    0  0.00000000000E+00 -0.00000000000E+00 -0.24587769639E+03  0.24587769639E+03  0.00000000000E+00 0. -1.
         23    2    1    2    0    0  0.40901916414E+02 -0.83007414897E+02 -0.35607644155E+02  0.15962259601E+03  0.12509304993E+03 0.  0.
          5    1    3    3  502    0  0.37497109846E+02 -0.35553268671E+02  0.43193968516E+02  0.67477844335E+02  0.41800000000E+01 0. -1.
         -5    1    3    3    0  502  0.34048065688E+01 -0.47454146227E+02 -0.78801612670E+02  0.92144751675E+02  0.41800000000E+01 0. -1.
        -11    1    1    2    0    0  0.25096312172E+02  0.28275937833E+02 -0.16880831207E+02  0.41404299381E+02  0.00000000000E+00 0. -1.
         11    1    1    2    0    0 -0.65998228587E+02  0.54731477065E+02 -0.10369166129E+03  0.13454836074E+03  0.00000000000E+00 0.  1.
</event>
<event>
 7    1  0.4966153E-006  0.1110345E+03  0.7561462E-02  0.1258666E+00
         -2   -1    0    0    0  501 -0.00000000000E+00  0.00000000000E+00  0.24326787115E+02  0.24326787115E+02  0.00000000000E+00 0.  1.
          2   -1    0    0  501    0  0.00000000000E+00 -0.00000000000E+00 -0.88479703358E+03  0.88479703358E+03  0.00000000000E+00 0. -1.
         23    2    1    2    0    0 -0.53233841211E+02 -0.79546923952E+02 -0.39430306197E+03  0.42459839718E+03  0.12508932508E+03 0.  0.
          5    1    3    3  502    0 -0.49621756818E+02 -0.69463601093E+02 -0.40185431090E+03  0.41084287778E+03  0.41800000000E+01 0. -1.
         -5    1    3    3    0  502 -0.36120843929E+01 -0.10083322859E+02  0.75512489366E+01  0.13755519403E+02  0.41800000000E+01 0. -1.
        -11    1    1    2    0    0  0.68638878790E+02  0.33169492258E+02 -0.20263573666E+03  0.21650116089E+03  0.00000000000E+00 0.  1.
         11    1    1    2    0    0 -0.15405037579E+02  0.46377431694E+02 -0.26353144784E+03  0.26802426263E+03  0.00000000000E+00 0. -1.
</event>
<event>
 7    1  0.4966153E-006  0.2770931E+03  0.7561462E-02  0.1097287E+00
         -2   -1    0    0    0  501 -0.00000000000E+00  0.00000000000E+00  0.42589381300E+02  0.42589381300E+02  0.00000000000E+00 0.  1.
          2   -1    0    0  501    0  0.00000000000E+00 -0.00000000000E+00 -0.18414992836E+04  0.18414992836E+04  0.00000000000E+00 0. -1.
         23    2    1    2    0    0  0.38658557456E+02  0.22041369065E+03 -0.89720064165E+03  0.93310953529E+03  0.12509090448E+03 0.  0.
          5    1    3    3  502    0  0.64611370217E+01 -0.15586111830E+02 -0.45051900712E+02  0.48288915202E+02  0.41800000000E+01 0. -1.
         -5    1    3    3    0  502  0.32197420434E+02  0.23599980248E+03 -0.85214874094E+03  0.88482062009E+03  0.41800000000E+01 0. -1.
        -11    1    1    2    0    0 -0.11981972073E+03 -0.14094173235E+03 -0.62674282035E+03  0.65347371810E+03  0.00000000000E+00 0.  1.
         11    1    1    2    0    0  0.81161163277E+02 -0.79471958298E+02 -0.27496644026E+03  0.29750541146E+03  0.00000000000E+00 0. -1.
</event>
<event>
 7    1  0.4966153E-006  0.1271234E+03  0.7561462E-02  0.1231788E+00
          1   -1    0    0  501    0  0.00000000000E+00  0.00000000000E+00  0.71506934453E+03  0.71506934453E+03  0.00000000000E+00 0. -1.
         -1   -1    0    0    0  501 -0.00000000000E+00 -0.00000000000E+00 -0.30023923123E+02  0.30023923123E+02  0.00000000000E+00 0.  1.
         23    2    1    2    0    0 -0.39599027514E+02  0.62074842429E+02  0.20759961849E+03  0.25331095815E+03  0.12508985122E+03 0.  0.
          5    1    3    3  502    0  0.22776670226E+02  0.74575436441E+02  0.14057904268E+03  0.16081110679E+03  0.41800000000E+01 0.  1.
         -5    1    3    3    0  502 -0.62375697741E+02 -0.12500594012E+02  0.67020575809E+02  0.92499851357E+02  0.41800000000E+01 0.  1.
        -11    1    1    2    0    0  0.54991653877E+02 -0.72579448961E+01  0.16183844690E+03  0.17108022286E+03  0.00000000000E+00 0.  1.
         11    1    1    2    0    0 -0.15392626363E+02 -0.54816897533E+02  0.31560735602E+03  0.32070208664E+03  0.00000000000E+00 0. -1.
</event>
<event>
 7    1  0.4966153E-006  0.1824635E+03  0.7561462E-02  0.1165440E+00
          2   -1    0    0  501    0  0.00000000000E+00  0.00000000000E+00  0.28339928858E+03  0.28339928858E+03  0.00000000000E+00 0.  1.
         -2   -1    0    0    0  501 -0.00000000000E+00 -0.00000000000E+00 -0.14342894409E+03  0.14342894409E+03  0.00000000000E+00 0. -1.
         23    2    1    2    0    0 -0.76887471665E+02 -0.14809571498E+03  0.31675771577E+02  0.21093745828E+03  0.12508889922E+03 0.  0.
          5    1    3    3  502    0 -0.83768719063E+02 -0.80495555866E+02  0.67067246222E+02  0.13420961487E+03  0.41800000000E+01 0. -1.
         -5    1    3    3    0  502  0.68812473980E+01 -0.67600159109E+02 -0.35391474644E+02  0.76727843413E+02  0.41800000000E+01 0. -1.
        -11    1    1    2    0    0 -0.13164003795E+02  0.22241533503E+02 -0.18976262777E+01  0.25914818039E+02  0.00000000000E+00 0. -1.
         11    1    1    2    0    0  0.90051475460E+02  0.12585418147E+03  0.11019219920E+03  0.18997595635E+03  0.00000000000E+00 0.  1.
</event>
<event>
 7    1  0.4966153E-006  0.1130310E+03  0.7561462E-02  0.1255058E+00
         -2   -1    0    0    0  501 -0.00000000000E+00  0.00000000000E+00  0.12430807270E+03  0.12430807270E+03  0.00000000000E+00 0.  1.
          2   -1    0    0  501    0  0.00000000000E+00 -0.00000000000E+00 -0.14709430354E+03  0.14709430354E+03  0.00000000000E+00 0. -1.
         23    2    1    2    0    0 -0.57604404820E+02  0.56411218680E+02 -0.69797407692E+01  0.14899042008E+03  0.12509570516E+03 0.  0.
          5    1    3    3  502    0  0.18192237936E+02  0.66295897172E+02 -0.19126529151E+02  0.71480067293E+02  0.41800000000E+01 0. -1.
         -5    1    3    3    0  502 -0.75796642755E+02 -0.98846784918E+01  0.12146788382E+02  0.77510352791E+02  0.41800000000E+01 0. -1.
        -11    1    1    2    0    0  0.29302325400E+02 -0.29582856003E+02 -0.53756887377E+02  0.67996871866E+02  0.00000000000E+00 0. -1.
         11    1    1    2    0    0  0.28302079419E+02 -0.26828362676E+02  0.37950397302E+02  0.54415084295E+02  0.00000000000E+00 0.  1.
</event>
<event>
 7    1  0.4966153E-006  0.4181267E+02  0.7561462E-02  0.1495281E+00
          2   -1    0    0  501    0  0.00000000000E+00  0.00000000000E+00  0.28542525714E+03  0.28542525714E+03  0.00000000000E+00 0. -1.
         -2   -1    0    0    0  501 -0.00000000000E+00 -0.00000000000E+00 -0.36607474956E+02  0.36607474956E+02  0.00000000000E+00 0.  1.
         23    2    1    2    0    0  0.27326567581E+01  0.18101404202E+02  0.14941259497E+03  0.19572053020E+03  0.12508906491E+03 0.  0.
          5    1    3    3  502    0  0.51419640882E+01  0.13236203421E+02 -0.20712153283E+02  0.25457858694E+02  0.41800000000E+01 0. -1.
         -5    1    3    3    0  502 -0.24093073300E+01  0.48652007814E+01  0.17012474825E+03  0.17026267150E+03  0.41800000000E+01 0. -1.
        -11    1    1    2    0    0 -0.31000081233E+02 -0.92792049919E+01  0.12824701812E+02  0.34807781577E+02  0.00000000000E+00 0.  1.
         11    1    1    2    0    0  0.28267424475E+02 -0.88221992106E+01  0.86580485403E+02  0.91504420319E+02  0.00000000000E+00 0. -1.
</event>
<event>
 7    1  0.4966153E-006  0.1875487E+03  0.7561462E-02  0.1160691E+00
          1   -1    0    0  501    0  0.00000000000E+00  0.00000000000E+00  0.58104276466E+03  0.58104276466E+03  0.00000000000E+00 0. -1.
         -1   -1    0    0    0  501 -0.00000000000E+00 -0.00000000000E+00 -0.76753178227E+02  0.76753178227E+02  0.00000000000E+00 0.  1.
         23    2    1    2    0    0 -0.16269269781E+03 -0.99612363346E+01  0.14152659992E+03  0.24951109895E+03  0.12513141039E+03 0.  0.
          5    1    3    3  502    0 -0.12874811722E+03 -0.59652829111E+02  0.78284857705E+02  0.16211270479E+03  0.41800000000E+01 0.  1.
         -5    1    3    3    0  502 -0.33944580592E+02  0.49691592777E+02  0.63241742212E+02  0.87398394163E+02  0.41800000000E+01 0.  1.
        -11    1    1    2    0    0  0.19526576510E+02 -0.18442769899E+02  0.13587582803E+03  0.13850510313E+03  0.00000000000E+00 0. -1.
         11    1    1    2    0    0  0.14316612130E+03  0.28404006233E+02  0.22688715848E+03  0.26977974079E+03  0.00000000000E+00 0.  1.
</event>
<event>
 7    1  0.4966153E-006  0.9468055E+02  0.7561462E-02  0.1291897E+00
         -2   -1    0    0    0  501 -0.00000000000E+00  0.00000000000E+00  0.10433776064E+03  0.10433776064E+03  0.00000000000E+00 0.  1.
          2   -1    0    0  501    0  0.00000000000E+00 -0.00000000000E+00 -0.59525326743E+03  0.59525326743E+03  0.00000000000E+00 0. -1.
         23    2    1    2    0    0 -0.51868060644E+02 -0.29265737801E+00  0.58210078348E+02  0.14016783960E+03  0.11648273981E+03 0.  0.
          5    1    3    3  502    0 -0.58447386313E+02 -0.19722657752E+02 -0.15335746606E+02  0.63700374563E+02  0.41800000000E+01 0. -1.
         -5    1    3    3    0  502  0.65793256690E+01  0.19430000374E+02  0.73545824954E+02  0.76467465035E+02  0.41800000000E+01 0.  1.
        -11    1    1    2    0    0 -0.24874354079E+02 -0.13990333131E+02 -0.16432842845E+03  0.16678817497E+03  0.00000000000E+00 0.  1.
         11    1    1    2    0    0  0.76742414723E+02  0.14282990509E+02 -0.38479715669E+03  0.39263501350E+03  0.00000000000E+00 0. -1.
</event>
<event>
 7    1  0.4966153E-006  0.1129891E+03  0.7561462E-02  0.1255133E+00
         -2   -1    0    0    0  501 -0.00000000000E+00  0.00000000000E+00  0.45232375301E+03  0.45232375301E+03  0.00000000000E+00 0.  1.
          2   -1    0    0  501    0  0.00000000000E+00 -0.00000000000E+00 -0.50557081178E+02  0.50557081178E+02  0.00000000000E+00 0. -1.
         23    2    1    2    0    0  0.53290578178E+02 -0.41484159106E+02  0.34168934321E+03  0.37008050588E+03  0.12508857817E+03 0.  0.
          5    1    3    3  502    0  0.88592502717E+02 -0.50442898116E+01  0.24837077564E+03  0.26377943625E+03  0.41800000000E+01 0. -1.
         -5    1    3    3    0  502 -0.35301924539E+02 -0.36439869295E+02  0.93318567574E+02  0.10630106963E+03  0.41800000000E+01 0. -1.
        -11    1    1    2    0    0  0.68563263910E+00 -0.10957987505E+02 -0.20058549047E+02  0.22866853132E+02  0.00000000000E+00 0. -1.
         11    1    1    2    0    0 -0.53976210817E+02  0.52442146612E+02  0.80135877671E+02  0.10993347518E+03  0.00000000000E+00 0.  1.
</event>
<event>
 7    1  0.4966153E-006  0.8815090E+02  0.7561462E-02  0.1307392E+00
         -2   -1    0    0    0  501 -0.00000000000E+00  0.00000000000E+00  0.28956214040E+02  0.28956214040E+02  0.00000000000E+00 0.  1.
          2   -1    0    0  501    0  0.00000000000E+00 -0.00000000000E+00 -0.57774909611E+03  0.57774909611E+03  0.00000000000E+00 0. -1.
         23    2    1    2    0    0  0.30111841563E+02  0.17767259190E+02 -0.16116276993E+03  0.20698594790E+03  0.12508935092E+03 0.  0.
          5    1    3    3  502    0  0.10232806499E+02 -0.27605291755E+02 -0.15389933462E+03  0.15674578162E+03  0.41800000000E+01 0. -1.
         -5    1    3    3    0  502  0.19879035065E+02  0.45372550945E+02 -0.72634353167E+01  0.50240166271E+02  0.41800000000E+01 0. -1.
        -11    1    1    2    0    0 -0.23132400504E+01  0.36132936473E+02 -0.12232895774E+03  0.12757473919E+03  0.00000000000E+00 0. -1.
         11    1    1    2    0    0 -0.27798601513E+02 -0.53900195663E+02 -0.26530115440E+03  0.27214462306E+03  0.00000000000E+00 0.  1.
</event>
<event>
 7    1  0.4966153E-006  0.6494110E+02  0.7561462E-02  0.1378193E+00
         -2   -1    0    0    0  501 -0.00000000000E+00  0.00000000000E+00  0.20094269360E+03  0.20094269360E+03  0.00000000000E+00 0.  1.
          2   -1    0    0  501    0  0.00000000000E+00 -0.00000000000E+00 -0.76429224329E+02  0.76429224329E+02  0.00000000000E+00 0. -1.
         23    2    1    2    0    0  0.24203042787E+02 -0.31913075049E+02  0.11657506001E+03  0.17561613813E+03  0.12508817577E+03 0.  0.
          5    1    3    3  502    0 -0.19720947485E+02 -0.40128650706E+02 -0.57906529572E+01  0.45279448305E+02  0.41800000000E+01 0.  1.
         -5    1    3    3    0  502  0.43923990273E+02  0.82155756564E+01  0.12236571297E+03  0.13033668983E+03  0.41800000000E+01 0.  1.
        -11    1    1    2    0    0 -0.18754043499E+02  0.23428805942E+02  0.50102490244E+02  0.58402762127E+02  0.00000000000E+00 0.  1.
         11    1    1    2    0    0 -0.54489992884E+01  0.84842691072E+01 -0.42164080986E+02  0.43353017668E+02  0.00000000000E+00 0. -1.
</event>
<event>
 7    1  0.4966153E-006  0.1375301E+03  0.7561462E-02  0.1216692E+00
         -2   -1    0    0    0  501 -0.00000000000E+00  0.00000000000E+00  0.83095946379E+02  0.83095946379E+02  0.00000000000E+00 0.  1.
          2   -1    0    0  501    0  0.00000000000E+00 -0.00000000000E+00 -0.34647895140E+03  0.34647895140E+03  0.00000000000E+00 0. -1.
         23    2    1    2    0    0  0.22259867962E+02  0.81950294320E+02 -0.50918874662E+02  0.15953569561E+03  0.12509018313E+03 0.  0.
          5    1    3    3  502    0  0.58703927874E+02 -0.92578550364E+00 -0.31832094103E+02  0.66916088062E+02  0.41800000000E+01 0. -1.
         -5    1    3    3    0  502 -0.36444059911E+02  0.82876079824E+02 -0.19086780559E+02  0.92619607545E+02  0.41800000000E+01 0. -1.
        -11    1    1    2    0    0  0.35219930467E+02 -0.45371510529E+02 -0.12492845004E+02  0.58780002093E+02  0.00000000000E+00 0.  1.
         11    1    1    2    0    0 -0.57479798429E+02 -0.36578783791E+02 -0.19997128536E+03  0.21125920008E+03  0.00000000000E+00 0. -1.
</event>
<event>
 7    1  0.4966153E-006  0.2441372E+03  0.7561462E-02  0.1117067E+00
         -1   -1    0    0    0  501 -0.00000000000E+00  0.00000000000E+00  0.33301616443E+03  0.33301616443E+03  0.00000000000E+00 0.  1.
          1   -1    0    0  501    0  0.00000000000E+00 -0.00000000000E+00 -0.18961756090E+03  0.18961756090E+03  0.00000000000E+00 0. -1.
         23    2    1    2    0    0  0.13061997179E+03 -0.17556255912E+03  0.12532059961E+02  0.25236940724E+03  0.12509786566E+03 0.  0.
          5    1    3    3  502    0  0.58235224080E+02  0.38652853791E+01  0.15142210152E+01  0.58532444166E+02  0.41800000000E+01 0. -1.
         -5    1    3    3    0  502  0.72384747708E+02 -0.17942784449E+03  0.11017838946E+02  0.19383696308E+03  0.41800000000E+01 0. -1.
        -11    1    1    2    0    0 -0.94926470756E+02  0.17663680657E+03  0.11526227784E+03  0.23129416114E+03  0.00000000000E+00 0.  1.
         11    1    1    2    0    0 -0.35693501033E+02 -0.10742474503E+01  0.15604265739E+02  0.38970156951E+02  0.00000000000E+00 0. -1.
</event>
<event>
 7    1  0.4966153E-006  0.1256197E+03  0.7561462E-02  0.1234104E+00
          2   -1    0    0  501    0  0.00000000000E+00  0.00000000000E+00  0.90342733517E+02  0.90342733517E+02  0.00000000000E+00 0. -1.
         -2   -1    0    0    0  501 -0.00000000000E+00 -0.00000000000E+00 -0.19098504197E+03  0.19098504197E+03  0.00000000000E+00 0.  1.
         23    2    1    2    0    0 -0.22419307732E+02  0.69120422804E+02 -0.40824399153E+02  0.15031373714E+03  0.12508928731E+03 0.  0.
          5    1    3    3  502    0 -0.98183795621E+01 -0.36136310357E+02 -0.34680058324E+01  0.37838247421E+02  0.41800000000E+01 0. -1.
         -5    1    3    3    0  502 -0.12600928170E+02  0.10525673316E+03 -0.37356393321E+02  0.11247548972E+03  0.41800000000E+01 0. -1.
        -11    1    1    2    0    0  0.51949722235E+02 -0.36634617251E+02 -0.95619297114E+01  0.64282962916E+02  0.00000000000E+00 0. -1.
         11    1    1    2    0    0 -0.29530414503E+02 -0.32485805554E+02 -0.50255979586E+02  0.66731075424E+02  0.00000000000E+00 0.  1.
</event>
<event>
 7    1  0.4966153E-006  0.1047831E+03  0.7561462E-02  0.1270547E+00
          1   -1    0    0  501    0  0.00000000000E+00  0.00000000000E+00  0.25866475706E+03  0.25866475706E+03  0.00000000000E+00 0. -1.
         -1   -1    0    0    0  501 -0.00000000000E+00 -0.00000000000E+00 -0.71226353814E+02  0.71226353814E+02  0.00000000000E+00 0.  1.
         23    2    1    2    0    0  0.72951462758E+01 -0.78106059809E+02  0.73536037807E+02  0.16495020988E+03  0.12508895693E+03 0.  0.
          5    1    3    3  502    0 -0.31041635879E+02 -0.18991443277E+02  0.85817882118E+02  0.93308302776E+02  0.41800000000E+01 0. -1.
         -5    1    3    3    0  502  0.38336782155E+02 -0.59114616533E+02 -0.12281844311E+02  0.71641907104E+02  0.41800000000E+01 0. -1.
        -11    1    1    2    0    0  0.22962523355E+02  0.65798787158E+02  0.11238724807E+03  0.13224088399E+03  0.00000000000E+00 0. -1.
         11    1    1    2    0    0 -0.30257669631E+02  0.12307272652E+02  0.15151173759E+01  0.32700017008E+02  0.00000000000E+00 0.  1.
</event>
<event>
 7    1  0.4966153E-006  0.1023627E+03  0.7561462E-02  0.1275405E+00
          1   -1    0    0  501    0  0.00000000000E+00  0.00000000000E+00  0.41093075297E+03  0.41093075297E+03  0.00000000000E+00 0. -1.
         -1   -1    0    0    0  501 -0.00000000000E+00 -0.00000000000E+00 -0.37410127014E+02  0.37410127014E+02  0.00000000000E+00 0.  1.
         23    2    1    2    0    0  0.29981655573E+01 -0.17971663038E+02  0.10704139855E+03  0.16564434323E+03  0.12509283661E+03 0.  0.
          5    1    3    3  502    0  0.52680202045E+02  0.19981795735E+02  0.23438697854E+02  0.61166337191E+02  0.41800000000E+01 0.  1.
         -5    1    3    3    0  502 -0.49682036488E+02 -0.37953458773E+02  0.83602700693E+02  0.10447800604E+03  0.41800000000E+01 0.  1.
        -11    1    1    2    0    0  0.38614119688E+02  0.20800305152E+02  0.19559310572E+03  0.20045040768E+03  0.00000000000E+00 0.  1.
         11    1    1    2    0    0 -0.41612285246E+02 -0.28286421133E+01  0.70886121683E+02  0.82246129069E+02  0.00000000000E+00 0. -1.
</event>
<event>
 7    1  0.4966153E-006  0.9663295E+02  0.7561462E-02  0.1287540E+00
         -1   -1    0    0    0  501 -0.00000000000E+00  0.00000000000E+00  0.16803679030E+03  0.16803679030E+03  0.00000000000E+00 0.  1.
          1   -1    0    0  501    0  0.00000000000E+00 -0.00000000000E+00 -0.70515604102E+02  0.70515604102E+02  0.00000000000E+00 0. -1.
         23    2    1    2    0    0  0.20505070799E+01 -0.19091999448E+01  0.77288818609E+02  0.14706750673E+03  0.12508972952E+03 0.  0.
          5    1    3    3  502    0 -0.43195282731E+01  0.61153945345E+02  0.34397074517E+02  0.70420838472E+02  0.41800000000E+01 0.  1.
         -5    1    3    3    0  502  0.63700353530E+01 -0.63063145289E+02  0.42891744092E+02  0.76646668260E+02  0.41800000000E+01 0.  1.
        -11    1    1    2    0    0 -0.12798460637E+02  0.33002373831E+02  0.39755109148E+02  0.53229934967E+02  0.00000000000E+00 0.  1.
         11    1    1    2    0    0  0.10747953557E+02 -0.31093173887E+02 -0.19522741561E+02  0.38254952700E+02  0.00000000000E+00 0. -1.
</event>
<event>
 7    1  0.4966153E-006  0.9601586E+02  0.7561462E-02  0.1288904E+00
          1   -1    0    0  501    0  0.00000000000E+00  0.00000000000E+00  0.51386203568E+03  0.51386203568E+03  0.00000000000E+00 0. -1.
         -1   -1    0    0    0  501 -0.00000000000E+00 -0.00000000000E+00 -0.42182323326E+02  0.42182323326E+02  0.00000000000E+00 0.  1.
         23    2    1    2    0    0  0.68144015317E+02 -0.55018546541E+02  0.16658354632E+03  0.22598156303E+03  0.12508773577E+03 0.  0.
          5    1    3    3  502    0  0.46682141132E+01 -0.70506014412E+01 -0.20540403836E+02  0.22602738627E+02  0.41800000000E+01 0. -1.
         -5    1    3    3    0  502  0.63475801203E+02 -0.47967945100E+02  0.18712395015E+03  0.20337882441E+03  0.41800000000E+01 0. -1.
        -11    1    1    2    0    0 -0.10445867012E+02  0.42660275743E+02  0.43214682830E+02  0.61615940115E+02  0.00000000000E+00 0.  1.
         11    1    1    2    0    0 -0.57698148305E+02  0.12358270798E+02  0.26188148320E+03  0.26844685586E+03  0.00000000000E+00 0. -1.
</event>
<event>
 7    1  0.4966153E-006  0.2172219E+03  0.7561462E-02  0.1135971E+00
         -1   -1    0    0    0  501 -0.00000000000E+00  0.00000000000E+00  0.44981296092E+02  0.44981296092E+02  0.00000000000E+00 0.  1.
          1   -1    0    0  501    0  0.00000000000E+00 -0.00000000000E+00 -0.10832928730E+04  0.10832928730E+04  0.00000000000E+00 0. -1.
         23    2    1    2    0    0 -0.11929721697E+03 -0.15053746877E+03 -0.55992266587E+03  0.60502391869E+03  0.12508874832E+03 0.  0.
          5    1    3    3  502    0  0.11582293302E+02 -0.65944082298E+02 -0.10981701333E+03  0.12868574251E+03  0.41800000000E+01 0. -1.
         -5    1    3    3    0  502 -0.13087951027E+03 -0.84593386472E+02 -0.45010565254E+03  0.47633817619E+03  0.41800000000E+01 0. -1.
        -11    1    1    2    0    0  0.75968591465E+02  0.14999242973E+03 -0.39437796797E+03  0.42872244808E+03  0.00000000000E+00 0. -1.
         11    1    1    2    0    0  0.43328625508E+02  0.54503903587E+00 -0.84010943068E+02  0.94527802318E+02  0.00000000000E+00 0.  1.
</event>
<event>
 7    1  0.4966153E-006  0.1517307E+03  0.7561462E-02  0.1198362E+00
          3   -1    0    0  501    0  0.00000000000E+00  0.00000000000E+00  0.51536954019E+03  0.51536954019E+03  0.00000000000E+00 0. -1.
         -3   -1    0    0    0  501 -0.00000000000E+00 -0.00000000000E+00 -0.48659160728E+02  0.48659160728E+02  0.00000000000E+00 0.  1.
         23    2    1    2    0    0  0.10991627265E+03 -0.37622280196E+01  0.19225932319E+03  0.25437439825E+03  0.12508775231E+03 0.  0.
          5    1    3    3  502    0  0.29536190997E+02  0.56827706926E+02  0.57891210638E+02  0.86432861356E+02  0.41800000000E+01 0.  1.
         -5    1    3    3    0  502  0.80380081649E+02 -0.60589934945E+02  0.13436811256E+03  0.16794153689E+03  0.41800000000E+01 0.  1.
        -11    1    1    2    0    0 -0.36138297550E+02  0.42024151821E+02  0.15084991535E+03  0.16070999610E+03  0.00000000000E+00 0.  1.
         11    1    1    2    0    0 -0.73777975096E+02 -0.38261923802E+02  0.12360114092E+03  0.14894430657E+03  0.00000000000E+00 0. -1.
</event>
<event>
 7    1  0.4966153E-006  0.9416465E+02  0.7561462E-02  0.1293069E+00
         -1   -1    0    0    0  501 -0.00000000000E+00  0.00000000000E+00  0.66010415722E+03  0.66010415722E+03  0.00000000000E+00 0.  1.
          1   -1    0    0  501    0  0.00000000000E+00 -0.00000000000E+00 -0.24749463265E+02  0.24749463265E+02  0.00000000000E+00 0. -1.
         23    2    1    2    0    0 -0.32788014523E+02 -0.17181055789E+02  0.50499282294E+03  0.52156972877E+03  0.12508792180E+03 0.  0.
          5    1    3    3  502    0  0.20307181549E+02  0.17044037356E+02  0.22735156702E+02  0.35174430800E+02  0.41800000000E+01 0. -1.
         -5    1    3    3    0  502 -0.53095196072E+02 -0.34225093145E+02  0.48225766624E+03  0.48639529797E+03  0.41800000000E+01 0. -1.
        -11    1    1    2    0    0  0.38232059135E+02  0.51105235692E+02  0.88860478684E+02  0.10940575914E+03  0.00000000000E+00 0.  1.
         11    1    1    2    0    0 -0.54440446126E+01 -0.33924179903E+02  0.41501392335E+02  0.53878132573E+02  0.00000000000E+00 0. -1.
</event>
<event>
 7    1  0.4966153E-006  0.1228000E+03  0.7561462E-02  0.1238548E+00
         -1   -1    0    0    0  501 -0.00000000000E+00  0.00000000000E+00  0.22990622482E+03  0.22990622482E+03  0.00000000000E+00 0.  1.
          1   -1    0    0  501    0  0.00000000000E+00 -0.00000000000E+00 -0.76994541351E+02  0.76994541351E+02  0.00000000000E+00 0. -1.
         23    2    1    2    0    0 -0.60531889364E+02  0.30756295077E+02  0.12644511099E+03  0.19038591723E+03  0.12509345334E+03 0.  0.
          5    1    3    3  502    0 -0.46649431833E+02 -0.41471173831E+02  0.85997745338E+02  0.10634431039E+03  0.41800000000E+01 0.  1.
         -5    1    3    3    0  502 -0.13882457531E+02  0.72227468908E+02  0.40447365652E+02  0.84041606840E+02  0.41800000000E+01 0.  1.
        -11    1    1    2    0    0  0.18616170864E+02  0.30152248196E+02  0.23495057230E+02  0.42517497612E+02  0.00000000000E+00 0.  1.
         11    1    1    2    0    0  0.41915718500E+02 -0.60908543273E+02  0.29715152503E+01  0.73997351330E+02  0.00000000000E+00 0. -1.
</event>
<event>
 7    1  0.4966153E-006  0.1469465E+03  0.7561462E-02  0.1204276E+00
          2   -1    0    0  501    0  0.00000000000E+00  0.00000000000E+00  0.10540281332E+04  0.10540281332E+04  0.00000000000E+00 0. -1.
         -2   -1    0    0    0  501 -0.00000000000E+00 -0.00000000000E+00 -0.24003152650E+02  0.24003152650E+02  0.00000000000E+00 0.  1.
         23    2    1    2    0    0 -0.28806237525E+02 -0.11227828179E+03  0.52884635505E+03  0.55566370255E+03  0.12508985249E+03 0.  0.
          5    1    3    3  502    0  0.44597590822E+02 -0.70477664306E+02  0.30978330179E+03  0.32084141370E+03  0.41800000000E+01 0.  1.
         -5    1    3    3    0  502 -0.73403828347E+02 -0.41800617485E+02  0.21906305326E+03  0.23482228885E+03  0.41800000000E+01 0.  1.
        -11    1    1    2    0    0  0.28318381075E+02  0.22867547110E+02  0.46867479509E+02  0.59341520482E+02  0.00000000000E+00 0.  1.
         11    1    1    2    0    0  0.48785644958E+00  0.89410734681E+02  0.45431114595E+03  0.46302606278E+03  0.00000000000E+00 0. -1.
</event>
<event>
 7    1  0.4966153E-006  0.7551304E+02  0.7561462E-02  0.1342290E+00
          2   -1    0    0  501    0  0.00000000000E+00  0.00000000000E+00  0.43659167769E+03  0.43659167769E+03  0.00000000000E+00 0. -1.
         -2   -1    0    0    0  501 -0.00000000000E+00 -0.00000000000E+00 -0.51301087138E+02  0.51301087138E+02  0.00000000000E+00 0.  1.
         23    2    1    2    0    0  0.29083889458E+02  0.21060599216E+02  0.51646449628E+02  0.14002714656E+03  0.12510325555E+03 0.  0.
          5    1    3    3  502    0  0.14064147330E+02  0.35559617933E+02 -0.34265840614E+02  0.51516083903E+02  0.41800000000E+01 0.  1.
         -5    1    3    3    0  502  0.15019742128E+02 -0.14499018717E+02  0.85912290243E+02  0.88511062654E+02  0.41800000000E+01 0.  1.
        -11    1    1    2    0    0 -0.39285956033E+02  0.23349506174E+02  0.10182499030E+03  0.11161054802E+03  0.00000000000E+00 0.  1.
         11    1    1    2    0    0  0.10202066575E+02 -0.44410105390E+02  0.23181915062E+03  0.23625507025E+03  0.00000000000E+00 0. -1.
</event>
<event>
 7    1  0.4966153E-006  0.1328141E+03  0.7561462E-02  0.1223339E+00
         -1   -1    0    0    0  501 -0.00000000000E+00  0.00000000000E+00  0.41573582571E+02  0.41573582571E+02  0.00000000000E+00 0.  1.
          1   -1    0    0  501    0  0.00000000000E+00 -0.00000000000E+00 -0.49786357022E+03  0.49786357022E+03  0.00000000000E+00 0. -1.
         23    2    1    2    0    0 -0.89593859038E+02  0.33076380911E+02 -0.23952902105E+03  0.28660455379E+03  0.12508761639E+03 0.  0.
          5    1    3    3  502    0  0.17952296529E+02  0.43408859189E+02 -0.52499655006E+02  0.70571241894E+02  0.41800000000E+01 0.  1.
         -5    1    3    3    0  502 -0.10754615557E+03 -0.10332478278E+02 -0.18702936604E+03  0.21603331189E+03  0.41800000000E+01 0.  1.
        -11    1    1    2    0    0  0.51954928791E+02  0.10247090383E+02 -0.38255440611E+02  0.65328372269E+02  0.00000000000E+00 0.  1.
         11    1    1    2    0    0  0.37638930247E+02 -0.43323471294E+02 -0.17850552599E+03  0.18750422674E+03  0.00000000000E+00 0. -1.
</event>
<event>
 7    1  0.4966153E-006  0.1106325E+03  0.7561462E-02  0.1259403E+00
          2   -1    0    0  501    0  0.00000000000E+00  0.00000000000E+00  0.67869112028E+03  0.67869112028E+03  0.00000000000E+00 0. -1.
         -2   -1    0    0    0  501 -0.00000000000E+00 -0.00000000000E+00 -0.20181833469E+02  0.20181833469E+02  0.00000000000E+00 0.  1.
         23    2    1    2    0    0  0.29637383931E+02  0.44480558631E+02  0.36883003997E+03  0.38887498569E+03  0.11104621330E+03 0.  0.
          5    1    3    3  502    0 -0.36396319251E+02  0.31243665629E+01  0.19355946797E+03  0.19702079526E+03  0.41800000000E+01 0. -1.
         -5    1    3    3    0  502  0.66033703182E+02  0.41356192069E+02  0.17527057200E+03  0.19185419043E+03  0.41800000000E+01 0.  1.
        -11    1    1    2    0    0 -0.21893061499E+02 -0.73366405155E+02  0.24096852965E+03  0.25283941114E+03  0.00000000000E+00 0.  1.
         11    1    1    2    0    0 -0.77443224319E+01  0.28885846524E+02  0.48710717198E+02  0.57158556920E+02  0.00000000000E+00 0. -1.
</event>
<event>
 7    1  0.4966153E-006  0.1072660E+03  0.7561462E-02  0.1265718E+00
         -3   -1    0    0    0  501 -0.00000000000E+00  0.00000000000E+00  0.20722001948E+03  0.20722001948E+03  0.00000000000E+00 0.  1.
          3   -1    0    0  501    0  0.00000000000E+00 -0.00000000000E+00 -0.67599703019E+02  0.67599703019E+02  0.00000000000E+00 0. -1.
         23    2    1    2    0    0 -0.19113892221E+02 -0.45098475996E+01  0.13029978912E+03  0.18168983175E+03  0.12508988894E+03 0.  0.
          5    1    3    3  502    0 -0.43569266348E+02 -0.54263769598E+02  0.59389328022E+02  0.91582762264E+02  0.41800000000E+01 0. -1.
         -5    1    3    3    0  502  0.24455374128E+02  0.49753921998E+02  0.70910461103E+02  0.90107069488E+02  0.41800000000E+01 0. -1.
        -11    1    1    2    0    0 -0.22293584826E+02 -0.28557283754E+02 -0.85190380067E+01  0.37216883110E+02  0.00000000000E+00 0. -1.
         11    1    1    2    0    0  0.41407477047E+02  0.33067131354E+02  0.17839565345E+02  0.55913007638E+02  0.00000000000E+00 0.  1.
</event>
<event>
 6    1  0.4966153E-006  0.1434137E+03  0.7561462E-02  0.1208808E+00
         -3   -1    0    0    0  501 -0.00000000000E+00  0.00000000000E+00  0.13904103860E+03  0.13904103860E+03  0.00000000000E+00 0.  1.
          3   -1    0    0  501    0  0.00000000000E+00 -0.00000000000E+00 -0.18350067896E+03  0.18350067896E+03  0.00000000000E+00 0. -1.
          5    1    1    2  502    0  0.10460168336E+02  0.77750907826E+02  0.57355147908E+01  0.78771741884E+02  0.41800000000E+01 0. -1.
         -5    1    1    2    0  502 -0.61950454321E+02 -0.11220551263E+03 -0.28765132508E+02  0.13142618119E+03  0.41800000000E+01 0.  1.
        -11    1    1    2    0    0  0.26403396649E+02  0.45506471622E+02 -0.50119202285E+02  0.72663008139E+02  0.00000000000E+00 0. -1.
         11    1    1    2    0    0  0.25086889336E+02 -0.11051866821E+02  0.28689179634E+02  0.39680786344E+02  0.00000000000E+00 0.  1.
</event>
<event>
 7    1  0.4966153E-006  0.8989029E+02  0.7561462E-02  0.1303118E+00
         -2   -1    0    0    0  501 -0.00000000000E+00  0.00000000000E+00  0.90085151074E+02  0.90085151074E+02  0.00000000000E+00 0.  1.
          2   -1    0    0  501    0  0.00000000000E+00 -0.00000000000E+00 -0.16443954633E+03  0.16443954633E+03  0.00000000000E+00 0. -1.
         23    2    1    2    0    0  0.47124468349E+02 -0.12440453803E+02 -0.18817630848E+02  0.13556200529E+03  0.12508986226E+03 0.  0.
          5    1    3    3  502    0 -0.71482124691E+01  0.35513071753E+02  0.30750979269E+02  0.47700842056E+02  0.41800000000E+01 0. -1.
         -5    1    3    3    0  502  0.54272680819E+02 -0.47953525556E+02 -0.49568610117E+02  0.87861163237E+02  0.41800000000E+01 0. -1.
        -11    1    1    2    0    0 -0.58088505660E+02  0.13851261478E+02  0.26103436340E+01  0.59774123400E+02  0.00000000000E+00 0.  1.
         11    1    1    2    0    0  0.10964037311E+02 -0.14108076742E+01 -0.58147108039E+02  0.59188568709E+02  0.00000000000E+00 0. -1.
</event>
<event>
 7    1  0.4966153E-006  0.1235741E+03  0.7561462E-02  0.1237315E+00
          1   -1    0    0  501    0  0.00000000000E+00  0.00000000000E+00  0.16491493176E+03  0.16491493176E+03  0.00000000000E+00 0. -1.
         -1   -1    0    0    0  501 -0.00000000000E+00 -0.00000000000E+00 -0.10636499782E+03  0.10636499782E+03  0.00000000000E+00 0.  1.
         23    2    1    2    0    0 -0.37388478459E+02 -0.50087288363E+02 -0.11405774616E+02  0.14030353376E+03  0.12509338557E+03 0.  0.
          5    1    3    3  502    0  0.34110975306E+02 -0.58263128388E+02 -0.82913586833E+01  0.68149613313E+02  0.41800000000E+01 0.  1.
         -5    1    3    3    0  502 -0.71499453765E+02  0.81758400248E+01 -0.31144159324E+01  0.72153920444E+02  0.41800000000E+01 0.  1.
        -11    1    1    2    0    0 -0.28606576019E+02  0.19894438659E+02  0.84715786662E+01  0.35859343639E+02  0.00000000000E+00 0. -1.
         11    1    1    2    0    0  0.65995054479E+02  0.30192849704E+02  0.61484129890E+02  0.95117052190E+02  0.00000000000E+00 0.  1.
</event>
<event>
 7    1  0.4966153E-006  0.7033472E+02  0.7561462E-02  0.1358958E+00
         -2   -1    0    0    0  501 -0.00000000000E+00  0.00000000000E+00  0.25511488864E+03  0.25511488864E+03  0.00000000000E+00 0.  1.
          2   -1    0    0  501    0  0.00000000000E+00 -0.00000000000E+00 -0.10820632572E+03  0.10820632572E+03  0.00000000000E+00 0. -1.
         23    2    1    2    0    0 -0.48102114600E+02  0.36753616579E+02  0.19839291520E+03  0.24222174470E+03  0.12508790127E+03 0.  0.
          5    1    3    3  502    0 -0.48946458661E+02  0.17946045757E+02  0.21217014169E+03  0.21852106946E+03  0.41800000000E+01 0. -1.
         -5    1    3    3    0  502  0.84434406065E+00  0.18807570822E+02 -0.13777226491E+02  0.23700675242E+02  0.41800000000E+01 0. -1.
        -11    1    1    2    0    0  0.14423583898E+02 -0.31963321581E+02  0.21109535926E+02  0.40930504589E+02  0.00000000000E+00 0.  1.
         11    1    1    2    0    0  0.33678530703E+02 -0.47902949982E+01 -0.72593888206E+02  0.80168965076E+02  0.00000000000E+00 0. -1.
</event>
<event>
 7    1  0.4966153E-006  0.7920489E+02  0.7561462E-02  0.1331323E+00
          2   -1    0    0  501    0  0.00000000000E+00  0.00000000000E+00  0.55222345729E+03  0.55222345729E+03  0.00000000000E+00 0. -1.
         -2   -1    0    0    0  501 -0.00000000000E+00 -0.00000000000E+00 -0.26268331429E+02  0.26268331429E+02  0.00000000000E+00 0.  1.
         23    2    1    2    0    0 -0.50588023987E+01 -0.47108756478E+02  0.24461979284E+03  0.27880482714E+03  0.12509381346E+03 0.  0.
          5    1    3    3  502    0 -0.79697814226E+00  0.31770386422E+01  0.22410557435E+03  0.22416848486E+03  0.41800000000E+01 0.  1.
         -5    1    3    3    0  502 -0.42618242564E+01 -0.50285795120E+02  0.20514218488E+02  0.54636342273E+02  0.41800000000E+01 0.  1.
        -11    1    1    2    0    0 -0.42888219900E+02  0.19279604709E+02  0.11073849156E+03  0.12030842064E+03  0.00000000000E+00 0. -1.
         11    1    1    2    0    0  0.47947022298E+02  0.27829151769E+02  0.17059684146E+03  0.17937854094E+03  0.00000000000E+00 0.  1.
</event>
<event>
 7    1  0.4966153E-006  0.1236718E+03  0.7561462E-02  0.1237160E+00
         -1   -1    0    0    0  501 -0.00000000000E+00  0.00000000000E+00  0.33048224264E+02  0.33048224264E+02  0.00000000000E+00 0.  1.
          1   -1    0    0  501    0  0.00000000000E+00 -0.00000000000E+00 -0.56248639697E+03  0.56248639697E+03  0.00000000000E+00 0. -1.
         23    2    1    2    0    0  0.53822948769E+02  0.31257193772E+02 -0.17321490826E+03  0.22254115971E+03  0.12508893374E+03 0.  0.
          5    1    3    3  502    0  0.74581103635E+02 -0.23536679128E+02 -0.77128691896E+02  0.10992098888E+03  0.41800000000E+01 0. -1.
         -5    1    3    3    0  502 -0.20758154867E+02  0.54793872900E+02 -0.96086216367E+02  0.11262017082E+03  0.41800000000E+01 0. -1.
        -11    1    1    2    0    0 -0.64277669729E+02  0.12337747576E+02 -0.22479136999E+03  0.23412603201E+03  0.00000000000E+00 0.  1.
         11    1    1    2    0    0  0.10454720960E+02 -0.43594941348E+02 -0.13143189446E+03  0.13886742952E+03  0.00000000000E+00 0. -1.
</event>
<event>
 7    1  0.4966153E-006  0.3709342E+03  0.7561462E-02  0.1054336E+00
          1   -1    0    0  501    0  0.00000000000E+00  0.00000000000E+00  0.13231064293E+04  0.13231064293E+04  0.00000000000E+00 0. -1.
         -1   -1    0    0    0  501 -0.00000000000E+00 -0.00000000000E+00 -0.11983162183E+03  0.11983162183E+03  0.00000000000E+00 0.  1.
         23    2    1    2    0    0 -0.36733378326E+03 -0.11411678339E+02  0.41376856976E+03  0.56737621616E+03  0.12508799546E+03 0.  0.
          5    1    3    3  502    0 -0.23073284797E+03 -0.41364503384E+02  0.18260737965E+03  0.29717267165E+03  0.41800000000E+01 0.  1.
         -5    1    3    3    0  502 -0.13660093530E+03  0.29952825045E+02  0.23116119011E+03  0.27020354451E+03  0.41800000000E+01 0.  1.
        -11    1    1    2    0    0  0.28757507942E+03  0.90038704055E+01  0.69291036521E+03  0.75027013148E+03  0.00000000000E+00 0. -1.
         11    1    1    2    0    0  0.79758703846E+02  0.24078079336E+01  0.96595872468E+02  0.12529170346E+03  0.00000000000E+00 0.  1.
</event>
<event>
 7    1  0.4966153E-006  0.1229283E+03  0.7561462E-02  0.1238343E+00
          3   -1    0    0  501    0  0.00000000000E+00  0.00000000000E+00  0.71309730483E+02  0.71309730483E+02  0.00000000000E+00 0. -1.
         -3   -1    0    0    0  501 -0.00000000000E+00 -0.00000000000E+00 -0.31294356071E+03  0.31294356071E+03  0.00000000000E+00 0.  1.
         23    2    1    2    0    0 -0.10132029222E+03  0.95024559436E+01 -0.15218352149E+03  0.22172821564E+03  0.12508988414E+03 0.  0.
          5    1    3    3  502    0 -0.42748366357E+02 -0.36593351594E+02 -0.49412260223E+01  0.56642601650E+02  0.41800000000E+01 0. -1.
         -5    1    3    3    0  502 -0.58571925862E+02  0.46095807538E+02 -0.14724229547E+03  0.16508561399E+03  0.41800000000E+01 0. -1.
        -11    1    1    2    0    0  0.82605557150E+01 -0.19504868584E+02 -0.61195136257E+02  0.64757404061E+02  0.00000000000E+00 0.  1.
         11    1    1    2    0    0  0.93059736504E+02  0.10002412640E+02 -0.28255172477E+02  0.97767671490E+02  0.00000000000E+00 0. -1.
</event>
<event>
 7    1  0.4966153E-006  0.1279384E+03  0.7561462E-02  0.1230547E+00
         -2   -1    0    0    0  501 -0.00000000000E+00  0.00000000000E+00  0.22595413468E+03  0.22595413468E+03  0.00000000000E+00 0.  1.
          2   -1    0    0  501    0  0.00000000000E+00 -0.00000000000E+00 -0.78158653211E+02  0.78158653211E+02  0.00000000000E+00 0. -1.
         23    2    1    2    0    0 -0.39720869005E+02  0.60919486825E+02  0.11558588943E+03  0.18519418124E+03  0.12509138908E+03 0.  0.
          5    1    3    3  502    0 -0.20459402197E+02 -0.36794706848E+02  0.51668300974E+02  0.66779662442E+02  0.41800000000E+01 0.  1.
         -5    1    3    3    0  502 -0.19261466808E+02  0.97714193673E+02  0.63917588453E+02  0.11841451880E+03  0.41800000000E+01 0.  1.
        -11    1    1    2    0    0  0.67630598863E+02 -0.49116926633E+02  0.28881696266E+02  0.88433719607E+02  0.00000000000E+00 0. -1.
         11    1    1    2    0    0 -0.27909729858E+02 -0.11802560192E+02  0.33278957777E+01  0.30484887044E+02  0.00000000000E+00 0.  1.
</event>
<event>
 6    1  0.4966153E-006  0.1627890E+03  0.7561462E-02  0.1185583E+00
          2   -1    0    0  501    0  0.00000000000E+00  0.00000000000E+00  0.77131892923E+02  0.77131892923E+02  0.00000000000E+00 0. -1.
         -2   -1    0    0    0  501 -0.00000000000E+00 -0.00000000000E+00 -0.47148567331E+03  0.47148567331E+03  0.00000000000E+00 0.  1.
          5    1    1    2  502    0  0.15597142052E+01 -0.11055890270E+03 -0.36853998108E+02  0.11662501126E+03  0.41800000000E+01 0. -1.
         -5    1    1    2    0  502  0.63393730387E+02  0.99789737503E+02 -0.24175375945E+03  0.26914514554E+03  0.41800000000E+01 0.  1.
        -11    1    1    2    0    0  0.15328355610E+02 -0.15654761765E+01  0.59653382197E+01  0.16522544037E+02  0.00000000000E+00 0.  1.
         11    1    1    2    0    0 -0.80281800203E+02  0.12334641378E+02 -0.12171136106E+03  0.14632486539E+03  0.00000000000E+00 0. -1.
</event>
<event>
 7    1  0.4966153E-006  0.2085043E+03  0.7561462E-02  0.1142756E+00
          1   -1    0    0  501    0  0.00000000000E+00  0.00000000000E+00  0.10037905121E+04  0.10037905121E+04  0.00000000000E+00 0.  1.
         -1   -1    0    0    0  501 -0.00000000000E+00 -0.00000000000E+00 -0.54358147527E+02  0.54358147527E+02  0.00000000000E+00 0. -1.
         23    2    1    2    0    0 -0.83925561277E+02 -0.14126524475E+03  0.36375579719E+03  0.41828879226E+03  0.12509142469E+03 0.  0.
          5    1    3    3  502    0 -0.11477669225E+03 -0.12649377567E+03  0.28442982695E+03  0.33180139124E+03  0.41800000000E+01 0. -1.
         -5    1    3    3    0  502  0.30851130977E+02 -0.14771469086E+02  0.79325970236E+02  0.86487401021E+02  0.41800000000E+01 0. -1.
        -11    1    1    2    0    0  0.72248103407E+02  0.23486050806E+01  0.54050025116E+02  0.90259124784E+02  0.00000000000E+00 0. -1.
         11    1    1    2    0    0  0.11677457870E+02  0.13891663967E+03  0.53162654223E+03  0.54960074254E+03  0.00000000000E+00 0.  1.
</event>
<event>
 6    1  0.4966153E-006  0.1278795E+03  0.7561462E-02  0.1230636E+00
         -1   -1    0    0    0  501 -0.00000000000E+00  0.00000000000E+00  0.98454546814E+03  0.98454546814E+03  0.00000000000E+00 0.  1.
          1   -1    0    0  501    0  0.00000000000E+00 -0.00000000000E+00 -0.24243287986E+02  0.24243287986E+02  0.00000000000E+00 0. -1.
          5    1    1    2  502    0  0.30203575811E+01  0.52149943755E+02  0.16437719876E+03  0.17252847610E+03  0.41800000000E+01 0. -1.
         -5    1    1    2    0  502 -0.80618419646E+02 -0.43685547093E+02  0.60251887537E+03  0.60947044571E+03  0.41800000000E+01 0.  1.
        -11    1    1    2    0    0  0.47262860111E+02 -0.44186533923E+02  0.14805305886E+03  0.16157331452E+03  0.00000000000E+00 0.  1.
         11    1    1    2    0    0  0.30335201955E+02  0.35722137262E+02  0.45353047165E+02  0.65216519804E+02  0.00000000000E+00 0. -1.
</event>
<event>
 7    1  0.4966153E-006  0.1301256E+03  0.7561462E-02  0.1227270E+00
          2   -1    0    0  501    0  0.00000000000E+00  0.00000000000E+00  0.79794897445E+03  0.79794897445E+03  0.00000000000E+00 0.  1.
         -2   -1    0    0    0  501 -0.00000000000E+00 -0.00000000000E+00 -0.24932272504E+02  0.24932272504E+02  0.00000000000E+00 0. -1.
         23    2    1    2    0    0 -0.56906099543E+02  0.72571482846E+02  0.36468396640E+03  0.39641590638E+03  0.12508497589E+03 0.  0.
          5    1    3    3  502    0  0.17361615451E+02  0.78624576276E+02  0.19802092214E+03  0.21380600480E+03  0.41800000000E+01 0.  1.
         -5    1    3    3    0  502 -0.74267714993E+02 -0.60530934308E+01  0.16666304426E+03  0.18260990157E+03  0.41800000000E+01 0.  1.
        -11    1    1    2    0    0  0.43233017286E+02 -0.14908917458E+02  0.74522369004E+02  0.87435422372E+02  0.00000000000E+00 0. -1.
         11    1    1    2    0    0  0.13673082256E+02 -0.57662565388E+02  0.33381036654E+03  0.33902991820E+03  0.00000000000E+00 0.  1.
</event>
<event>
 7    1  0.4966153E-006  0.1416753E+03  0.7561462E-02  0.1211092E+00
         -2   -1    0    0    0  501 -0.00000000000E+00  0.00000000000E+00  0.77071107208E+03  0.77071107208E+03  0.00000000000E+00 0.  1.
          2   -1    0    0  501    0  0.00000000000E+00 -0.00000000000E+00 -0.39183288743E+02  0.39183288743E+02  0.00000000000E+00 0. -1.
         23    2    1    2    0    0  0.13344834603E+03 -0.90674437045E+01  0.44165848290E+03  0.47812950152E+03  0.12511964319E+03 0.  0.
          5    1    3    3  502    0  0.16324413826E+02  0.68897933931E+00 -0.39012527364E+01  0.17310498323E+02  0.41800000000E+01 0.  1.
         -5    1    3    3    0  502  0.11712393221E+03 -0.97564230438E+01  0.44555973564E+03  0.46081900319E+03  0.41800000000E+01 0.  1.
        -11    1    1    2    0    0 -0.48280197712E+02  0.35250748492E+02  0.57694861297E+02  0.83080020345E+02  0.00000000000E+00 0. -1.
         11    1    1    2    0    0 -0.85168148319E+02 -0.26183304788E+02  0.23217443914E+03  0.24868483896E+03  0.00000000000E+00 0.  1.
</event>
<event>
 7    1  0.4966153E-006  0.1396420E+03  0.7561462E-02  0.1213811E+00
          1   -1    0    0  501    0  0.00000000000E+00  0.00000000000E+00  0.28902814383E+03  0.28902814383E+03  0.00000000000E+00 0. -1.
         -1   -1    0    0    0  501 -0.00000000000E+00 -0.00000000000E+00 -0.11483855001E+03  0.11483855001E+03  0.00000000000E+00 0.  1.
         23    2    1    2    0    0 -0.88844768196E+02 -0.62428914887E+02 -0.16091915185E+02  0.16642772639E+03  0.12509386926E+03 0.  0.
          5    1    3    3  502    0 -0.10397051394E+03 -0.72696832690E+02  0.17322686368E+02  0.12811028497E+03  0.41800000000E+01 0.  1.
         -5    1    3    3    0  502  0.15125745739E+02  0.10267917804E+02 -0.33414601553E+02  0.38317441422E+02  0.41800000000E+01 0.  1.
        -11    1    1    2    0    0  0.38685524547E+01  0.47088418685E+02  0.31775009633E+02  0.56938002331E+02  0.00000000000E+00 0.  1.
         11    1    1    2    0    0  0.84976215742E+02  0.15340496202E+02  0.15850649937E+03  0.18050096512E+03  0.00000000000E+00 0. -1.
</event>
<event>
 7    1  0.4966153E-006  0.1279810E+03  0.7561462E-02  0.1230483E+00
          2   -1    0    0  501    0  0.00000000000E+00  0.00000000000E+00  0.23732388271E+03  0.23732388271E+03  0.00000000000E+00 0. -1.
         -2   -1    0    0    0  501 -0.00000000000E+00 -0.00000000000E+00 -0.10002533991E+03  0.10002533991E+03  0.00000000000E+00 0.  1.
         23    2    1    2    0    0 -0.94521574914E+02 -0.17917370205E+02  0.17418672515E+02  0.15876600499E+03  0.12509146218E+03 0.  0.
          5    1    3    3  502    0 -0.68923957520E+02 -0.69491966703E+02 -0.16206929595E+01  0.97978285360E+02  0.41800000000E+01 0.  1.
         -5    1    3    3    0  502 -0.25597617395E+02  0.51574596498E+02  0.19039365475E+02  0.60787719631E+02  0.41800000000E+01 0.  1.
        -11    1    1    2    0    0  0.78901806568E+02  0.34492656030E+01  0.13219293951E+03  0.15398820010E+03  0.00000000000E+00 0. -1.
         11    1    1    2    0    0  0.15619768346E+02  0.14468104602E+02 -0.12313069224E+02  0.24595017538E+02  0.00000000000E+00 0.  1.
</event>
<event>
 7    1  0.4966153E-006  0.1602792E+03  0.7561462E-02  0.1188382E+00
         -2   -1    0    0    0  501 -0.00000000000E+00  0.00000000000E+00  0.82836840649E+02  0.82836840649E+02  0.00000000000E+00 0. -1.
          2   -1    0    0  501    0  0.00000000000E+00 -0.00000000000E+00 -0.50774127455E+03  0.50774127455E+03  0.00000000000E+00 0.  1.
         23    2    1    2    0    0 -0.10720960606E+03  0.99844265865E+02 -0.89759658377E+02  0.21252487913E+03  0.12508897201E+03 0.  0.
          5    1    3    3  502    0 -0.67824663099E+02  0.48784375031E+02 -0.11580120669E+03  0.14285479356E+03  0.41800000000E+01 0.  1.
         -5    1    3    3    0  502 -0.39384942963E+02  0.51059890834E+02  0.26041548316E+02  0.69670085567E+02  0.41800000000E+01 0.  1.
        -11    1    1    2    0    0  0.75138011429E+02 -0.86703153464E+01 -0.18027577765E+03  0.19550000291E+03  0.00000000000E+00 0. -1.
         11    1    1    2    0    0  0.32071594633E+02 -0.91173950519E+02 -0.15486899787E+03  0.18255323316E+03  0.00000000000E+00 0.  1.
</event>
<event>
 7    1  0.4966153E-006  0.1057514E+03  0.7561462E-02  0.1268646E+00
         -1   -1    0    0    0  501 -0.00000000000E+00  0.00000000000E+00  0.18007643453E+02  0.18007643453E+02  0.00000000000E+00 0.  1.
          1   -1    0    0  501    0  0.00000000000E+00 -0.00000000000E+00 -0.80157584132E+03  0.80157584132E+03  0.00000000000E+00 0. -1.
         23    2    1    2    0    0 -0.21287574677E+02 -0.46883464441E+02 -0.44267548125E+03  0.46288151229E+03  0.12508594103E+03 0.  0.
          5    1    3    3  502    0 -0.10954130993E+02 -0.78561493729E+02 -0.40367248460E+03  0.41141323327E+03  0.41800000000E+01 0. -1.
         -5    1    3    3    0  502 -0.10333443683E+02  0.31678029288E+02 -0.39002996654E+02  0.51468279026E+02  0.41800000000E+01 0. -1.
        -11    1    1    2    0    0  0.33406413333E+02 -0.14138820252E+02 -0.19094225329E+03  0.19435750251E+03  0.00000000000E+00 0. -1.
         11    1    1    2    0    0 -0.12118838657E+02  0.61022284693E+02 -0.14995046332E+03  0.16234446997E+03  0.00000000000E+00 0.  1.
</event>
<event>
 7    1  0.4966153E-006  0.9964686E+02  0.7561462E-02  0.1281040E+00
          1   -1    0    0  501    0  0.00000000000E+00  0.00000000000E+00  0.10364749351E+03  0.10364749351E+03  0.00000000000E+00 0. -1.
         -1   -1    0    0    0  501 -0.00000000000E+00 -0.00000000000E+00 -0.13603612874E+03  0.13603612874E+03  0.00000000000E+00 0.  1.
         23    2    1    2    0    0  0.12786473232E+02  0.28662680159E+02 -0.16443242971E+02  0.13001014050E+03  0.12508882149E+03 0.  0.
          5    1    3    3  502    0 -0.33652780343E+02 -0.80425893457E+01 -0.50675328250E+02  0.61503285778E+02  0.41800000000E+01 0. -1.
         -5    1    3    3    0  502  0.46439253576E+02  0.36705269504E+02  0.34232085279E+02  0.68506854727E+02  0.41800000000E+01 0. -1.
        -11    1    1    2    0    0  0.44155921880E+02 -0.13515525437E+02 -0.20605679038E+02  0.50566875260E+02  0.00000000000E+00 0.  1.
         11    1    1    2    0    0 -0.56942395112E+02 -0.15147154722E+02  0.46602867851E+01  0.59106606485E+02  0.00000000000E+00 0. -1.
</event>
<event>
 7    1  0.4966153E-006  0.1055515E+03  0.7561462E-02  0.1269037E+00
          1   -1    0    0  501    0  0.00000000000E+00  0.00000000000E+00  0.62355937680E+02  0.62355937680E+02  0.00000000000E+00 0. -1.
         -1   -1    0    0    0  501 -0.00000000000E+00 -0.00000000000E+00 -0.19530929534E+03  0.19530929534E+03  0.00000000000E+00 0.  1.
         23    2    1    2    0    0  0.15245320775E+02  0.11993646483E+02 -0.91826046102E+02  0.15638275634E+03  0.12508907377E+03 0.  0.
          5    1    3    3  502    0  0.53523590239E+02 -0.35221968070E+02 -0.35298949309E+02  0.73272436626E+02  0.41800000000E+01 0. -1.
         -5    1    3    3    0  502 -0.38278269464E+02  0.47215614553E+02 -0.56527096793E+02  0.83110319712E+02  0.41800000000E+01 0. -1.
        -11    1    1    2    0    0 -0.32836919223E+02  0.27436834308E+02 -0.39249142681E+02  0.58064949342E+02  0.00000000000E+00 0. -1.
         11    1    1    2    0    0  0.17591598447E+02 -0.39430480791E+02 -0.18781688811E+01  0.43217527344E+02  0.00000000000E+00 0.  1.
</event>
<event>
 7    1  0.4966153E-006  0.7106411E+02  0.7561462E-02  0.1356511E+00
         -2   -1    0    0    0  501 -0.00000000000E+00  0.00000000000E+00  0.15993817038E+02  0.15993817038E+02  0.00000000000E+00 0.  1.
          2   -1    0    0  501    0  0.00000000000E+00 -0.00000000000E+00 -0.72944194178E+03  0.72944194178E+03  0.00000000000E+00 0. -1.
         23    2    1    2    0    0  0.29525169000E+02 -0.18092097817E+02 -0.38034158904E+03  0.40187906309E+03  0.12509195575E+03 0.  0.
          5    1    3    3  502    0  0.38919056513E+02 -0.30017305577E+02 -0.38278034530E+03  0.38594558780E+03  0.41800000000E+01 0.  1.
         -5    1    3    3    0  502 -0.93938875124E+01  0.11925207760E+02  0.24387562646E+01  0.15933475290E+02  0.41800000000E+01 0.  1.
        -11    1    1    2    0    0  0.22194639180E+02  0.11254746897E+02 -0.51971754462E+02  0.57622344606E+02  0.00000000000E+00 0.  1.
         11    1    1    2    0    0 -0.51719808180E+02  0.68373509202E+01 -0.28113478124E+03  0.28593435112E+03  0.00000000000E+00 0. -1.
</event>
<event>
 7    1  0.4966153E-006  0.1545623E+03  0.7561462E-02  0.1194976E+00
          2   -1    0    0  501    0  0.00000000000E+00  0.00000000000E+00  0.10341304162E+04  0.10341304162E+04  0.00000000000E+00 0. -1.
         -2   -1    0    0    0  501 -0.00000000000E+00 -0.00000000000E+00 -0.29175911116E+02  0.29175911116E+02  0.00000000000E+00 0.  1.
         23    2    1    2    0    0 -0.58203500012E+02 -0.11984308783E+03  0.42887310359E+03  0.46618615178E+03  0.12508947205E+03 0.  0.
          5    1    3    3  502    0  0.13402712671E+02 -0.85517926884E+02  0.31896660256E+03  0.33053005079E+03  0.41800000000E+01 0.  1.
         -5    1    3    3    0  502 -0.71606212683E+02 -0.34325160947E+02  0.10990650103E+03  0.13565610100E+03  0.41800000000E+01 0.  1.
        -11    1    1    2    0    0 -0.69412825700E+01  0.36537169122E+02  0.62204906689E+02  0.72474799395E+02  0.00000000000E+00 0.  1.
         11    1    1    2    0    0  0.65144782582E+02  0.83305918709E+02  0.51387649483E+03  0.52464537616E+03  0.00000000000E+00 0. -1.
</event>
<event>
 7    1  0.4966153E-006  0.9362704E+02  0.7561462E-02  0.1294299E+00
          3   -1    0    0  501    0  0.00000000000E+00  0.00000000000E+00  0.21512605246E+02  0.21512605246E+02  0.00000000000E+00 0. -1.
         -3   -1    0    0    0  501 -0.00000000000E+00 -0.00000000000E+00 -0.61711868812E+03  0.61711868812E+03  0.00000000000E+00 0.  1.
         23    2    1    2    0    0  0.23930664559E+02  0.24823256464E+02 -0.28504202457E+03  0.31318300061E+03  0.12508303375E+03 0.  0.
          5    1    3    3  502    0 -0.18690104263E+02  0.44659404157E+02 -0.24926984433E+03  0.25396202485E+03  0.41800000000E+01 0.  1.
         -5    1    3    3    0  502  0.42620768822E+02 -0.19836147692E+02 -0.35772180240E+02  0.59220975755E+02  0.41800000000E+01 0.  1.
        -11    1    1    2    0    0 -0.55914910405E+02 -0.13360785979E+02 -0.24440060113E+03  0.25107098925E+03  0.00000000000E+00 0.  1.
         11    1    1    2    0    0  0.31984245847E+02 -0.11462470485E+02 -0.66163457172E+02  0.74377303507E+02  0.00000000000E+00 0. -1.
</event>
<event>
 6    1  0.4966153E-006  0.1179407E+03  0.7561462E-02  0.1246533E+00
         -1   -1    0    0    0  501 -0.00000000000E+00  0.00000000000E+00  0.42919051220E+03  0.42919051220E+03  0.00000000000E+00 0.  1.
          1   -1    0    0  501    0  0.00000000000E+00 -0.00000000000E+00 -0.45654544740E+02  0.45654544740E+02  0.00000000000E+00 0. -1.
          5    1    1    2  502    0  0.81218742433E+02  0.53920065205E+02  0.16433181816E+03  0.19111848789E+03  0.41800000000E+01 0. -1.
         -5    1    1    2    0  502 -0.79129293392E+02 -0.27578767931E+02  0.10922191138E+03  0.13772774535E+03  0.41800000000E+01 0.  1.
        -11    1    1    2    0    0  0.22716792842E+02 -0.11050183921E+02 -0.63703223811E+01  0.26052643800E+02  0.00000000000E+00 0.  1.
         11    1    1    2    0    0 -0.24806241883E+02 -0.15291113353E+02  0.11635256030E+03  0.11994617990E+03  0.00000000000E+00 0. -1.
</event>
<event>
 7    1  0.4966153E-006  0.1428930E+03  0.7561462E-02  0.1209488E+00
         -2   -1    0    0    0  501 -0.00000000000E+00  0.00000000000E+00  0.51682251421E+02  0.51682251421E+02  0.00000000000E+00 0.  1.
          2   -1    0    0  501    0  0.00000000000E+00 -0.00000000000E+00 -0.43011259922E+03  0.43011259922E+03  0.00000000000E+00 0. -1.
         23    2    1    2    0    0 -0.53546212061E+02 -0.64709792067E+02 -0.21357088787E+03  0.26137387600E+03  0.12509686205E+03 0.  0.
          5    1    3    3  502    0  0.36130951474E+02 -0.45655984159E+02 -0.93882885297E+02  0.11055036452E+03  0.41800000000E+01 0. -1.
         -5    1    3    3    0  502 -0.89677163535E+02 -0.19053807908E+02 -0.11968800257E+03  0.15082351148E+03  0.41800000000E+01 0. -1.
        -11    1    1    2    0    0  0.79787490922E+02  0.72975076624E+02 -0.90053378176E+02  0.14071608450E+03  0.00000000000E+00 0.  1.
         11    1    1    2    0    0 -0.26241278861E+02 -0.82652845578E+01 -0.74806081754E+02  0.79704890141E+02  0.00000000000E+00 0. -1.
</event>
<event>
 7    1  0.4966153E-006  0.1621836E+03  0.7561462E-02  0.1186253E+00
         -2   -1    0    0    0  501 -0.00000000000E+00  0.00000000000E+00  0.15391477206E+03  0.15391477206E+03  0.00000000000E+00 0.  1.
          2   -1    0    0  501    0  0.00000000000E+00 -0.00000000000E+00 -0.18557598065E+03  0.18557598065E+03  0.00000000000E+00 0. -1.
         23    2    1    2    0    0 -0.25382232119E+02  0.11818225700E+03 -0.27023072481E+02  0.17603812631E+03  0.12509145411E+03 0.  0.
          5    1    3    3  502    0 -0.55571760674E+02  0.12559050637E+03 -0.38414389850E+02  0.14266861471E+03  0.41800000000E+01 0. -1.
         -5    1    3    3    0  502  0.30189528555E+02 -0.74082493695E+01  0.11391317369E+02  0.33369511601E+02  0.41800000000E+01 0. -1.
        -11    1    1    2    0    0  0.61733533884E+02 -0.54856029660E+02 -0.27330942554E+02  0.86989617868E+02  0.00000000000E+00 0. -1.
         11    1    1    2    0    0 -0.36351301765E+02 -0.63326227339E+02  0.22692806448E+02  0.76463008531E+02  0.00000000000E+00 0.  1.
</event>
<event>
 7    1  0.4966153E-006  0.5931350E+02  0.7561462E-02  0.1400735E+00
          1   -1    0    0  501    0  0.00000000000E+00  0.00000000000E+00  0.29850187376E+03  0.29850187376E+03  0.00000000000E+00 0. -1.
         -1   -1    0    0    0  501 -0.00000000000E+00 -0.00000000000E+00 -0.50871957208E+02  0.50871957208E+02  0.00000000000E+00 0.  1.
         23    2    1    2    0    0  0.40103609025E+01 -0.45756517204E+02  0.85050968602E+02  0.15808569881E+03  0.12509068329E+03 0.  0.
          5    1    3    3  502    0  0.17675127630E+01 -0.39605831160E+02  0.11783411453E+03  0.12439492317E+03  0.41800000000E+01 0.  1.
         -5    1    3    3    0  502  0.22428481396E+01 -0.61506860439E+01 -0.32783145926E+02  0.33690775643E+02  0.41800000000E+01 0.  1.
        -11    1    1    2    0    0 -0.27323242112E+02  0.11699689908E+02  0.14217406908E+03  0.14524774774E+03  0.00000000000E+00 0. -1.
         11    1    1    2    0    0  0.23312881210E+02  0.34056827296E+02  0.20404878864E+02  0.46040384416E+02  0.00000000000E+00 0.  1.
</event>
<event>
 7    1  0.4966153E-006  0.1099239E+03  0.7561462E-02  0.1260711E+00
         -1   -1    0    0    0  501 -0.00000000000E+00  0.00000000000E+00  0.32085041313E+03  0.32085041313E+03  0.00000000000E+00 0.  1.
          1   -1    0    0  501    0  0.00000000000E+00 -0.00000000000E+00 -0.70057536532E+02  0.70057536532E+02  0.00000000000E+00 0. -1.
         23    2    1    2    0    0 -0.33743165536E+02  0.45648252944E+02  0.24822577474E+03  0.28370013616E+03  0.12508943918E+03 0.  0.
          5    1    3    3  502    0  0.10952128877E+02 -0.27084795670E+02  0.15267080298E+03  0.15549720822E+03  0.41800000000E+01 0.  1.
         -5    1    3    3    0  502 -0.44695294414E+02  0.72733048613E+02  0.95554971766E+02  0.12820292794E+03  0.41800000000E+01 0.  1.
        -11    1    1    2    0    0  0.57607689183E+01  0.26688860532E+02 -0.90879142483E+01  0.28776238816E+02  0.00000000000E+00 0. -1.
         11    1    1    2    0    0  0.27982396618E+02 -0.72337113476E+02  0.11655016101E+02  0.78431574680E+02  0.00000000000E+00 0.  1.
</event>
<event>
 7    1  0.4966153E-006  0.1100810E+03  0.7561462E-02  0.1260420E+00
         -2   -1    0    0    0  501 -0.00000000000E+00  0.00000000000E+00  0.35405673828E+03  0.35405673828E+03  0.00000000000E+00 0.  1.
          2   -1    0    0  501    0  0.00000000000E+00 -0.00000000000E+00 -0.52644502484E+02  0.52644502484E+02  0.00000000000E+00 0. -1.
         23    2    1    2    0    0  0.71002896535E+01 -0.50346024878E+02  0.26268529996E+03  0.29535714012E+03  0.12508851694E+03 0.  0.
          5    1    3    3  502    0  0.50566829868E+02 -0.67399763710E+02  0.20013592370E+03  0.21719022258E+03  0.41800000000E+01 0. -1.
         -5    1    3    3    0  502 -0.43466540214E+02  0.17053738832E+02  0.62549376264E+02  0.78166917538E+02  0.41800000000E+01 0. -1.
        -11    1    1    2    0    0  0.22283641868E+02  0.54839448846E+02  0.51999474002E+02  0.78790044683E+02  0.00000000000E+00 0.  1.
         11    1    1    2    0    0 -0.29383931522E+02 -0.44934239674E+01 -0.13272538162E+02  0.32554055967E+02  0.00000000000E+00 0. -1.
</event>
<event>
 7    1  0.4966153E-006  0.6540297E+02  0.7561462E-02  0.1376462E+00
          2   -1    0    0  501    0  0.00000000000E+00  0.00000000000E+00  0.21660444855E+02  0.21660444855E+02  0.00000000000E+00 0. -1.
         -2   -1    0    0    0  501 -0.00000000000E+00 -0.00000000000E+00 -0.64976876507E+03  0.64976876507E+03  0.00000000000E+00 0.  1.
         23    2    1    2    0    0 -0.57628780580E+01 -0.71662305069E+01 -0.47944798360E+03  0.49558500880E+03  0.12509822679E+03 0.  0.
          5    1    3    3  502    0 -0.22134165324E+02 -0.11737998374E+02 -0.47727061132E+03  0.47794603326E+03  0.41800000000E+01 0. -1.
         -5    1    3    3    0  502  0.16371287266E+02  0.45717678671E+01 -0.21773722857E+01  0.17638975544E+02  0.41800000000E+01 0. -1.
        -11    1    1    2    0    0  0.26873732684E+02  0.40404715229E+02 -0.11193113193E+03  0.12199720003E+03  0.00000000000E+00 0.  1.
         11    1    1    2    0    0 -0.21110854626E+02 -0.33238484722E+02 -0.36729204684E+02  0.53847001090E+02  0.00000000000E+00 0. -1.
</event>
<event>
 7    1  0.4966153E-006  0.9796031E+02  0.7561462E-02  0.1284645E+00
         -1   -1    0    0    0  501 -0.00000000000E+00  0.00000000000E+00  0.10740984102E+03  0.10740984102E+03  0.00000000000E+00 0.  1.
          1   -1    0    0  501    0  0.00000000000E+00 -0.00000000000E+00 -0.11130369562E+03  0.11130369562E+03  0.00000000000E+00 0. -1.
         23    2    1    2    0    0  0.15003162597E+02  0.96735663378E+01  0.40257217127E+00  0.12635882504E+03  0.12509083830E+03 0.  0.
          5    1    3    3  502    0 -0.24456292283E+02 -0.41033088245E+02  0.28857178070E+02  0.55964575307E+02  0.41800000000E+01 0.  1.
         -5    1    3    3    0  502  0.39459454880E+02  0.50706654583E+02 -0.28454605899E+02  0.70394249732E+02  0.41800000000E+01 0.  1.
        -11    1    1    2    0    0  0.18895003884E+02  0.27441299047E+02  0.17422669203E+02  0.37597812002E+02  0.00000000000E+00 0.  1.
         11    1    1    2    0    0 -0.33898166481E+02 -0.37114865385E+02 -0.21719095971E+02  0.54756899594E+02  0.00000000000E+00 0. -1.
</event>
<event>
 7    1  0.4966153E-006  0.2033593E+03  0.7561462E-02  0.1146935E+00
          1   -1    0    0  501    0  0.00000000000E+00  0.00000000000E+00  0.80952022830E+03  0.80952022830E+03  0.00000000000E+00 0. -1.
         -1   -1    0    0    0  501 -0.00000000000E+00 -0.00000000000E+00 -0.74498125990E+02  0.74498125990E+02  0.00000000000E+00 0.  1.
         23    2    1    2    0    0  0.11602906668E+03 -0.13357301991E+03  0.14270920149E+03  0.25945684351E+03  0.12508973376E+03 0.  0.
          5    1    3    3  502    0  0.16082617472E+02  0.22878612802E+02  0.34215853064E+02  0.44387819381E+02  0.41800000000E+01 0. -1.
         -5    1    3    3    0  502  0.99946449203E+02 -0.15645163271E+03  0.10849334843E+03  0.21506902413E+03  0.41800000000E+01 0. -1.
        -11    1    1    2    0    0 -0.24117274373E+02  0.85865666767E+02  0.34717464009E+03  0.35844774566E+03  0.00000000000E+00 0.  1.
         11    1    1    2    0    0 -0.91911792302E+02  0.47707353146E+02  0.24513826074E+03  0.26611376512E+03  0.00000000000E+00 0. -1.
</event>
<event>
 7    1  0.4966153E-006  0.1016939E+03  0.7561462E-02  0.1276774E+00
         -1   -1    0    0    0  501 -0.00000000000E+00  0.00000000000E+00  0.32470911335E+03  0.32470911335E+03  0.00000000000E+00 0.  1.
          1   -1    0    0  501    0  0.00000000000E+00 -0.00000000000E+00 -0.82302665431E+02  0.82302665431E+02  0.00000000000E+00 0. -1.
         23    2    1    2    0    0 -0.66851867646E+01 -0.30044813471E+02  0.27604223215E+03  0.30461876658E+03  0.12508355801E+03 0.  0.
          5    1    3    3  502    0  0.11781936328E+02  0.40974760507E+02  0.44840934092E+02  0.62015536703E+02  0.41800000000E+01 0.  1.
         -5    1    3    3    0  502 -0.18467123092E+02 -0.71019573979E+02  0.23120129806E+03  0.24260322988E+03  0.41800000000E+01 0.  1.
        -11    1    1    2    0    0 -0.35798784881E+02  0.26256707688E+02 -0.39393893116E+02  0.59353572028E+02  0.00000000000E+00 0. -1.
         11    1    1    2    0    0  0.42483971645E+02  0.37881057832E+01  0.57581088823E+01  0.43039440169E+02  0.00000000000E+00 0.  1.
</event>
<event>
 7    1  0.4966153E-006  0.1703259E+03  0.7561462E-02  0.1177508E+00
          2   -1    0    0  501    0  0.00000000000E+00  0.00000000000E+00  0.11611540099E+04  0.11611540099E+04  0.00000000000E+00 0.  1.
         -2   -1    0    0    0  501 -0.00000000000E+00 -0.00000000000E+00 -0.30975634524E+02  0.30975634524E+02  0.00000000000E+00 0. -1.
         23    2    1    2    0    0  0.15149490821E+03  0.24222544901E+02  0.67173362674E+03  0.70029404675E+03  0.12509295631E+03 0.  0.
          5    1    3    3  502    0  0.11565618349E+03 -0.58430367905E+01  0.61867957858E+03  0.62943815202E+03  0.41800000000E+01 0.  1.
         -5    1    3    3    0  502  0.35838724720E+02  0.30065581691E+02  0.53054048159E+02  0.70855894730E+02  0.41800000000E+01 0.  1.
        -11    1    1    2    0    0 -0.19443395359E+02 -0.40333924759E+02  0.10297300558E+03  0.11228673558E+03  0.00000000000E+00 0. -1.
         11    1    1    2    0    0 -0.13205151285E+03  0.16111379859E+02  0.35547174303E+03  0.37954886207E+03  0.00000000000E+00 0.  1.
</event>
<event>
 7    1  0.4966153E-006  0.1409693E+03  0.7561462E-02  0.1212031E+00
          2   -1    0    0  501    0  0.00000000000E+00  0.00000000000E+00  0.49664341866E+02  0.49664341866E+02  0.00000000000E+00 0. -1.
         -2   -1    0    0    0  501 -0.00000000000E+00 -0.00000000000E+00 -0.57556123782E+03  0.57556123782E+03  0.00000000000E+00 0.  1.
         23    2    1    2    0    0 -0.87391565327E+02 -0.53819129840E+02 -0.41900602920E+03  0.44916253510E+03  0.12508855265E+03 0.  0.
          5    1    3    3  502    0  0.27956884959E+02  0.78675835650E+01 -0.54884609482E+02  0.62235673418E+02  0.41800000000E+01 0.  1.
         -5    1    3    3    0  502 -0.11534845029E+03 -0.61686713405E+02 -0.36412141972E+03  0.38692686168E+03  0.41800000000E+01 0.  1.
        -11    1    1    2    0    0  0.80979993271E+02  0.14975194977E+02 -0.10902866370E+03  0.13663551985E+03  0.00000000000E+00 0.  1.
         11    1    1    2    0    0  0.64115720565E+01  0.38843934864E+02  0.21377969408E+01  0.39427524747E+02  0.00000000000E+00 0. -1.
</event>
<event>
 7    1  0.4966153E-006  0.7184771E+02  0.7561462E-02  0.1353920E+00
          2   -1    0    0  501    0  0.00000000000E+00  0.00000000000E+00  0.27045053120E+02  0.27045053120E+02  0.00000000000E+00 0. -1.
         -2   -1    0    0    0  501 -0.00000000000E+00 -0.00000000000E+00 -0.54131468829E+03  0.54131468829E+03  0.00000000000E+00 0.  1.
         23    2    1    2    0    0 -0.30302991821E+02 -0.18610954362E+02 -0.37958397243E+03  0.40124339007E+03  0.12509047531E+03 0.  0.
          5    1    3    3  502    0 -0.19243421564E+02  0.20449387056E+02 -0.11061766718E+02  0.30468373560E+02  0.41800000000E+01 0.  1.
         -5    1    3    3    0  502 -0.11059570257E+02 -0.39060341417E+02 -0.36852220571E+03  0.37077501651E+03  0.41800000000E+01 0.  1.
        -11    1    1    2    0    0  0.27882940532E+02  0.42310975691E+02 -0.13402464618E+03  0.14328392381E+03  0.00000000000E+00 0.  1.
         11    1    1    2    0    0  0.24200512888E+01 -0.23700021330E+02 -0.66101655690E+00  0.23832427534E+02  0.00000000000E+00 0. -1.
</event>
<event>
 7    1  0.4966153E-006  0.1093345E+03  0.7561462E-02  0.1261807E+00
          2   -1    0    0  501    0  0.00000000000E+00  0.00000000000E+00  0.20934971265E+03  0.20934971265E+03  0.00000000000E+00 0. -1.
         -2   -1    0    0    0  501 -0.00000000000E+00 -0.00000000000E+00 -0.66313191283E+02  0.66313191283E+02  0.00000000000E+00 0.  1.
         23    2    1    2    0    0  0.26748099911E+02  0.90942921390E+01  0.38556824861E+02  0.13391490081E+03  0.12509358464E+03 0.  0.
          5    1    3    3  502    0 -0.39027262624E+02 -0.27239610773E+02 -0.31339301002E+01  0.47879197370E+02  0.41800000000E+01 0. -1.
         -5    1    3    3    0  502  0.65775362535E+02  0.36333902912E+02  0.41690754962E+02  0.86035703441E+02  0.41800000000E+01 0. -1.
        -11    1    1    2    0    0 -0.31940605751E+02  0.37209825659E+02  0.57678489706E+02  0.75707209670E+02  0.00000000000E+00 0. -1.
         11    1    1    2    0    0  0.51925058393E+01 -0.46304117798E+02  0.46801206804E+02  0.66040793456E+02  0.00000000000E+00 0.  1.
</event>
<event>
 7    1  0.4966153E-006  0.1144892E+03  0.7561462E-02  0.1252475E+00
         -1   -1    0    0    0  501 -0.00000000000E+00  0.00000000000E+00  0.20009891817E+03  0.20009891817E+03  0.00000000000E+00 0.  1.
          1   -1    0    0  501    0  0.00000000000E+00 -0.00000000000E+00 -0.80840140502E+02  0.80840140502E+02  0.00000000000E+00 0. -1.
         23    2    1    2    0    0 -0.32239636690E+02 -0.50623447988E+02  0.96332696259E+02  0.16890638580E+03  0.12508897288E+03 0.  0.
          5    1    3    3  502    0  0.30703665736E+02 -0.62584977522E+02  0.28276845126E+02  0.75343525743E+02  0.41800000000E+01 0. -1.
         -5    1    3    3    0  502 -0.62943302426E+02  0.11961529534E+02  0.68055851133E+02  0.93562860059E+02  0.41800000000E+01 0. -1.
        -11    1    1    2    0    0  0.32852719343E-02  0.61054421884E+02  0.41085460313E+02  0.73591150905E+02  0.00000000000E+00 0.  1.
         11    1    1    2    0    0  0.32236351418E+02 -0.10430973896E+02 -0.18159378901E+02  0.38441521968E+02  0.00000000000E+00 0. -1.
</event>
<event>
 7    1  0.4966153E-006  0.2990920E+03  0.7561462E-02  0.1085695E+00
         -1   -1    0    0    0  501 -0.00000000000E+00  0.00000000000E+00  0.13545440416E+03  0.13545440416E+03  0.00000000000E+00 0.  1.
          1   -1    0    0  501    0  0.00000000000E+00 -0.00000000000E+00 -0.73781306820E+03  0.73781306820E+03  0.00000000000E+00 0. -1.
         23    2    1    2    0    0  0.37681240081E+02 -0.27773885160E+03 -0.17664310338E+03  0.35412943267E+03  0.12508446572E+03 0.  0.
          5    1    3    3  502    0 -0.95506781560E+01  0.69148208250E+01  0.46331225159E+01  0.13340480671E+02  0.41800000000E+01 0. -1.
         -5    1    3    3    0  502  0.47231918237E+02 -0.28465367243E+03 -0.18127622590E+03  0.34078895200E+03  0.41800000000E+01 0. -1.
        -11    1    1    2    0    0 -0.11417675533E+02  0.26925668454E+03 -0.38523124128E+03  0.47014107961E+03  0.00000000000E+00 0. -1.
         11    1    1    2    0    0 -0.26263564547E+02  0.84821670630E+01 -0.40484319385E+02  0.48996960078E+02  0.00000000000E+00 0.  1.
</event>
<event>
 7    1  0.4966153E-006  0.2637576E+03  0.7561462E-02  0.1104906E+00
          2   -1    0    0  501    0  0.00000000000E+00  0.00000000000E+00  0.15833882189E+04  0.15833882189E+04  0.00000000000E+00 0. -1.
         -2   -1    0    0    0  501 -0.00000000000E+00 -0.00000000000E+00 -0.53081968225E+02  0.53081968225E+02  0.00000000000E+00 0.  1.
         23    2    1    2    0    0  0.11500437870E+03 -0.21573274797E+03  0.46871095976E+03  0.54323291402E+03  0.12508161099E+03 0.  0.
          5    1    3    3  502    0  0.13636462663E+03 -0.16837260389E+03  0.32746936857E+03  0.39268091994E+03  0.41800000000E+01 0.  1.
         -5    1    3    3    0  502 -0.21360247924E+02 -0.47360144085E+02  0.14124159119E+03  0.15055199408E+03  0.41800000000E+01 0.  1.
        -11    1    1    2    0    0 -0.11787508701E+03  0.14049873860E+03  0.68073910265E+03  0.70501074996E+03  0.00000000000E+00 0.  1.
         11    1    1    2    0    0  0.28707083058E+01  0.75234009367E+02  0.38085618830E+03  0.38822652317E+03  0.00000000000E+00 0. -1.
</event>
<event>
 7    1  0.4966153E-006  0.9496928E+02  0.7561462E-02  0.1291245E+00
          1   -1    0    0  501    0  0.00000000000E+00  0.00000000000E+00  0.78323066875E+03  0.78323066875E+03  0.00000000000E+00 0. -1.
         -1   -1    0    0    0  501 -0.00000000000E+00 -0.00000000000E+00 -0.23127553308E+02  0.23127553308E+02  0.00000000000E+00 0.  1.
         23    2    1    2    0    0  0.31667453544E+02  0.34104604035E+02  0.33769775479E+03  0.36311481993E+03  0.12508655895E+03 0.  0.
          5    1    3    3  502    0  0.38266528741E+02  0.51462717634E+02  0.71108632660E+02  0.95847006041E+02  0.41800000000E+01 0.  1.
         -5    1    3    3    0  502 -0.65990751967E+01 -0.17358113600E+02  0.26658912214E+03  0.26726781389E+03  0.41800000000E+01 0.  1.
        -11    1    1    2    0    0 -0.15817261415E+01  0.33030770999E+02  0.32173974566E+02  0.46137818867E+02  0.00000000000E+00 0.  1.
         11    1    1    2    0    0 -0.30085727403E+02 -0.67135375034E+02  0.39023138608E+03  0.39710558326E+03  0.00000000000E+00 0. -1.
</event>
<event>
 7    1  0.4966153E-006  0.9999450E+02  0.7561462E-02  0.1280308E+00
         -1   -1    0    0    0  501 -0.00000000000E+00  0.00000000000E+00  0.12853506057E+03  0.12853506057E+03  0.00000000000E+00 0.  1.
          1   -1    0    0  501    0  0.00000000000E+00 -0.00000000000E+00 -0.10604195386E+03  0.10604195386E+03  0.00000000000E+00 0. -1.
         23    2    1    2    0    0  0.27908464212E+02 -0.16831678159E+02  0.40577998000E+02  0.13548552942E+03  0.12509023541E+03 0.  0.
          5    1    3    3  502    0 -0.49404630820E+02 -0.14824177344E+02  0.18351383649E+02  0.54907371657E+02  0.41800000000E+01 0. -1.
         -5    1    3    3    0  502  0.77313095032E+02 -0.20075008154E+01  0.22226614352E+02  0.80578157763E+02  0.41800000000E+01 0. -1.
        -11    1    1    2    0    0 -0.47669408822E+02  0.54426077928E+01  0.22147189736E+02  0.52844039685E+02  0.00000000000E+00 0.  1.
         11    1    1    2    0    0  0.19760944610E+02  0.11389070366E+02 -0.40232081030E+02  0.46247445331E+02  0.00000000000E+00 0. -1.
</event>
<event>
 7    1  0.4966153E-006  0.1071244E+03  0.7561462E-02  0.1265990E+00
         -2   -1    0    0    0  501 -0.00000000000E+00  0.00000000000E+00  0.39035163538E+02  0.39035163538E+02  0.00000000000E+00 0.  1.
          2   -1    0    0  501    0  0.00000000000E+00 -0.00000000000E+00 -0.44203840265E+03  0.44203840265E+03  0.00000000000E+00 0. -1.
         23    2    1    2    0    0 -0.21652839149E+01  0.42567591940E+02 -0.91880743842E+02  0.15252031134E+03  0.11403370530E+03 0.  0.
          5    1    3    3  502    0 -0.54288081763E+02  0.15728656868E+02 -0.69377387162E+02  0.89583931136E+02  0.41800000000E+01 0. -1.
         -5    1    3    3    0  502  0.52122797848E+02  0.26838935072E+02 -0.22503356681E+02  0.62936380205E+02  0.41800000000E+01 0.  1.
        -11    1    1    2    0    0  0.42963852933E+02 -0.48514223587E+01 -0.80988607914E+02  0.91807317625E+02  0.00000000000E+00 0.  1.
         11    1    1    2    0    0 -0.40798569019E+02 -0.37716169581E+02 -0.23013388736E+03  0.23674593722E+03  0.00000000000E+00 0. -1.
</event>
<event>
 7    1  0.4966153E-006  0.8137202E+02  0.7561462E-02  0.1325202E+00
         -2   -1    0    0    0  501 -0.00000000000E+00  0.00000000000E+00  0.12538736764E+03  0.12538736764E+03  0.00000000000E+00 0.  1.
          2   -1    0    0  501    0  0.00000000000E+00 -0.00000000000E+00 -0.10311747776E+03  0.10311747776E+03  0.00000000000E+00 0. -1.
         23    2    1    2    0    0  0.25632789001E+02  0.17324712318E+01  0.33362945498E+02  0.13198633849E+03  0.12508903264E+03 0.  0.
          5    1    3    3  502    0 -0.41379641506E+02 -0.21160306884E+02 -0.11490318009E+02  0.48057602172E+02  0.41800000000E+01 0.  1.
         -5    1    3    3    0  502  0.67012430507E+02  0.22892778115E+02  0.44853263507E+02  0.83928736315E+02  0.41800000000E+01 0.  1.
        -11    1    1    2    0    0 -0.31031783662E+02  0.96887583204E+01 -0.47738605545E+02  0.57756541573E+02  0.00000000000E+00 0. -1.
         11    1    1    2    0    0  0.53989946618E+01 -0.11421229552E+02  0.36645549930E+02  0.38761965346E+02  0.00000000000E+00 0.  1.
</event>
<event>
 7    1  0.4966153E-006  0.1024358E+03  0.7561462E-02  0.1275256E+00
          2   -1    0    0  501    0  0.00000000000E+00  0.00000000000E+00  0.17426047136E+03  0.17426047136E+03  0.00000000000E+00 0. -1.
         -2   -1    0    0    0  501 -0.00000000000E+00 -0.00000000000E+00 -0.71172481842E+02  0.71172481842E+02  0.00000000000E+00 0.  1.
         23    2    1    2    0    0 -0.20605662431E+02 -0.16766275200E+02  0.61198056325E+02  0.14176940499E+03  0.12509061030E+03 0.  0.
          5    1    3    3  502    0  0.50207643986E+01 -0.62430762668E+02  0.22502474814E+01  0.62811975102E+02  0.41800000000E+01 0. -1.
         -5    1    3    3    0  502 -0.25626426830E+02  0.45664487468E+02  0.58947808843E+02  0.78957429892E+02  0.41800000000E+01 0. -1.
        -11    1    1    2    0    0 -0.33589116756E+02  0.93765111759E+01  0.33445517049E+02  0.48319254309E+02  0.00000000000E+00 0. -1.
         11    1    1    2    0    0  0.54194779187E+02  0.73897640239E+01  0.84444161474E+01  0.55344293902E+02  0.00000000000E+00 0.  1.
</event>
<event>
 7    1  0.4966153E-006  0.9183390E+02  0.7561462E-02  0.1298470E+00
          2   -1    0    0  501    0  0.00000000000E+00  0.00000000000E+00  0.24837920414E+02  0.24837920414E+02  0.00000000000E+00 0. -1.
         -2   -1    0    0    0  501 -0.00000000000E+00 -0.00000000000E+00 -0.53607072279E+03  0.53607072279E+03  0.00000000000E+00 0.  1.
         23    2    1    2    0    0 -0.17470388822E+02 -0.31945074947E+02 -0.27661992669E+03  0.30576395875E+03  0.12508921747E+03 0.  0.
          5    1    3    3  502    0 -0.43829969482E+02 -0.52908855754E+02 -0.25806093433E+03  0.26708300483E+03  0.41800000000E+01 0.  1.
         -5    1    3    3    0  502  0.26359580660E+02  0.20963780807E+02 -0.18558992359E+02  0.38680953913E+02  0.41800000000E+01 0.  1.
        -11    1    1    2    0    0  0.17891474337E+02 -0.21205784948E+02 -0.20404446515E+02  0.34440261422E+02  0.00000000000E+00 0. -1.
         11    1    1    2    0    0 -0.42108551506E+00  0.53150859896E+02 -0.21420842917E+03  0.22070442303E+03  0.00000000000E+00 0.  1.
</event>
<event>
 7    1  0.8218495E-006  0.4527726E+02  0.7561462E-02  0.1472618E+00
          2   -1    0    0  501    0  0.00000000000E+00  0.00000000000E+00  0.14774963282E+02  0.14774963282E+02  0.00000000000E+00 0. -1.
         -2   -1    0    0    0  501 -0.00000000000E+00 -0.00000000000E+00 -0.61137824567E+03  0.61137824567E+03  0.00000000000E+00 0.  1.
         23    2    1    2    0    0  0.71069245782E+01 -0.26798656497E+02 -0.56239433500E+03  0.57487981192E+03  0.11589104254E+03 0.  0.
          5    1    3    3  502    0  0.25065908633E+02 -0.24970269202E+02 -0.46144375657E+02  0.58297426395E+02  0.41800000000E+01 0. -1.
         -5    1    3    3    0  502 -0.17958984054E+02 -0.18283872954E+01 -0.51624995935E+03  0.51658238552E+03  0.41800000000E+01 0.  1.
        -11    1    1    2    0    0  0.63723991718E+01  0.20597449618E+02 -0.27619715720E+02  0.35038708573E+02  0.00000000000E+00 0.  1.
         11    1    1    2    0    0 -0.13479323750E+02  0.62012068788E+01 -0.65892316681E+01  0.16234688463E+02  0.00000000000E+00 0. -1.
</event>
<event>
 7    1  0.4966153E-006  0.2176905E+03  0.7561462E-02  0.1135617E+00
         -1   -1    0    0    0  501 -0.00000000000E+00  0.00000000000E+00  0.37520182120E+02  0.37520182120E+02  0.00000000000E+00 0.  1.
          1   -1    0    0  501    0  0.00000000000E+00 -0.00000000000E+00 -0.13803241113E+04  0.13803241113E+04  0.00000000000E+00 0. -1.
         23    2    1    2    0    0  0.19512288940E+03 -0.17386761351E+02 -0.82125670230E+03  0.85351387455E+03  0.12509245197E+03 0.  0.
          5    1    3    3  502    0  0.73172296569E+02 -0.64333405802E+02 -0.27337968487E+03  0.29025315947E+03  0.41800000000E+01 0. -1.
         -5    1    3    3    0  502  0.12195059283E+03  0.46946644451E+02 -0.54787701743E+03  0.56326071507E+03  0.41800000000E+01 0. -1.
        -11    1    1    2    0    0 -0.14558151385E+03 -0.17349955404E+02 -0.43247999744E+03  0.45665517222E+03  0.00000000000E+00 0.  1.
         11    1    1    2    0    0 -0.49541375545E+02  0.34736716754E+02 -0.89067229450E+02  0.10767524666E+03  0.00000000000E+00 0. -1.
</event>
<event>
 7    1  0.4966153E-006  0.9208683E+02  0.7561462E-02  0.1297875E+00
         -3   -1    0    0    0  501 -0.00000000000E+00  0.00000000000E+00  0.41241223646E+03  0.41241223646E+03  0.00000000000E+00 0.  1.
          3   -1    0    0  501    0  0.00000000000E+00 -0.00000000000E+00 -0.48240246373E+02  0.48240246373E+02  0.00000000000E+00 0. -1.
         23    2    1    2    0    0 -0.71755796582E+02  0.89873376819E+01  0.27993068498E+03  0.31502173974E+03  0.12509133277E+03 0.  0.
          5    1    3    3  502    0 -0.55434958106E+02  0.23015965357E+02  0.36016761277E+02  0.70124523060E+02  0.41800000000E+01 0.  1.
         -5    1    3    3    0  502 -0.16320838476E+02 -0.14028627675E+02  0.24391392370E+03  0.24489721668E+03  0.41800000000E+01 0.  1.
        -11    1    1    2    0    0  0.81359231604E+02  0.88340151709E+01  0.29044515739E+02  0.86838633601E+02  0.00000000000E+00 0. -1.
         11    1    1    2    0    0 -0.96034350220E+01 -0.17821352853E+02  0.55196789377E+02  0.58792109498E+02  0.00000000000E+00 0.  1.
</event>
<event>
 7    1  0.4966153E-006  0.1764730E+03  0.7561462E-02  0.1171261E+00
         -2   -1    0    0    0  501 -0.00000000000E+00  0.00000000000E+00  0.10101192014E+03  0.10101192014E+03  0.00000000000E+00 0.  1.
          2   -1    0    0  501    0  0.00000000000E+00 -0.00000000000E+00 -0.43356524242E+03  0.43356524242E+03  0.00000000000E+00 0. -1.
         23    2    1    2    0    0 -0.11243962916E+03 -0.11690618440E+03 -0.74872267739E+02  0.21809771796E+03  0.12510408447E+03 0.  0.
          5    1    3    3  502    0 -0.28829568719E+02 -0.74707831321E+02 -0.92805901339E+02  0.12264914112E+03  0.41800000000E+01 0.  1.
         -5    1    3    3    0  502 -0.83610060436E+02 -0.42198353075E+02  0.17933633600E+02  0.95448576849E+02  0.41800000000E+01 0.  1.
        -11    1    1    2    0    0 -0.86952458648E+00  0.44574602279E+02 -0.98569996776E+02  0.10818361940E+03  0.00000000000E+00 0. -1.
         11    1    1    2    0    0  0.11330915374E+03  0.72331582117E+02 -0.15911105777E+03  0.20829582520E+03  0.00000000000E+00 0.  1.
</event>
<event>
 7    1  0.4966153E-006  0.8843493E+02  0.7561462E-02  0.1306687E+00
          3   -1    0    0  501    0  0.00000000000E+00  0.00000000000E+00  0.13648827732E+03  0.13648827732E+03  0.00000000000E+00 0. -1.
         -3   -1    0    0    0  501 -0.00000000000E+00 -0.00000000000E+00 -0.12597823777E+03  0.12597823777E+03  0.00000000000E+00 0.  1.
         23    2    1    2    0    0 -0.53317729378E+02  0.42758844923E+02 -0.19927952301E+02  0.14393063101E+03  0.12509118344E+03 0.  0.
          5    1    3    3  502    0 -0.58400996158E+02  0.54607379815E+02 -0.61017104402E+02  0.10066380537E+03  0.41800000000E+01 0. -1.
         -5    1    3    3    0  502  0.50832667805E+01 -0.11848534892E+02  0.41089152101E+02  0.43266825636E+02  0.41800000000E+01 0. -1.
        -11    1    1    2    0    0 -0.87831242908E+01 -0.89745335346E+01 -0.25474993438E+02  0.28401774859E+02  0.00000000000E+00 0.  1.
         11    1    1    2    0    0  0.62100853668E+02 -0.33784311388E+02  0.55912985289E+02  0.90134109227E+02  0.00000000000E+00 0. -1.
</event>
<event>
 7    1  0.4966153E-006  0.9734355E+02  0.7561462E-02  0.1285983E+00
         -1   -1    0    0    0  501 -0.00000000000E+00  0.00000000000E+00  0.17237216374E+02  0.17237216374E+02  0.00000000000E+00 0.  1.
          1   -1    0    0  501    0  0.00000000000E+00 -0.00000000000E+00 -0.67433962400E+03  0.67433962400E+03  0.00000000000E+00 0. -1.
         23    2    1    2    0    0 -0.14962848079E+02  0.42518677158E+01 -0.36594424999E+03  0.38704682901E+03  0.12509232010E+03 0.  0.
          5    1    3    3  502    0 -0.45679814960E+02 -0.35493847144E+02 -0.93869183625E+02  0.11034198981E+03  0.41800000000E+01 0. -1.
         -5    1    3    3    0  502  0.30716966881E+02  0.39745714860E+02 -0.27207506636E+03  0.27670483921E+03  0.41800000000E+01 0. -1.
        -11    1    1    2    0    0  0.62111934695E+01  0.40352263351E+02 -0.17716640483E+03  0.18180984319E+03  0.00000000000E+00 0.  1.
         11    1    1    2    0    0  0.87516546099E+01 -0.44604131067E+02 -0.11399175281E+03  0.12272016817E+03  0.00000000000E+00 0. -1.
</event>
<event>
 6    1  0.4966153E-006  0.1452489E+03  0.7561462E-02  0.1206436E+00
          1   -1    0    0  501    0  0.00000000000E+00  0.00000000000E+00  0.32147850759E+02  0.32147850759E+02  0.00000000000E+00 0. -1.
         -1   -1    0    0    0  501 -0.00000000000E+00 -0.00000000000E+00 -0.24406176179E+04  0.24406176179E+04  0.00000000000E+00 0.  1.
          5    1    1    2  502    0  0.43309521329E+02  0.81489338348E+02 -0.46262927450E+03  0.47176216988E+03  0.41800000000E+01 0. -1.
         -5    1    1    2    0  502 -0.54320269556E+02  0.27057630072E+02 -0.17806289556E+04  0.17816676899E+04  0.41800000000E+01 0.  1.
        -11    1    1    2    0    0  0.40292278724E+01 -0.12203525672E+03 -0.11823844024E+03  0.16996813616E+03  0.00000000000E+00 0. -1.
         11    1    1    2    0    0  0.69815203545E+01  0.13488288297E+02 -0.46973096724E+02  0.49367472727E+02  0.00000000000E+00 0.  1.
</event>
<event>
 7    1  0.4966153E-006  0.9738467E+02  0.7561462E-02  0.1285894E+00
          3   -1    0    0  501    0  0.00000000000E+00  0.00000000000E+00  0.71133084734E+02  0.71133084734E+02  0.00000000000E+00 0. -1.
         -3   -1    0    0    0  501 -0.00000000000E+00 -0.00000000000E+00 -0.21893064237E+03  0.21893064237E+03  0.00000000000E+00 0.  1.
         23    2    1    2    0    0 -0.42576648342E+02 -0.42716466391E+02 -0.10257999379E+03  0.17264835299E+03  0.12508929283E+03 0.  0.
          5    1    3    3  502    0 -0.23292288760E+02 -0.72585882872E+02 -0.14688711464E+02  0.77746200888E+02  0.41800000000E+01 0.  1.
         -5    1    3    3    0  502 -0.19284359582E+02  0.29869416482E+02 -0.87891282322E+02  0.94902152102E+02  0.41800000000E+01 0.  1.
        -11    1    1    2    0    0  0.74827808015E+01 -0.14031511449E+02 -0.48069766704E+02  0.50631786390E+02  0.00000000000E+00 0.  1.
         11    1    1    2    0    0  0.35093867540E+02  0.56747977839E+02  0.28522028558E+01  0.66783587721E+02  0.00000000000E+00 0. -1.
</event>
<event>
 7    1  0.4966153E-006  0.1746922E+03  0.7561462E-02  0.1173041E+00
         -2   -1    0    0    0  501 -0.00000000000E+00  0.00000000000E+00  0.17785285664E+03  0.17785285664E+03  0.00000000000E+00 0.  1.
          2   -1    0    0  501    0  0.00000000000E+00 -0.00000000000E+00 -0.20098314637E+03  0.20098314637E+03  0.00000000000E+00 0. -1.
         23    2    1    2    0    0  0.13947979864E+03 -0.32538180258E+01  0.50881083028E+02  0.19416874775E+03  0.12508963359E+03 0.  0.
          5    1    3    3  502    0  0.15757832925E+03  0.17644675423E+02  0.49547552500E+02  0.16617670348E+03  0.41800000000E+01 0. -1.
         -5    1    3    3    0  502 -0.18098530612E+02 -0.20898493449E+02  0.13335305284E+01  0.27992044270E+02  0.41800000000E+01 0. -1.
        -11    1    1    2    0    0 -0.12143637730E+03 -0.29897298426E+02 -0.76899748301E+02  0.14681353301E+03  0.00000000000E+00 0. -1.
         11    1    1    2    0    0 -0.18043421337E+02  0.33151116451E+02  0.28883755390E+01  0.37853722258E+02  0.00000000000E+00 0.  1.
</event>
<event>
 7    1  0.4966153E-006  0.1039713E+03  0.7561462E-02  0.1272160E+00
         -1   -1    0    0    0  501 -0.00000000000E+00  0.00000000000E+00  0.16529993587E+03  0.16529993587E+03  0.00000000000E+00 0.  1.
          1   -1    0    0  501    0  0.00000000000E+00 -0.00000000000E+00 -0.12329829277E+03  0.12329829277E+03  0.00000000000E+00 0. -1.
         23    2    1    2    0    0  0.51771569635E+02  0.40730136566E+02  0.88083749045E+02  0.16656348117E+03  0.12508160123E+03 0.  0.
          5    1    3    3  502    0 -0.17804336569E+02 -0.24661139403E+02 -0.72764188676E+01  0.31552890023E+02  0.41800000000E+01 0. -1.
         -5    1    3    3    0  502  0.69575906204E+02  0.65391275969E+02  0.95360167913E+02  0.13501059114E+03  0.41800000000E+01 0. -1.
        -11    1    1    2    0    0 -0.23757100594E+02  0.83268705437E+01  0.22093975595E+02  0.33494482520E+02  0.00000000000E+00 0.  1.
         11    1    1    2    0    0 -0.28014469040E+02 -0.49057007110E+02 -0.68176081545E+02  0.88540264947E+02  0.00000000000E+00 0. -1.
</event>
<event>
 7    1  0.4966153E-006  0.1193448E+03  0.7561462E-02  0.1244182E+00
         -2   -1    0    0    0  501 -0.00000000000E+00  0.00000000000E+00  0.46233560718E+02  0.46233560718E+02  0.00000000000E+00 0. -1.
          2   -1    0    0  501    0  0.00000000000E+00 -0.00000000000E+00 -0.43019073375E+03  0.43019073375E+03  0.00000000000E+00 0.  1.
         23    2    1    2    0    0 -0.12170292922E+02  0.82509168517E+02 -0.15272020538E+03  0.21430564191E+03  0.12509023985E+03 0.  0.
          5    1    3    3  502    0  0.37282967010E+02  0.14289828340E+02 -0.35849283695E+00  0.40147474891E+02  0.41800000000E+01 0. -1.
         -5    1    3    3    0  502 -0.49453259931E+02  0.68219340177E+02 -0.15236171254E+03  0.17415816702E+03  0.41800000000E+01 0. -1.
        -11    1    1    2    0    0  0.34222023359E+02 -0.62370987723E+01 -0.12338129794E+03  0.12819123591E+03  0.00000000000E+00 0.  1.
         11    1    1    2    0    0 -0.22051730438E+02 -0.76272069744E+02 -0.10785566972E+03  0.13392741664E+03  0.00000000000E+00 0. -1.
</event>
<event>
 7    1  0.4966153E-006  0.9144647E+02  0.7561462E-02  0.1299386E+00
         -1   -1    0    0    0  501 -0.00000000000E+00  0.00000000000E+00  0.13734315028E+03  0.13734315028E+03  0.00000000000E+00 0.  1.
          1   -1    0    0  501    0  0.00000000000E+00 -0.00000000000E+00 -0.10362148139E+03  0.10362148139E+03  0.00000000000E+00 0. -1.
         23    2    1    2    0    0  0.34007962552E+02 -0.37363201387E+02  0.19893461479E+02  0.13636578674E+03  0.12508927871E+03 0.  0.
          5    1    3    3  502    0 -0.49820346748E+01  0.24072017548E+02 -0.36505925058E+02  0.44209022413E+02  0.41800000000E+01 0. -1.
         -5    1    3    3    0  502  0.38989997226E+02 -0.61435218935E+02  0.56399386537E+02  0.92156764326E+02  0.41800000000E+01 0. -1.
        -11    1    1    2    0    0 -0.12945738975E+02  0.55677968618E+02  0.37193815466E+02  0.68198300976E+02  0.00000000000E+00 0.  1.
         11    1    1    2    0    0 -0.21062223576E+02 -0.18314767232E+02 -0.23365608052E+02  0.36400543957E+02  0.00000000000E+00 0. -1.
</event>
<event>
 6    1  0.4966153E-006  0.1015943E+03  0.7561462E-02  0.1276979E+00
         -3   -1    0    0    0  501 -0.00000000000E+00  0.00000000000E+00  0.23429680620E+03  0.23429680620E+03  0.00000000000E+00 0.  1.
          3   -1    0    0  501    0  0.00000000000E+00 -0.00000000000E+00 -0.71057959689E+02  0.71057959689E+02  0.00000000000E+00 0. -1.
          5    1    1    2  502    0 -0.44659491603E+02  0.57585730350E+02  0.66337200695E+02  0.98634087040E+02  0.41800000000E+01 0. -1.
         -5    1    1    2    0  502  0.37031917459E+02 -0.44196321225E+02  0.10022922845E+03  0.11570673427E+03  0.41800000000E+01 0.  1.
        -11    1    1    2    0    0 -0.29281575138E+02 -0.19207096391E+02  0.25916232103E+02  0.43565746645E+02  0.00000000000E+00 0. -1.
         11    1    1    2    0    0  0.36909149282E+02  0.58176872648E+01 -0.29243814741E+02  0.47448197927E+02  0.00000000000E+00 0.  1.
</event>
<event>
 6    1  0.4966153E-006  0.6227335E+02  0.7561462E-02  0.1388532E+00
          1   -1    0    0  501    0  0.00000000000E+00  0.00000000000E+00  0.53317511413E+02  0.53317511413E+02  0.00000000000E+00 0. -1.
         -1   -1    0    0    0  501 -0.00000000000E+00 -0.00000000000E+00 -0.19715860250E+03  0.19715860250E+03  0.00000000000E+00 0.  1.
          5    1    1    2  502    0 -0.37126119176E+02 -0.23133562452E+02  0.10487341401E+02  0.45177064606E+02  0.41800000000E+01 0. -1.
         -5    1    1    2    0  502  0.35077960295E+02  0.36968115452E+02 -0.16501393548E+03  0.17275467044E+03  0.41800000000E+01 0.  1.
        -11    1    1    2    0    0  0.13364547056E+02 -0.27790694082E+01  0.36501665876E+00  0.13655313323E+02  0.00000000000E+00 0.  1.
         11    1    1    2    0    0 -0.11316388175E+02 -0.11055483592E+02  0.10320486331E+02  0.18889065538E+02  0.00000000000E+00 0. -1.
</event>
<event>
 7    1  0.4966153E-006  0.9757365E+02  0.7561462E-02  0.1285483E+00
          1   -1    0    0  501    0  0.00000000000E+00  0.00000000000E+00  0.20433442886E+03  0.20433442886E+03  0.00000000000E+00 0. -1.
         -1   -1    0    0    0  501 -0.00000000000E+00 -0.00000000000E+00 -0.64723909128E+02  0.64723909128E+02  0.00000000000E+00 0.  1.
         23    2    1    2    0    0 -0.90420588532E+01 -0.30845082079E+02  0.45439995355E+02  0.13691766282E+03  0.12509386594E+03 0.  0.
          5    1    3    3  502    0  0.57749280698E+02 -0.11127581502E+02  0.15255391519E+02  0.60901575198E+02  0.41800000000E+01 0. -1.
         -5    1    3    3    0  502 -0.66791339551E+02 -0.19717500577E+02  0.30184603835E+02  0.76016087618E+02  0.41800000000E+01 0. -1.
        -11    1    1    2    0    0 -0.13799581779E+02  0.39618072121E+02  0.81877382041E+01  0.42744112492E+02  0.00000000000E+00 0.  1.
         11    1    1    2    0    0  0.22841640632E+02 -0.87729900426E+01  0.85982786168E+02  0.89396562676E+02  0.00000000000E+00 0. -1.
</event>
<event>
 7    1  0.4966153E-006  0.1275182E+03  0.7561462E-02  0.1231186E+00
          2   -1    0    0  501    0  0.00000000000E+00  0.00000000000E+00  0.16332162300E+03  0.16332162300E+03  0.00000000000E+00 0. -1.
         -2   -1    0    0    0  501 -0.00000000000E+00 -0.00000000000E+00 -0.11549251322E+03  0.11549251322E+03  0.00000000000E+00 0.  1.
         23    2    1    2    0    0  0.11619811827E+02 -0.76685687451E+02 -0.68816198721E+01  0.14734516100E+03  0.12509006791E+03 0.  0.
          5    1    3    3  502    0  0.19173369333E+02  0.32165202059E+02  0.24239072972E+01  0.37756668837E+02  0.41800000000E+01 0. -1.
         -5    1    3    3    0  502 -0.75535575061E+01 -0.10885088951E+03 -0.93055271692E+01  0.10958849216E+03  0.41800000000E+01 0. -1.
        -11    1    1    2    0    0 -0.93803145565E+01 -0.14326972424E+02  0.34050159921E+02  0.38113853527E+02  0.00000000000E+00 0. -1.
         11    1    1    2    0    0 -0.22394972702E+01  0.91012659874E+02  0.20660569726E+02  0.93355121696E+02  0.00000000000E+00 0.  1.
</event>
<event>
 7    1  0.4966153E-006  0.9191479E+02  0.7561462E-02  0.1298280E+00
         -2   -1    0    0    0  501 -0.00000000000E+00  0.00000000000E+00  0.67729676291E+02  0.67729676291E+02  0.00000000000E+00 0.  1.
          2   -1    0    0  501    0  0.00000000000E+00 -0.00000000000E+00 -0.19488922183E+03  0.19488922183E+03  0.00000000000E+00 0. -1.
         23    2    1    2    0    0 -0.25969465582E+02 -0.18207772429E+02 -0.47279578132E+02  0.13743706059E+03  0.12509057117E+03 0.  0.
          5    1    3    3  502    0 -0.45787556841E+02 -0.62225338750E+02 -0.43684852204E+02  0.88850052651E+02  0.41800000000E+01 0. -1.
         -5    1    3    3    0  502  0.19818091259E+02  0.44017566321E+02 -0.35947259282E+01  0.48587007939E+02  0.41800000000E+01 0. -1.
        -11    1    1    2    0    0  0.26321655911E+02 -0.11193828575E+02  0.10244352105E+02  0.30382200679E+02  0.00000000000E+00 0.  1.
         11    1    1    2    0    0 -0.35219032898E+00  0.29401601004E+02 -0.90124319509E+02  0.94799636849E+02  0.00000000000E+00 0. -1.
</event>
<event>
 7    1  0.4966153E-006  0.1174073E+03  0.7561462E-02  0.1247437E+00
          2   -1    0    0  501    0  0.00000000000E+00  0.00000000000E+00  0.84073971690E+03  0.84073971690E+03  0.00000000000E+00 0. -1.
         -2   -1    0    0    0  501 -0.00000000000E+00 -0.00000000000E+00 -0.17694268833E+02  0.17694268833E+02  0.00000000000E+00 0.  1.
         23    2    1    2    0    0  0.17596241628E+02  0.83327104232E+02  0.50144627965E+03  0.52378298618E+03  0.12508881333E+03 0.  0.
          5    1    3    3  502    0  0.67652744273E+02  0.48253315918E+02  0.36256393475E+03  0.37198838085E+03  0.41800000000E+01 0.  1.
         -5    1    3    3    0  502 -0.50056502645E+02  0.35073788314E+02  0.13888234490E+03  0.15179460533E+03  0.41800000000E+01 0.  1.
        -11    1    1    2    0    0  0.77697484152E+01 -0.34044331134E+02  0.90639538756E+02  0.97133472391E+02  0.00000000000E+00 0.  1.
         11    1    1    2    0    0 -0.25365990043E+02 -0.49282773098E+02  0.23095962967E+03  0.23751752717E+03  0.00000000000E+00 0. -1.
</event>
<event>
 7    1  0.4966153E-006  0.1233964E+03  0.7561462E-02  0.1237597E+00
          2   -1    0    0  501    0  0.00000000000E+00  0.00000000000E+00  0.75139700236E+03  0.75139700236E+03  0.00000000000E+00 0. -1.
         -2   -1    0    0    0  501 -0.00000000000E+00 -0.00000000000E+00 -0.21247080641E+02  0.21247080641E+02  0.00000000000E+00 0.  1.
         23    2    1    2    0    0  0.60110850747E+02 -0.80444606299E+00  0.33695134787E+03  0.36441222119E+03  0.12508434996E+03 0.  0.
          5    1    3    3  502    0  0.65322343573E+02  0.52893554485E+02  0.22009051104E+03  0.23563115695E+03  0.41800000000E+01 0. -1.
         -5    1    3    3    0  502 -0.52114928262E+01 -0.53698000548E+02  0.11686083683E+03  0.12878106423E+03  0.41800000000E+01 0. -1.
        -11    1    1    2    0    0 -0.44535604052E+02 -0.43077820414E+02  0.19358461423E+03  0.20325875506E+03  0.00000000000E+00 0.  1.
         11    1    1    2    0    0 -0.15575246695E+02  0.43882266477E+02  0.19961395962E+03  0.20497310676E+03  0.00000000000E+00 0. -1.
</event>
<event>
 7    1  0.4966153E-006  0.1304065E+03  0.7561462E-02  0.1226854E+00
          1   -1    0    0  501    0  0.00000000000E+00  0.00000000000E+00  0.37006463707E+02  0.37006463707E+02  0.00000000000E+00 0. -1.
         -1   -1    0    0    0  501 -0.00000000000E+00 -0.00000000000E+00 -0.58088227516E+03  0.58088227516E+03  0.00000000000E+00 0.  1.
         23    2    1    2    0    0 -0.73093354739E+02  0.62207714335E+02 -0.35066998367E+03  0.38448554426E+03  0.12508900058E+03 0.  0.
          5    1    3    3  502    0 -0.45635774193E+02  0.10043968381E+03 -0.24788411153E+03  0.27135725367E+03  0.41800000000E+01 0. -1.
         -5    1    3    3    0  502 -0.27457580547E+02 -0.38231969476E+02 -0.10278587214E+03  0.11312829059E+03  0.41800000000E+01 0. -1.
        -11    1    1    2    0    0  0.70429389404E+02 -0.40413197745E+02 -0.66919586474E+02  0.10522241443E+03  0.00000000000E+00 0. -1.
         11    1    1    2    0    0  0.26639653350E+01 -0.21794516590E+02 -0.12628624130E+03  0.12818078018E+03  0.00000000000E+00 0.  1.
</event>
<event>
 7    1  0.4966153E-006  0.1946394E+03  0.7561462E-02  0.1154342E+00
         -2   -1    0    0    0  501 -0.00000000000E+00  0.00000000000E+00  0.23779427859E+02  0.23779427859E+02  0.00000000000E+00 0.  1.
          2   -1    0    0  501    0  0.00000000000E+00 -0.00000000000E+00 -0.16790571270E+04  0.16790571270E+04  0.00000000000E+00 0. -1.
         23    2    1    2    0    0 -0.19382911587E+02 -0.16397899627E+03 -0.73545680838E+03  0.76407816994E+03  0.12511564375E+03 0.  0.
          5    1    3    3  502    0 -0.69072351511E+02 -0.11128532646E+03 -0.40197490440E+03  0.42279629823E+03  0.41800000000E+01 0.  1.
         -5    1    3    3    0  502  0.49689439925E+02 -0.52693669808E+02 -0.33348190398E+03  0.34128187171E+03  0.41800000000E+01 0.  1.
        -11    1    1    2    0    0 -0.13327753137E+02  0.14919580248E+03 -0.78950920893E+03  0.80359306086E+03  0.00000000000E+00 0. -1.
         11    1    1    2    0    0  0.32710664724E+02  0.14783193790E+02 -0.13031168186E+03  0.13516532408E+03  0.00000000000E+00 0.  1.
</event>
<event>
 7    1  0.4966153E-006  0.1145508E+03  0.7561462E-02  0.1252367E+00
          1   -1    0    0  501    0  0.00000000000E+00  0.00000000000E+00  0.72558018502E+02  0.72558018502E+02  0.00000000000E+00 0. -1.
         -1   -1    0    0    0  501 -0.00000000000E+00 -0.00000000000E+00 -0.27806112839E+03  0.27806112839E+03  0.00000000000E+00 0.  1.
         23    2    1    2    0    0 -0.49969063072E+02  0.70260890473E+02 -0.15357340462E+03  0.21602252664E+03  0.12508973346E+03 0.  0.
          5    1    3    3  502    0  0.28724648064E+02  0.43562720400E+02 -0.11062963638E+03  0.12238956189E+03  0.41800000000E+01 0.  1.
         -5    1    3    3    0  502 -0.78693711136E+02  0.26698170072E+02 -0.42943768245E+02  0.93632964754E+02  0.41800000000E+01 0.  1.
        -11    1    1    2    0    0 -0.13793043026E+01 -0.25186340834E+02 -0.60679251219E+02  0.65713208517E+02  0.00000000000E+00 0.  1.
         11    1    1    2    0    0  0.51348367374E+02 -0.45074549639E+02  0.87495459527E+01  0.68883411730E+02  0.00000000000E+00 0. -1.
</event>
<event>
 7    1  0.4966153E-006  0.3211564E+03  0.7561462E-02  0.1075118E+00
          4   -1    0    0  501    0  0.00000000000E+00  0.00000000000E+00  0.28993356833E+03  0.28993356833E+03  0.00000000000E+00 0. -1.
         -4   -1    0    0    0  501 -0.00000000000E+00 -0.00000000000E+00 -0.39173510259E+03  0.39173510259E+03  0.00000000000E+00 0.  1.
         23    2    1    2    0    0  0.28860905263E+03  0.10473167600E+03 -0.13936394116E+03  0.35962936749E+03  0.12508822746E+03 0.  0.
          5    1    3    3  502    0  0.30013971745E+03  0.92269054746E+02 -0.13130864976E+03  0.34037752915E+03  0.41800000000E+01 0.  1.
         -5    1    3    3    0  502 -0.11530664820E+02  0.12462621252E+02 -0.80552914049E+01  0.19251838335E+02  0.41800000000E+01 0.  1.
        -11    1    1    2    0    0 -0.21199106399E+03 -0.98990457926E+02  0.60862878736E+02  0.24175113646E+03  0.00000000000E+00 0.  1.
         11    1    1    2    0    0 -0.76617988632E+02 -0.57412180726E+01 -0.23300471835E+02  0.80288166966E+02  0.00000000000E+00 0. -1.
</event>
<event>
 7    1  0.4966153E-006  0.1408330E+03  0.7561462E-02  0.1212212E+00
          1   -1    0    0  501    0  0.00000000000E+00  0.00000000000E+00  0.32730479803E+03  0.32730479803E+03  0.00000000000E+00 0. -1.
         -1   -1    0    0    0  501 -0.00000000000E+00 -0.00000000000E+00 -0.87866060870E+02  0.87866060870E+02  0.00000000000E+00 0.  1.
         23    2    1    2    0    0  0.53181215928E+02  0.11263789038E+03  0.78580231343E+02  0.19322658071E+03  0.12508446209E+03 0.  0.
          5    1    3    3  502    0  0.75251264688E+02  0.61633539260E+02  0.57947629191E+00  0.97361461532E+02  0.41800000000E+01 0.  1.
         -5    1    3    3    0  502 -0.22070048760E+02  0.51004351123E+02  0.78000755051E+02  0.95865119174E+02  0.41800000000E+01 0.  1.
        -11    1    1    2    0    0  0.13474150583E+01 -0.27107726244E+02  0.10008081580E+03  0.10369577639E+03  0.00000000000E+00 0. -1.
         11    1    1    2    0    0 -0.54528630986E+02 -0.85530164139E+02  0.60777690010E+02  0.11824850180E+03  0.00000000000E+00 0.  1.
</event>
<event>
 7    1  0.4966153E-006  0.1181606E+03  0.7561462E-02  0.1246163E+00
         -1   -1    0    0    0  501 -0.00000000000E+00  0.00000000000E+00  0.31151348704E+02  0.31151348704E+02  0.00000000000E+00 0.  1.
          1   -1    0    0  501    0  0.00000000000E+00 -0.00000000000E+00 -0.57879563257E+03  0.57879563257E+03  0.00000000000E+00 0. -1.
         23    2    1    2    0    0 -0.57494405080E+02  0.52154106281E+02 -0.26970340641E+03  0.30726689222E+03  0.12508940087E+03 0.  0.
          5    1    3    3  502    0 -0.75858962125E+02  0.18227447420E+02 -0.73518529585E+02  0.10728125916E+03  0.41800000000E+01 0. -1.
         -5    1    3    3    0  502  0.18364557045E+02  0.33926658861E+02 -0.19618487683E+03  0.19998563307E+03  0.41800000000E+01 0. -1.
        -11    1    1    2    0    0 -0.26509316759E+00  0.23891694621E+02 -0.45609177636E+02  0.51488643708E+02  0.00000000000E+00 0.  1.
         11    1    1    2    0    0  0.57759498248E+02 -0.76045800902E+02 -0.23233169982E+03  0.25119144535E+03  0.00000000000E+00 0. -1.
</event>
<event>
 7    1  0.4966153E-006  0.1272116E+03  0.7561462E-02  0.1231653E+00
          3   -1    0    0  501    0  0.00000000000E+00  0.00000000000E+00  0.45611941019E+03  0.45611941019E+03  0.00000000000E+00 0. -1.
         -3   -1    0    0    0  501 -0.00000000000E+00 -0.00000000000E+00 -0.40099827373E+02  0.40099827373E+02  0.00000000000E+00 0.  1.
         23    2    1    2    0    0  0.70842607690E+02 -0.36775059095E+02  0.22101915359E+03  0.26620844381E+03  0.12508552780E+03 0.  0.
          5    1    3    3  502    0  0.87903175483E+02 -0.64668689527E+02  0.13222568179E+03  0.17149376370E+03  0.41800000000E+01 0. -1.
         -5    1    3    3    0  502 -0.17060567793E+02  0.27893630432E+02  0.88793471805E+02  0.94714680105E+02  0.41800000000E+01 0. -1.
        -11    1    1    2    0    0 -0.58561559749E+02  0.61328640493E+02  0.99949982366E+02  0.13107500677E+03  0.00000000000E+00 0.  1.
         11    1    1    2    0    0 -0.12281047941E+02 -0.24553581398E+02  0.95050446860E+02  0.98935786984E+02  0.00000000000E+00 0. -1.
</event>
<event>
 7    1  0.4966153E-006  0.1121939E+03  0.7561462E-02  0.1256560E+00
         -3   -1    0    0    0  501 -0.00000000000E+00  0.00000000000E+00  0.19106227046E+02  0.19106227046E+02  0.00000000000E+00 0.  1.
          3   -1    0    0  501    0  0.00000000000E+00 -0.00000000000E+00 -0.72200907934E+03  0.72200907934E+03  0.00000000000E+00 0. -1.
         23    2    1    2    0    0 -0.34070609311E+02 -0.16924098942E+02 -0.46539102108E+03  0.48340863275E+03  0.12509145523E+03 0.  0.
          5    1    3    3  502    0 -0.77471686528E+02  0.11532510925E+02 -0.26505125839E+03  0.27641364474E+03  0.41800000000E+01 0. -1.
         -5    1    3    3    0  502  0.43401077217E+02 -0.28456609867E+02 -0.20033976269E+03  0.20699498801E+03  0.41800000000E+01 0. -1.
        -11    1    1    2    0    0  0.34953944647E+02 -0.30537606234E+02 -0.73198843679E+02  0.86674069691E+02  0.00000000000E+00 0.  1.
         11    1    1    2    0    0 -0.88333533606E+00  0.47461705176E+02 -0.16431298753E+03  0.17103260394E+03  0.00000000000E+00 0. -1.
</event>
<event>
 7    1  0.4966153E-006  0.1205752E+03  0.7561462E-02  0.1242151E+00
          1   -1    0    0  501    0  0.00000000000E+00  0.00000000000E+00  0.10516273718E+03  0.10516273718E+03  0.00000000000E+00 0. -1.
         -1   -1    0    0    0  501 -0.00000000000E+00 -0.00000000000E+00 -0.14007755443E+03  0.14007755443E+03  0.00000000000E+00 0.  1.
         23    2    1    2    0    0 -0.33554570042E+02  0.52453350661E+02 -0.30744990511E+02  0.14307687014E+03  0.12509385741E+03 0.  0.
          5    1    3    3  502    0 -0.68030944489E+02  0.72184780871E+02 -0.16332739987E+02  0.10061353186E+03  0.41800000000E+01 0.  1.
         -5    1    3    3    0  502  0.34476374447E+02 -0.19731430210E+02 -0.14412250524E+02  0.42463338285E+02  0.41800000000E+01 0.  1.
        -11    1    1    2    0    0 -0.23310827914E+02 -0.35718200621E+02  0.98169056950E+00  0.42663195732E+02  0.00000000000E+00 0.  1.
         11    1    1    2    0    0  0.56865397956E+02 -0.16735150040E+02 -0.51515173129E+01  0.59500225732E+02  0.00000000000E+00 0. -1.
</event>
<event>
 7    1  0.4966153E-006  0.4276145E+02  0.7561462E-02  0.1488821E+00
          3   -1    0    0  501    0  0.00000000000E+00  0.00000000000E+00  0.24455287646E+03  0.24455287646E+03  0.00000000000E+00 0. -1.
         -3   -1    0    0    0  501 -0.00000000000E+00 -0.00000000000E+00 -0.52217594783E+02  0.52217594783E+02  0.00000000000E+00 0.  1.
         23    2    1    2    0    0 -0.16805630271E+02 -0.59760308136E+01  0.73824225203E+02  0.14634258478E+03  0.12509194115E+03 0.  0.
          5    1    3    3  502    0  0.38841806462E+01 -0.93995080860E+00 -0.34949839423E+02  0.35425048236E+02  0.41800000000E+01 0.  1.
         -5    1    3    3    0  502 -0.20689810918E+02 -0.50360800050E+01  0.10877406463E+03  0.11091753654E+03  0.41800000000E+01 0.  1.
        -11    1    1    2    0    0 -0.16485408923E+02 -0.11825280800E+02  0.10983389641E+03  0.11169194588E+03  0.00000000000E+00 0. -1.
         11    1    1    2    0    0  0.33291039195E+02  0.17801311614E+02  0.86771600567E+01  0.38735940578E+02  0.00000000000E+00 0.  1.
</event>
<event>
 7    1  0.4966153E-006  0.9395411E+02  0.7561462E-02  0.1293549E+00
         -2   -1    0    0    0  501 -0.00000000000E+00  0.00000000000E+00  0.12847015314E+03  0.12847015314E+03  0.00000000000E+00 0.  1.
          2   -1    0    0  501    0  0.00000000000E+00 -0.00000000000E+00 -0.19812289963E+03  0.19812289963E+03  0.00000000000E+00 0. -1.
         23    2    1    2    0    0  0.34215572756E+02 -0.15684505657E+02  0.75824421833E+02  0.15104416359E+03  0.12509311441E+03 0.  0.
          5    1    3    3  502    0  0.41743376621E+02  0.33723920344E+02 -0.69377524078E+01  0.54271697076E+02  0.41800000000E+01 0.  1.
         -5    1    3    3    0  502 -0.75278038653E+01 -0.49408426001E+02  0.82762174240E+02  0.96772466518E+02  0.41800000000E+01 0.  1.
        -11    1    1    2    0    0 -0.30091769089E+01  0.42607456294E+02 -0.11931828657E+03  0.12673320002E+03  0.00000000000E+00 0. -1.
         11    1    1    2    0    0 -0.31206395847E+02 -0.26922950637E+02 -0.26158881755E+02  0.48815689152E+02  0.00000000000E+00 0.  1.
</event>
<event>
 7    1  0.4966153E-006  0.9777036E+02  0.7561462E-02  0.1285056E+00
          1   -1    0    0  501    0  0.00000000000E+00  0.00000000000E+00  0.24944355235E+03  0.24944355235E+03  0.00000000000E+00 0. -1.
         -1   -1    0    0    0  501 -0.00000000000E+00 -0.00000000000E+00 -0.56251431530E+02  0.56251431530E+02  0.00000000000E+00 0.  1.
         23    2    1    2    0    0 -0.47180515514E+02  0.38309888959E+01  0.10087318183E+03  0.16752307413E+03  0.12509158259E+03 0.  0.
          5    1    3    3  502    0 -0.24121941081E+02 -0.59181649585E+02  0.33227740774E+02  0.72151859616E+02  0.41800000000E+01 0.  1.
         -5    1    3    3    0  502 -0.23058574433E+02  0.63012638481E+02  0.67645441055E+02  0.95371214519E+02  0.41800000000E+01 0.  1.
        -11    1    1    2    0    0 -0.12471101199E+01 -0.14602022346E+02 -0.14362172996E+02  0.20519414061E+02  0.00000000000E+00 0.  1.
         11    1    1    2    0    0  0.48427625634E+02  0.10771033450E+02  0.10668111198E+03  0.11765249568E+03  0.00000000000E+00 0. -1.
</event>
<event>
 7    1  0.4966153E-006  0.5642264E+02  0.7561462E-02  0.1413488E+00
          1   -1    0    0  501    0  0.00000000000E+00  0.00000000000E+00  0.31216536726E+02  0.31216536726E+02  0.00000000000E+00 0. -1.
         -1   -1    0    0    0  501 -0.00000000000E+00 -0.00000000000E+00 -0.47992899083E+03  0.47992899083E+03  0.00000000000E+00 0.  1.
         23    2    1    2    0    0  0.25901865862E+02 -0.29975567742E+02 -0.34428997313E+03  0.36844515455E+03  0.12508718958E+03 0.  0.
          5    1    3    3  502    0 -0.67275818390E+01 -0.23232646027E+01 -0.31791580511E+03  0.31802293856E+03  0.41800000000E+01 0.  1.
         -5    1    3    3    0  502  0.32629447701E+02 -0.27652303139E+02 -0.26374168028E+02  0.50422215990E+02  0.41800000000E+01 0.  1.
        -11    1    1    2    0    0 -0.37908166931E+02  0.31790670081E+02 -0.11588376072E+03  0.12600286434E+03  0.00000000000E+00 0.  1.
         11    1    1    2    0    0  0.12006301069E+02 -0.18151023394E+01  0.11461279751E+02  0.16697508659E+02  0.00000000000E+00 0. -1.
</event>
<event>
 7    1  0.4966153E-006  0.7355087E+02  0.7561462E-02  0.1348418E+00
         -2   -1    0    0    0  501 -0.00000000000E+00  0.00000000000E+00  0.13529789922E+02  0.13529789922E+02  0.00000000000E+00 0.  1.
          2   -1    0    0  501    0  0.00000000000E+00 -0.00000000000E+00 -0.92100911905E+03  0.92100911905E+03  0.00000000000E+00 0. -1.
         23    2    1    2    0    0 -0.87032799260E+01  0.27344660321E+02 -0.53017855717E+03  0.54555970309E+03  0.12538983064E+03 0.  0.
          5    1    3    3  502    0  0.16585312513E+02  0.15599473067E+01 -0.33754312629E+01  0.17503484309E+02  0.41800000000E+01 0. -1.
         -5    1    3    3    0  502 -0.25288592439E+02  0.25784713014E+02 -0.52680312591E+03  0.52805621879E+03  0.41800000000E+01 0. -1.
        -11    1    1    2    0    0 -0.39377082032E+02 -0.22228501132E+02 -0.15387387838E+03  0.16038027092E+03  0.00000000000E+00 0.  1.
         11    1    1    2    0    0  0.48080361958E+02 -0.51161591890E+01 -0.22342689358E+03  0.22859893496E+03  0.00000000000E+00 0. -1.
</event>
<event>
 7    1  0.4966153E-006  0.1092136E+03  0.7561462E-02  0.1262033E+00
          1   -1    0    0  501    0  0.00000000000E+00  0.00000000000E+00  0.57864829814E+03  0.57864829814E+03  0.00000000000E+00 0. -1.
         -1   -1    0    0    0  501 -0.00000000000E+00 -0.00000000000E+00 -0.33703896100E+02  0.33703896100E+02  0.00000000000E+00 0.  1.
         23    2    1    2    0    0 -0.68858530636E+02  0.51172970017E+01  0.17885073944E+03  0.22891491025E+03  0.12508703037E+03 0.  0.
          5    1    3    3  502    0  0.17104038560E+02 -0.32275658794E+02  0.99329000777E+02  0.10591500876E+03  0.41800000000E+01 0.  1.
         -5    1    3    3    0  502 -0.85962569196E+02  0.37392955796E+02  0.79521738660E+02  0.12299990149E+03  0.41800000000E+01 0.  1.
        -11    1    1    2    0    0  0.59996320337E+01  0.19435783481E+02  0.13428647919E+02  0.24373630197E+02  0.00000000000E+00 0.  1.
         11    1    1    2    0    0  0.62858898602E+02 -0.24553080483E+02  0.35266501468E+03  0.35906365379E+03  0.00000000000E+00 0. -1.
</event>
<event>
 7    1  0.4966153E-006  0.1059588E+03  0.7561462E-02  0.1268242E+00
          2   -1    0    0  501    0  0.00000000000E+00  0.00000000000E+00  0.17011614600E+03  0.17011614600E+03  0.00000000000E+00 0.  1.
         -2   -1    0    0    0  501 -0.00000000000E+00 -0.00000000000E+00 -0.94487337005E+02  0.94487337005E+02  0.00000000000E+00 0. -1.
         23    2    1    2    0    0  0.18460101456E+02  0.48452903780E+02 -0.59660741413E+00  0.13541067248E+03  0.12508890859E+03 0.  0.
          5    1    3    3  502    0  0.54739303183E+02  0.44890593382E+02 -0.40122312027E+02  0.81479009626E+02  0.41800000000E+01 0.  1.
         -5    1    3    3    0  502 -0.36279201728E+02  0.35623103973E+01  0.39525704613E+02  0.53931662857E+02  0.41800000000E+01 0.  1.
        -11    1    1    2    0    0 -0.51348330676E+02 -0.76702712539E+01  0.37889755748E+02  0.64273771594E+02  0.00000000000E+00 0.  1.
         11    1    1    2    0    0  0.32888229220E+02 -0.40782632526E+02  0.38335660663E+02  0.64919038928E+02  0.00000000000E+00 0. -1.
</event>
<event>
 7    1  0.4966153E-006  0.9473198E+02  0.7561462E-02  0.1291781E+00
         -1   -1    0    0    0  501 -0.00000000000E+00  0.00000000000E+00  0.65180408439E+02  0.65180408439E+02  0.00000000000E+00 0.  1.
          1   -1    0    0  501    0  0.00000000000E+00 -0.00000000000E+00 -0.17814058347E+03  0.17814058347E+03  0.00000000000E+00 0. -1.
         23    2    1    2    0    0 -0.20144118617E+02  0.20879071635E+02 -0.57903490052E+02  0.13196570083E+03  0.11498004561E+03 0.  0.
          5    1    3    3  502    0 -0.64300452687E+02  0.84520569245E+01 -0.56126130879E+02  0.85869671301E+02  0.41800000000E+01 0. -1.
         -5    1    3    3    0  502  0.44156334070E+02  0.12427014710E+02 -0.17773591730E+01  0.46096029533E+02  0.41800000000E+01 0.  1.
        -11    1    1    2    0    0  0.10896671085E+02 -0.48280187401E+02 -0.37363406050E+00  0.49495995178E+02  0.00000000000E+00 0.  1.
         11    1    1    2    0    0  0.92474475317E+01  0.27401115766E+02 -0.54683050917E+02  0.61859295895E+02  0.00000000000E+00 0. -1.
</event>
<event>
 7    1  0.4966153E-006  0.7463906E+02  0.7561462E-02  0.1344992E+00
          3   -1    0    0  501    0  0.00000000000E+00  0.00000000000E+00  0.64310010274E+02  0.64310010274E+02  0.00000000000E+00 0. -1.
         -3   -1    0    0    0  501 -0.00000000000E+00 -0.00000000000E+00 -0.19683095100E+03  0.19683095100E+03  0.00000000000E+00 0.  1.
         23    2    1    2    0    0  0.67685230366E+01  0.35541552043E+02 -0.10003436299E+03  0.16419960702E+03  0.12508246217E+03 0.  0.
          5    1    3    3  502    0  0.43197916726E+02  0.47354287112E+02 -0.10724173761E+03  0.12500700462E+03  0.41800000000E+01 0. -1.
         -5    1    3    3    0  502 -0.36429393690E+02 -0.11812735069E+02  0.72073746227E+01  0.39192602406E+02  0.41800000000E+01 0. -1.
        -11    1    1    2    0    0 -0.11779899207E+02 -0.12291557332E+01 -0.54563156683E+02  0.55833815169E+02  0.00000000000E+00 0.  1.
         11    1    1    2    0    0  0.50113761706E+01 -0.34312396310E+02  0.22076578944E+02  0.41107539084E+02  0.00000000000E+00 0. -1.
</event>
<event>
 7    1  0.4966153E-006  0.1196527E+03  0.7561462E-02  0.1243671E+00
          2   -1    0    0  501    0  0.00000000000E+00  0.00000000000E+00  0.29279480531E+03  0.29279480531E+03  0.00000000000E+00 0. -1.
         -2   -1    0    0    0  501 -0.00000000000E+00 -0.00000000000E+00 -0.66740912083E+02  0.66740912083E+02  0.00000000000E+00 0.  1.
         23    2    1    2    0    0  0.78480757272E+02  0.38574309255E+02  0.12869253215E+03  0.19964029567E+03  0.12508906118E+03 0.  0.
          5    1    3    3  502    0 -0.14577298072E+02  0.52314184107E+02  0.26134817265E+02  0.60413347460E+02  0.41800000000E+01 0.  1.
         -5    1    3    3    0  502  0.93058055345E+02 -0.13739874852E+02  0.10255771489E+03  0.13922694821E+03  0.41800000000E+01 0.  1.
        -11    1    1    2    0    0 -0.36442074636E+02 -0.48088298624E+01  0.99357092757E+02  0.10593857432E+03  0.00000000000E+00 0. -1.
         11    1    1    2    0    0 -0.42038682637E+02 -0.33765479393E+02 -0.19957316809E+01  0.53956847400E+02  0.00000000000E+00 0.  1.
</event>
<event>
 7    1  0.4966153E-006  0.1040569E+03  0.7561462E-02  0.1271989E+00
          2   -1    0    0  501    0  0.00000000000E+00  0.00000000000E+00  0.66328471391E+03  0.66328471391E+03  0.00000000000E+00 0. -1.
         -2   -1    0    0    0  501 -0.00000000000E+00 -0.00000000000E+00 -0.21668509402E+02  0.21668509402E+02  0.00000000000E+00 0.  1.
         23    2    1    2    0    0 -0.24335566936E+02 -0.34747631370E+02  0.27741070343E+03  0.30725174124E+03  0.12508923381E+03 0.  0.
          5    1    3    3  502    0 -0.61016578899E+02  0.34865346136E+01  0.22271481495E+03  0.23098601694E+03  0.41800000000E+01 0. -1.
         -5    1    3    3    0  502  0.36681011962E+02 -0.38234165984E+02  0.54695888484E+02  0.76265724307E+02  0.41800000000E+01 0. -1.
        -11    1    1    2    0    0  0.52567649912E+02  0.51766965182E+01  0.13667740289E+03  0.14652941161E+03  0.00000000000E+00 0.  1.
         11    1    1    2    0    0 -0.28232082976E+02  0.29570934852E+02  0.22752809818E+03  0.23117207046E+03  0.00000000000E+00 0. -1.
</event>
<event>
 7    1  0.4966153E-006  0.1766673E+03  0.7561462E-02  0.1171068E+00
          1   -1    0    0  501    0  0.00000000000E+00  0.00000000000E+00  0.15685847992E+03  0.15685847992E+03  0.00000000000E+00 0. -1.
         -1   -1    0    0    0  501 -0.00000000000E+00 -0.00000000000E+00 -0.26056368403E+03  0.26056368403E+03  0.00000000000E+00 0.  1.
         23    2    1    2    0    0 -0.13910884069E+03 -0.53132039097E+02 -0.13949297291E+03  0.23933100334E+03  0.12508699585E+03 0.  0.
          5    1    3    3  502    0 -0.42880512426E+02  0.40045124680E+02 -0.28690202452E+02  0.65444254700E+02  0.41800000000E+01 0.  1.
         -5    1    3    3    0  502 -0.96228328266E+02 -0.93177163776E+02 -0.11080277046E+03  0.17388674864E+03  0.41800000000E+01 0.  1.
        -11    1    1    2    0    0  0.81234425508E+02 -0.10238875691E+01 -0.16815301603E+02  0.82962850730E+02  0.00000000000E+00 0.  1.
         11    1    1    2    0    0  0.57874415184E+02  0.54155926666E+02  0.52603070405E+02  0.95128309888E+02  0.00000000000E+00 0. -1.
</event>
<event>
 7    1  0.4966153E-006  0.1417779E+03  0.7561462E-02  0.1210957E+00
          2   -1    0    0  501    0  0.00000000000E+00  0.00000000000E+00  0.10111031994E+03  0.10111031994E+03  0.00000000000E+00 0. -1.
         -2   -1    0    0    0  501 -0.00000000000E+00 -0.00000000000E+00 -0.23435208913E+03  0.23435208913E+03  0.00000000000E+00 0.  1.
         23    2    1    2    0    0 -0.96222473485E+02 -0.42780152386E+02 -0.47964297558E+02  0.17040220722E+03  0.12508969799E+03 0.  0.
          5    1    3    3  502    0 -0.70587568373E+02  0.33604708003E+02 -0.37007764708E+01  0.78377607486E+02  0.41800000000E+01 0. -1.
         -5    1    3    3    0  502 -0.25634905111E+02 -0.76384860389E+02 -0.44263521087E+02  0.92024599732E+02  0.41800000000E+01 0. -1.
        -11    1    1    2    0    0  0.27827305877E+01  0.30170818444E+02 -0.60358087092E+02  0.67536068530E+02  0.00000000000E+00 0.  1.
         11    1    1    2    0    0  0.93439742897E+02  0.12609333942E+02 -0.24919384542E+02  0.97524133326E+02  0.00000000000E+00 0. -1.
</event>
<event>
 7    1  0.4966153E-006  0.1220009E+03  0.7561462E-02  0.1239832E+00
         -1   -1    0    0    0  501 -0.00000000000E+00  0.00000000000E+00  0.69017667967E+03  0.69017667967E+03  0.00000000000E+00 0.  1.
          1   -1    0    0  501    0  0.00000000000E+00 -0.00000000000E+00 -0.26716412144E+02  0.26716412144E+02  0.00000000000E+00 0. -1.
         23    2    1    2    0    0 -0.34633342042E+02 -0.24663196613E+02  0.44598317506E+03  0.46353875821E+03  0.11899347158E+03 0.  0.
          5    1    3    3  502    0 -0.71892967180E+02 -0.34309041982E+02  0.21474286641E+03  0.22908007370E+03  0.41800000000E+01 0. -1.
         -5    1    3    3    0  502  0.37259625137E+02  0.96458453696E+01  0.23124030865E+03  0.23445868451E+03  0.41800000000E+01 0.  1.
        -11    1    1    2    0    0  0.37595905042E+02 -0.43383261640E+02  0.67330655762E+02  0.88481504688E+02  0.00000000000E+00 0. -1.
         11    1    1    2    0    0 -0.29625630000E+01  0.68046458252E+02  0.15014643670E+03  0.16487282892E+03  0.00000000000E+00 0.  1.
</event>
<event>
 7    1  0.4966153E-006  0.1033182E+03  0.7561462E-02  0.1273469E+00
         -1   -1    0    0    0  501 -0.00000000000E+00  0.00000000000E+00  0.40663077826E+02  0.40663077826E+02  0.00000000000E+00 0.  1.
          1   -1    0    0  501    0  0.00000000000E+00 -0.00000000000E+00 -0.57080443387E+03  0.57080443387E+03  0.00000000000E+00 0. -1.
         23    2    1    2    0    0  0.87452632306E+02 -0.14343791159E+02 -0.16751511065E+03  0.22707358965E+03  0.12508955024E+03 0.  0.
          5    1    3    3  502    0  0.70180179679E+02  0.24097150900E+00 -0.13797155577E+02  0.71646001905E+02  0.41800000000E+01 0.  1.
         -5    1    3    3    0  502  0.17272452628E+02 -0.14584762668E+02 -0.15371795507E+03  0.15542758775E+03  0.41800000000E+01 0.  1.
        -11    1    1    2    0    0 -0.56922205694E+02  0.43101939972E+02 -0.13285101870E+03  0.15082210680E+03  0.00000000000E+00 0.  1.
         11    1    1    2    0    0 -0.30530426612E+02 -0.28758148813E+02 -0.22977522670E+03  0.23357181524E+03  0.00000000000E+00 0. -1.
</event>
<event>
 7    1  0.4966153E-006  0.2852813E+03  0.7561462E-02  0.1092839E+00
          1   -1    0    0  501    0  0.00000000000E+00  0.00000000000E+00  0.20203529712E+04  0.20203529712E+04  0.00000000000E+00 0. -1.
         -1   -1    0    0    0  501 -0.00000000000E+00 -0.00000000000E+00 -0.42270743773E+02  0.42270743773E+02  0.00000000000E+00 0.  1.
         23    2    1    2    0    0  0.19546753814E+03  0.18706415704E+03  0.10808027812E+04  0.11211526079E+04  0.12509181088E+03 0.  0.
          5    1    3    3  502    0  0.14037263975E+03  0.66968843264E+02  0.72693451593E+03  0.74339798682E+03  0.41800000000E+01 0. -1.
         -5    1    3    3    0  502  0.55094898396E+02  0.12009531378E+03  0.35386826525E+03  0.37775462111E+03  0.41800000000E+01 0. -1.
        -11    1    1    2    0    0 -0.13492666890E+03 -0.17512474846E+03  0.74667717688E+03  0.77871733638E+03  0.00000000000E+00 0. -1.
         11    1    1    2    0    0 -0.60540869245E+02 -0.11939408585E+02  0.15060226934E+03  0.16275377064E+03  0.00000000000E+00 0.  1.
</event>
<event>
 6    1  0.4966153E-006  0.1186637E+03  0.7561462E-02  0.1245318E+00
         -2   -1    0    0    0  501 -0.00000000000E+00  0.00000000000E+00  0.86737589307E+02  0.86737589307E+02  0.00000000000E+00 0.  1.
          2   -1    0    0  501    0  0.00000000000E+00 -0.00000000000E+00 -0.65496146645E+03  0.65496146645E+03  0.00000000000E+00 0. -1.
          5    1    1    2  502    0  0.34282197998E+02  0.12746511661E+02 -0.89190774343E+02  0.96489425778E+02  0.41800000000E+01 0. -1.
         -5    1    1    2    0  502 -0.34744758803E+02 -0.79052672837E+02  0.52786426991E+02  0.10129364551E+03  0.41800000000E+01 0.  1.
        -11    1    1    2    0    0  0.15642514272E+02  0.87001343320E+02 -0.40900528645E+03  0.41844861852E+03  0.00000000000E+00 0. -1.
         11    1    1    2    0    0 -0.15179953467E+02 -0.20695182144E+02 -0.12281424334E+03  0.12546736595E+03  0.00000000000E+00 0.  1.
</event>
<event>
 7    1  0.4966153E-006  0.1970340E+03  0.7561462E-02  0.1152266E+00
         -2   -1    0    0    0  501 -0.00000000000E+00  0.00000000000E+00  0.34145658319E+03  0.34145658319E+03  0.00000000000E+00 0.  1.
          2   -1    0    0  501    0  0.00000000000E+00 -0.00000000000E+00 -0.14859882580E+03  0.14859882580E+03  0.00000000000E+00 0. -1.
         23    2    1    2    0    0  0.46852427739E+02  0.18935972461E+03  0.13595426951E+03  0.26866849638E+03  0.12508773826E+03 0.  0.
          5    1    3    3  502    0  0.44554526488E+02  0.14379430537E+03  0.15761195093E+03  0.21799290714E+03  0.41800000000E+01 0.  1.
         -5    1    3    3    0  502  0.22979012514E+01  0.45565419241E+02 -0.21657681420E+02  0.50675589244E+02  0.41800000000E+01 0.  1.
        -11    1    1    2    0    0  0.35867445564E+01 -0.36819878465E+02  0.47831373624E+02  0.60468243645E+02  0.00000000000E+00 0.  1.
         11    1    1    2    0    0 -0.50439172296E+02 -0.15253984614E+03  0.90721142450E+01  0.16091866896E+03  0.00000000000E+00 0. -1.
</event>
<event>
 7    1  0.4966153E-006  0.1036458E+03  0.7561462E-02  0.1272811E+00
          1   -1    0    0  501    0  0.00000000000E+00  0.00000000000E+00  0.92060022248E+03  0.92060022248E+03  0.00000000000E+00 0. -1.
         -1   -1    0    0    0  501 -0.00000000000E+00 -0.00000000000E+00 -0.19686093345E+02  0.19686093345E+02  0.00000000000E+00 0.  1.
         23    2    1    2    0    0 -0.72342016372E+02  0.92662149765E+01  0.39512012533E+03  0.42081662254E+03  0.12508991285E+03 0.  0.
          5    1    3    3  502    0  0.47813380829E+01 -0.93754323752E+01  0.28392923436E+03  0.28415496204E+03  0.41800000000E+01 0.  1.
         -5    1    3    3    0  502 -0.77123354455E+02  0.18641647352E+02  0.11119089097E+03  0.13666166051E+03  0.41800000000E+01 0.  1.
        -11    1    1    2    0    0  0.93320061118E+02 -0.15566759131E+02  0.44224680230E+03  0.45225345984E+03  0.00000000000E+00 0. -1.
         11    1    1    2    0    0 -0.20978044746E+02  0.63005441547E+01  0.63547201508E+02  0.67216233437E+02  0.00000000000E+00 0.  1.
</event>
<event>
 7    1  0.4966153E-006  0.1449480E+03  0.7561462E-02  0.1206822E+00
         -2   -1    0    0    0  501 -0.00000000000E+00  0.00000000000E+00  0.70572524336E+02  0.70572524336E+02  0.00000000000E+00 0.  1.
          2   -1    0    0  501    0  0.00000000000E+00 -0.00000000000E+00 -0.36018290363E+03  0.36018290363E+03  0.00000000000E+00 0. -1.
         23    2    1    2    0    0 -0.10426547752E+03  0.48334379571E+02 -0.12992537569E+03  0.21386036711E+03  0.12509257100E+03 0.  0.
          5    1    3    3  502    0 -0.19571207988E+01  0.65749375302E+02 -0.53927621547E+02  0.85161443389E+02  0.41800000000E+01 0. -1.
         -5    1    3    3    0  502 -0.10230835672E+03 -0.17414995731E+02 -0.75997754143E+02  0.12869892372E+03  0.41800000000E+01 0. -1.
        -11    1    1    2    0    0  0.80240802059E+02 -0.19475387876E+02 -0.15920285571E+03  0.17934164690E+03  0.00000000000E+00 0. -1.
         11    1    1    2    0    0  0.24024675465E+02 -0.28858991695E+02 -0.48214789347E+00  0.37553413952E+02  0.00000000000E+00 0.  1.
</event>
<event>
 7    1  0.4966153E-006  0.5186455E+02  0.7561462E-02  0.1435537E+00
          4   -1    0    0  501    0  0.00000000000E+00  0.00000000000E+00  0.52423976472E+02  0.52423976472E+02  0.00000000000E+00 0. -1.
         -4   -1    0    0    0  501 -0.00000000000E+00 -0.00000000000E+00 -0.23638133670E+03  0.23638133670E+03  0.00000000000E+00 0.  1.
         23    2    1    2    0    0  0.16567164588E+02  0.86055536014E+01 -0.13181507537E+03  0.18268760245E+03  0.12510403471E+03 0.  0.
          5    1    3    3  502    0  0.16145326292E+01 -0.76732304626E+01  0.23826099110E+02  0.25429128576E+02  0.41800000000E+01 0.  1.
         -5    1    3    3    0  502  0.14952631959E+02  0.16278784064E+02 -0.15564117448E+03  0.15725847388E+03  0.41800000000E+01 0.  1.
        -11    1    1    2    0    0  0.26440399961E+02 -0.12340073061E+02  0.96560043999E+01  0.30734517634E+02  0.00000000000E+00 0. -1.
         11    1    1    2    0    0 -0.43007564549E+02  0.37345194599E+01 -0.61798289257E+02  0.75383193081E+02  0.00000000000E+00 0.  1.
</event>
<event>
 7    1  0.4966153E-006  0.6701003E+02  0.7561462E-02  0.1370566E+00
         -1   -1    0    0    0  501 -0.00000000000E+00  0.00000000000E+00  0.19673941336E+03  0.19673941336E+03  0.00000000000E+00 0.  1.
          1   -1    0    0  501    0  0.00000000000E+00 -0.00000000000E+00 -0.68469443711E+02  0.68469443711E+02  0.00000000000E+00 0. -1.
         23    2    1    2    0    0 -0.60006084624E+01 -0.19796240799E+02  0.12203645386E+03  0.17597823338E+03  0.12509014391E+03 0.  0.
          5    1    3    3  502    0  0.25586841882E+02 -0.27536894198E+02 -0.10656692077E+02  0.39293822741E+02  0.41800000000E+01 0. -1.
         -5    1    3    3    0  502 -0.31587450345E+02  0.77406533989E+01  0.13269314593E+03  0.13668441064E+03  0.41800000000E+01 0. -1.
        -11    1    1    2    0    0 -0.18970775729E+02  0.30758042031E+02  0.34493704142E+02  0.49957613101E+02  0.00000000000E+00 0.  1.
         11    1    1    2    0    0  0.24971384191E+02 -0.10961801232E+02 -0.28260188354E+02  0.39273010586E+02  0.00000000000E+00 0. -1.
</event>
<event>
 7    1  0.4966153E-006  0.8887784E+02  0.7561462E-02  0.1305592E+00
         -2   -1    0    0    0  501 -0.00000000000E+00  0.00000000000E+00  0.18412733081E+02  0.18412733081E+02  0.00000000000E+00 0.  1.
          2   -1    0    0  501    0  0.00000000000E+00 -0.00000000000E+00 -0.71842031270E+03  0.71842031270E+03  0.00000000000E+00 0. -1.
         23    2    1    2    0    0 -0.25923740664E+01  0.33512689536E+02 -0.44948506024E+03  0.46777609346E+03  0.12509130051E+03 0.  0.
          5    1    3    3  502    0  0.51362747319E+01 -0.36215458595E+02 -0.30382771190E+03  0.30605014569E+03  0.41800000000E+01 0. -1.
         -5    1    3    3    0  502 -0.77286487983E+01  0.69728148131E+02 -0.14565734835E+03  0.16172594777E+03  0.41800000000E+01 0. -1.
        -11    1    1    2    0    0  0.32394131097E+02 -0.16775819494E+02 -0.22070294603E+03  0.22369755974E+03  0.00000000000E+00 0. -1.
         11    1    1    2    0    0 -0.29801757030E+02 -0.16736870042E+02 -0.29819573351E+02  0.45359392585E+02  0.00000000000E+00 0.  1.
</event>
<event>
 7    1  0.4966153E-006  0.1017523E+03  0.7561462E-02  0.1276654E+00
         -1   -1    0    0    0  501 -0.00000000000E+00  0.00000000000E+00  0.86609904600E+02  0.86609904600E+02  0.00000000000E+00 0.  1.
          1   -1    0    0  501    0  0.00000000000E+00 -0.00000000000E+00 -0.14072412645E+03  0.14072412645E+03  0.00000000000E+00 0. -1.
         23    2    1    2    0    0 -0.31744423307E+02  0.18484767285E+02 -0.48447082376E+02  0.12750727067E+03  0.11207849593E+03 0.  0.
          5    1    3    3  502    0 -0.72080945172E+02  0.78017312471E+01 -0.15699857876E+02  0.74299983881E+02  0.41800000000E+01 0. -1.
         -5    1    3    3    0  502  0.40336521865E+02  0.10683036038E+02 -0.32747224501E+02  0.53207286791E+02  0.41800000000E+01 0.  1.
        -11    1    1    2    0    0 -0.21417584046E+02 -0.27676143121E+02 -0.24460371905E+02  0.42696505690E+02  0.00000000000E+00 0. -1.
         11    1    1    2    0    0  0.53162007353E+02  0.91913758359E+01  0.18793232431E+02  0.57130254689E+02  0.00000000000E+00 0.  1.
</event>
<event>
 7    1  0.4966153E-006  0.1067861E+03  0.7561462E-02  0.1266640E+00
         -1   -1    0    0    0  501 -0.00000000000E+00  0.00000000000E+00  0.79802851127E+03  0.79802851127E+03  0.00000000000E+00 0.  1.
          1   -1    0    0  501    0  0.00000000000E+00 -0.00000000000E+00 -0.16336506090E+02  0.16336506090E+02  0.00000000000E+00 0. -1.
         23    2    1    2    0    0 -0.33170213338E+02 -0.12689960871E+02  0.44300459666E+03  0.46169526101E+03  0.12509253863E+03 0.  0.
          5    1    3    3  502    0 -0.71600917801E+02 -0.25810233472E+02  0.37254988988E+03  0.38026800080E+03  0.41800000000E+01 0. -1.
         -5    1    3    3    0  502  0.38430704463E+02  0.13120272601E+02  0.70454706778E+02  0.81427260213E+02  0.41800000000E+01 0. -1.
        -11    1    1    2    0    0 -0.63359036350E+01  0.45026921189E+02  0.12640525139E+03  0.13433486102E+03  0.00000000000E+00 0.  1.
         11    1    1    2    0    0  0.39506116973E+02 -0.32336960318E+02  0.21228215713E+03  0.21833489533E+03  0.00000000000E+00 0. -1.
</event>
<event>
 7    1  0.5524552E-006  0.1436906E+03  0.7561462E-02  0.1208447E+00
          2   -1    0    0  501    0  0.00000000000E+00  0.00000000000E+00  0.78244134351E+03  0.78244134351E+03  0.00000000000E+00 0. -1.
         -2   -1    0    0    0  501 -0.00000000000E+00 -0.00000000000E+00 -0.36892415641E+02  0.36892415641E+02  0.00000000000E+00 0.  1.
         23    2    1    2    0    0 -0.12215533497E+03  0.37932307097E+02  0.33644651912E+03  0.38105718895E+03  0.12509010846E+03 0.  0.
          5    1    3    3  502    0 -0.73364147164E+02 -0.51145122565E+01  0.29439925832E+03  0.30347463159E+03  0.41800000000E+01 0. -1.
         -5    1    3    3    0  502 -0.48791187809E+02  0.43046819353E+02  0.42047260807E+02  0.77582557354E+02  0.41800000000E+01 0. -1.
        -11    1    1    2    0    0  0.59037961704E+02 -0.57527281643E+02  0.29617150997E+03  0.30742874357E+03  0.00000000000E+00 0. -1.
         11    1    1    2    0    0  0.63117373268E+02  0.19594974546E+02  0.11293089877E+03  0.13084782662E+03  0.00000000000E+00 0.  1.
</event>
<event>
 6    1  0.4966153E-006  0.3419792E+03  0.7561462E-02  0.1065956E+00
          2   -1    0    0  501    0  0.00000000000E+00  0.00000000000E+00  0.54022756566E+03  0.54022756566E+03  0.00000000000E+00 0. -1.
         -2   -1    0    0    0  501 -0.00000000000E+00 -0.00000000000E+00 -0.22715740459E+03  0.22715740459E+03  0.00000000000E+00 0.  1.
          5    1    1    2  502    0 -0.28912119314E+03  0.78047411161E+02  0.13508562285E+03  0.32855450174E+03  0.41800000000E+01 0. -1.
         -5    1    1    2    0  502  0.28515349778E+03 -0.42576455471E+02  0.75645330664E+02  0.29810226485E+03  0.41800000000E+01 0.  1.
        -11    1    1    2    0    0 -0.10704290143E+01 -0.65578871970E+02  0.63096992040E+02  0.91010794259E+02  0.00000000000E+00 0.  1.
         11    1    1    2    0    0  0.50381243746E+01  0.30107916280E+02  0.39242215512E+02  0.49717409408E+02  0.00000000000E+00 0. -1.
</event>
<event>
 7    1  0.4966153E-006  0.1121765E+03  0.7561462E-02  0.1256592E+00
          2   -1    0    0  501    0  0.00000000000E+00  0.00000000000E+00  0.89130944265E+01  0.89130944265E+01  0.00000000000E+00 0. -1.
         -2   -1    0    0    0  501 -0.00000000000E+00 -0.00000000000E+00 -0.15816590876E+04  0.15816590876E+04  0.00000000000E+00 0.  1.
         23    2    1    2    0    0 -0.32094628271E+02  0.10038450021E+02 -0.11300096253E+04  0.11374096626E+04  0.12509257193E+03 0.  0.
          5    1    3    3  502    0  0.30795905266E+02 -0.38834402538E+02 -0.44737774317E+03  0.45013422008E+03  0.41800000000E+01 0. -1.
         -5    1    3    3    0  502 -0.62890533537E+02  0.48872852559E+02 -0.68263188214E+03  0.68727544248E+03  0.41800000000E+01 0. -1.
        -11    1    1    2    0    0  0.55932021944E+02  0.17336978148E+02 -0.22915256940E+03  0.23651609237E+03  0.00000000000E+00 0. -1.
         11    1    1    2    0    0 -0.23837393673E+02 -0.27375428169E+02 -0.21358379847E+03  0.21664642710E+03  0.00000000000E+00 0.  1.
</event>
<event>
 7    1  0.4966153E-006  0.2512847E+03  0.7561462E-02  0.1112496E+00
          4   -1    0    0  501    0  0.00000000000E+00  0.00000000000E+00  0.48869913099E+03  0.48869913099E+03  0.00000000000E+00 0. -1.
         -4   -1    0    0    0  501 -0.00000000000E+00 -0.00000000000E+00 -0.16122696543E+03  0.16122696543E+03  0.00000000000E+00 0.  1.
         23    2    1    2    0    0  0.23773920567E+03 -0.21778505294E+02  0.51744369386E+02  0.27444005802E+03  0.12508250267E+03 0.  0.
          5    1    3    3  502    0  0.17489840139E+03  0.30781455067E+02  0.69084978052E+02  0.19059683990E+03  0.41800000000E+01 0. -1.
         -5    1    3    3    0  502  0.62840804278E+02 -0.52559960361E+02 -0.17340608666E+02  0.83843218118E+02  0.41800000000E+01 0. -1.
        -11    1    1    2    0    0 -0.28177182359E+02 -0.12018938994E+02  0.43342452172E+01  0.30938554941E+02  0.00000000000E+00 0.  1.
         11    1    1    2    0    0 -0.20956202331E+03  0.33797444288E+02  0.27139355096E+03  0.34454748346E+03  0.00000000000E+00 0. -1.
</event>
<event>
 7    1  0.4966153E-006  0.7990708E+02  0.7561462E-02  0.1329315E+00
          1   -1    0    0  501    0  0.00000000000E+00  0.00000000000E+00  0.71585937566E+02  0.71585937566E+02  0.00000000000E+00 0. -1.
         -1   -1    0    0    0  501 -0.00000000000E+00 -0.00000000000E+00 -0.26523669506E+03  0.26523669506E+03  0.00000000000E+00 0.  1.
         23    2    1    2    0    0 -0.13858669167E+02 -0.77971588626E+02 -0.14527140334E+03  0.20741846655E+03  0.12508800219E+03 0.  0.
          5    1    3    3  502    0 -0.15410152783E+02 -0.60867354687E+02 -0.16755147513E+03  0.17897842577E+03  0.41800000000E+01 0.  1.
         -5    1    3    3    0  502  0.15514836161E+01 -0.17104233939E+02  0.22280071791E+02  0.28440040771E+02  0.41800000000E+01 0.  1.
        -11    1    1    2    0    0  0.97370145218E+01  0.50174835317E+02  0.20457167291E+02  0.55052876805E+02  0.00000000000E+00 0. -1.
         11    1    1    2    0    0  0.41216546456E+01  0.27796753309E+02 -0.68836521445E+02  0.74351289270E+02  0.00000000000E+00 0.  1.
</event>
<event>
 7    1  0.4966153E-006  0.1449889E+03  0.7561462E-02  0.1206769E+00
         -2   -1    0    0    0  501 -0.00000000000E+00  0.00000000000E+00  0.16709097291E+03  0.16709097291E+03  0.00000000000E+00 0.  1.
          2   -1    0    0  501    0  0.00000000000E+00 -0.00000000000E+00 -0.13782445948E+03  0.13782445948E+03  0.00000000000E+00 0. -1.
         23    2    1    2    0    0  0.56563241508E+02 -0.86056076454E+02  0.49583409301E+02  0.16944168358E+03  0.12508765355E+03 0.  0.
          5    1    3    3  502    0  0.72324383840E+02 -0.10881244551E+03  0.53357730903E+02  0.14119307576E+03  0.41800000000E+01 0. -1.
         -5    1    3    3    0  502 -0.15761142332E+02  0.22756369053E+02 -0.37743216019E+01  0.28248607818E+02  0.41800000000E+01 0. -1.
        -11    1    1    2    0    0  0.61811079574E+01 -0.12776143069E+02  0.61245352146E+01  0.15457873686E+02  0.00000000000E+00 0.  1.
         11    1    1    2    0    0 -0.62744349465E+02  0.98832219523E+02 -0.26441431090E+02  0.12001587513E+03  0.00000000000E+00 0. -1.
</event>
<event>
 7    1  0.4966153E-006  0.1514509E+03  0.7561462E-02  0.1198701E+00
         -4   -1    0    0    0  501 -0.00000000000E+00  0.00000000000E+00  0.27155132887E+03  0.27155132887E+03  0.00000000000E+00 0.  1.
          4   -1    0    0  501    0  0.00000000000E+00 -0.00000000000E+00 -0.11058381005E+03  0.11058381005E+03  0.00000000000E+00 0. -1.
         23    2    1    2    0    0 -0.94115453033E+02  0.65697094593E+02  0.16265051597E+03  0.23510990241E+03  0.12509056371E+03 0.  0.
          5    1    3    3  502    0  0.28530669124E+02  0.20382013374E+02  0.56575885159E+02  0.66691294270E+02  0.41800000000E+01 0.  1.
         -5    1    3    3    0  502 -0.12264612216E+03  0.45315081219E+02  0.10607463081E+03  0.16841860814E+03  0.41800000000E+01 0.  1.
        -11    1    1    2    0    0  0.92161599905E+02 -0.80180982517E+02 -0.19794811339E+02  0.12375211114E+03  0.00000000000E+00 0. -1.
         11    1    1    2    0    0  0.19538531281E+01  0.14483887924E+02  0.18111814188E+02  0.23273125373E+02  0.00000000000E+00 0.  1.
</event>
<event>
 7    1  0.4966153E-006  0.1598804E+03  0.7561462E-02  0.1188832E+00
          1   -1    0    0  501    0  0.00000000000E+00  0.00000000000E+00  0.48890673638E+02  0.48890673638E+02  0.00000000000E+00 0. -1.
         -1   -1    0    0    0  501 -0.00000000000E+00 -0.00000000000E+00 -0.76093112751E+03  0.76093112751E+03  0.00000000000E+00 0.  1.
         23    2    1    2    0    0 -0.57230097909E+02  0.13394554964E+03 -0.50822844710E+03  0.54328654682E+03  0.12508966038E+03 0.  0.
          5    1    3    3  502    0 -0.75870145977E+02  0.10977930718E+03 -0.48917046664E+03  0.50706310571E+03  0.41800000000E+01 0. -1.
         -5    1    3    3    0  502  0.18640048068E+02  0.24166242459E+02 -0.19057980460E+02  0.36223441109E+02  0.41800000000E+01 0. -1.
        -11    1    1    2    0    0  0.13583179190E+02  0.99644611530E+00 -0.70793252221E+02  0.72091471214E+02  0.00000000000E+00 0.  1.
         11    1    1    2    0    0  0.43646918719E+02 -0.13494199575E+03 -0.13301875455E+03  0.19444378311E+03  0.00000000000E+00 0. -1.
</event>
<event>
 6    1  0.4966153E-006  0.9169054E+02  0.7561462E-02  0.1298809E+00
          1   -1    0    0  501    0  0.00000000000E+00  0.00000000000E+00  0.15576085159E+03  0.15576085159E+03  0.00000000000E+00 0. -1.
         -1   -1    0    0    0  501 -0.00000000000E+00 -0.00000000000E+00 -0.13068231455E+03  0.13068231455E+03  0.00000000000E+00 0.  1.
          5    1    1    2  502    0  0.35765069824E+02  0.55744781322E+02 -0.65308849903E+02  0.93109286002E+02  0.41800000000E+01 0. -1.
         -5    1    1    2    0  502 -0.56878429268E+02 -0.31076498953E+02  0.89062644621E+01  0.65556833738E+02  0.41800000000E+01 0.  1.
        -11    1    1    2    0    0  0.23883573688E+02  0.31699043594E+01 -0.14284200095E+02  0.28009137047E+02  0.00000000000E+00 0.  1.
         11    1    1    2    0    0 -0.27702142446E+01 -0.27838186729E+02  0.95765322580E+02  0.99767909351E+02  0.00000000000E+00 0. -1.
</event>
<event>
 7    1  0.4966153E-006  0.9036949E+02  0.7561462E-02  0.1301959E+00
          2   -1    0    0  501    0  0.00000000000E+00  0.00000000000E+00  0.68169435962E+02  0.68169435962E+02  0.00000000000E+00 0. -1.
         -2   -1    0    0    0  501 -0.00000000000E+00 -0.00000000000E+00 -0.22608279193E+03  0.22608279193E+03  0.00000000000E+00 0.  1.
         23    2    1    2    0    0  0.10930210017E+02 -0.59694265556E+02 -0.97614418956E+02  0.16988480734E+03  0.12509755451E+03 0.  0.
          5    1    3    3  502    0  0.48835321970E+02 -0.13213722173E+01 -0.86287191243E+02  0.99245082846E+02  0.41800000000E+01 0. -1.
         -5    1    3    3    0  502 -0.37905111952E+02 -0.58372893338E+02 -0.11327227713E+02  0.70639724493E+02  0.41800000000E+01 0. -1.
        -11    1    1    2    0    0  0.36803228670E-01  0.34546729142E+02 -0.82263567939E+02  0.89223161000E+02  0.00000000000E+00 0.  1.
         11    1    1    2    0    0 -0.10967013246E+02  0.25147536414E+02  0.21964630931E+02  0.35144259548E+02  0.00000000000E+00 0. -1.
</event>
<event>
 7    1  0.4966153E-006  0.8512589E+02  0.7561462E-02  0.1315104E+00
          3   -1    0    0  501    0  0.00000000000E+00  0.00000000000E+00  0.25206800411E+02  0.25206800411E+02  0.00000000000E+00 0. -1.
         -3   -1    0    0    0  501 -0.00000000000E+00 -0.00000000000E+00 -0.52622984252E+03  0.52622984252E+03  0.00000000000E+00 0.  1.
         23    2    1    2    0    0  0.45093464167E+01  0.94034990583E+01 -0.37651269345E+03  0.39688613981E+03  0.12509212463E+03 0.  0.
          5    1    3    3  502    0 -0.38755273847E+02  0.17613477155E+02 -0.43713395505E+02  0.61159947474E+02  0.41800000000E+01 0. -1.
         -5    1    3    3    0  502  0.43264620264E+02 -0.82099780963E+01 -0.33279929795E+03  0.33572619234E+03  0.41800000000E+01 0. -1.
        -11    1    1    2    0    0  0.39089100807E+02 -0.54041310957E+01 -0.91728127281E+02  0.99855955101E+02  0.00000000000E+00 0.  1.
         11    1    1    2    0    0 -0.43598447223E+02 -0.39993679626E+01 -0.32782221370E+02  0.54694548013E+02  0.00000000000E+00 0. -1.
</event>
<event>
 7    1  0.4966153E-006  0.2718385E+03  0.7561462E-02  0.1100232E+00
         -1   -1    0    0    0  501 -0.00000000000E+00  0.00000000000E+00  0.36117927560E+03  0.36117927560E+03  0.00000000000E+00 0.  1.
          1   -1    0    0  501    0  0.00000000000E+00 -0.00000000000E+00 -0.33346777349E+03  0.33346777349E+03  0.00000000000E+00 0. -1.
         23    2    1    2    0    0  0.67549025045E+02  0.25494296993E+03  0.21153027118E+03  0.36048622736E+03  0.12508587367E+03 0.  0.
          5    1    3    3  502    0 -0.92356705393E+01  0.80115744521E+02  0.12951732311E+03  0.15263040168E+03  0.41800000000E+01 0.  1.
         -5    1    3    3    0  502  0.76784695584E+02  0.17482722540E+03  0.82012948069E+02  0.20785582568E+03  0.41800000000E+01 0.  1.
        -11    1    1    2    0    0 -0.73135034074E+02 -0.15040749522E+03 -0.14855704385E+03  0.22369698948E+03  0.00000000000E+00 0. -1.
         11    1    1    2    0    0  0.55860090285E+01 -0.10453547471E+03 -0.35261725223E+02  0.11046383225E+03  0.00000000000E+00 0.  1.
</event>
<event>
 7    1  0.4966153E-006  0.7654686E+02  0.7561462E-02  0.1339147E+00
          4   -1    0    0  501    0  0.00000000000E+00  0.00000000000E+00  0.99734587764E+02  0.99734587764E+02  0.00000000000E+00 0. -1.
         -4   -1    0    0    0  501 -0.00000000000E+00 -0.00000000000E+00 -0.16777321075E+03  0.16777321075E+03  0.00000000000E+00 0.  1.
         23    2    1    2    0    0  0.44093762509E+02  0.19142019391E+02 -0.94143932052E+02  0.16376932148E+03  0.12508650573E+03 0.  0.
          5    1    3    3  502    0  0.33437332201E+02 -0.62442183626E+01 -0.12058983501E+03  0.12536517122E+03  0.41800000000E+01 0.  1.
         -5    1    3    3    0  502  0.10656430309E+02  0.25386237754E+02  0.26445902953E+02  0.38404150260E+02  0.41800000000E+01 0.  1.
        -11    1    1    2    0    0  0.87050963940E+00  0.26727937442E+02 -0.11718171298E+02  0.29196848555E+02  0.00000000000E+00 0.  1.
         11    1    1    2    0    0 -0.44964272149E+02 -0.45869956834E+02  0.37823480365E+02  0.74541628482E+02  0.00000000000E+00 0. -1.
</event>
<event>
 7    1  0.4966153E-006  0.1384638E+03  0.7561462E-02  0.1215411E+00
         -2   -1    0    0    0  501 -0.00000000000E+00  0.00000000000E+00  0.16393705910E+02  0.16393705910E+02  0.00000000000E+00 0.  1.
          2   -1    0    0  501    0  0.00000000000E+00 -0.00000000000E+00 -0.14259922654E+04  0.14259922654E+04  0.00000000000E+00 0. -1.
         23    2    1    2    0    0  0.72010110194E+02 -0.74570902654E+02 -0.88881152300E+03  0.90353746308E+03  0.12509096001E+03 0.  0.
          5    1    3    3  502    0 -0.20476935005E+02 -0.52245886349E+02 -0.18667489250E+03  0.19497160152E+03  0.41800000000E+01 0. -1.
         -5    1    3    3    0  502  0.92487045199E+02 -0.22325016305E+02 -0.70213663050E+03  0.70856586156E+03  0.41800000000E+01 0. -1.
        -11    1    1    2    0    0 -0.91277864243E+01  0.60239081719E+02 -0.14064989313E+03  0.15327901321E+03  0.00000000000E+00 0.  1.
         11    1    1    2    0    0 -0.62882323770E+02  0.14331820935E+02 -0.38013714332E+03  0.38556949499E+03  0.00000000000E+00 0. -1.
</event>
<event>
 7    1  0.4966153E-006  0.1220221E+03  0.7561462E-02  0.1239798E+00
          2   -1    0    0  501    0  0.00000000000E+00  0.00000000000E+00  0.90809702670E+02  0.90809702670E+02  0.00000000000E+00 0. -1.
         -2   -1    0    0    0  501 -0.00000000000E+00 -0.00000000000E+00 -0.17809050360E+03  0.17809050360E+03  0.00000000000E+00 0.  1.
         23    2    1    2    0    0  0.61055741989E+02  0.47158854001E+02 -0.62887855698E+02  0.15073987143E+03  0.11320717868E+03 0.  0.
          5    1    3    3  502    0 -0.31572600554E+02  0.22982124297E+02 -0.72571496380E+01  0.39939275955E+02  0.41800000000E+01 0. -1.
         -5    1    3    3    0  502  0.92628342543E+02  0.24176729704E+02 -0.55630706060E+02  0.11080059548E+03  0.41800000000E+01 0.  1.
        -11    1    1    2    0    0 -0.10265980663E+02 -0.56397260686E+02 -0.32513005158E+02  0.65902480046E+02  0.00000000000E+00 0. -1.
         11    1    1    2    0    0 -0.50789761326E+02  0.92384066842E+01  0.81200599300E+01  0.52257854787E+02  0.00000000000E+00 0.  1.
</event>
<event>
 7    1  0.4966153E-006  0.2987339E+03  0.7561462E-02  0.1085875E+00
          1   -1    0    0  501    0  0.00000000000E+00  0.00000000000E+00  0.20738462403E+03  0.20738462403E+03  0.00000000000E+00 0. -1.
         -1   -1    0    0    0  501 -0.00000000000E+00 -0.00000000000E+00 -0.75709826343E+03  0.75709826343E+03  0.00000000000E+00 0.  1.
         23    2    1    2    0    0  0.96422534456E+02  0.26597214077E+03 -0.58872252249E+03  0.66504154754E+03  0.12509023406E+03 0.  0.
          5    1    3    3  502    0  0.12146168038E+03  0.18577622284E+03 -0.38139758920E+03  0.44130186746E+03  0.41800000000E+01 0. -1.
         -5    1    3    3    0  502 -0.25039145929E+02  0.80195917925E+02 -0.20732493329E+03  0.22373968008E+03  0.41800000000E+01 0. -1.
        -11    1    1    2    0    0 -0.66998328456E+02 -0.24796014063E+03  0.52912465978E+02  0.26224556510E+03  0.00000000000E+00 0.  1.
         11    1    1    2    0    0 -0.29424206000E+02 -0.18012000137E+02 -0.13903582892E+02  0.37195774826E+02  0.00000000000E+00 0. -1.
</event>
<event>
 7    1  0.4966153E-006  0.1065535E+03  0.7561462E-02  0.1267089E+00
         -1   -1    0    0    0  501 -0.00000000000E+00  0.00000000000E+00  0.63774618406E+02  0.63774618406E+02  0.00000000000E+00 0.  1.
          1   -1    0    0  501    0  0.00000000000E+00 -0.00000000000E+00 -0.26096382494E+03  0.26096382494E+03  0.00000000000E+00 0. -1.
         23    2    1    2    0    0 -0.88615834676E+01 -0.54513867304E+02 -0.51661985574E+02  0.14618391273E+03  0.12510190326E+03 0.  0.
          5    1    3    3  502    0  0.16032880947E+02  0.25162269316E+02 -0.54811080055E+02  0.62545343275E+02  0.41800000000E+01 0.  1.
         -5    1    3    3    0  502 -0.24894464415E+02 -0.79676136620E+02  0.31490944815E+01  0.83638569460E+02  0.41800000000E+01 0.  1.
        -11    1    1    2    0    0  0.10354097886E+02 -0.21241192831E+02 -0.16147256570E+02  0.28620438687E+02  0.00000000000E+00 0.  1.
         11    1    1    2    0    0 -0.14925144187E+01  0.75755060135E+02 -0.12937996439E+03  0.14993409192E+03  0.00000000000E+00 0. -1.
</event>
<event>
 7    1  0.4966153E-006  0.2620740E+03  0.7561462E-02  0.1105904E+00
         -2   -1    0    0    0  501 -0.00000000000E+00  0.00000000000E+00  0.34789171996E+02  0.34789171996E+02  0.00000000000E+00 0.  1.
          2   -1    0    0  501    0  0.00000000000E+00 -0.00000000000E+00 -0.20061392067E+04  0.20061392067E+04  0.00000000000E+00 0. -1.
         23    2    1    2    0    0  0.22428003949E+03 -0.86494510666E+02 -0.97942667255E+03  0.10162223752E+04  0.12509385439E+03 0.  0.
          5    1    3    3  502    0  0.71283363396E+01  0.23168152319E+02 -0.53871116186E+02  0.59221161927E+02  0.41800000000E+01 0.  1.
         -5    1    3    3    0  502  0.21715170315E+03 -0.10966266299E+03 -0.92555555637E+03  0.95700121325E+03  0.41800000000E+01 0.  1.
        -11    1    1    2    0    0 -0.19117993685E+02 -0.17775486974E+02 -0.12945634699E+03  0.13206214975E+03  0.00000000000E+00 0.  1.
         11    1    1    2    0    0 -0.20516204580E+03  0.10426999764E+03 -0.86246701520E+03  0.89264385382E+03  0.00000000000E+00 0. -1.
</event>
<event>
 7    1  0.4966153E-006  0.9264805E+02  0.7561462E-02  0.1296563E+00
          2   -1    0    0  501    0  0.00000000000E+00  0.00000000000E+00  0.40693380097E+03  0.40693380097E+03  0.00000000000E+00 0.  1.
         -2   -1    0    0    0  501 -0.00000000000E+00 -0.00000000000E+00 -0.30438085074E+02  0.30438085074E+02  0.00000000000E+00 0. -1.
         23    2    1    2    0    0 -0.14060279864E+02  0.14064481550E+02  0.18209362271E+03  0.22181427977E+03  0.12509191088E+03 0.  0.
          5    1    3    3  502    0  0.21793289986E+01  0.54130306659E+02  0.26846017047E+02  0.60605450293E+02  0.41800000000E+01 0. -1.
         -5    1    3    3    0  502 -0.16239608863E+02 -0.40065825109E+02  0.15524760566E+03  0.16120882947E+03  0.41800000000E+01 0. -1.
        -11    1    1    2    0    0  0.11872760789E+02  0.35747433518E+02  0.48743894694E+02  0.61602018813E+02  0.00000000000E+00 0. -1.
         11    1    1    2    0    0  0.21875190752E+01 -0.49811915068E+02  0.14565819850E+03  0.15395558747E+03  0.00000000000E+00 0.  1.
</event>
<event>
 7    1  0.4966153E-006  0.1184856E+03  0.7561462E-02  0.1245616E+00
          1   -1    0    0  501    0  0.00000000000E+00  0.00000000000E+00  0.41727666145E+02  0.41727666145E+02  0.00000000000E+00 0. -1.
         -1   -1    0    0    0  501 -0.00000000000E+00 -0.00000000000E+00 -0.43429790647E+03  0.43429790647E+03  0.00000000000E+00 0.  1.
         23    2    1    2    0    0 -0.79454045103E+02  0.10000713790E+02 -0.21830756820E+03  0.26404242868E+03  0.12508896934E+03 0.  0.
          5    1    3    3  502    0 -0.26659309588E+02  0.65546396484E+02 -0.11933995790E+03  0.13880398709E+03  0.41800000000E+01 0.  1.
         -5    1    3    3    0  502 -0.52794735516E+02 -0.55545682694E+02 -0.98967610298E+02  0.12523844159E+03  0.41800000000E+01 0.  1.
        -11    1    1    2    0    0  0.74225912122E+02  0.40623760707E+01 -0.18089924336E+03  0.19557741479E+03  0.00000000000E+00 0.  1.
         11    1    1    2    0    0  0.52281329810E+01 -0.14063089860E+02  0.66365712335E+01  0.16405729140E+02  0.00000000000E+00 0. -1.
</event>
<event>
 7    1  0.4966153E-006  0.1247078E+03  0.7561462E-02  0.1235527E+00
          1   -1    0    0  501    0  0.00000000000E+00  0.00000000000E+00  0.66939172206E+03  0.66939172206E+03  0.00000000000E+00 0. -1.
         -1   -1    0    0    0  501 -0.00000000000E+00 -0.00000000000E+00 -0.25006265553E+02  0.25006265553E+02  0.00000000000E+00 0.  1.
         23    2    1    2    0    0 -0.69059858061E+02  0.15176679244E+02  0.36484274646E+03  0.39211825426E+03  0.12508756970E+03 0.  0.
          5    1    3    3  502    0 -0.10397610019E+03 -0.16244361505E+00  0.28816206582E+03  0.30637543043E+03  0.41800000000E+01 0. -1.
         -5    1    3    3    0  502  0.34916242127E+02  0.15339122859E+02  0.76680680643E+02  0.85742823829E+02  0.41800000000E+01 0. -1.
        -11    1    1    2    0    0  0.83918437763E+01 -0.40418419105E+02  0.57949577343E+02  0.71149315943E+02  0.00000000000E+00 0.  1.
         11    1    1    2    0    0  0.60668014285E+02  0.25241739861E+02  0.22159313270E+03  0.23113041740E+03  0.00000000000E+00 0. -1.
</event>
<event>
 7    1  0.4966153E-006  0.7332224E+02  0.7561462E-02  0.1349147E+00
         -1   -1    0    0    0  501 -0.00000000000E+00  0.00000000000E+00  0.70273922729E+02  0.70273922729E+02  0.00000000000E+00 0.  1.
          1   -1    0    0  501    0  0.00000000000E+00 -0.00000000000E+00 -0.17116343463E+03  0.17116343463E+03  0.00000000000E+00 0. -1.
         23    2    1    2    0    0 -0.17770642754E+02 -0.68901476541E+01 -0.45368473113E+02  0.13441825438E+03  0.12508676541E+03 0.  0.
          5    1    3    3  502    0 -0.53927623705E+02 -0.23958023393E+02  0.15791362746E+02  0.61229200719E+02  0.41800000000E+01 0.  1.
         -5    1    3    3    0  502  0.36156980951E+02  0.17067875739E+02 -0.61159835859E+02  0.73189053663E+02  0.41800000000E+01 0.  1.
        -11    1    1    2    0    0 -0.61253571260E+01 -0.14167801764E+02 -0.70251502207E+02  0.71927186579E+02  0.00000000000E+00 0. -1.
         11    1    1    2    0    0  0.23895999880E+02  0.21057949418E+02  0.14730463420E+02  0.35091916399E+02  0.00000000000E+00 0.  1.
</event>
<event>
 7    1  0.4966153E-006  0.1455978E+03  0.7561462E-02  0.1205989E+00
         -2   -1    0    0    0  501 -0.00000000000E+00  0.00000000000E+00  0.76921867987E+03  0.76921867987E+03  0.00000000000E+00 0.  1.
          2   -1    0    0  501    0  0.00000000000E+00 -0.00000000000E+00 -0.36326803949E+02  0.36326803949E+02  0.00000000000E+00 0. -1.
         23    2    1    2    0    0  0.10450582339E+03  0.13588005908E+02  0.54887527230E+03  0.57272629309E+03  0.12508093870E+03 0.  0.
          5    1    3    3  502    0  0.20655353156E+02  0.52454198074E+02  0.10437067458E+03  0.11869623677E+03  0.41800000000E+01 0.  1.
         -5    1    3    3    0  502  0.83850470238E+02 -0.38866192166E+02  0.44450459772E+03  0.45403005633E+03  0.41800000000E+01 0.  1.
        -11    1    1    2    0    0 -0.18886761397E+02  0.37827947162E+02  0.63673817985E+02  0.76433097800E+02  0.00000000000E+00 0. -1.
         11    1    1    2    0    0 -0.85619061997E+02 -0.51415953070E+02  0.12034278564E+03  0.15638609293E+03  0.00000000000E+00 0.  1.
</event>
<event>
 7    1  0.4966153E-006  0.1035445E+03  0.7561462E-02  0.1273014E+00
          1   -1    0    0  501    0  0.00000000000E+00  0.00000000000E+00  0.64340741750E+03  0.64340741750E+03  0.00000000000E+00 0. -1.
         -1   -1    0    0    0  501 -0.00000000000E+00 -0.00000000000E+00 -0.18785296697E+02  0.18785296697E+02  0.00000000000E+00 0.  1.
         23    2    1    2    0    0  0.22922414232E+01 -0.76336059576E+01  0.31803051623E+03  0.34183916951E+03  0.12508829780E+03 0.  0.
          5    1    3    3  502    0  0.46830776872E+02 -0.37753067668E+02  0.96104754707E+02  0.11345488997E+03  0.41800000000E+01 0.  1.
         -5    1    3    3    0  502 -0.44538535449E+02  0.30119461710E+02  0.22192576152E+03  0.22838427954E+03  0.41800000000E+01 0.  1.
        -11    1    1    2    0    0 -0.43112499570E+02  0.23458407293E+02  0.16576581156E+03  0.17287940530E+03  0.00000000000E+00 0.  1.
         11    1    1    2    0    0  0.40820258147E+02 -0.15824801336E+02  0.14082579301E+03  0.14747413939E+03  0.00000000000E+00 0. -1.
</event>
<event>
 7    1  0.4966153E-006  0.1293807E+03  0.7561462E-02  0.1228378E+00
         -2   -1    0    0    0  501 -0.00000000000E+00  0.00000000000E+00  0.54366230385E+03  0.54366230385E+03  0.00000000000E+00 0.  1.
          2   -1    0    0  501    0  0.00000000000E+00 -0.00000000000E+00 -0.42891188216E+02  0.42891188216E+02  0.00000000000E+00 0. -1.
         23    2    1    2    0    0 -0.24845671655E+02 -0.99353809242E+02  0.32425610562E+03  0.36232453903E+03  0.12509421547E+03 0.  0.
          5    1    3    3  502    0 -0.61625840815E+02 -0.15115111725E+02  0.86298132693E+02  0.10719631974E+03  0.41800000000E+01 0.  1.
         -5    1    3    3    0  502  0.36780169161E+02 -0.84238697518E+02  0.23795797293E+03  0.25512821930E+03  0.41800000000E+01 0.  1.
        -11    1    1    2    0    0  0.14598463683E+02  0.33934463014E+02  0.13501919932E+01  0.36966010609E+02  0.00000000000E+00 0. -1.
         11    1    1    2    0    0  0.10247207972E+02  0.65419346228E+02  0.17516481802E+03  0.18726294242E+03  0.00000000000E+00 0.  1.
</event>
<event>
 7    1  0.4966153E-006  0.1023627E+03  0.7561462E-02  0.1275404E+00
          2   -1    0    0  501    0  0.00000000000E+00  0.00000000000E+00  0.25243924586E+03  0.25243924586E+03  0.00000000000E+00 0. -1.
         -2   -1    0    0    0  501 -0.00000000000E+00 -0.00000000000E+00 -0.65793944203E+02  0.65793944203E+02  0.00000000000E+00 0.  1.
         23    2    1    2    0    0  0.36168430641E+02  0.54807826029E+02  0.58394368695E+02  0.15287494969E+03  0.12509514291E+03 0.  0.
          5    1    3    3  502    0  0.55381154211E+01 -0.23755607689E+02 -0.24308763861E+02  0.34689883534E+02  0.41800000000E+01 0. -1.
         -5    1    3    3    0  502  0.30630315220E+02  0.78563433718E+02  0.82703132556E+02  0.11818506616E+03  0.41800000000E+01 0. -1.
        -11    1    1    2    0    0  0.15701934477E+02  0.49090963952E+01  0.55512092397E+02  0.57898552452E+02  0.00000000000E+00 0. -1.
         11    1    1    2    0    0 -0.51870365118E+02 -0.59716922424E+02  0.72738840567E+02  0.10745968792E+03  0.00000000000E+00 0.  1.
</event>
<event>
 7    1  0.4966153E-006  0.1071986E+03  0.7561462E-02  0.1265847E+00
          1   -1    0    0  501    0  0.00000000000E+00  0.00000000000E+00  0.89048828075E+03  0.89048828075E+03  0.00000000000E+00 0. -1.
         -1   -1    0    0    0  501 -0.00000000000E+00 -0.00000000000E+00 -0.21764690317E+02  0.21764690317E+02  0.00000000000E+00 0.  1.
         23    2    1    2    0    0 -0.15359755684E+01  0.84532141604E+02  0.39659831693E+03  0.42440008939E+03  0.12520850089E+03 0.  0.
          5    1    3    3  502    0  0.13564507854E+02  0.13595654812E+02  0.31312686526E+03  0.31374311762E+03  0.41800000000E+01 0. -1.
         -5    1    3    3    0  502 -0.15100483422E+02  0.70936486792E+02  0.83471451672E+02  0.11065697177E+03  0.41800000000E+01 0. -1.
        -11    1    1    2    0    0  0.39910344538E+02 -0.14921087863E+02  0.13950934739E+03  0.14587094458E+03  0.00000000000E+00 0.  1.
         11    1    1    2    0    0 -0.38374368970E+02 -0.69611053741E+02  0.33261592611E+03  0.34198193709E+03  0.00000000000E+00 0. -1.
</event>
<event>
 7    1  0.4966153E-006  0.1932330E+03  0.7561462E-02  0.1155577E+00
          3   -1    0    0  501    0  0.00000000000E+00  0.00000000000E+00  0.50558930683E+02  0.50558930683E+02  0.00000000000E+00 0. -1.
         -3   -1    0    0    0  501 -0.00000000000E+00 -0.00000000000E+00 -0.10800144534E+04  0.10800144534E+04  0.00000000000E+00 0.  1.
         23    2    1    2    0    0 -0.61189391182E+01 -0.17786899168E+03 -0.78469022718E+03  0.81428608228E+03  0.12509297159E+03 0.  0.
          5    1    3    3  502    0  0.38994318199E+02 -0.11567014659E+03 -0.62744418557E+03  0.63922125909E+03  0.41800000000E+01 0.  1.
         -5    1    3    3    0  502 -0.45113257317E+02 -0.62198845089E+02 -0.15724604161E+03  0.17506482319E+03  0.41800000000E+01 0.  1.
        -11    1    1    2    0    0 -0.25118846975E+02  0.10735524503E+03 -0.86167789766E+02  0.13993210176E+03  0.00000000000E+00 0. -1.
         11    1    1    2    0    0  0.31237786094E+02  0.70513746651E+02 -0.15859750574E+03  0.17635520002E+03  0.00000000000E+00 0.  1.
</event>
<event>
 7    1  0.4966153E-006  0.1037998E+03  0.7561462E-02  0.1272502E+00
         -3   -1    0    0    0  501 -0.00000000000E+00  0.00000000000E+00  0.72206539906E+02  0.72206539906E+02  0.00000000000E+00 0.  1.
          3   -1    0    0  501    0  0.00000000000E+00 -0.00000000000E+00 -0.17513189441E+03  0.17513189441E+03  0.00000000000E+00 0. -1.
         23    2    1    2    0    0 -0.14516475366E+02 -0.10894712977E+02 -0.10853392097E+02  0.11907740412E+03  0.11718450932E+03 0.  0.
          5    1    3    3  502    0  0.35503433860E+02  0.35200749394E+02 -0.85207284887E+01  0.50888719651E+02  0.41800000000E+01 0. -1.
         -5    1    3    3    0  502 -0.50019909226E+02 -0.46095462372E+02 -0.23326636082E+01  0.68188684470E+02  0.41800000000E+01 0.  1.
        -11    1    1    2    0    0 -0.48182060214E+01  0.47573978887E+02 -0.48150326127E+02  0.67859800195E+02  0.00000000000E+00 0. -1.
         11    1    1    2    0    0  0.19334681388E+02 -0.36679265909E+02 -0.43921636281E+02  0.60401230001E+02  0.00000000000E+00 0.  1.
</event>
<event>
 7    1  0.4966153E-006  0.6379100E+02  0.7561462E-02  0.1382578E+00
          3   -1    0    0  501    0  0.00000000000E+00  0.00000000000E+00  0.15742515158E+03  0.15742515158E+03  0.00000000000E+00 0. -1.
         -3   -1    0    0    0  501 -0.00000000000E+00 -0.00000000000E+00 -0.76270123398E+02  0.76270123398E+02  0.00000000000E+00 0.  1.
         23    2    1    2    0    0  0.14709138063E+02 -0.73783760839E+00  0.36923060257E+02  0.13125291433E+03  0.12508841671E+03 0.  0.
          5    1    3    3  502    0 -0.30951932419E+02  0.28059664124E+02  0.59305828487E+02  0.72663749998E+02  0.41800000000E+01 0.  1.
         -5    1    3    3    0  502  0.45661070481E+02 -0.28797501733E+02 -0.22382768230E+02  0.58589164333E+02  0.41800000000E+01 0.  1.
        -11    1    1    2    0    0 -0.12824381572E+02  0.13459015189E+02  0.70652955528E+02  0.73057853633E+02  0.00000000000E+00 0. -1.
         11    1    1    2    0    0 -0.18847564901E+01 -0.12721177581E+02 -0.26420987608E+02  0.29384507010E+02  0.00000000000E+00 0.  1.
</event>
<event>
 7    1  0.4966153E-006  0.1515665E+03  0.7561462E-02  0.1198561E+00
          1   -1    0    0  501    0  0.00000000000E+00  0.00000000000E+00  0.22136485589E+03  0.22136485589E+03  0.00000000000E+00 0. -1.
         -1   -1    0    0    0  501 -0.00000000000E+00 -0.00000000000E+00 -0.11653511888E+03  0.11653511888E+03  0.00000000000E+00 0.  1.
         23    2    1    2    0    0  0.98558395176E+02  0.50072345310E+02  0.61648770557E+01  0.16705508839E+03  0.12509356427E+03 0.  0.
          5    1    3    3  502    0  0.76868250977E+02  0.90662321462E+02  0.15402596675E+02  0.11992954984E+03  0.41800000000E+01 0.  1.
         -5    1    3    3    0  502  0.21690144198E+02 -0.40589976152E+02 -0.92377196189E+01  0.47125538544E+02  0.41800000000E+01 0.  1.
        -11    1    1    2    0    0 -0.68104653241E+02 -0.73022309942E+02  0.82094300165E+02  0.12926707107E+03  0.00000000000E+00 0. -1.
         11    1    1    2    0    0 -0.30453741935E+02  0.22949964632E+02  0.16570559798E+02  0.41577815316E+02  0.00000000000E+00 0.  1.
</event>
<event>
 7    1  0.4966153E-006  0.1394782E+03  0.7561462E-02  0.1214033E+00
          1   -1    0    0  501    0  0.00000000000E+00  0.00000000000E+00  0.13257361319E+03  0.13257361319E+03  0.00000000000E+00 0. -1.
         -1   -1    0    0    0  501 -0.00000000000E+00 -0.00000000000E+00 -0.15051722968E+03  0.15051722968E+03  0.00000000000E+00 0.  1.
         23    2    1    2    0    0  0.88362233952E+02 -0.18177419501E+02 -0.10462437235E+02  0.15458109386E+03  0.12509016355E+03 0.  0.
          5    1    3    3  502    0  0.11853335254E+03 -0.28218569049E+02 -0.47906724023E+01  0.12201174634E+03  0.41800000000E+01 0. -1.
         -5    1    3    3    0  502 -0.30171118590E+02  0.10041149548E+02 -0.56717648326E+01  0.32569347515E+02  0.41800000000E+01 0. -1.
        -11    1    1    2    0    0 -0.77334676379E+02 -0.24315008921E+02  0.91138792359E+01  0.81577782663E+02  0.00000000000E+00 0.  1.
         11    1    1    2    0    0 -0.11027557573E+02  0.42492428422E+02 -0.16595058484E+02  0.46931966348E+02  0.00000000000E+00 0. -1.
</event>
<event>
 6    1  0.4966153E-006  0.1740871E+03  0.7561462E-02  0.1173651E+00
         -2   -1    0    0    0  501 -0.00000000000E+00  0.00000000000E+00  0.39594613005E+02  0.39594613005E+02  0.00000000000E+00 0.  1.
          2   -1    0    0  501    0  0.00000000000E+00 -0.00000000000E+00 -0.15966750676E+04  0.15966750676E+04  0.00000000000E+00 0. -1.
          5    1    1    2  502    0  0.13303035367E+02  0.54446412868E+02 -0.63127013504E+03  0.63376717998E+03  0.41800000000E+01 0. -1.
         -5    1    1    2    0  502 -0.84496656151E+02  0.79374598372E+02 -0.86051667115E+02  0.14443813063E+03  0.41800000000E+01 0.  1.
        -11    1    1    2    0    0  0.89817804055E+02 -0.84800129162E+02 -0.56482424964E+03  0.57817361823E+03  0.00000000000E+00 0.  1.
         11    1    1    2    0    0 -0.18624183272E+02 -0.49020882077E+02 -0.27493440280E+03  0.27989075177E+03  0.00000000000E+00 0. -1.
</event>
<event>
 7    1  0.4966153E-006  0.9124817E+02  0.7561462E-02  0.1299857E+00
          1   -1    0    0  501    0  0.00000000000E+00  0.00000000000E+00  0.13933929329E+02  0.13933929329E+02  0.00000000000E+00 0. -1.
         -1   -1    0    0    0  501 -0.00000000000E+00 -0.00000000000E+00 -0.70626289483E+03  0.70626289483E+03  0.00000000000E+00 0.  1.
         23    2    1    2    0    0 -0.29950128271E+02 -0.14806039346E+02 -0.55980899251E+03  0.57458740796E+03  0.12509337433E+03 0.  0.
          5    1    3    3  502    0 -0.48112305371E+02  0.42055957009E+02 -0.20505157945E+03  0.21481880756E+03  0.41800000000E+01 0.  1.
         -5    1    3    3    0  502  0.18162177099E+02 -0.56861996355E+02 -0.35475741307E+03  0.35976860040E+03  0.41800000000E+01 0.  1.
        -11    1    1    2    0    0  0.18942444147E+02  0.32595273410E+02 -0.10073107630E+03  0.10755471989E+03  0.00000000000E+00 0.  1.
         11    1    1    2    0    0  0.11007684124E+02 -0.17789234064E+02 -0.31788896688E+02  0.38054696307E+02  0.00000000000E+00 0. -1.
</event>
<event>
 7    1  0.4966153E-006  0.1032967E+03  0.7561462E-02  0.1273512E+00
         -2   -1    0    0    0  501 -0.00000000000E+00  0.00000000000E+00  0.80210279411E+03  0.80210279411E+03  0.00000000000E+00 0.  1.
          2   -1    0    0  501    0  0.00000000000E+00 -0.00000000000E+00 -0.23633687525E+02  0.23633687525E+02  0.00000000000E+00 0. -1.
         23    2    1    2    0    0  0.26570771761E+02  0.42283100630E+01  0.66888044975E+03  0.68100792957E+03  0.12508740765E+03 0.  0.
          5    1    3    3  502    0  0.49001509953E+02  0.53366520505E+02  0.33603536775E+03  0.34378245194E+03  0.41800000000E+01 0.  1.
         -5    1    3    3    0  502 -0.22430738192E+02 -0.49138210442E+02  0.33284508201E+03  0.33722547762E+03  0.41800000000E+01 0.  1.
        -11    1    1    2    0    0 -0.53001250725E+02  0.45173774401E+00  0.10483089461E+03  0.11746851965E+03  0.00000000000E+00 0.  1.
         11    1    1    2    0    0  0.26430478964E+02 -0.46800478070E+01  0.47577622218E+01  0.27260032412E+02  0.00000000000E+00 0. -1.
</event>
<event>
 6    1  0.4966153E-006  0.1453501E+03  0.7561462E-02  0.1206306E+00
         -1   -1    0    0    0  501 -0.00000000000E+00  0.00000000000E+00  0.13463970931E+04  0.13463970931E+04  0.00000000000E+00 0.  1.
          1   -1    0    0  501    0  0.00000000000E+00 -0.00000000000E+00 -0.16850872619E+02  0.16850872619E+02  0.00000000000E+00 0. -1.
          5    1    1    2  502    0 -0.60860247452E+01 -0.70742528125E+02  0.21603409626E+03  0.22744174667E+03  0.41800000000E+01 0. -1.
         -5    1    1    2    0  502 -0.65110823562E+01  0.11923526390E+03  0.65807952243E+03  0.66883897359E+03  0.41800000000E+01 0.  1.
        -11    1    1    2    0    0 -0.62396031521E+01  0.24201162657E+02  0.71040459283E+02  0.75308537209E+02  0.00000000000E+00 0.  1.
         11    1    1    2    0    0  0.18836710253E+02 -0.72693898436E+02  0.38439214248E+03  0.39165870822E+03  0.00000000000E+00 0. -1.
</event>
<event>
 7    1  0.4966153E-006  0.1116794E+03  0.7561462E-02  0.1257491E+00
          1   -1    0    0  501    0  0.00000000000E+00  0.00000000000E+00  0.53832310032E+03  0.53832310032E+03  0.00000000000E+00 0. -1.
         -1   -1    0    0    0  501 -0.00000000000E+00 -0.00000000000E+00 -0.44372557008E+02  0.44372557008E+02  0.00000000000E+00 0.  1.
         23    2    1    2    0    0 -0.40211189252E+01 -0.10335739806E+03  0.19831611209E+03  0.25627285359E+03  0.12509026357E+03 0.  0.
          5    1    3    3  502    0  0.18425663229E+02 -0.15374099224E+02  0.15258970386E+03  0.15452170759E+03  0.41800000000E+01 0.  1.
         -5    1    3    3    0  502 -0.22446782154E+02 -0.87983298837E+02  0.45726408237E+02  0.10175114601E+03  0.41800000000E+01 0.  1.
        -11    1    1    2    0    0 -0.12691098959E+02  0.65532183170E+02  0.26917906401E+03  0.27733174994E+03  0.00000000000E+00 0. -1.
         11    1    1    2    0    0  0.16712217884E+02  0.37825214891E+02  0.26455367199E+02  0.49091053786E+02  0.00000000000E+00 0.  1.
</event>
<event>
 7    1  0.4966153E-006  0.1041710E+03  0.7561462E-02  0.1271762E+00
          2   -1    0    0  501    0  0.00000000000E+00  0.00000000000E+00  0.39316383119E+03  0.39316383119E+03  0.00000000000E+00 0. -1.
         -2   -1    0    0    0  501 -0.00000000000E+00 -0.00000000000E+00 -0.43754668076E+02  0.43754668076E+02  0.00000000000E+00 0.  1.
         23    2    1    2    0    0 -0.50398234209E+02 -0.41300236485E+02  0.13661391316E+03  0.19635517428E+03  0.12508517758E+03 0.  0.
          5    1    3    3  502    0 -0.79813740780E+01 -0.51564261692E+02  0.14278925625E+03  0.15208162124E+03  0.41800000000E+01 0. -1.
         -5    1    3    3    0  502 -0.42416860131E+02  0.10264025208E+02 -0.61753430899E+01  0.44273553043E+02  0.41800000000E+01 0. -1.
        -11    1    1    2    0    0  0.41567581487E+02  0.70394339228E+02  0.15808145992E+03  0.17796902764E+03  0.00000000000E+00 0.  1.
         11    1    1    2    0    0  0.88306527218E+01 -0.29094102743E+02  0.54713790026E+02  0.62594297351E+02  0.00000000000E+00 0. -1.
</event>
<event>
 7    1  0.4966153E-006  0.7605530E+02  0.7561462E-02  0.1340634E+00
          2   -1    0    0  501    0  0.00000000000E+00  0.00000000000E+00  0.83023890951E+02  0.83023890951E+02  0.00000000000E+00 0. -1.
         -2   -1    0    0    0  501 -0.00000000000E+00 -0.00000000000E+00 -0.10993425736E+03  0.10993425736E+03  0.00000000000E+00 0.  1.
         23    2    1    2    0    0  0.24130717561E+02  0.94550921227E+01 -0.61066945265E+02  0.14052199525E+03  0.12387723378E+03 0.  0.
          5    1    3    3  502    0 -0.44531123557E+02  0.29309547201E+02 -0.36843373420E+02  0.64938255962E+02  0.41800000000E+01 0. -1.
         -5    1    3    3    0  502  0.68661841119E+02 -0.19854455079E+02 -0.24223571846E+02  0.75583739291E+02  0.41800000000E+01 0.  1.
        -11    1    1    2    0    0 -0.80994013955E+01 -0.72243789106E+01  0.34581694548E+02  0.36244800336E+02  0.00000000000E+00 0.  1.
         11    1    1    2    0    0 -0.16031316166E+02 -0.22307132122E+01 -0.42511568740E+00  0.16191352716E+02  0.00000000000E+00 0. -1.
</event>
<event>
 7    1  0.4966153E-006  0.1564927E+03  0.7561462E-02  0.1192714E+00
          2   -1    0    0  501    0  0.00000000000E+00  0.00000000000E+00  0.25508871435E+03  0.25508871435E+03  0.00000000000E+00 0. -1.
         -2   -1    0    0    0  501 -0.00000000000E+00 -0.00000000000E+00 -0.10076060753E+03  0.10076060753E+03  0.00000000000E+00 0.  1.
         23    2    1    2    0    0 -0.20831581800E+02  0.11762433848E+03  0.57063308010E+02  0.17718083900E+03  0.11775987765E+03 0.  0.
          5    1    3    3  502    0 -0.55733592589E+02  0.11884739944E+03  0.53557833393E+02  0.14183388740E+03  0.41800000000E+01 0. -1.
         -5    1    3    3    0  502  0.34902010789E+02 -0.12230609619E+01  0.35054746174E+01  0.35346951602E+02  0.41800000000E+01 0.  1.
        -11    1    1    2    0    0 -0.90158883382E+01 -0.11625130681E+03  0.60717950475E+02  0.13146224586E+03  0.00000000000E+00 0.  1.
         11    1    1    2    0    0  0.29847470138E+02 -0.13730316735E+01  0.36546848342E+02  0.47206237017E+02  0.00000000000E+00 0. -1.
</event>
<event>
 7    1  0.4966153E-006  0.1493880E+03  0.7561462E-02  0.1201227E+00
         -1   -1    0    0    0  501 -0.00000000000E+00  0.00000000000E+00  0.52984366487E+02  0.52984366487E+02  0.00000000000E+00 0.  1.
          1   -1    0    0  501    0  0.00000000000E+00 -0.00000000000E+00 -0.48719089623E+03  0.48719089623E+03  0.00000000000E+00 0. -1.
         23    2    1    2    0    0 -0.10162096756E+03  0.36923007838E+02 -0.15195864909E+03  0.22457088239E+03  0.12510204087E+03 0.  0.
          5    1    3    3  502    0  0.14995841324E+02  0.43469417488E+02 -0.60821716468E+02  0.76362419474E+02  0.41800000000E+01 0. -1.
         -5    1    3    3    0  502 -0.11661680888E+03 -0.65464096492E+01 -0.91136932619E+02  0.14820846292E+03  0.41800000000E+01 0. -1.
        -11    1    1    2    0    0 -0.14402544605E+02 -0.63740030021E+01 -0.70410535745E+02  0.72150569986E+02  0.00000000000E+00 0. -1.
         11    1    1    2    0    0  0.11602351216E+03 -0.30549004836E+02 -0.21183734492E+03  0.24345381035E+03  0.00000000000E+00 0.  1.
</event>
<event>
 7    1  0.4966153E-006  0.1326726E+03  0.7561462E-02  0.1223543E+00
         -2   -1    0    0    0  501 -0.00000000000E+00  0.00000000000E+00  0.59015480551E+02  0.59015480551E+02  0.00000000000E+00 0.  1.
          2   -1    0    0  501    0  0.00000000000E+00 -0.00000000000E+00 -0.45877213539E+03  0.45877213539E+03  0.00000000000E+00 0. -1.
         23    2    1    2    0    0 -0.79909417691E+02  0.91374551501E+02 -0.17147239953E+03  0.24450980898E+03  0.12508972455E+03 0.  0.
          5    1    3    3  502    0 -0.57497739632E+02  0.10082660252E+03 -0.60754715318E+02  0.13107479419E+03  0.41800000000E+01 0.  1.
         -5    1    3    3    0  502 -0.22411678059E+02 -0.94520510192E+01 -0.11071768422E+03  0.11343501479E+03  0.41800000000E+01 0.  1.
        -11    1    1    2    0    0  0.13093415630E+02 -0.34063162846E+02 -0.98888546838E+01  0.37809073553E+02  0.00000000000E+00 0.  1.
         11    1    1    2    0    0  0.66816002061E+02 -0.57311388655E+02 -0.21839540062E+03  0.23546873341E+03  0.00000000000E+00 0. -1.
</event>
<event>
 7    1  0.4966153E-006  0.2020850E+03  0.7561462E-02  0.1147992E+00
          1   -1    0    0  501    0  0.00000000000E+00  0.00000000000E+00  0.85705101182E+02  0.85705101182E+02  0.00000000000E+00 0. -1.
         -1   -1    0    0    0  501 -0.00000000000E+00 -0.00000000000E+00 -0.55977562289E+03  0.55977562289E+03  0.00000000000E+00 0.  1.
         23    2    1    2    0    0 -0.80524285903E+02  0.15426322165E+03 -0.35264901407E+03  0.41266364483E+03  0.12509458207E+03 0.  0.
          5    1    3    3  502    0 -0.14638055756E+02  0.14702090864E+03 -0.23769737364E+03  0.27990522340E+03  0.41800000000E+01 0.  1.
         -5    1    3    3    0  502 -0.65886230147E+02  0.72423130114E+01 -0.11495164043E+03  0.13275842142E+03  0.41800000000E+01 0.  1.
        -11    1    1    2    0    0  0.59853966162E+01 -0.93743172549E+02 -0.94171542589E+02  0.13301085221E+03  0.00000000000E+00 0.  1.
         11    1    1    2    0    0  0.74538889287E+02 -0.60520049106E+02 -0.27249965051E+02  0.99806227036E+02  0.00000000000E+00 0. -1.
</event>
<event>
 7    1  0.4966153E-006  0.1451571E+03  0.7561462E-02  0.1206553E+00
         -1   -1    0    0    0  501 -0.00000000000E+00  0.00000000000E+00  0.93270829332E+02  0.93270829332E+02  0.00000000000E+00 0.  1.
          1   -1    0    0  501    0  0.00000000000E+00 -0.00000000000E+00 -0.53204285260E+03  0.53204285260E+03  0.00000000000E+00 0. -1.
         23    2    1    2    0    0 -0.13699148060E+03  0.30046944955E+01 -0.34462676641E+02  0.18870926693E+03  0.12509123629E+03 0.  0.
          5    1    3    3  502    0 -0.76785908032E+02 -0.29434870193E+02 -0.73050174145E+02  0.11007400964E+03  0.41800000000E+01 0.  1.
         -5    1    3    3    0  502 -0.60205572567E+02  0.32439564688E+02  0.38587497504E+02  0.78635257288E+02  0.41800000000E+01 0.  1.
        -11    1    1    2    0    0  0.10436848784E+03  0.88596392622E+01 -0.38013776760E+03  0.39430444687E+03  0.00000000000E+00 0. -1.
         11    1    1    2    0    0  0.32622992756E+02 -0.11864333758E+02 -0.24171579028E+02  0.42299968139E+02  0.00000000000E+00 0.  1.
</event>
<event>
 7    1  0.4966153E-006  0.9986576E+02  0.7561462E-02  0.1280578E+00
          2   -1    0    0  501    0  0.00000000000E+00  0.00000000000E+00  0.28507838715E+03  0.28507838715E+03  0.00000000000E+00 0. -1.
         -2   -1    0    0    0  501 -0.00000000000E+00 -0.00000000000E+00 -0.51065673458E+02  0.51065673458E+02  0.00000000000E+00 0.  1.
         23    2    1    2    0    0  0.15884934170E+02 -0.14179080103E+02  0.63634998672E+02  0.14195179516E+03  0.12509005415E+03 0.  0.
          5    1    3    3  502    0  0.58746520118E+02 -0.22092892765E+02  0.73831829978E+02  0.96994128969E+02  0.41800000000E+01 0. -1.
         -5    1    3    3    0  502 -0.42861585947E+02  0.79138126623E+01 -0.10196831306E+02  0.44957666192E+02  0.41800000000E+01 0. -1.
        -11    1    1    2    0    0 -0.44869415920E+01 -0.38695040409E+02  0.76520143501E+02  0.85864842389E+02  0.00000000000E+00 0. -1.
         11    1    1    2    0    0 -0.11397992578E+02  0.52874120511E+02  0.93857571520E+02  0.10832742306E+03  0.00000000000E+00 0.  1.
</event>
<event>
 7    1  0.4966153E-006  0.7661558E+02  0.7561462E-02  0.1338940E+00
         -2   -1    0    0    0  501 -0.00000000000E+00  0.00000000000E+00  0.46712527741E+02  0.46712527741E+02  0.00000000000E+00 0.  1.
          2   -1    0    0  501    0  0.00000000000E+00 -0.00000000000E+00 -0.27701041814E+03  0.27701041814E+03  0.00000000000E+00 0. -1.
         23    2    1    2    0    0 -0.18135878214E+02  0.11047586271E+02 -0.98520571244E+02  0.16064828850E+03  0.12510239966E+03 0.  0.
          5    1    3    3  502    0  0.96315276957E+01 -0.15958058474E+02 -0.11627554720E+03  0.11783421079E+03  0.41800000000E+01 0. -1.
         -5    1    3    3    0  502 -0.27767405909E+02  0.27005644746E+02  0.17754975958E+02  0.42814077712E+02  0.41800000000E+01 0. -1.
        -11    1    1    2    0    0  0.49410590997E+02 -0.30758232794E+02 -0.69499460774E+02  0.90651257218E+02  0.00000000000E+00 0. -1.
         11    1    1    2    0    0 -0.31274712784E+02  0.19710646523E+02 -0.62277858383E+02  0.72423400160E+02  0.00000000000E+00 0.  1.
</event>
<event>
 7    1  0.4966153E-006  0.1333979E+03  0.7561462E-02  0.1222499E+00
          3   -1    0    0  501    0  0.00000000000E+00  0.00000000000E+00  0.13475780672E+03  0.13475780672E+03  0.00000000000E+00 0. -1.
         -3   -1    0    0    0  501 -0.00000000000E+00 -0.00000000000E+00 -0.16811679432E+03  0.16811679432E+03  0.00000000000E+00 0.  1.
         23    2    1    2    0    0  0.82802416761E+02  0.29673770313E+02 -0.80850788663E+02  0.17275902570E+03  0.12478805259E+03 0.  0.
          5    1    3    3  502    0  0.99216098068E+02 -0.18908563042E+02 -0.50138080048E+02  0.11283912151E+03  0.41800000000E+01 0. -1.
         -5    1    3    3    0  502 -0.16413681307E+02  0.48582333355E+02 -0.30712708615E+02  0.59919904195E+02  0.41800000000E+01 0. -1.
        -11    1    1    2    0    0 -0.38272625413E+02  0.23491557228E+02  0.40397047422E+02  0.60403382003E+02  0.00000000000E+00 0.  1.
         11    1    1    2    0    0 -0.44529791348E+02 -0.53165327541E+02  0.70947536336E+01  0.69712193332E+02  0.00000000000E+00 0. -1.
</event>
<event>
 7    1  0.4966153E-006  0.8244209E+02  0.7561462E-02  0.1322261E+00
         -2   -1    0    0    0  501 -0.00000000000E+00  0.00000000000E+00  0.37975064800E+02  0.37975064800E+02  0.00000000000E+00 0.  1.
          2   -1    0    0  501    0  0.00000000000E+00 -0.00000000000E+00 -0.39326515865E+03  0.39326515865E+03  0.00000000000E+00 0. -1.
         23    2    1    2    0    0 -0.18921844737E+02  0.53450296894E+02 -0.20030148268E+03  0.24286364232E+03  0.12508834618E+03 0.  0.
          5    1    3    3  502    0 -0.39334672157E+02  0.47886038277E+02 -0.26165580420E+02  0.67397322605E+02  0.41800000000E+01 0. -1.
         -5    1    3    3    0  502  0.20412827420E+02  0.55642586171E+01 -0.17413590226E+03  0.17546631971E+03  0.41800000000E+01 0. -1.
        -11    1    1    2    0    0 -0.11097086469E+02  0.74114392433E+01  0.52656482091E+01  0.14345794186E+02  0.00000000000E+00 0.  1.
         11    1    1    2    0    0  0.30018931206E+02 -0.60861736138E+02 -0.16025425938E+03  0.17403078695E+03  0.00000000000E+00 0. -1.
</event>
<event>
 7    1  0.4966153E-006  0.1201991E+03  0.7561462E-02  0.1242769E+00
         -4   -1    0    0    0  501 -0.00000000000E+00  0.00000000000E+00  0.21699470702E+03  0.21699470702E+03  0.00000000000E+00 0.  1.
          4   -1    0    0  501    0  0.00000000000E+00 -0.00000000000E+00 -0.99658223648E+02  0.99658223648E+02  0.00000000000E+00 0. -1.
         23    2    1    2    0    0 -0.25961120318E+02  0.95474847182E+02  0.61934701230E+02  0.17109256060E+03  0.12508929156E+03 0.  0.
          5    1    3    3  502    0  0.32079115687E+02  0.18595166893E+02  0.64638657836E+02  0.74635637479E+02  0.41800000000E+01 0. -1.
         -5    1    3    3    0  502 -0.58040236006E+02  0.76879680288E+02 -0.27039566066E+01  0.96456923122E+02  0.41800000000E+01 0. -1.
        -11    1    1    2    0    0 -0.10777004190E+02 -0.19746787473E+02 -0.21815770745E+02  0.31336995517E+02  0.00000000000E+00 0. -1.
         11    1    1    2    0    0  0.36738124509E+02 -0.75728059709E+02  0.77217552887E+02  0.11422337455E+03  0.00000000000E+00 0.  1.
</event>
<event>
 7    1  0.4966153E-006  0.1057466E+03  0.7561462E-02  0.1268656E+00
         -1   -1    0    0    0  501 -0.00000000000E+00  0.00000000000E+00  0.16007120887E+03  0.16007120887E+03  0.00000000000E+00 0.  1.
          1   -1    0    0  501    0  0.00000000000E+00 -0.00000000000E+00 -0.12664660033E+03  0.12664660033E+03  0.00000000000E+00 0. -1.
         23    2    1    2    0    0  0.79583413246E+02 -0.21952442576E+02  0.63525570328E+02  0.16278726863E+03  0.12509503325E+03 0.  0.
          5    1    3    3  502    0  0.78200847524E+02  0.19371507817E+01  0.94933677940E+02  0.12308127686E+03  0.41800000000E+01 0.  1.
         -5    1    3    3    0  502  0.13825657221E+01 -0.23889593358E+02 -0.31408107612E+02  0.39705991771E+02  0.41800000000E+01 0.  1.
        -11    1    1    2    0    0 -0.42572876302E+02 -0.24774104257E+02  0.12313407503E+02  0.50772296015E+02  0.00000000000E+00 0. -1.
         11    1    1    2    0    0 -0.37010536944E+02  0.46726546833E+02 -0.42414369294E+02  0.73158244556E+02  0.00000000000E+00 0.  1.
</event>
<event>
 7    1  0.4966153E-006  0.1193188E+03  0.7561462E-02  0.1244225E+00
          1   -1    0    0  501    0  0.00000000000E+00  0.00000000000E+00  0.52365672747E+03  0.52365672747E+03  0.00000000000E+00 0. -1.
         -1   -1    0    0    0  501 -0.00000000000E+00 -0.00000000000E+00 -0.34791251188E+02  0.34791251188E+02  0.00000000000E+00 0.  1.
         23    2    1    2    0    0 -0.72795475531E+02  0.15217663716E+02  0.23289972210E+03  0.27462887651E+03  0.12509188906E+03 0.  0.
          5    1    3    3  502    0 -0.98715787588E+02  0.32239579265E+02  0.12647553542E+03  0.16370012416E+03  0.41800000000E+01 0.  1.
         -5    1    3    3    0  502  0.25920312057E+02 -0.17021915550E+02  0.10642418669E+03  0.11092875235E+03  0.41800000000E+01 0.  1.
        -11    1    1    2    0    0 -0.27776825786E+01 -0.26814935184E+02  0.15416203951E+03  0.15650140797E+03  0.00000000000E+00 0. -1.
         11    1    1    2    0    0  0.75573158109E+02  0.11597271468E+02  0.10180371467E+03  0.12731769419E+03  0.00000000000E+00 0.  1.
</event>
<event>
 7    1  0.4966153E-006  0.2799665E+03  0.7561462E-02  0.1095707E+00
         -1   -1    0    0    0  501 -0.00000000000E+00  0.00000000000E+00  0.15062352611E+03  0.15062352611E+03  0.00000000000E+00 0.  1.
          1   -1    0    0  501    0  0.00000000000E+00 -0.00000000000E+00 -0.55076084152E+03  0.55076084152E+03  0.00000000000E+00 0. -1.
         23    2    1    2    0    0 -0.20490808803E+03 -0.16951255032E+03 -0.22444310385E+03  0.36979139069E+03  0.12509650876E+03 0.  0.
          5    1    3    3  502    0 -0.52416056548E+02 -0.12358541900E+03 -0.94788608873E+02  0.16438720006E+03  0.41800000000E+01 0. -1.
         -5    1    3    3    0  502 -0.15249203149E+03 -0.45927131324E+02 -0.12965449498E+03  0.20540419062E+03  0.41800000000E+01 0. -1.
        -11    1    1    2    0    0  0.13512221205E+03  0.10293745203E+03 -0.16098264080E+03  0.23402893381E+03  0.00000000000E+00 0. -1.
         11    1    1    2    0    0  0.69785875985E+02  0.66575098290E+02 -0.14711570755E+02  0.97564043137E+02  0.00000000000E+00 0.  1.
</event>
<event>
 7    1  0.4966153E-006  0.7181206E+02  0.7561462E-02  0.1354037E+00
         -1   -1    0    0    0  501 -0.00000000000E+00  0.00000000000E+00  0.16014491003E+03  0.16014491003E+03  0.00000000000E+00 0.  1.
          1   -1    0    0  501    0  0.00000000000E+00 -0.00000000000E+00 -0.13024218928E+03  0.13024218928E+03  0.00000000000E+00 0. -1.
         23    2    1    2    0    0 -0.62800222525E+02 -0.22360131139E+02  0.83916715837E+02  0.16472799636E+03  0.12509777846E+03 0.  0.
          5    1    3    3  502    0 -0.55439968778E+02 -0.30130992357E+02  0.11519223202E+03  0.13140848358E+03  0.41800000000E+01 0. -1.
         -5    1    3    3    0  502 -0.73602537472E+01  0.77708612175E+01 -0.31275516187E+02  0.33319512782E+02  0.41800000000E+01 0. -1.
        -11    1    1    2    0    0  0.23225341342E+02  0.17382407039E+02 -0.75123993444E+02  0.80530608752E+02  0.00000000000E+00 0. -1.
         11    1    1    2    0    0  0.39574881183E+02  0.49777241001E+01  0.21109998358E+02  0.45128494197E+02  0.00000000000E+00 0.  1.
</event>
<event>
 7    1  0.4966153E-006  0.1202847E+03  0.7561462E-02  0.1242628E+00
          2   -1    0    0  501    0  0.00000000000E+00  0.00000000000E+00  0.27001039575E+03  0.27001039575E+03  0.00000000000E+00 0.  1.
         -2   -1    0    0    0  501 -0.00000000000E+00 -0.00000000000E+00 -0.86748023888E+02  0.86748023888E+02  0.00000000000E+00 0. -1.
         23    2    1    2    0    0 -0.98362132873E+02 -0.34370279468E+02  0.66766543474E+02  0.17595555449E+03  0.12508461350E+03 0.  0.
          5    1    3    3  502    0 -0.30946476939E+02 -0.21182832102E+02 -0.36079702430E+02  0.52207414591E+02  0.41800000000E+01 0. -1.
         -5    1    3    3    0  502 -0.67415655934E+02 -0.13187447366E+02  0.10284624590E+03  0.12374813990E+03  0.41800000000E+01 0. -1.
        -11    1    1    2    0    0  0.60445900421E+02  0.62389800793E+02  0.53151933810E+02  0.10183968867E+03  0.00000000000E+00 0. -1.
         11    1    1    2    0    0  0.37916232453E+02 -0.28019521324E+02  0.63343894578E+02  0.78963176475E+02  0.00000000000E+00 0.  1.
</event>
<event>
 7    1  0.4966153E-006  0.7755928E+02  0.7561462E-02  0.1336124E+00
          1   -1    0    0  501    0  0.00000000000E+00  0.00000000000E+00  0.54351714482E+02  0.54351714482E+02  0.00000000000E+00 0. -1.
         -1   -1    0    0    0  501 -0.00000000000E+00 -0.00000000000E+00 -0.23589366887E+03  0.23589366887E+03  0.00000000000E+00 0.  1.
         23    2    1    2    0    0  0.10245980401E+02 -0.26840970240E+02 -0.14611814603E+03  0.18867487466E+03  0.11585455508E+03 0.  0.
          5    1    3    3  502    0  0.10456355488E+01 -0.53874199449E+02 -0.17425617427E+02  0.56785977694E+02  0.41800000000E+01 0. -1.
         -5    1    3    3    0  502  0.92003448518E+01  0.27033229209E+02 -0.12869252860E+03  0.13188889697E+03  0.41800000000E+01 0.  1.
        -11    1    1    2    0    0 -0.27031026620E+02 -0.12244441842E+02  0.16890406480E+02  0.34145110737E+02  0.00000000000E+00 0.  1.
         11    1    1    2    0    0  0.16785046220E+02  0.39085412082E+02 -0.52314214840E+02  0.67425397949E+02  0.00000000000E+00 0. -1.
</event>
<event>
 7    1  0.4966153E-006  0.1500635E+03  0.7561462E-02  0.1200395E+00
          2   -1    0    0  501    0  0.00000000000E+00  0.00000000000E+00  0.43413472855E+03  0.43413472855E+03  0.00000000000E+00 0. -1.
         -2   -1    0    0    0  501 -0.00000000000E+00 -0.00000000000E+00 -0.61744112988E+02  0.61744112988E+02  0.00000000000E+00 0.  1.
         23    2    1    2    0    0 -0.11799552706E+03 -0.28706260408E+02  0.19555145541E+03  0.26198302550E+03  0.12509092750E+03 0.  0.
          5    1    3    3  502    0 -0.64662353197E+02  0.30194901168E+02  0.28517833620E+02  0.76965519629E+02  0.41800000000E+01 0.  1.
         -5    1    3    3    0  502 -0.53333173864E+02 -0.58901161576E+02  0.16703362179E+03  0.18501750587E+03  0.41800000000E+01 0.  1.
        -11    1    1    2    0    0 -0.14867974310E+01  0.29547950361E+02  0.59393129559E+02  0.66353867830E+02  0.00000000000E+00 0. -1.
         11    1    1    2    0    0  0.11948232449E+03 -0.84168995298E+00  0.11744603059E+03  0.16754194821E+03  0.00000000000E+00 0.  1.
</event>
<event>
 6    1  0.4966153E-006  0.9997185E+02  0.7561462E-02  0.1280355E+00
          1   -1    0    0  501    0  0.00000000000E+00  0.00000000000E+00  0.47851462093E+02  0.47851462093E+02  0.00000000000E+00 0. -1.
         -1   -1    0    0    0  501 -0.00000000000E+00 -0.00000000000E+00 -0.87056449800E+03  0.87056449800E+03  0.00000000000E+00 0.  1.
          5    1    1    2  502    0 -0.19754804748E+02 -0.30695932480E+02  0.22524186581E+01  0.36810845838E+02  0.41800000000E+01 0. -1.
         -5    1    1    2    0  502  0.30602452637E+02 -0.59678358537E+02 -0.67027139998E+03  0.67363138186E+03  0.41800000000E+01 0.  1.
        -11    1    1    2    0    0  0.70708025466E+01  0.62295116628E+02 -0.16214273999E+03  0.17384172668E+03  0.00000000000E+00 0.  1.
         11    1    1    2    0    0 -0.17918450435E+02  0.28079174390E+02  0.74486854041E+01  0.34132005723E+02  0.00000000000E+00 0. -1.
</event>
<event>
 6    1  0.4966153E-006  0.1722967E+03  0.7561462E-02  0.1175474E+00
         -1   -1    0    0    0  501 -0.00000000000E+00  0.00000000000E+00  0.35458771223E+03  0.35458771223E+03  0.00000000000E+00 0.  1.
          1   -1    0    0  501    0  0.00000000000E+00 -0.00000000000E+00 -0.28220593280E+03  0.28220593280E+03  0.00000000000E+00 0. -1.
          5    1    1    2  502    0 -0.54927081694E+02 -0.10140872668E+03 -0.64504437065E+02  0.13220820304E+03  0.41800000000E+01 0. -1.
         -5    1    1    2    0  502  0.10511702378E+03  0.21997136281E+02  0.28660435817E+03  0.30609311200E+03  0.41800000000E+01 0.  1.
        -11    1    1    2    0    0  0.12037057393E+02 -0.79722098147E+01 -0.49946874832E+02  0.51991703045E+02  0.00000000000E+00 0.  1.
         11    1    1    2    0    0 -0.62226999474E+02  0.87383800214E+02 -0.99771266852E+02  0.14650062694E+03  0.00000000000E+00 0. -1.
</event>
<event>
 7    1  0.4966153E-006  0.9299728E+02  0.7561462E-02  0.1295751E+00
         -3   -1    0    0    0  501 -0.00000000000E+00  0.00000000000E+00  0.14747184350E+03  0.14747184350E+03  0.00000000000E+00 0.  1.
          3   -1    0    0  501    0  0.00000000000E+00 -0.00000000000E+00 -0.91142221958E+02  0.91142221958E+02  0.00000000000E+00 0. -1.
         23    2    1    2    0    0  0.22408174404E+01  0.33905254894E+02  0.59386360769E+02  0.14258163430E+03  0.12509274568E+03 0.  0.
          5    1    3    3  502    0  0.45608983605E+02  0.81841984113E+01  0.76187404502E+02  0.89270115345E+02  0.41800000000E+01 0. -1.
         -5    1    3    3    0  502 -0.43368166164E+02  0.25721056483E+02 -0.16801043733E+02  0.53311518957E+02  0.41800000000E+01 0. -1.
        -11    1    1    2    0    0  0.68888596813E+01 -0.60430356758E+02 -0.19057583242E+02  0.63737554743E+02  0.00000000000E+00 0.  1.
         11    1    1    2    0    0 -0.91296771218E+01  0.26525101864E+02  0.16000844015E+02  0.32294876411E+02  0.00000000000E+00 0. -1.
</event>
<event>
 7    1  0.4966153E-006  0.1100639E+03  0.7561462E-02  0.1260452E+00
          1   -1    0    0  501    0  0.00000000000E+00  0.00000000000E+00  0.26081849410E+03  0.26081849410E+03  0.00000000000E+00 0. -1.
         -1   -1    0    0    0  501 -0.00000000000E+00 -0.00000000000E+00 -0.94577298430E+02  0.94577298430E+02  0.00000000000E+00 0.  1.
         23    2    1    2    0    0  0.23665028361E+02  0.72868788393E+02 -0.52851937977E+01  0.14678460558E+03  0.12509153958E+03 0.  0.
          5    1    3    3  502    0  0.65068911104E+02  0.77228254807E+02 -0.18816381426E+02  0.10280902267E+03  0.41800000000E+01 0.  1.
         -5    1    3    3    0  502 -0.41403882744E+02 -0.43594664141E+01  0.13531187628E+02  0.43975582910E+02  0.41800000000E+01 0.  1.
        -11    1    1    2    0    0 -0.17165892593E+02 -0.37364102637E+02  0.16728950493E+03  0.17226875078E+03  0.00000000000E+00 0. -1.
         11    1    1    2    0    0 -0.64991357677E+01 -0.35504685756E+02  0.42368845400E+01  0.36342436172E+02  0.00000000000E+00 0.  1.
</event>
<event>
 7    1  0.4966153E-006  0.1246056E+03  0.7561462E-02  0.1235687E+00
          2   -1    0    0  501    0  0.00000000000E+00  0.00000000000E+00  0.70271185070E+03  0.70271185070E+03  0.00000000000E+00 0. -1.
         -2   -1    0    0    0  501 -0.00000000000E+00 -0.00000000000E+00 -0.32547712212E+02  0.32547712212E+02  0.00000000000E+00 0.  1.
         23    2    1    2    0    0  0.86742205354E+02 -0.56763894692E+02  0.39919023770E+03  0.43098533741E+03  0.12509662369E+03 0.  0.
          5    1    3    3  502    0  0.22974327577E+02  0.14496641715E+02  0.26351336144E+03  0.26494289273E+03  0.41800000000E+01 0.  1.
         -5    1    3    3    0  502  0.63767877777E+02 -0.71260536407E+02  0.13567687626E+03  0.16604244468E+03  0.41800000000E+01 0.  1.
        -11    1    1    2    0    0 -0.26840893158E+02  0.60298601230E+02  0.20370597695E+03  0.21413192172E+03  0.00000000000E+00 0. -1.
         11    1    1    2    0    0 -0.59901312195E+02 -0.35347065380E+01  0.67267923841E+02  0.90142303781E+02  0.00000000000E+00 0.  1.
</event>
<event>
 7    1  0.4966153E-006  0.9638090E+02  0.7561462E-02  0.1288096E+00
         -1   -1    0    0    0  501 -0.00000000000E+00  0.00000000000E+00  0.11633375252E+03  0.11633375252E+03  0.00000000000E+00 0.  1.
          1   -1    0    0  501    0  0.00000000000E+00 -0.00000000000E+00 -0.13279465929E+03  0.13279465929E+03  0.00000000000E+00 0. -1.
         23    2    1    2    0    0 -0.18480227334E+02 -0.52370734097E+02 -0.75624936105E+01  0.13707321495E+03  0.12509061657E+03 0.  0.
          5    1    3    3  502    0  0.29169595913E+02 -0.46915581346E+02  0.40822279906E+02  0.68817643344E+02  0.41800000000E+01 0.  1.
         -5    1    3    3    0  502 -0.47649823246E+02 -0.54551527507E+01 -0.48384773516E+02  0.68255571605E+02  0.41800000000E+01 0.  1.
        -11    1    1    2    0    0 -0.16965088162E+02  0.50996892845E+02  0.28228229708E+02  0.60706920929E+02  0.00000000000E+00 0.  1.
         11    1    1    2    0    0  0.35445315495E+02  0.13738412514E+01 -0.37126642874E+02  0.51348275934E+02  0.00000000000E+00 0. -1.
</event>
<event>
 7    1  0.4966153E-006  0.1008778E+03  0.7561462E-02  0.1278461E+00
         -1   -1    0    0    0  501 -0.00000000000E+00  0.00000000000E+00  0.65852765042E+02  0.65852765042E+02  0.00000000000E+00 0.  1.
          1   -1    0    0  501    0  0.00000000000E+00 -0.00000000000E+00 -0.24479757444E+03  0.24479757444E+03  0.00000000000E+00 0. -1.
         23    2    1    2    0    0 -0.90295693984E+01  0.40612224352E+02 -0.34930650934E+02  0.13637236556E+03  0.12508551405E+03 0.  0.
          5    1    3    3  502    0 -0.47824843461E+02  0.56569742364E+02  0.98789443191E+01  0.74849297552E+02  0.41800000000E+01 0.  1.
         -5    1    3    3    0  502  0.38795274062E+02 -0.15957518012E+02 -0.44809595253E+02  0.61523068011E+02  0.41800000000E+01 0.  1.
        -11    1    1    2    0    0  0.39958918767E+02 -0.36651919486E+02 -0.44979045307E+02  0.70449931922E+02  0.00000000000E+00 0. -1.
         11    1    1    2    0    0 -0.30929349369E+02 -0.39603048663E+01 -0.99035113161E+02  0.10382804200E+03  0.00000000000E+00 0.  1.
</event>
<event>
 7    1  0.4966153E-006  0.1176639E+03  0.7561462E-02  0.1247001E+00
         -4   -1    0    0    0  501 -0.00000000000E+00  0.00000000000E+00  0.95647204083E+02  0.95647204083E+02  0.00000000000E+00 0. -1.
          4   -1    0    0  501    0  0.00000000000E+00 -0.00000000000E+00 -0.17936319411E+03  0.17936319411E+03  0.00000000000E+00 0.  1.
         23    2    1    2    0    0  0.26190099847E+02 -0.65643537315E+02 -0.27581018387E+02  0.14629247435E+03  0.12508309300E+03 0.  0.
          5    1    3    3  502    0  0.40389044818E+02  0.10522075020E+02 -0.50251920864E+02  0.65457749385E+02  0.41800000000E+01 0.  1.
         -5    1    3    3    0  502 -0.14198944971E+02 -0.76165612335E+02  0.22670902477E+02  0.80834724962E+02  0.41800000000E+01 0.  1.
        -11    1    1    2    0    0  0.34464829667E+02  0.27995555701E+02 -0.19864252807E+02  0.48643233472E+02  0.00000000000E+00 0.  1.
         11    1    1    2    0    0 -0.60654929515E+02  0.37647981614E+02 -0.36270718835E+02  0.80074690376E+02  0.00000000000E+00 0. -1.
</event>
<event>
 7    1  0.4966153E-006  0.1875531E+03  0.7561462E-02  0.1160687E+00
          1   -1    0    0  501    0  0.00000000000E+00  0.00000000000E+00  0.70468373713E+03  0.70468373713E+03  0.00000000000E+00 0. -1.
         -1   -1    0    0    0  501 -0.00000000000E+00 -0.00000000000E+00 -0.62419506923E+02  0.62419506923E+02  0.00000000000E+00 0.  1.
         23    2    1    2    0    0  0.17321686201E+03 -0.35628136587E+02  0.29718264102E+03  0.36774609599E+03  0.12508486554E+03 0.  0.
          5    1    3    3  502    0  0.11966155206E+03 -0.49904542263E+02  0.10262567266E+03  0.16540511319E+03  0.41800000000E+01 0. -1.
         -5    1    3    3    0  502  0.53555309955E+02  0.14276405675E+02  0.19455696836E+03  0.20234098280E+03  0.41800000000E+01 0. -1.
        -11    1    1    2    0    0 -0.89024120697E+02 -0.16838366946E+02  0.99895833906E+02  0.13486290186E+03  0.00000000000E+00 0.  1.
         11    1    1    2    0    0 -0.84192741313E+02  0.52466503534E+02  0.24518575528E+03  0.26449424621E+03  0.00000000000E+00 0. -1.
</event>
<event>
 7    1  0.4966153E-006  0.1176184E+03  0.7561462E-02  0.1247078E+00
         -1   -1    0    0    0  501 -0.00000000000E+00  0.00000000000E+00  0.93849405823E+02  0.93849405823E+02  0.00000000000E+00 0.  1.
          1   -1    0    0  501    0  0.00000000000E+00 -0.00000000000E+00 -0.17619245052E+03  0.17619245052E+03  0.00000000000E+00 0. -1.
         23    2    1    2    0    0  0.53850939289E+02  0.45602590314E+02 -0.35870315991E+02  0.14803399585E+03  0.12509142438E+03 0.  0.
          5    1    3    3  502    0  0.15287080540E+02  0.77305032931E+02 -0.53034524028E+02  0.95078368132E+02  0.41800000000E+01 0.  1.
         -5    1    3    3    0  502  0.38563858749E+02 -0.31702442616E+02  0.17164208036E+02  0.52955627718E+02  0.41800000000E+01 0.  1.
        -11    1    1    2    0    0 -0.74410800004E+02 -0.29234914843E+02 -0.51707752919E+02  0.95212074419E+02  0.00000000000E+00 0. -1.
         11    1    1    2    0    0  0.20559860715E+02 -0.16367675471E+02  0.52350242114E+01  0.26795786076E+02  0.00000000000E+00 0.  1.
</event>
<event>
 7    1  0.4966153E-006  0.1079327E+03  0.7561462E-02  0.1264447E+00
          1   -1    0    0  501    0  0.00000000000E+00  0.00000000000E+00  0.18752397866E+03  0.18752397866E+03  0.00000000000E+00 0. -1.
         -1   -1    0    0    0  501 -0.00000000000E+00 -0.00000000000E+00 -0.69218650206E+02  0.69218650206E+02  0.00000000000E+00 0.  1.
         23    2    1    2    0    0 -0.29040782259E+02 -0.19258643435E+02  0.56116551956E+02  0.14145881422E+03  0.12508903364E+03 0.  0.
          5    1    3    3  502    0 -0.59401255669E+02 -0.48253647317E+02  0.73816089333E+01  0.76999248080E+02  0.41800000000E+01 0. -1.
         -5    1    3    3    0  502  0.30360473410E+02  0.28995003882E+02  0.48734943023E+02  0.64459566142E+02  0.41800000000E+01 0. -1.
        -11    1    1    2    0    0  0.94814014863E+00  0.53066546607E+02  0.32362397736E+02  0.62163350342E+02  0.00000000000E+00 0.  1.
         11    1    1    2    0    0  0.28092642110E+02 -0.33807903172E+02  0.29826378758E+02  0.53120464299E+02  0.00000000000E+00 0. -1.
</event>
<event>
 7    1  0.4966153E-006  0.1201194E+03  0.7561462E-02  0.1242900E+00
         -2   -1    0    0    0  501 -0.00000000000E+00  0.00000000000E+00  0.47821779732E+02  0.47821779732E+02  0.00000000000E+00 0.  1.
          2   -1    0    0  501    0  0.00000000000E+00 -0.00000000000E+00 -0.41671813279E+03  0.41671813279E+03  0.00000000000E+00 0. -1.
         23    2    1    2    0    0  0.69143917643E+02 -0.57298735619E+02 -0.20179724729E+03  0.25383390904E+03  0.12508196479E+03 0.  0.
          5    1    3    3  502    0  0.17367663285E+02  0.31358590549E+02 -0.12045700011E+02  0.38046921268E+02  0.41800000000E+01 0. -1.
         -5    1    3    3    0  502  0.51776254358E+02 -0.88657326168E+02 -0.18975154727E+03  0.21578698777E+03  0.41800000000E+01 0. -1.
        -11    1    1    2    0    0 -0.69741098749E+02  0.33114571871E+02 -0.51977750917E+02  0.93070308452E+02  0.00000000000E+00 0.  1.
         11    1    1    2    0    0  0.59718110651E+00  0.24184163748E+02 -0.11512135485E+03  0.11763569503E+03  0.00000000000E+00 0. -1.
</event>
<event>
 7    1  0.4966153E-006  0.1189606E+03  0.7561462E-02  0.1244822E+00
          2   -1    0    0  501    0  0.00000000000E+00  0.00000000000E+00  0.70950961057E+03  0.70950961057E+03  0.00000000000E+00 0. -1.
         -2   -1    0    0    0  501 -0.00000000000E+00 -0.00000000000E+00 -0.20835385081E+02  0.20835385081E+02  0.00000000000E+00 0.  1.
         23    2    1    2    0    0 -0.38079102467E+02 -0.38946420680E+02  0.36731081037E+03  0.39182981745E+03  0.12508610116E+03 0.  0.
          5    1    3    3  502    0 -0.62541526442E+02 -0.70344232937E+02  0.28753060648E+03  0.30257408299E+03  0.41800000000E+01 0. -1.
         -5    1    3    3    0  502  0.24462423975E+02  0.31397812256E+02  0.79780203890E+02  0.89255734460E+02  0.41800000000E+01 0. -1.
        -11    1    1    2    0    0  0.49022939540E+02 -0.12900098647E+02  0.11937953392E+03  0.12969631555E+03  0.00000000000E+00 0.  1.
         11    1    1    2    0    0 -0.10943837073E+02  0.51846519328E+02  0.20198388120E+03  0.20881886265E+03  0.00000000000E+00 0. -1.
</event>
<event>
 7    1  0.4966153E-006  0.1411882E+03  0.7561462E-02  0.1211739E+00
         -1   -1    0    0    0  501 -0.00000000000E+00  0.00000000000E+00  0.16135088130E+03  0.16135088130E+03  0.00000000000E+00 0.  1.
          1   -1    0    0  501    0  0.00000000000E+00 -0.00000000000E+00 -0.61494305362E+03  0.61494305362E+03  0.00000000000E+00 0. -1.
         23    2    1    2    0    0  0.93775118624E+02  0.50860223840E+02  0.10835278668E+03  0.19689960748E+03  0.12509433961E+03 0.  0.
          5    1    3    3  502    0  0.14035276724E+02 -0.26410098186E+02  0.75054856329E+02  0.80902324673E+02  0.41800000000E+01 0.  1.
         -5    1    3    3    0  502  0.79739841900E+02  0.77270322026E+02  0.33297930349E+02  0.11599728280E+03  0.41800000000E+01 0.  1.
        -11    1    1    2    0    0  0.84553346510E+01 -0.36932123051E+02 -0.14353690846E+03  0.14845308513E+03  0.00000000000E+00 0.  1.
         11    1    1    2    0    0 -0.10223045328E+03 -0.13928100789E+02 -0.41840805054E+03  0.43094124232E+03  0.00000000000E+00 0. -1.
</event>
<event>
 7    1  0.4966153E-006  0.1686510E+03  0.7561462E-02  0.1179262E+00
         -1   -1    0    0    0  501 -0.00000000000E+00  0.00000000000E+00  0.32407285684E+02  0.32407285684E+02  0.00000000000E+00 0.  1.
          1   -1    0    0  501    0  0.00000000000E+00 -0.00000000000E+00 -0.10148997653E+04  0.10148997653E+04  0.00000000000E+00 0. -1.
         23    2    1    2    0    0 -0.11979649287E+03 -0.70140053637E+02 -0.40132036930E+03  0.44268559602E+03  0.12506666735E+03 0.  0.
          5    1    3    3  502    0 -0.56838538890E+02 -0.99300666120E+02 -0.28558957614E+03  0.30768509908E+03  0.41800000000E+01 0. -1.
         -5    1    3    3    0  502 -0.62957953977E+02  0.29160612483E+02 -0.11573079316E+03  0.13500049694E+03  0.41800000000E+01 0. -1.
        -11    1    1    2    0    0  0.61418823292E+02  0.72319975130E+02 -0.23292424996E+03  0.25150776703E+03  0.00000000000E+00 0. -1.
         11    1    1    2    0    0  0.58377669576E+02 -0.21799214934E+01 -0.34824786039E+03  0.35311368797E+03  0.00000000000E+00 0.  1.
</event>
<event>
 7    1  0.4966153E-006  0.1517266E+03  0.7561462E-02  0.1198367E+00
         -2   -1    0    0    0  501 -0.00000000000E+00  0.00000000000E+00  0.37557483045E+03  0.37557483045E+03  0.00000000000E+00 0.  1.
          2   -1    0    0  501    0  0.00000000000E+00 -0.00000000000E+00 -0.69737098484E+02  0.69737098484E+02  0.00000000000E+00 0. -1.
         23    2    1    2    0    0  0.73212726427E+02 -0.94291519434E+02  0.17756683937E+03  0.24784427353E+03  0.12508320244E+03 0.  0.
          5    1    3    3  502    0  0.79524259790E+02 -0.23947476147E+02  0.15078407478E+03  0.17219436436E+03  0.41800000000E+01 0. -1.
         -5    1    3    3    0  502 -0.63115333636E+01 -0.70344043287E+02  0.26782764581E+02  0.75649909173E+02  0.41800000000E+01 0. -1.
        -11    1    1    2    0    0 -0.82840447084E+02  0.35761890681E+02  0.85827247399E+02  0.12453019270E+03  0.00000000000E+00 0.  1.
         11    1    1    2    0    0  0.96277206575E+01  0.58529628753E+02  0.42443645204E+02  0.72937462701E+02  0.00000000000E+00 0. -1.
</event>
<event>
 7    1  0.4966153E-006  0.1292635E+03  0.7561462E-02  0.1228553E+00
         -1   -1    0    0    0  501 -0.00000000000E+00  0.00000000000E+00  0.10584188573E+03  0.10584188573E+03  0.00000000000E+00 0.  1.
          1   -1    0    0  501    0  0.00000000000E+00 -0.00000000000E+00 -0.20083551903E+03  0.20083551903E+03  0.00000000000E+00 0. -1.
         23    2    1    2    0    0  0.68204329916E+02  0.30367451347E+02  0.14221674393E+02  0.14637005057E+03  0.12509165823E+03 0.  0.
          5    1    3    3  502    0  0.10001168496E+03  0.40001315770E+02  0.25958404631E+02  0.11087720037E+03  0.41800000000E+01 0. -1.
         -5    1    3    3    0  502 -0.31807355040E+02 -0.96338644230E+01 -0.11736730238E+02  0.35492850196E+02  0.41800000000E+01 0. -1.
        -11    1    1    2    0    0  0.22157131754E+02 -0.84537334022E+00 -0.23472274627E+02  0.32289329814E+02  0.00000000000E+00 0.  1.
         11    1    1    2    0    0 -0.90361461670E+02 -0.29522078007E+02 -0.85743033073E+02  0.12801802438E+03  0.00000000000E+00 0. -1.
</event>
<event>
 6    1  0.4966153E-006  0.1189064E+03  0.7561462E-02  0.1244912E+00
         -1   -1    0    0    0  501 -0.00000000000E+00  0.00000000000E+00  0.83531701724E+02  0.83531701724E+02  0.00000000000E+00 0.  1.
          1   -1    0    0  501    0  0.00000000000E+00 -0.00000000000E+00 -0.31373352718E+03  0.31373352718E+03  0.00000000000E+00 0. -1.
          5    1    1    2  502    0 -0.53659088153E+02 -0.31207002270E+02 -0.24746467217E+02  0.66955468573E+02  0.41800000000E+01 0. -1.
         -5    1    1    2    0  502  0.71484747755E+02 -0.15818498937E+02  0.24814506677E+02  0.77417867523E+02  0.41800000000E+01 0.  1.
        -11    1    1    2    0    0  0.28988187192E+02  0.47270025410E+02 -0.98253015224E+02  0.11282032308E+03  0.00000000000E+00 0.  1.
         11    1    1    2    0    0 -0.46813846793E+02 -0.24452420269E+00 -0.13201684969E+03  0.14007156973E+03  0.00000000000E+00 0. -1.
</event>
<event>
 7    1  0.4966153E-006  0.1087085E+03  0.7561462E-02  0.1262980E+00
         -1   -1    0    0    0  501 -0.00000000000E+00  0.00000000000E+00  0.79384549154E+02  0.79384549154E+02  0.00000000000E+00 0.  1.
          1   -1    0    0  501    0  0.00000000000E+00 -0.00000000000E+00 -0.29604378379E+03  0.29604378379E+03  0.00000000000E+00 0. -1.
         23    2    1    2    0    0 -0.13500530568E+02 -0.65596765526E+02 -0.13478737830E+02  0.14252595059E+03  0.12508705067E+03 0.  0.
          5    1    3    3  502    0 -0.46300020160E+02  0.13414491459E+02  0.17488925628E+02  0.51448764490E+02  0.41800000000E+01 0. -1.
         -5    1    3    3    0  502  0.32799489593E+02 -0.79011256985E+02 -0.30967663458E+02  0.91077186101E+02  0.41800000000E+01 0. -1.
        -11    1    1    2    0    0  0.12579467634E+02 -0.44387775963E+01  0.42223891247E+01  0.13991937765E+02  0.00000000000E+00 0.  1.
         11    1    1    2    0    0  0.92106293379E+00  0.70035543122E+02 -0.20740288594E+03  0.21891044459E+03  0.00000000000E+00 0. -1.
</event>
<event>
 7    1  0.4966153E-006  0.1340240E+03  0.7561462E-02  0.1221604E+00
         -2   -1    0    0    0  501 -0.00000000000E+00  0.00000000000E+00  0.19449742754E+03  0.19449742754E+03  0.00000000000E+00 0.  1.
          2   -1    0    0  501    0  0.00000000000E+00 -0.00000000000E+00 -0.24396056265E+03  0.24396056265E+03  0.00000000000E+00 0. -1.
         23    2    1    2    0    0 -0.81924424992E+02 -0.67824417709E+02  0.13117743646E+03  0.21015834201E+03  0.12508895168E+03 0.  0.
          5    1    3    3  502    0  0.32228384834E+02 -0.15190828074E+02  0.45660204204E+02  0.58066829555E+02  0.41800000000E+01 0.  1.
         -5    1    3    3    0  502 -0.11415280983E+03 -0.52633589635E+02  0.85517232257E+02  0.15209151246E+03  0.41800000000E+01 0.  1.
        -11    1    1    2    0    0  0.32198504842E+02  0.24690972265E+02 -0.15054887935E+03  0.15592098287E+03  0.00000000000E+00 0. -1.
         11    1    1    2    0    0  0.49725920149E+02  0.43133445444E+02 -0.30091692224E+02  0.72378665306E+02  0.00000000000E+00 0.  1.
</event>
<event>
 7    1  0.4966153E-006  0.9497416E+02  0.7561462E-02  0.1291234E+00
          1   -1    0    0  501    0  0.00000000000E+00  0.00000000000E+00  0.34885283384E+03  0.34885283384E+03  0.00000000000E+00 0. -1.
         -1   -1    0    0    0  501 -0.00000000000E+00 -0.00000000000E+00 -0.46012186800E+02  0.46012186800E+02  0.00000000000E+00 0.  1.
         23    2    1    2    0    0  0.43849270952E+02  0.31097956118E+02  0.11082668326E+03  0.17555128980E+03  0.12508341292E+03 0.  0.
          5    1    3    3  502    0 -0.37351792157E+02  0.14735670015E+02  0.75063124545E+02  0.85230519267E+02  0.41800000000E+01 0. -1.
         -5    1    3    3    0  502  0.81201063109E+02  0.16362286103E+02  0.35763558719E+02  0.90320770528E+02  0.41800000000E+01 0. -1.
        -11    1    1    2    0    0 -0.13700503883E+02  0.90588841363E+01 -0.40541314517E+01  0.16917540314E+02  0.00000000000E+00 0.  1.
         11    1    1    2    0    0 -0.30148767069E+02 -0.40156840255E+02  0.19606809523E+03  0.20239619053E+03  0.00000000000E+00 0. -1.
</event>
<event>
 7    1  0.4966153E-006  0.8729177E+02  0.7561462E-02  0.1309546E+00
         -1   -1    0    0    0  501 -0.00000000000E+00  0.00000000000E+00  0.53640999140E+02  0.53640999140E+02  0.00000000000E+00 0.  1.
          1   -1    0    0  501    0  0.00000000000E+00 -0.00000000000E+00 -0.24256229589E+03  0.24256229589E+03  0.00000000000E+00 0. -1.
         23    2    1    2    0    0 -0.99294536059E+01  0.20649105937E+01 -0.65575319534E+02  0.14160279179E+03  0.12509344590E+03 0.  0.
          5    1    3    3  502    0 -0.69991486918E+01 -0.49815425364E+02 -0.73200023238E+02  0.88917267663E+02  0.41800000000E+01 0. -1.
         -5    1    3    3    0  502 -0.29303049142E+01  0.51880335957E+02  0.76247037045E+01  0.52685524127E+02  0.41800000000E+01 0. -1.
        -11    1    1    2    0    0  0.22619132822E+02  0.29952773380E+02 -0.11233944608E+03  0.11844384724E+03  0.00000000000E+00 0. -1.
         11    1    1    2    0    0 -0.12689679216E+02 -0.32017683974E+02 -0.11006531136E+02  0.36156656003E+02  0.00000000000E+00 0.  1.
</event>
<event>
 7    1  0.4966153E-006  0.1025535E+03  0.7561462E-02  0.1275016E+00
          2   -1    0    0  501    0  0.00000000000E+00  0.00000000000E+00  0.65626435067E+03  0.65626435067E+03  0.00000000000E+00 0. -1.
         -2   -1    0    0    0  501 -0.00000000000E+00 -0.00000000000E+00 -0.25974129009E+02  0.25974129009E+02  0.00000000000E+00 0.  1.
         23    2    1    2    0    0 -0.47467229285E+02  0.47078919418E+02  0.29441674466E+03  0.32680058886E+03  0.12509133797E+03 0.  0.
          5    1    3    3  502    0 -0.50986690491E+01 -0.15986500867E+02  0.21895158414E+03  0.21963340646E+03  0.41800000000E+01 0.  1.
         -5    1    3    3    0  502 -0.42368560236E+02  0.63065420285E+02  0.75465160524E+02  0.10716718241E+03  0.41800000000E+01 0.  1.
        -11    1    1    2    0    0  0.26815791456E+02  0.25050349115E+02  0.68169020420E+02  0.77418486212E+02  0.00000000000E+00 0.  1.
         11    1    1    2    0    0  0.20651437829E+02 -0.72129268533E+02  0.26770445658E+03  0.27801940460E+03  0.00000000000E+00 0. -1.
</event>
<event>
 7    1  0.4966153E-006  0.1107049E+03  0.7561462E-02  0.1259270E+00
         -1   -1    0    0    0  501 -0.00000000000E+00  0.00000000000E+00  0.45405992077E+03  0.45405992077E+03  0.00000000000E+00 0.  1.
          1   -1    0    0  501    0  0.00000000000E+00 -0.00000000000E+00 -0.27954880142E+02  0.27954880142E+02  0.00000000000E+00 0. -1.
         23    2    1    2    0    0 -0.22678448446E+02  0.54055534170E+01  0.24827049446E+03  0.27897950376E+03  0.12509113905E+03 0.  0.
          5    1    3    3  502    0 -0.73928222881E+02 -0.69181588291E+01  0.14535973131E+03  0.16327941372E+03  0.41800000000E+01 0.  1.
         -5    1    3    3    0  502  0.51249774435E+02  0.12323712246E+02  0.10291076315E+03  0.11570009004E+03  0.41800000000E+01 0.  1.
        -11    1    1    2    0    0 -0.67905586344E-01 -0.46870543500E+02  0.60528293544E+02  0.76554077478E+02  0.00000000000E+00 0.  1.
         11    1    1    2    0    0  0.22746354032E+02  0.41464990083E+02  0.11730625262E+03  0.12648121967E+03  0.00000000000E+00 0. -1.
</event>
<event>
 7    1  0.4966153E-006  0.1115626E+03  0.7561462E-02  0.1257703E+00
          2   -1    0    0  501    0  0.00000000000E+00  0.00000000000E+00  0.48473123808E+03  0.48473123808E+03  0.00000000000E+00 0. -1.
         -2   -1    0    0    0  501 -0.00000000000E+00 -0.00000000000E+00 -0.31637909802E+02  0.31637909802E+02  0.00000000000E+00 0.  1.
         23    2    1    2    0    0  0.33454301107E+02  0.50293245299E+02  0.26230909860E+03  0.29682075762E+03  0.12509155910E+03 0.  0.
          5    1    3    3  502    0 -0.47410583083E+02  0.26678278601E+02  0.10415221289E+03  0.11757827090E+03  0.41800000000E+01 0. -1.
         -5    1    3    3    0  502  0.80864884189E+02  0.23614966698E+02  0.15815688571E+03  0.17924248672E+03  0.41800000000E+01 0. -1.
        -11    1    1    2    0    0  0.45970753298E+01 -0.45653415995E+02  0.31352118314E+02  0.55572680486E+02  0.00000000000E+00 0.  1.
         11    1    1    2    0    0 -0.38051376436E+02 -0.46398293037E+01  0.15943211136E+03  0.16397570978E+03  0.00000000000E+00 0. -1.
</event>
<event>
 7    1  0.4966153E-006  0.1697148E+03  0.7561462E-02  0.1178146E+00
          2   -1    0    0  501    0  0.00000000000E+00  0.00000000000E+00  0.26685253331E+03  0.26685253331E+03  0.00000000000E+00 0. -1.
         -2   -1    0    0    0  501 -0.00000000000E+00 -0.00000000000E+00 -0.13410866705E+03  0.13410866705E+03  0.00000000000E+00 0.  1.
         23    2    1    2    0    0 -0.83997014971E+02 -0.10763754996E+03 -0.74774113086E+01  0.18532944318E+03  0.12509896141E+03 0.  0.
          5    1    3    3  502    0 -0.87805092516E+01  0.27108881479E+02 -0.11221285374E+02  0.30909196742E+02  0.41800000000E+01 0.  1.
         -5    1    3    3    0  502 -0.75216505719E+02 -0.13474643143E+03  0.37438740652E+01  0.15442024644E+03  0.41800000000E+01 0.  1.
        -11    1    1    2    0    0  0.97479833230E+02  0.10343743335E+03  0.10216805877E+03  0.17504265976E+03  0.00000000000E+00 0.  1.
         11    1    1    2    0    0 -0.13482818259E+02  0.42001166104E+01  0.38053218802E+02  0.40589097415E+02  0.00000000000E+00 0. -1.
</event>
<event>
 7    1  0.4966153E-006  0.1023077E+03  0.7561462E-02  0.1275517E+00
         -1   -1    0    0    0  501 -0.00000000000E+00  0.00000000000E+00  0.21586168303E+02  0.21586168303E+02  0.00000000000E+00 0.  1.
          1   -1    0    0  501    0  0.00000000000E+00 -0.00000000000E+00 -0.77627404371E+03  0.77627404371E+03  0.00000000000E+00 0. -1.
         23    2    1    2    0    0 -0.64424189192E+02 -0.42421356706E+01 -0.48426938546E+03  0.50431345168E+03  0.12508696168E+03 0.  0.
          5    1    3    3  502    0  0.11593646007E+02 -0.72753810641E+01 -0.22927790733E+00  0.14313237430E+02  0.41800000000E+01 0.  1.
         -5    1    3    3    0  502 -0.76017835199E+02  0.30332453935E+01 -0.48404010756E+03  0.49000021425E+03  0.41800000000E+01 0.  1.
        -11    1    1    2    0    0  0.16098787272E+02  0.46940618097E+02 -0.11162256425E+03  0.12215641379E+03  0.00000000000E+00 0.  1.
         11    1    1    2    0    0  0.48325401921E+02 -0.42698482427E+02 -0.15879592569E+03  0.17139034654E+03  0.00000000000E+00 0. -1.
</event>
<event>
 7    1  0.4966153E-006  0.1711571E+03  0.7561462E-02  0.1176647E+00
         -1   -1    0    0    0  501 -0.00000000000E+00  0.00000000000E+00  0.78905133388E+02  0.78905133388E+02  0.00000000000E+00 0.  1.
          1   -1    0    0  501    0  0.00000000000E+00 -0.00000000000E+00 -0.64655827955E+03  0.64655827955E+03  0.00000000000E+00 0. -1.
         23    2    1    2    0    0  0.39724620349E+02  0.16210932680E+03 -0.12165634837E+03  0.24146497258E+03  0.12509031371E+03 0.  0.
          5    1    3    3  502    0 -0.60131905595E+01  0.12878604886E+02  0.23824211353E+02  0.28054988346E+02  0.41800000000E+01 0. -1.
         -5    1    3    3    0  502  0.45737810909E+02  0.14923072192E+03 -0.14548055972E+03  0.21340998423E+03  0.41800000000E+01 0. -1.
        -11    1    1    2    0    0 -0.32260106799E+02 -0.53349860924E+02 -0.76131231323E+02  0.98401659204E+02  0.00000000000E+00 0.  1.
         11    1    1    2    0    0 -0.74645135506E+01 -0.10875946588E+03 -0.36986556647E+03  0.38559678116E+03  0.00000000000E+00 0. -1.
</event>
<event>
 7    1  0.4966153E-006  0.2317243E+03  0.7561462E-02  0.1125432E+00
         -1   -1    0    0    0  501 -0.00000000000E+00  0.00000000000E+00  0.17321828817E+03  0.17321828817E+03  0.00000000000E+00 0.  1.
          1   -1    0    0  501    0  0.00000000000E+00 -0.00000000000E+00 -0.42349522754E+03  0.42349522754E+03  0.00000000000E+00 0. -1.
         23    2    1    2    0    0  0.19620825929E+03  0.97221222134E+02 -0.11233768338E+01  0.25218750344E+03  0.12509047873E+03 0.  0.
          5    1    3    3  502    0  0.20694851386E+03  0.92721369659E+02  0.20019139069E+02  0.22769097063E+03  0.41800000000E+01 0. -1.
         -5    1    3    3    0  502 -0.10740254572E+02  0.44998524749E+01 -0.21142515903E+02  0.24496532801E+02  0.41800000000E+01 0. -1.
        -11    1    1    2    0    0 -0.13941274123E+03 -0.92429838289E+02 -0.23000801155E+03  0.28439914346E+03  0.00000000000E+00 0. -1.
         11    1    1    2    0    0 -0.56795518058E+02 -0.47913838453E+01 -0.19145550994E+02  0.60126868815E+02  0.00000000000E+00 0.  1.
</event>
<event>
 7    1  0.4966153E-006  0.1436771E+03  0.7561462E-02  0.1208465E+00
          1   -1    0    0  501    0  0.00000000000E+00  0.00000000000E+00  0.59823391284E+03  0.59823391284E+03  0.00000000000E+00 0. -1.
         -1   -1    0    0    0  501 -0.00000000000E+00 -0.00000000000E+00 -0.84909095410E+02  0.84909095410E+02  0.00000000000E+00 0.  1.
         23    2    1    2    0    0  0.63448552722E+02  0.11408804733E+03  0.42085650196E+02  0.18563861416E+03  0.12509473102E+03 0.  0.
          5    1    3    3  502    0  0.61730518700E+02  0.65421498093E+02  0.82571311575E+02  0.12217251429E+03  0.41800000000E+01 0. -1.
         -5    1    3    3    0  502  0.17180340218E+01  0.48666549242E+02 -0.40485661379E+02  0.63466099875E+02  0.41800000000E+01 0. -1.
        -11    1    1    2    0    0 -0.19419583227E+02  0.61639422358E+01  0.20404501026E+02  0.28835014456E+02  0.00000000000E+00 0.  1.
         11    1    1    2    0    0 -0.44028969495E+02 -0.12025198957E+03  0.45083466621E+03  0.46866937964E+03  0.00000000000E+00 0. -1.
</event>
<event>
 7    1  0.4966153E-006  0.1222156E+03  0.7561462E-02  0.1239486E+00
          1   -1    0    0  501    0  0.00000000000E+00  0.00000000000E+00  0.12373301735E+03  0.12373301735E+03  0.00000000000E+00 0. -1.
         -1   -1    0    0    0  501 -0.00000000000E+00 -0.00000000000E+00 -0.15217000496E+03  0.15217000496E+03  0.00000000000E+00 0.  1.
         23    2    1    2    0    0 -0.63871516231E+02  0.30374398169E+02 -0.24151414252E+02  0.14571737454E+03  0.12509231704E+03 0.  0.
          5    1    3    3  502    0  0.21205468766E+02 -0.92385142858E+01  0.29356401433E+02  0.37607083866E+02  0.41800000000E+01 0.  1.
         -5    1    3    3    0  502 -0.85076984997E+02  0.39612912455E+02 -0.53507815685E+02  0.10811029067E+03  0.41800000000E+01 0.  1.
        -11    1    1    2    0    0 -0.17320773115E+02 -0.41561734956E+02  0.12056837321E+02  0.46612812832E+02  0.00000000000E+00 0.  1.
         11    1    1    2    0    0  0.81192289346E+02  0.11187336788E+02 -0.16342410675E+02  0.83572834942E+02  0.00000000000E+00 0. -1.
</event>
<event>
 7    1  0.4966153E-006  0.1251135E+03  0.7561462E-02  0.1234892E+00
         -2   -1    0    0    0  501 -0.00000000000E+00  0.00000000000E+00  0.24294858763E+03  0.24294858763E+03  0.00000000000E+00 0.  1.
          2   -1    0    0  501    0  0.00000000000E+00 -0.00000000000E+00 -0.15751380222E+03  0.15751380222E+03  0.00000000000E+00 0. -1.
         23    2    1    2    0    0  0.72834340040E+02  0.94766265694E+02  0.15570064838E+03  0.23276071045E+03  0.12509744291E+03 0.  0.
          5    1    3    3  502    0  0.64746698980E+02  0.51850880837E+02  0.13749915768E+02  0.84185399304E+02  0.41800000000E+01 0. -1.
         -5    1    3    3    0  502  0.80876410602E+01  0.42915384857E+02  0.14195073261E+03  0.14857531115E+03  0.41800000000E+01 0. -1.
        -11    1    1    2    0    0 -0.33554018922E+02 -0.20592757976E+02 -0.73854658269E+02  0.83692558898E+02  0.00000000000E+00 0. -1.
         11    1    1    2    0    0 -0.39280321118E+02 -0.74173507718E+02  0.35887953057E+01  0.84009120494E+02  0.00000000000E+00 0.  1.
</event>
<event>
 7    1  0.4966153E-006  0.1212063E+03  0.7561462E-02  0.1241120E+00
         -1   -1    0    0    0  501 -0.00000000000E+00  0.00000000000E+00  0.26579376690E+02  0.26579376690E+02  0.00000000000E+00 0.  1.
          1   -1    0    0  501    0  0.00000000000E+00 -0.00000000000E+00 -0.69860565173E+03  0.69860565173E+03  0.00000000000E+00 0. -1.
         23    2    1    2    0    0  0.21813371403E+02  0.48675177091E+02 -0.20704955063E+03  0.24771402927E+03  0.12509047862E+03 0.  0.
          5    1    3    3  502    0 -0.51574178681E+02  0.12454206233E+02 -0.95070492371E+02  0.10895354092E+03  0.41800000000E+01 0.  1.
         -5    1    3    3    0  502  0.73387550084E+02  0.36220970858E+02 -0.11197905826E+03  0.13876048835E+03  0.41800000000E+01 0.  1.
        -11    1    1    2    0    0 -0.30058342115E+02 -0.74394232540E+02 -0.37690949865E+03  0.38535538913E+03  0.00000000000E+00 0. -1.
         11    1    1    2    0    0  0.82449707120E+01  0.25719055449E+02 -0.88067225765E+02  0.92115610019E+02  0.00000000000E+00 0.  1.
</event>
<event>
 7    1  0.6235754E-006  0.2127596E+03  0.7561462E-02  0.1139399E+00
         -1   -1    0    0    0  501 -0.00000000000E+00  0.00000000000E+00  0.84128929754E+02  0.84128929754E+02  0.00000000000E+00 0.  1.
          1   -1    0    0  501    0  0.00000000000E+00 -0.00000000000E+00 -0.63152358530E+03  0.63152358530E+03  0.00000000000E+00 0. -1.
         23    2    1    2    0    0 -0.15531628549E+03 -0.13279541376E+03 -0.27390425092E+03  0.36390823891E+03  0.12509155536E+03 0.  0.
          5    1    3    3  502    0  0.73190957978E+01 -0.23986290506E+02  0.21450571911E+01  0.25514407026E+02  0.41800000000E+01 0.  1.
         -5    1    3    3    0  502 -0.16263538129E+03 -0.10880912326E+03 -0.27604930811E+03  0.33839383189E+03  0.41800000000E+01 0.  1.
        -11    1    1    2    0    0  0.82678465357E+02  0.68554904149E+02 -0.75507076590E+02  0.13128907849E+03  0.00000000000E+00 0. -1.
         11    1    1    2    0    0  0.72637820134E+02  0.64240509613E+02 -0.19798332804E+03  0.22045519765E+03  0.00000000000E+00 0.  1.
</event>
<event>
 7    1  0.4966153E-006  0.1068759E+03  0.7561462E-02  0.1266467E+00
          1   -1    0    0  501    0  0.00000000000E+00  0.00000000000E+00  0.31640445699E+02  0.31640445699E+02  0.00000000000E+00 0. -1.
         -1   -1    0    0    0  501 -0.00000000000E+00 -0.00000000000E+00 -0.54828250786E+03  0.54828250786E+03  0.00000000000E+00 0.  1.
         23    2    1    2    0    0 -0.30641521969E+02 -0.71068473037E+02 -0.32456640961E+03  0.35458401190E+03  0.11998681812E+03 0.  0.
          5    1    3    3  502    0  0.40372825142E+02 -0.81856685763E+01 -0.15293430865E+03  0.15844035263E+03  0.41800000000E+01 0. -1.
         -5    1    3    3    0  502 -0.71014347111E+02 -0.62882804460E+02 -0.17163210096E+03  0.19614365927E+03  0.41800000000E+01 0.  1.
        -11    1    1    2    0    0  0.19715645619E+02  0.44439929857E+02 -0.22914449356E+02  0.53746497906E+02  0.00000000000E+00 0. -1.
         11    1    1    2    0    0  0.10925876350E+02  0.26628543180E+02 -0.16916120320E+03  0.17159244375E+03  0.00000000000E+00 0.  1.
</event>
<event>
 7    1  0.4966153E-006  0.9374858E+02  0.7561462E-02  0.1294020E+00
         -2   -1    0    0    0  501 -0.00000000000E+00  0.00000000000E+00  0.18499386945E+03  0.18499386945E+03  0.00000000000E+00 0.  1.
          2   -1    0    0  501    0  0.00000000000E+00 -0.00000000000E+00 -0.94732371571E+02  0.94732371571E+02  0.00000000000E+00 0. -1.
         23    2    1    2    0    0 -0.37487262768E+02  0.13835910897E+02  0.13088091911E+03  0.17715016343E+03  0.11249728047E+03 0.  0.
          5    1    3    3  502    0 -0.37628584309E+02  0.46896807591E+02  0.23456028044E+02  0.64675177394E+02  0.41800000000E+01 0. -1.
         -5    1    3    3    0  502  0.14132154027E+00 -0.33060896694E+02  0.10742489107E+03  0.11247498603E+03  0.41800000000E+01 0.  1.
        -11    1    1    2    0    0 -0.25277069510E+02 -0.17949652088E+02 -0.96698751487E+01  0.32475017143E+02  0.00000000000E+00 0. -1.
         11    1    1    2    0    0  0.62764332278E+02  0.41137411909E+01 -0.30949546087E+02  0.70101060448E+02  0.00000000000E+00 0.  1.
</event>
<event>
 7    1  0.4966153E-006  0.9392524E+02  0.7561462E-02  0.1293615E+00
         -3   -1    0    0    0  501 -0.00000000000E+00  0.00000000000E+00  0.34769746548E+03  0.34769746548E+03  0.00000000000E+00 0.  1.
          3   -1    0    0  501    0  0.00000000000E+00 -0.00000000000E+00 -0.47194107350E+02  0.47194107350E+02  0.00000000000E+00 0. -1.
         23    2    1    2    0    0  0.46104958808E+02  0.30062683945E+02  0.23105337571E+03  0.26844483035E+03  0.12509009681E+03 0.  0.
          5    1    3    3  502    0  0.62579081365E+02 -0.74785790231E+01  0.21522207926E+03  0.22429910024E+03  0.41800000000E+01 0. -1.
         -5    1    3    3    0  502 -0.16474122557E+02  0.37541262969E+02  0.15831296458E+02  0.44145730108E+02  0.41800000000E+01 0. -1.
        -11    1    1    2    0    0 -0.28465887387E+02  0.17043313193E+02 -0.79695765454E+01  0.34121773396E+02  0.00000000000E+00 0. -1.
         11    1    1    2    0    0 -0.17639071421E+02 -0.47105997139E+02  0.77419558965E+02  0.92324969089E+02  0.00000000000E+00 0.  1.
</event>
<event>
 7    1  0.4966153E-006  0.1386549E+03  0.7561462E-02  0.1215150E+00
          1   -1    0    0  501    0  0.00000000000E+00  0.00000000000E+00  0.11468356494E+03  0.11468356494E+03  0.00000000000E+00 0. -1.
         -1   -1    0    0    0  501 -0.00000000000E+00 -0.00000000000E+00 -0.21883580336E+03  0.21883580336E+03  0.00000000000E+00 0.  1.
         23    2    1    2    0    0  0.10261086705E+03  0.43552192077E+02 -0.86252829986E+02  0.18844965877E+03  0.12509172530E+03 0.  0.
          5    1    3    3  502    0  0.52614615831E+02 -0.20724362440E+02  0.14799672191E+02  0.58602898346E+02  0.41800000000E+01 0. -1.
         -5    1    3    3    0  502  0.49996251219E+02  0.64276554518E+02 -0.10105250218E+03  0.12984676043E+03  0.41800000000E+01 0. -1.
        -11    1    1    2    0    0 -0.26675102850E+02 -0.56084136936E+02  0.10593771836E+02  0.63001742275E+02  0.00000000000E+00 0.  1.
         11    1    1    2    0    0 -0.75935764199E+02  0.12531944859E+02 -0.28493180270E+02  0.82067967249E+02  0.00000000000E+00 0. -1.
</event>
<event>
 7    1  0.4966153E-006  0.6542666E+02  0.7561462E-02  0.1376374E+00
          1   -1    0    0  501    0  0.00000000000E+00  0.00000000000E+00  0.40116402570E+03  0.40116402570E+03  0.00000000000E+00 0. -1.
         -1   -1    0    0    0  501 -0.00000000000E+00 -0.00000000000E+00 -0.28653833814E+02  0.28653833814E+02  0.00000000000E+00 0.  1.
         23    2    1    2    0    0 -0.12570598099E+02  0.81723082679E+01  0.22427546364E+03  0.25473059065E+03  0.11984733481E+03 0.  0.
          5    1    3    3  502    0 -0.17741869875E+02 -0.87802267569E+01 -0.79897815313E+01  0.21752593810E+02  0.41800000000E+01 0. -1.
         -5    1    3    3    0  502  0.51712717761E+01  0.16952535025E+02  0.23226524517E+03  0.23297799684E+03  0.41800000000E+01 0.  1.
        -11    1    1    2    0    0  0.51034120561E+02 -0.15331107713E+02  0.74217878548E+02  0.91366393281E+02  0.00000000000E+00 0. -1.
         11    1    1    2    0    0 -0.38463522463E+02  0.71587994452E+01  0.74016849702E+02  0.83720875590E+02  0.00000000000E+00 0.  1.
</event>
<event>
 7    1  0.4966153E-006  0.1419115E+03  0.7561462E-02  0.1210780E+00
          1   -1    0    0  501    0  0.00000000000E+00  0.00000000000E+00  0.54493941477E+03  0.54493941477E+03  0.00000000000E+00 0. -1.
         -1   -1    0    0    0  501 -0.00000000000E+00 -0.00000000000E+00 -0.52739103885E+02  0.52739103885E+02  0.00000000000E+00 0.  1.
         23    2    1    2    0    0  0.52563022033E+01  0.13007849551E+03  0.24847494590E+03  0.30714190608E+03  0.12509319735E+03 0.  0.
          5    1    3    3  502    0 -0.80599644558E+01  0.41052045196E+02  0.20087706358E+03  0.20522987237E+03  0.41800000000E+01 0. -1.
         -5    1    3    3    0  502  0.13316266659E+02  0.89026450315E+02  0.47597882324E+02  0.10191203371E+03  0.41800000000E+01 0. -1.
        -11    1    1    2    0    0 -0.40891648538E+02 -0.83910026027E+02  0.18787630627E+03  0.20978685814E+03  0.00000000000E+00 0.  1.
         11    1    1    2    0    0  0.35635346335E+02 -0.46168469483E+02  0.55849058714E+02  0.80749754439E+02  0.00000000000E+00 0. -1.
</event>
<event>
 7    1  0.4966153E-006  0.1531238E+03  0.7561462E-02  0.1196686E+00
          2   -1    0    0  501    0  0.00000000000E+00  0.00000000000E+00  0.88887330942E+03  0.88887330942E+03  0.00000000000E+00 0. -1.
         -2   -1    0    0    0  501 -0.00000000000E+00 -0.00000000000E+00 -0.29050457513E+02  0.29050457513E+02  0.00000000000E+00 0.  1.
         23    2    1    2    0    0 -0.10328106644E+03 -0.58654229636E+02  0.48242422677E+03  0.51233545350E+03  0.12508870848E+03 0.  0.
          5    1    3    3  502    0  0.29212521960E+02 -0.11847394124E+02  0.81943567870E+02  0.87897399859E+02  0.41800000000E+01 0. -1.
         -5    1    3    3    0  502 -0.13249358840E+03 -0.46806835512E+02  0.40048065890E+03  0.42443805364E+03  0.41800000000E+01 0. -1.
        -11    1    1    2    0    0  0.17662449350E+02  0.43458970297E+02  0.58172748498E+02  0.74730936594E+02  0.00000000000E+00 0.  1.
         11    1    1    2    0    0  0.85618617092E+02  0.15195259339E+02  0.31922587664E+03  0.33085737685E+03  0.00000000000E+00 0. -1.
</event>
<event>
 7    1  0.4966153E-006  0.1178376E+03  0.7561462E-02  0.1246708E+00
          1   -1    0    0  501    0  0.00000000000E+00  0.00000000000E+00  0.80384406811E+03  0.80384406811E+03  0.00000000000E+00 0. -1.
         -1   -1    0    0    0  501 -0.00000000000E+00 -0.00000000000E+00 -0.21976944649E+02  0.21976944649E+02  0.00000000000E+00 0.  1.
         23    2    1    2    0    0 -0.69094945827E+02 -0.21574872778E+02  0.35698124434E+03  0.38512007538E+03  0.12506908883E+03 0.  0.
          5    1    3    3  502    0 -0.34028577783E+01 -0.47910265418E+02  0.26307254917E+03  0.26745394276E+03  0.41800000000E+01 0. -1.
         -5    1    3    3    0  502 -0.65692088049E+02  0.26335392640E+02  0.93908695167E+02  0.11766613262E+03  0.41800000000E+01 0. -1.
        -11    1    1    2    0    0 -0.74210207676E+00 -0.29836083685E+02  0.92944479838E+02  0.97618742757E+02  0.00000000000E+00 0.  1.
         11    1    1    2    0    0  0.69837047904E+02  0.51410956463E+02  0.33194139929E+03  0.34308219462E+03  0.00000000000E+00 0. -1.
</event>
<event>
 7    1  0.4966153E-006  0.1065490E+03  0.7561462E-02  0.1267097E+00
          2   -1    0    0  501    0  0.00000000000E+00  0.00000000000E+00  0.10991214889E+03  0.10991214889E+03  0.00000000000E+00 0. -1.
         -2   -1    0    0    0  501 -0.00000000000E+00 -0.00000000000E+00 -0.11488003485E+03  0.11488003485E+03  0.00000000000E+00 0.  1.
         23    2    1    2    0    0 -0.26239526136E+02 -0.18720703050E+02 -0.13673532182E+01  0.12917811192E+03  0.12508452138E+03 0.  0.
          5    1    3    3  502    0  0.33817704294E+02  0.25752294419E+02 -0.26451160083E+02  0.50238969548E+02  0.41800000000E+01 0. -1.
         -5    1    3    3    0  502 -0.60057230430E+02 -0.44472997469E+02  0.25083806864E+02  0.78939142367E+02  0.41800000000E+01 0. -1.
        -11    1    1    2    0    0 -0.24253980682E+02  0.34914232222E+02 -0.22071050841E+01  0.42569126176E+02  0.00000000000E+00 0.  1.
         11    1    1    2    0    0  0.50493506817E+02 -0.16193529172E+02 -0.13934276567E+01  0.53044945644E+02  0.00000000000E+00 0. -1.
</event>
<event>
 7    1  0.4966153E-006  0.3847528E+03  0.7561462E-02  0.1049191E+00
         -2   -1    0    0    0  501 -0.00000000000E+00  0.00000000000E+00  0.94160711522E+03  0.94160711522E+03  0.00000000000E+00 0.  1.
          2   -1    0    0  501    0  0.00000000000E+00 -0.00000000000E+00 -0.50538280001E+03  0.50538280001E+03  0.00000000000E+00 0. -1.
         23    2    1    2    0    0 -0.17082452614E+03  0.32898514843E+03  0.81818934195E+03  0.90691405782E+03  0.12508821838E+03 0.  0.
          5    1    3    3  502    0 -0.45707170014E+02  0.12296807296E+02  0.66968160877E+02  0.82113116075E+02  0.41800000000E+01 0.  1.
         -5    1    3    3    0  502 -0.12511735612E+03  0.31668834113E+03  0.75122118107E+03  0.82480094174E+03  0.41800000000E+01 0.  1.
        -11    1    1    2    0    0  0.57176342168E+02 -0.20692096190E+03 -0.20324700966E+03  0.29562605689E+03  0.00000000000E+00 0.  1.
         11    1    1    2    0    0  0.11364818397E+03 -0.12206418653E+03 -0.17871801707E+03  0.24444980053E+03  0.00000000000E+00 0. -1.
</event>
<event>
 7    1  0.4966153E-006  0.1111759E+03  0.7561462E-02  0.1258408E+00
         -3   -1    0    0    0  501 -0.00000000000E+00  0.00000000000E+00  0.47607060637E+02  0.47607060637E+02  0.00000000000E+00 0.  1.
          3   -1    0    0  501    0  0.00000000000E+00 -0.00000000000E+00 -0.36512286954E+03  0.36512286954E+03  0.00000000000E+00 0. -1.
         23    2    1    2    0    0  0.74933797524E+02  0.14760923048E+02 -0.18128678871E+03  0.23312651353E+03  0.12510041044E+03 0.  0.
          5    1    3    3  502    0  0.80658425738E+02 -0.28140414251E+02 -0.16652703841E+03  0.18720681472E+03  0.41800000000E+01 0.  1.
         -5    1    3    3    0  502 -0.57246282140E+01  0.42901337299E+02 -0.14759750297E+02  0.45919698812E+02  0.41800000000E+01 0.  1.
        -11    1    1    2    0    0 -0.19658830477E+01 -0.20082513960E+02 -0.91835947794E+02  0.94026663082E+02  0.00000000000E+00 0. -1.
         11    1    1    2    0    0 -0.72967914476E+02  0.53215909121E+01 -0.44393072402E+02  0.85576753562E+02  0.00000000000E+00 0.  1.
</event>
<event>
 7    1  0.4966153E-006  0.1866024E+03  0.7561462E-02  0.1161562E+00
          2   -1    0    0  501    0  0.00000000000E+00  0.00000000000E+00  0.57037305314E+03  0.57037305314E+03  0.00000000000E+00 0. -1.
         -2   -1    0    0    0  501 -0.00000000000E+00 -0.00000000000E+00 -0.10867402186E+03  0.10867402186E+03  0.00000000000E+00 0.  1.
         23    2    1    2    0    0 -0.84790640780E+02 -0.14575815628E+03  0.37175422577E+02  0.21322332930E+03  0.12508910115E+03 0.  0.
          5    1    3    3  502    0 -0.13806032865E+02 -0.12488340136E+03  0.54656312476E+02  0.13708119992E+03  0.41800000000E+01 0.  1.
         -5    1    3    3    0  502 -0.70984607915E+02 -0.20874754920E+02 -0.17480889899E+02  0.76142129373E+02  0.41800000000E+01 0.  1.
        -11    1    1    2    0    0  0.71704318847E+02  0.14305597568E+03  0.42314351618E+03  0.45239027045E+03  0.00000000000E+00 0. -1.
         11    1    1    2    0    0  0.13086321933E+02  0.27021805995E+01  0.13800925281E+01  0.13433475243E+02  0.00000000000E+00 0.  1.
</event>
<event>
 7    1  0.4966153E-006  0.9065455E+02  0.7561462E-02  0.1301274E+00
         -1   -1    0    0    0  501 -0.00000000000E+00  0.00000000000E+00  0.41132908584E+02  0.41132908584E+02  0.00000000000E+00 0.  1.
          1   -1    0    0  501    0  0.00000000000E+00 -0.00000000000E+00 -0.39611167479E+03  0.39611167479E+03  0.00000000000E+00 0. -1.
         23    2    1    2    0    0  0.60510679442E+02  0.29347654467E+02 -0.20818772822E+03  0.25201587587E+03  0.12508814635E+03 0.  0.
          5    1    3    3  502    0  0.52166304156E+02 -0.20844898310E+02 -0.18942609240E+03  0.19762477060E+03  0.41800000000E+01 0.  1.
         -5    1    3    3    0  502  0.83443752868E+01  0.50192552778E+02 -0.18761635828E+02  0.54391105267E+02  0.41800000000E+01 0.  1.
        -11    1    1    2    0    0 -0.18219170472E+02  0.56012111865E+01  0.82479484229E+01  0.20768735942E+02  0.00000000000E+00 0.  1.
         11    1    1    2    0    0 -0.42291508971E+02 -0.34948865654E+02 -0.15503898640E+03  0.16445997156E+03  0.00000000000E+00 0. -1.
</event>
<event>
 7    1  0.4966153E-006  0.9007784E+02  0.7561462E-02  0.1302663E+00
          2   -1    0    0  501    0  0.00000000000E+00  0.00000000000E+00  0.74281064086E+02  0.74281064086E+02  0.00000000000E+00 0. -1.
         -2   -1    0    0    0  501 -0.00000000000E+00 -0.00000000000E+00 -0.28617678356E+03  0.28617678356E+03  0.00000000000E+00 0.  1.
         23    2    1    2    0    0  0.41396654252E+02 -0.41222340660E+02 -0.21010376001E+03  0.25140391950E+03  0.12508947365E+03 0.  0.
          5    1    3    3  502    0  0.23593192378E+02  0.51538144893E+01  0.94457124861E+01  0.26265841215E+02  0.41800000000E+01 0. -1.
         -5    1    3    3    0  502  0.17803461874E+02 -0.46376155150E+02 -0.21954947249E+03  0.22513807828E+03  0.41800000000E+01 0. -1.
        -11    1    1    2    0    0 -0.65455859580E+02  0.97463984945E+01 -0.13911107245E+02  0.67623817859E+02  0.00000000000E+00 0. -1.
         11    1    1    2    0    0  0.24059205328E+02  0.31475942166E+02  0.12119147772E+02  0.41430110294E+02  0.00000000000E+00 0.  1.
</event>
<event>
 7    1  0.4966153E-006  0.6994028E+02  0.7561462E-02  0.1360296E+00
         -1   -1    0    0    0  501 -0.00000000000E+00  0.00000000000E+00  0.30405405662E+02  0.30405405662E+02  0.00000000000E+00 0.  1.
          1   -1    0    0  501    0  0.00000000000E+00 -0.00000000000E+00 -0.47927939794E+03  0.47927939794E+03  0.00000000000E+00 0. -1.
         23    2    1    2    0    0 -0.18704891728E+02 -0.43327723610E+02 -0.21609300534E+03  0.25410780734E+03  0.12508967259E+03 0.  0.
          5    1    3    3  502    0  0.11613892097E+02 -0.21118766787E+02  0.88465552178E+01  0.26011896115E+02  0.41800000000E+01 0.  1.
         -5    1    3    3    0  502 -0.30318783826E+02 -0.22208956823E+02 -0.22493956055E+03  0.22809591123E+03  0.41800000000E+01 0.  1.
        -11    1    1    2    0    0  0.41379997918E+02  0.31669242182E+02 -0.22176095505E+03  0.22780071622E+03  0.00000000000E+00 0.  1.
         11    1    1    2    0    0 -0.22675106190E+02  0.11658481428E+02 -0.11020031896E+02  0.27776280041E+02  0.00000000000E+00 0. -1.
</event>
<event>
 7    1  0.4966153E-006  0.1268903E+03  0.7561462E-02  0.1232144E+00
         -2   -1    0    0    0  501 -0.00000000000E+00  0.00000000000E+00  0.41661580857E+02  0.41661580857E+02  0.00000000000E+00 0.  1.
          2   -1    0    0  501    0  0.00000000000E+00 -0.00000000000E+00 -0.56997756413E+03  0.56997756413E+03  0.00000000000E+00 0. -1.
         23    2    1    2    0    0  0.61889312604E+02 -0.58894663307E+02 -0.15323837352E+03  0.21547278022E+03  0.12509057326E+03 0.  0.
          5    1    3    3  502    0  0.17894412619E+02  0.31445955671E+02 -0.88930106701E+02  0.96099398587E+02  0.41800000000E+01 0.  1.
         -5    1    3    3    0  502  0.43994899985E+02 -0.90340618977E+02 -0.64308266816E+02  0.11937338163E+03  0.41800000000E+01 0.  1.
        -11    1    1    2    0    0 -0.58740621285E+02  0.93991050521E+00 -0.26806929490E+03  0.27443121340E+03  0.00000000000E+00 0. -1.
         11    1    1    2    0    0 -0.31486913193E+01  0.57954752801E+02 -0.10700831486E+03  0.12173515137E+03  0.00000000000E+00 0.  1.
</event>
<event>
 7    1  0.4966153E-006  0.9993870E+02  0.7561462E-02  0.1280425E+00
          4   -1    0    0  501    0  0.00000000000E+00  0.00000000000E+00  0.25754675756E+02  0.25754675756E+02  0.00000000000E+00 0. -1.
         -4   -1    0    0    0  501 -0.00000000000E+00 -0.00000000000E+00 -0.49291615352E+03  0.49291615352E+03  0.00000000000E+00 0.  1.
         23    2    1    2    0    0 -0.19585201710E+02 -0.12798697052E+02 -0.27724976153E+03  0.30506120994E+03  0.12509006662E+03 0.  0.
          5    1    3    3  502    0 -0.59032939705E+02  0.72476000841E+01 -0.64983040117E+02  0.88191176317E+02  0.41800000000E+01 0. -1.
         -5    1    3    3    0  502  0.39447737995E+02 -0.20046297136E+02 -0.21226672142E+03  0.21687003362E+03  0.41800000000E+01 0. -1.
        -11    1    1    2    0    0 -0.32252445380E+02  0.26998504343E+02 -0.10506914946E+03  0.11317537558E+03  0.00000000000E+00 0. -1.
         11    1    1    2    0    0  0.51837647091E+02 -0.14199807290E+02 -0.84842566768E+02  0.10043424376E+03  0.00000000000E+00 0.  1.
</event>
<event>
 7    1  0.4966153E-006  0.1689705E+03  0.7561462E-02  0.1178926E+00
          1   -1    0    0  501    0  0.00000000000E+00  0.00000000000E+00  0.58865157661E+03  0.58865157661E+03  0.00000000000E+00 0. -1.
         -1   -1    0    0    0  501 -0.00000000000E+00 -0.00000000000E+00 -0.16833675701E+03  0.16833675701E+03  0.00000000000E+00 0.  1.
         23    2    1    2    0    0  0.11118334059E+03  0.99391570910E+02 -0.92917248938E+02  0.21475862026E+03  0.12347967539E+03 0.  0.
          5    1    3    3  502    0  0.32157060395E+02 -0.12053326144E+02  0.17756216653E+02  0.38885920771E+02  0.41800000000E+01 0. -1.
         -5    1    3    3    0  502  0.79026280191E+02  0.11144489705E+03 -0.11067346559E+03  0.17587269949E+03  0.41800000000E+01 0.  1.
        -11    1    1    2    0    0 -0.33774928960E+02  0.75846403376E+01  0.18894237637E+03  0.19208720463E+03  0.00000000000E+00 0.  1.
         11    1    1    2    0    0 -0.77408411626E+02 -0.10697621125E+03  0.32428969217E+03  0.35014250872E+03  0.00000000000E+00 0. -1.
</event>
<event>
 6    1  0.4966153E-006  0.1347244E+03  0.7561462E-02  0.1220609E+00
          2   -1    0    0  501    0  0.00000000000E+00  0.00000000000E+00  0.19341923618E+03  0.19341923618E+03  0.00000000000E+00 0. -1.
         -2   -1    0    0    0  501 -0.00000000000E+00 -0.00000000000E+00 -0.12778266575E+03  0.12778266575E+03  0.00000000000E+00 0.  1.
          5    1    1    2  502    0 -0.95993998370E+02  0.14958429505E+02  0.96964195190E+01  0.97724588962E+02  0.41800000000E+01 0. -1.
         -5    1    1    2    0  502  0.16709959060E+02 -0.66437219911E+02 -0.21991807853E+02  0.72071068633E+02  0.41800000000E+01 0.  1.
        -11    1    1    2    0    0  0.17620534214E+02  0.35869980667E+02  0.78174481007E+02  0.87797427182E+02  0.00000000000E+00 0. -1.
         11    1    1    2    0    0  0.61663505096E+02  0.15608809739E+02 -0.24252224249E+00  0.63608817150E+02  0.00000000000E+00 0.  1.
</event>
<event>
 7    1  0.4966153E-006  0.1192111E+03  0.7561462E-02  0.1244404E+00
          4   -1    0    0  501    0  0.00000000000E+00  0.00000000000E+00  0.33203892434E+03  0.33203892434E+03  0.00000000000E+00 0.  1.
         -4   -1    0    0    0  501 -0.00000000000E+00 -0.00000000000E+00 -0.54534316233E+02  0.54534316233E+02  0.00000000000E+00 0. -1.
         23    2    1    2    0    0  0.36041486111E+01 -0.67446452549E+02  0.92602186602E+02  0.16965872824E+03  0.12508759034E+03 0.  0.
          5    1    3    3  502    0  0.51801984804E+02 -0.15675826540E+02  0.81521242780E+02  0.97940607470E+02  0.41800000000E+01 0.  1.
         -5    1    3    3    0  502 -0.48197836192E+02 -0.51770626009E+02  0.11080943822E+02  0.71718120771E+02  0.41800000000E+01 0.  1.
        -11    1    1    2    0    0  0.41373156766E+02  0.14569098539E+02  0.66528800954E+02  0.79687377227E+02  0.00000000000E+00 0.  1.
         11    1    1    2    0    0 -0.44977305377E+02  0.52877354010E+02  0.11837362055E+03  0.13722713510E+03  0.00000000000E+00 0. -1.
</event>
<event>
 7    1  0.4966153E-006  0.9252801E+02  0.7561462E-02  0.1296843E+00
         -1   -1    0    0    0  501 -0.00000000000E+00  0.00000000000E+00  0.15080138382E+03  0.15080138382E+03  0.00000000000E+00 0.  1.
          1   -1    0    0  501    0  0.00000000000E+00 -0.00000000000E+00 -0.84657570509E+02  0.84657570509E+02  0.00000000000E+00 0. -1.
         23    2    1    2    0    0  0.29864089153E+02 -0.73504798022E+01  0.35538124773E+02  0.13363093110E+03  0.12509346130E+03 0.  0.
          5    1    3    3  502    0 -0.19709950112E+02 -0.33221654353E+02  0.60779320690E+02  0.72137082523E+02  0.41800000000E+01 0.  1.
         -5    1    3    3    0  502  0.49574039265E+02  0.25871174551E+02 -0.25241195917E+02  0.61493848579E+02  0.41800000000E+01 0.  1.
        -11    1    1    2    0    0 -0.24367799407E+02 -0.37619846167E+02 -0.37367657436E+01  0.44977837785E+02  0.00000000000E+00 0. -1.
         11    1    1    2    0    0 -0.54962897465E+01  0.44970325970E+02  0.34342454281E+02  0.56850185442E+02  0.00000000000E+00 0.  1.
</event>
<event>
 7    1  0.4966153E-006  0.1432561E+03  0.7561462E-02  0.1209014E+00
         -3   -1    0    0    0  501 -0.00000000000E+00  0.00000000000E+00  0.98070901073E+02  0.98070901073E+02  0.00000000000E+00 0.  1.
          3   -1    0    0  501    0  0.00000000000E+00 -0.00000000000E+00 -0.31165212982E+03  0.31165212982E+03  0.00000000000E+00 0. -1.
         23    2    1    2    0    0 -0.10855165528E+03 -0.83302077349E+02 -0.10540583868E+03  0.21326378127E+03  0.12509337160E+03 0.  0.
          5    1    3    3  502    0 -0.16645805765E+02 -0.27334396775E+02  0.27362569124E+02  0.42313528400E+02  0.41800000000E+01 0. -1.
         -5    1    3    3    0  502 -0.91905849511E+02 -0.55967680574E+02 -0.13276840781E+03  0.17095025287E+03  0.41800000000E+01 0. -1.
        -11    1    1    2    0    0  0.14393380803E+02  0.40759313885E+02  0.46453980474E+01  0.43474944535E+02  0.00000000000E+00 0.  1.
         11    1    1    2    0    0  0.94158274472E+02  0.42542763464E+02 -0.11282078811E+03  0.15298430509E+03  0.00000000000E+00 0. -1.
</event>
<event>
 7    1  0.4966153E-006  0.1195367E+03  0.7561462E-02  0.1243863E+00
          1   -1    0    0  501    0  0.00000000000E+00  0.00000000000E+00  0.10677244657E+03  0.10677244657E+03  0.00000000000E+00 0. -1.
         -1   -1    0    0    0  501 -0.00000000000E+00 -0.00000000000E+00 -0.17149767619E+03  0.17149767619E+03  0.00000000000E+00 0.  1.
         23    2    1    2    0    0  0.69105375138E+02  0.23656254585E+02 -0.63106881772E+02  0.15800923024E+03  0.12509703058E+03 0.  0.
          5    1    3    3  502    0  0.21719867102E+02 -0.51361894832E+02 -0.27376918885E+02  0.62263672838E+02  0.41800000000E+01 0. -1.
         -5    1    3    3    0  502  0.47385508035E+02  0.75018149417E+02 -0.35729962888E+02  0.95745557399E+02  0.41800000000E+01 0. -1.
        -11    1    1    2    0    0 -0.13284947813E+02 -0.34933417861E+02 -0.37505718338E+02  0.52948205162E+02  0.00000000000E+00 0.  1.
         11    1    1    2    0    0 -0.55820427325E+02  0.11277163276E+02  0.35887370491E+02  0.67312687356E+02  0.00000000000E+00 0. -1.
</event>
<event>
 7    1  0.4966153E-006  0.7862657E+02  0.7561462E-02  0.1332995E+00
          2   -1    0    0  501    0  0.00000000000E+00  0.00000000000E+00  0.69141911918E+02  0.69141911918E+02  0.00000000000E+00 0. -1.
         -2   -1    0    0    0  501 -0.00000000000E+00 -0.00000000000E+00 -0.18614006441E+03  0.18614006441E+03  0.00000000000E+00 0.  1.
         23    2    1    2    0    0  0.32829526992E+02  0.31841579407E+01 -0.86037721692E+02  0.15536163524E+03  0.12508729530E+03 0.  0.
          5    1    3    3  502    0  0.15211045692E+02  0.28572741575E+02  0.24307068085E+02  0.40695004989E+02  0.41800000000E+01 0.  1.
         -5    1    3    3    0  502  0.17618481300E+02 -0.25388583635E+02 -0.11034478978E+03  0.11466663025E+03  0.41800000000E+01 0.  1.
        -11    1    1    2    0    0 -0.41846596152E+02 -0.38572235383E+02 -0.27588501321E+02  0.63246188479E+02  0.00000000000E+00 0.  1.
         11    1    1    2    0    0  0.90170691599E+01  0.35388077442E+02 -0.33719294817E+01  0.36674152611E+02  0.00000000000E+00 0. -1.
</event>
<event>
 7    1  0.4966153E-006  0.7965590E+02  0.7561462E-02  0.1330031E+00
         -2   -1    0    0    0  501 -0.00000000000E+00  0.00000000000E+00  0.12296947603E+03  0.12296947603E+03  0.00000000000E+00 0.  1.
          2   -1    0    0  501    0  0.00000000000E+00 -0.00000000000E+00 -0.14492400086E+03  0.14492400086E+03  0.00000000000E+00 0. -1.
         23    2    1    2    0    0 -0.28183673482E+02  0.60578267254E+02  0.28315927121E+02  0.14461472558E+03  0.12509029223E+03 0.  0.
          5    1    3    3  502    0 -0.30028000107E+02  0.13744442750E+02 -0.45923180209E+02  0.56718615793E+02  0.41800000000E+01 0. -1.
         -5    1    3    3    0  502  0.18443266252E+01  0.46833824504E+02  0.74239107330E+02  0.87896109786E+02  0.41800000000E+01 0. -1.
        -11    1    1    2    0    0 -0.21549949290E+01 -0.44650567696E+02  0.16966465033E+02  0.47813995173E+02  0.00000000000E+00 0.  1.
         11    1    1    2    0    0  0.30338668411E+02 -0.15927699558E+02 -0.67236916976E+02  0.75464756136E+02  0.00000000000E+00 0. -1.
</event>
<event>
 7    1  0.4966153E-006  0.9996021E+02  0.7561462E-02  0.1280380E+00
         -2   -1    0    0    0  501 -0.00000000000E+00  0.00000000000E+00  0.10002025453E+03  0.10002025453E+03  0.00000000000E+00 0.  1.
          2   -1    0    0  501    0  0.00000000000E+00 -0.00000000000E+00 -0.19508855699E+03  0.19508855699E+03  0.00000000000E+00 0. -1.
         23    2    1    2    0    0  0.27058722871E+02  0.42368728981E+02  0.22703287109E+02  0.13670518865E+03  0.12508231561E+03 0.  0.
          5    1    3    3  502    0 -0.83342644679E+01 -0.28945760103E+02  0.44643935582E+02  0.54017315524E+02  0.41800000000E+01 0. -1.
         -5    1    3    3    0  502  0.35392987339E+02  0.71314489084E+02 -0.21940648473E+02  0.82687873122E+02  0.41800000000E+01 0. -1.
        -11    1    1    2    0    0 -0.46126480682E+02 -0.32174890232E+01 -0.10216932242E+03  0.11214532937E+03  0.00000000000E+00 0. -1.
         11    1    1    2    0    0  0.19067757811E+02 -0.39151239958E+02 -0.15602267149E+02  0.46258293509E+02  0.00000000000E+00 0.  1.
</event>
<event>
 7    1  0.4966153E-006  0.9901787E+02  0.7561462E-02  0.1282375E+00
         -2   -1    0    0    0  501 -0.00000000000E+00  0.00000000000E+00  0.15074852150E+02  0.15074852150E+02  0.00000000000E+00 0.  1.
          2   -1    0    0  501    0  0.00000000000E+00 -0.00000000000E+00 -0.85073899291E+03  0.85073899291E+03  0.00000000000E+00 0. -1.
         23    2    1    2    0    0  0.16032874336E+02 -0.24047018710E+02 -0.50940617511E+03  0.52533687238E+03  0.12509542784E+03 0.  0.
          5    1    3    3  502    0 -0.25414597687E+02 -0.52848161440E+02 -0.13138897881E+03  0.14394223180E+03  0.41800000000E+01 0. -1.
         -5    1    3    3    0  502  0.41447472023E+02  0.28801142729E+02 -0.37801719630E+03  0.38139464057E+03  0.41800000000E+01 0. -1.
        -11    1    1    2    0    0  0.20550734329E+02  0.42809349837E+02 -0.24328637975E+03  0.24787746103E+03  0.00000000000E+00 0. -1.
         11    1    1    2    0    0 -0.36583608665E+02 -0.18762331127E+02 -0.82971585904E+02  0.92599511660E+02  0.00000000000E+00 0.  1.
</event>
<event>
 7    1  0.4966153E-006  0.8945655E+02  0.7561462E-02  0.1304173E+00
         -2   -1    0    0    0  501 -0.00000000000E+00  0.00000000000E+00  0.32910116050E+02  0.32910116050E+02  0.00000000000E+00 0. -1.
          2   -1    0    0  501    0  0.00000000000E+00 -0.00000000000E+00 -0.24515318122E+03  0.24515318122E+03  0.00000000000E+00 0.  1.
         23    2    1    2    0    0  0.29628166757E+02  0.18108155858E+02 -0.15935966732E+03  0.20554263940E+03  0.12508612820E+03 0.  0.
          5    1    3    3  502    0  0.46599839985E+01  0.70948097136E+02 -0.87883649655E+02  0.11312098044E+03  0.41800000000E+01 0. -1.
         -5    1    3    3    0  502  0.24968182758E+02 -0.52839941277E+02 -0.71476017670E+02  0.92421658968E+02  0.41800000000E+01 0. -1.
        -11    1    1    2    0    0 -0.14034157080E+02  0.98079854791E+01 -0.23636856742E+02  0.29186557535E+02  0.00000000000E+00 0.  1.
         11    1    1    2    0    0 -0.15594009677E+02 -0.27916141338E+02 -0.29246541103E+02  0.43334100331E+02  0.00000000000E+00 0. -1.
</event>
<event>
 7    1  0.4966153E-006  0.6060017E+02  0.7561462E-02  0.1395330E+00
          3   -1    0    0  501    0  0.00000000000E+00  0.00000000000E+00  0.52264727955E+03  0.52264727955E+03  0.00000000000E+00 0. -1.
         -3   -1    0    0    0  501 -0.00000000000E+00 -0.00000000000E+00 -0.34717936655E+02  0.34717936655E+02  0.00000000000E+00 0.  1.
         23    2    1    2    0    0 -0.26775948310E+02  0.31145099566E+02  0.12692661746E+03  0.18287924216E+03  0.12508989710E+03 0.  0.
          5    1    3    3  502    0 -0.16369736300E+02  0.25982715546E+02  0.15189545848E+03  0.15502507049E+03  0.41800000000E+01 0. -1.
         -5    1    3    3    0  502 -0.10406212010E+02  0.51623840196E+01 -0.24968841021E+02  0.27854171664E+02  0.41800000000E+01 0. -1.
        -11    1    1    2    0    0 -0.21500476816E+02 -0.22960950537E+01  0.21989563766E+02  0.30839641217E+02  0.00000000000E+00 0.  1.
         11    1    1    2    0    0  0.48276425126E+02 -0.28849004512E+02  0.33901316166E+03  0.34364633283E+03  0.00000000000E+00 0. -1.
</event>
<event>
 7    1  0.4966153E-006  0.1755337E+03  0.7561462E-02  0.1172197E+00
         -1   -1    0    0    0  501 -0.00000000000E+00  0.00000000000E+00  0.17728707751E+03  0.17728707751E+03  0.00000000000E+00 0.  1.
          1   -1    0    0  501    0  0.00000000000E+00 -0.00000000000E+00 -0.17770997797E+03  0.17770997797E+03  0.00000000000E+00 0. -1.
         23    2    1    2    0    0  0.10419669490E+03  0.87028933092E+02 -0.25903951479E+02  0.18640951616E+03  0.12508599678E+03 0.  0.
          5    1    3    3  502    0  0.12189053534E+03  0.31208795539E+02 -0.17195658027E+02  0.12706083024E+03  0.41800000000E+01 0. -1.
         -5    1    3    3    0  502 -0.17693840445E+02  0.55820137553E+02 -0.87082934520E+01  0.59348685924E+02  0.41800000000E+01 0. -1.
        -11    1    1    2    0    0  0.10958943966E+02 -0.41026715855E+02  0.99433565115E+01  0.43613761651E+02  0.00000000000E+00 0.  1.
         11    1    1    2    0    0 -0.11515563886E+03 -0.46002217237E+02  0.15537694508E+02  0.12497377766E+03  0.00000000000E+00 0. -1.
</event>
<event>
 7    1  0.4966153E-006  0.1151645E+03  0.7561462E-02  0.1251294E+00
         -1   -1    0    0    0  501 -0.00000000000E+00  0.00000000000E+00  0.39748396413E+03  0.39748396413E+03  0.00000000000E+00 0.  1.
          1   -1    0    0  501    0  0.00000000000E+00 -0.00000000000E+00 -0.46144893833E+02  0.46144893833E+02  0.00000000000E+00 0. -1.
         23    2    1    2    0    0 -0.48913476145E+01 -0.85321058535E+02  0.24794896388E+03  0.29057184495E+03  0.12509876130E+03 0.  0.
          5    1    3    3  502    0  0.40677163054E+02 -0.32934101926E+01  0.23538161911E+02  0.47296887963E+02  0.41800000000E+01 0. -1.
         -5    1    3    3    0  502 -0.45568510669E+02 -0.82027648343E+02  0.22441080197E+03  0.24327495699E+03  0.41800000000E+01 0. -1.
        -11    1    1    2    0    0  0.23745889073E+02  0.49243413768E+02  0.97697568820E+02  0.11195354394E+03  0.00000000000E+00 0.  1.
         11    1    1    2    0    0 -0.18854541459E+02  0.36077644767E+02  0.56925375983E+01  0.41103469073E+02  0.00000000000E+00 0. -1.
</event>
<event>
 7    1  0.4966153E-006  0.1639951E+03  0.7561462E-02  0.1184259E+00
         -1   -1    0    0    0  501 -0.00000000000E+00  0.00000000000E+00  0.83428084958E+02  0.83428084958E+02  0.00000000000E+00 0.  1.
          1   -1    0    0  501    0  0.00000000000E+00 -0.00000000000E+00 -0.37101538489E+03  0.37101538489E+03  0.00000000000E+00 0. -1.
         23    2    1    2    0    0 -0.52892873113E+02  0.12614766183E+03 -0.12795242984E+03  0.22523482630E+03  0.12509202239E+03 0.  0.
          5    1    3    3  502    0 -0.71538328139E+02  0.12534915357E+03 -0.63013606659E+02  0.15753834364E+03  0.41800000000E+01 0. -1.
         -5    1    3    3    0  502  0.18645455026E+02  0.79850826598E+00 -0.64938823180E+02  0.67696482660E+02  0.41800000000E+01 0. -1.
        -11    1    1    2    0    0  0.36023408928E+02  0.11753332235E+01 -0.35247827717E+02  0.50413061380E+02  0.00000000000E+00 0.  1.
         11    1    1    2    0    0  0.16869464185E+02 -0.12732299506E+03 -0.12438704238E+03  0.17879558217E+03  0.00000000000E+00 0. -1.
</event>
<event>
 7    1  0.4966153E-006  0.7884876E+02  0.7561462E-02  0.1332351E+00
          2   -1    0    0  501    0  0.00000000000E+00  0.00000000000E+00  0.17562077976E+03  0.17562077976E+03  0.00000000000E+00 0. -1.
         -2   -1    0    0    0  501 -0.00000000000E+00 -0.00000000000E+00 -0.90647362792E+02  0.90647362792E+02  0.00000000000E+00 0.  1.
         23    2    1    2    0    0 -0.79207535851E+01 -0.65031385910E+01 -0.20011709510E+02  0.12709607239E+03  0.12509162222E+03 0.  0.
          5    1    3    3  502    0 -0.54519853387E+02  0.23968624678E+02 -0.35103851683E+02  0.69257939511E+02  0.41800000000E+01 0. -1.
         -5    1    3    3    0  502  0.46599099802E+02 -0.30471763269E+02  0.15092142174E+02  0.57838132875E+02  0.41800000000E+01 0. -1.
        -11    1    1    2    0    0  0.24731048051E+02  0.23327614036E+01  0.11601081866E+03  0.11864053506E+03  0.00000000000E+00 0. -1.
         11    1    1    2    0    0 -0.16810294466E+02  0.41703771875E+01 -0.11025692178E+02  0.20531535109E+02  0.00000000000E+00 0.  1.
</event>
<event>
 7    1  0.4966153E-006  0.1634836E+03  0.7561462E-02  0.1184819E+00
         -1   -1    0    0    0  501 -0.00000000000E+00  0.00000000000E+00  0.13718668661E+03  0.13718668661E+03  0.00000000000E+00 0.  1.
          1   -1    0    0  501    0  0.00000000000E+00 -0.00000000000E+00 -0.25934234815E+03  0.25934234815E+03  0.00000000000E+00 0. -1.
         23    2    1    2    0    0 -0.38113473897E+02  0.13557244740E+03  0.60656526997E+00  0.18835904029E+03  0.12508491016E+03 0.  0.
          5    1    3    3  502    0 -0.64224225134E+02  0.25766260528E+02  0.23337811271E+02  0.73149006218E+02  0.41800000000E+01 0.  1.
         -5    1    3    3    0  502  0.26110751237E+02  0.10980618688E+03 -0.22731246001E+02  0.11521003407E+03  0.41800000000E+01 0.  1.
        -11    1    1    2    0    0  0.44118952307E+02 -0.12470306016E+03 -0.13620716244E+03  0.18986765461E+03  0.00000000000E+00 0. -1.
         11    1    1    2    0    0 -0.60054784097E+01 -0.10869387247E+02  0.13444935632E+02  0.18302339856E+02  0.00000000000E+00 0.  1.
</event>
<event>
 7    1  0.4966153E-006  0.1519090E+03  0.7561462E-02  0.1198147E+00
          1   -1    0    0  501    0  0.00000000000E+00  0.00000000000E+00  0.14870330712E+04  0.14870330712E+04  0.00000000000E+00 0. -1.
         -1   -1    0    0    0  501 -0.00000000000E+00 -0.00000000000E+00 -0.16984797267E+02  0.16984797267E+02  0.00000000000E+00 0.  1.
         23    2    1    2    0    0  0.64909869657E+02 -0.92607284811E+02  0.67766359988E+03  0.69832964645E+03  0.12508772974E+03 0.  0.
          5    1    3    3  502    0 -0.12552803259E+02  0.18546836780E+02  0.36746366712E+02  0.43235701575E+02  0.41800000000E+01 0. -1.
         -5    1    3    3    0  502  0.77462672916E+02 -0.11115412159E+03  0.64091723317E+03  0.65509394488E+03  0.41800000000E+01 0. -1.
        -11    1    1    2    0    0 -0.75326720226E+02  0.28496849521E+02  0.41192014773E+03  0.41971942214E+03  0.00000000000E+00 0.  1.
         11    1    1    2    0    0  0.10416850569E+02  0.64110435290E+02  0.38046452630E+03  0.38596879985E+03  0.00000000000E+00 0. -1.
</event>
<event>
 7    1  0.4966153E-006  0.1043093E+03  0.7561462E-02  0.1271486E+00
          1   -1    0    0  501    0  0.00000000000E+00  0.00000000000E+00  0.14904532641E+02  0.14904532641E+02  0.00000000000E+00 0.  1.
         -1   -1    0    0    0  501 -0.00000000000E+00 -0.00000000000E+00 -0.10373452220E+04  0.10373452220E+04  0.00000000000E+00 0. -1.
         23    2    1    2    0    0  0.32648045079E+02 -0.11701351637E+02 -0.75639626663E+03  0.76745415664E+03  0.12509098251E+03 0.  0.
          5    1    3    3  502    0 -0.39088151677E+02 -0.25917940713E+02 -0.44847592813E+03  0.45094096484E+03  0.41800000000E+01 0. -1.
         -5    1    3    3    0  502  0.71736196756E+02  0.14216589077E+02 -0.30792033849E+03  0.31651319181E+03  0.41800000000E+01 0. -1.
        -11    1    1    2    0    0  0.17310320410E+02  0.30363857135E+02 -0.42741881143E+02  0.55213036653E+02  0.00000000000E+00 0. -1.
         11    1    1    2    0    0 -0.49958365489E+02 -0.18662505499E+02 -0.22330254163E+03  0.22958256138E+03  0.00000000000E+00 0.  1.
</event>
<event>
 7    1  0.4966153E-006  0.5318367E+02  0.7561462E-02  0.1428889E+00
         -1   -1    0    0    0  501 -0.00000000000E+00  0.00000000000E+00  0.19602086100E+03  0.19602086100E+03  0.00000000000E+00 0.  1.
          1   -1    0    0  501    0  0.00000000000E+00 -0.00000000000E+00 -0.69940125361E+02  0.69940125361E+02  0.00000000000E+00 0. -1.
         23    2    1    2    0    0  0.35759187168E+02 -0.11684922313E+02  0.91806340590E+02  0.15967933531E+03  0.12511526316E+03 0.  0.
          5    1    3    3  502    0  0.19004305900E+01 -0.11592810826E+02  0.11675208210E+03  0.11741603798E+03  0.41800000000E+01 0.  1.
         -5    1    3    3    0  502  0.33858756578E+02 -0.92111486479E-01 -0.24945741512E+02  0.42263297329E+02  0.41800000000E+01 0.  1.
        -11    1    1    2    0    0 -0.19311378766E+02 -0.17642867440E+02  0.59003951666E+02  0.64541974200E+02  0.00000000000E+00 0.  1.
         11    1    1    2    0    0 -0.16447808402E+02  0.29327789752E+02 -0.24729556621E+02  0.41739676851E+02  0.00000000000E+00 0. -1.
</event>
<event>
 7    1  0.4966153E-006  0.1930779E+03  0.7561462E-02  0.1155714E+00
         -2   -1    0    0    0  501 -0.00000000000E+00  0.00000000000E+00  0.51579735344E+02  0.51579735344E+02  0.00000000000E+00 0.  1.
          2   -1    0    0  501    0  0.00000000000E+00 -0.00000000000E+00 -0.81659761396E+03  0.81659761396E+03  0.00000000000E+00 0. -1.
         23    2    1    2    0    0  0.41916237862E+02 -0.16775559611E+03 -0.43765709340E+03  0.48692147975E+03  0.12509950045E+03 0.  0.
          5    1    3    3  502    0 -0.23784358172E+02 -0.11405686526E+03 -0.17024367541E+03  0.20633721337E+03  0.41800000000E+01 0.  1.
         -5    1    3    3    0  502  0.65700596034E+02 -0.53698730852E+02 -0.26741341800E+03  0.28058426638E+03  0.41800000000E+01 0.  1.
        -11    1    1    2    0    0 -0.34593777379E+02  0.27566850873E+02 -0.33172704599E+02  0.55290948905E+02  0.00000000000E+00 0.  1.
         11    1    1    2    0    0 -0.73224604828E+01  0.14018874524E+03 -0.29418808061E+03  0.32596492065E+03  0.00000000000E+00 0. -1.
</event>
<event>
 7    1  0.4966153E-006  0.1101391E+03  0.7561462E-02  0.1260313E+00
         -1   -1    0    0    0  501 -0.00000000000E+00  0.00000000000E+00  0.77296829581E+02  0.77296829581E+02  0.00000000000E+00 0.  1.
          1   -1    0    0  501    0  0.00000000000E+00 -0.00000000000E+00 -0.16759425931E+03  0.16759425931E+03  0.00000000000E+00 0. -1.
         23    2    1    2    0    0  0.33468130387E+01  0.78951888627E+01 -0.26117994275E+02  0.12807702460E+03  0.12509212381E+03 0.  0.
          5    1    3    3  502    0 -0.55236430202E+02  0.29419021150E+02 -0.15783364401E+02  0.64677113561E+02  0.41800000000E+01 0. -1.
         -5    1    3    3    0  502  0.58583243240E+02 -0.21523832287E+02 -0.10334629874E+02  0.63399911037E+02  0.41800000000E+01 0. -1.
        -11    1    1    2    0    0  0.10931814677E+02 -0.49669032799E+02 -0.20879388138E+02  0.54976960996E+02  0.00000000000E+00 0.  1.
         11    1    1    2    0    0 -0.14278627716E+02  0.41773843936E+02 -0.43300047314E+02  0.61837103296E+02  0.00000000000E+00 0. -1.
</event>
<event>
 7    1  0.4966153E-006  0.1290792E+03  0.7561462E-02  0.1228829E+00
          2   -1    0    0  501    0  0.00000000000E+00  0.00000000000E+00  0.10417928707E+03  0.10417928707E+03  0.00000000000E+00 0. -1.
         -2   -1    0    0    0  501 -0.00000000000E+00 -0.00000000000E+00 -0.17573543791E+03  0.17573543791E+03  0.00000000000E+00 0.  1.
         23    2    1    2    0    0 -0.43213132569E+02 -0.60522160630E+02 -0.71961749580E+02  0.16234861559E+03  0.12509305667E+03 0.  0.
          5    1    3    3  502    0  0.29778550583E+02 -0.65001768055E+02 -0.43301617964E+02  0.83692857780E+02  0.41800000000E+01 0. -1.
         -5    1    3    3    0  502 -0.72991683152E+02  0.44796074247E+01 -0.28660131616E+02  0.78655757808E+02  0.41800000000E+01 0. -1.
        -11    1    1    2    0    0  0.32088594126E+02  0.82574513956E+02  0.13495808125E+02  0.89612304205E+02  0.00000000000E+00 0.  1.
         11    1    1    2    0    0  0.11124538444E+02 -0.22052353326E+02 -0.13090209378E+02  0.27953805185E+02  0.00000000000E+00 0. -1.
</event>
<event>
 7    1  0.4966153E-006  0.1136709E+03  0.7561462E-02  0.1253919E+00
         -1   -1    0    0    0  501 -0.00000000000E+00  0.00000000000E+00  0.24281089688E+02  0.24281089688E+02  0.00000000000E+00 0.  1.
          1   -1    0    0  501    0  0.00000000000E+00 -0.00000000000E+00 -0.58411377226E+03  0.58411377226E+03  0.00000000000E+00 0. -1.
         23    2    1    2    0    0  0.32002892674E+02 -0.21725328809E+01 -0.22742778838E+03  0.26153431479E+03  0.12509154189E+03 0.  0.
          5    1    3    3  502    0 -0.42694247105E+02 -0.26553254766E+02 -0.88396455806E+02  0.10178054762E+03  0.41800000000E+01 0.  1.
         -5    1    3    3    0  502  0.74697139780E+02  0.24380721885E+02 -0.13903133257E+03  0.15975376718E+03  0.41800000000E+01 0.  1.
        -11    1    1    2    0    0  0.33079719645E+02 -0.14810056919E+00 -0.13485941035E+03  0.13885730210E+03  0.00000000000E+00 0.  1.
         11    1    1    2    0    0 -0.65082612320E+02  0.23206334501E+01 -0.19754548385E+03  0.20800324506E+03  0.00000000000E+00 0. -1.
</event>
<event>
 7    1  0.4966153E-006  0.1305964E+03  0.7561462E-02  0.1226573E+00
          2   -1    0    0  501    0  0.00000000000E+00  0.00000000000E+00  0.52787268298E+03  0.52787268298E+03  0.00000000000E+00 0. -1.
         -2   -1    0    0    0  501 -0.00000000000E+00 -0.00000000000E+00 -0.32997228611E+02  0.32997228611E+02  0.00000000000E+00 0.  1.
         23    2    1    2    0    0 -0.47187657801E+02  0.57977221257E+02  0.28460916110E+03  0.31974584942E+03  0.12508797068E+03 0.  0.
          5    1    3    3  502    0 -0.74139042827E+02 -0.62431753061E+01  0.16923936303E+03  0.18491892631E+03  0.41800000000E+01 0. -1.
         -5    1    3    3    0  502  0.26951385026E+02  0.64220396563E+02  0.11536979807E+03  0.13482692311E+03  0.41800000000E+01 0. -1.
        -11    1    1    2    0    0  0.70397966087E+02 -0.61435715405E+02  0.15353568744E+03  0.17973154446E+03  0.00000000000E+00 0. -1.
         11    1    1    2    0    0 -0.23210308287E+02  0.34584941479E+01  0.56730605833E+02  0.61392517710E+02  0.00000000000E+00 0.  1.
</event>
<event>
 7    1  0.4966153E-006  0.7256792E+02  0.7561462E-02  0.1351572E+00
          3   -1    0    0  501    0  0.00000000000E+00  0.00000000000E+00  0.57418857842E+02  0.57418857842E+02  0.00000000000E+00 0. -1.
         -3   -1    0    0    0  501 -0.00000000000E+00 -0.00000000000E+00 -0.20821943168E+03  0.20821943168E+03  0.00000000000E+00 0.  1.
         23    2    1    2    0    0 -0.17136258674E+02 -0.67952966114E+01 -0.73584139483E+02  0.14629738472E+03  0.12509385187E+03 0.  0.
          5    1    3    3  502    0 -0.14599927678E+02 -0.36644029074E+02 -0.99088590156E+02  0.10673314318E+03  0.41800000000E+01 0. -1.
         -5    1    3    3    0  502 -0.25363309958E+01  0.29848732463E+02  0.25504450672E+02  0.39564241540E+02  0.41800000000E+01 0. -1.
        -11    1    1    2    0    0  0.12382667788E+02  0.39900769726E+02 -0.74964659623E+02  0.85820172912E+02  0.00000000000E+00 0.  1.
         11    1    1    2    0    0  0.47535908859E+01 -0.33105473114E+02 -0.22517747285E+01  0.33520731881E+02  0.00000000000E+00 0. -1.
</event>
<event>
 6    1  0.4966153E-006  0.1967509E+03  0.7561462E-02  0.1152510E+00
          1   -1    0    0  501    0  0.00000000000E+00  0.00000000000E+00  0.11380643689E+04  0.11380643689E+04  0.00000000000E+00 0. -1.
         -1   -1    0    0    0  501 -0.00000000000E+00 -0.00000000000E+00 -0.35726554508E+02  0.35726554508E+02  0.00000000000E+00 0.  1.
          5    1    1    2  502    0 -0.31020660597E+02 -0.63824300669E+01  0.10659132186E+03  0.11127533012E+03  0.41800000000E+01 0. -1.
         -5    1    1    2    0  502  0.15175067036E+03 -0.99266352436E+02  0.40440838196E+03  0.44322193817E+03  0.41800000000E+01 0.  1.
        -11    1    1    2    0    0 -0.18504143769E+02  0.69221760068E+02  0.17635295080E+03  0.19035340464E+03  0.00000000000E+00 0.  1.
         11    1    1    2    0    0 -0.10222586599E+03  0.36427022435E+02  0.41498515975E+03  0.42894025045E+03  0.00000000000E+00 0. -1.
</event>
<event>
 7    1  0.4966153E-006  0.1804540E+03  0.7561462E-02  0.1167364E+00
          1   -1    0    0  501    0  0.00000000000E+00  0.00000000000E+00  0.67081190543E+03  0.67081190543E+03  0.00000000000E+00 0. -1.
         -1   -1    0    0    0  501 -0.00000000000E+00 -0.00000000000E+00 -0.61529037861E+02  0.61529037861E+02  0.00000000000E+00 0.  1.
         23    2    1    2    0    0 -0.10541846232E+03 -0.11865935833E+03  0.20228342067E+03  0.28595775552E+03  0.12514056155E+03 0.  0.
          5    1    3    3  502    0 -0.12830238516E+03 -0.12371610531E+03  0.17674859614E+03  0.25104723736E+03  0.41800000000E+01 0.  1.
         -5    1    3    3    0  502  0.22883922835E+02  0.50567469739E+01  0.25534824531E+02  0.34910518159E+02  0.41800000000E+01 0.  1.
        -11    1    1    2    0    0  0.93278381170E+02  0.10753163355E+03  0.40560058908E+03  0.42985549487E+03  0.00000000000E+00 0. -1.
         11    1    1    2    0    0  0.12140081155E+02  0.11127724789E+02  0.13988578191E+01  0.16527692901E+02  0.00000000000E+00 0.  1.
</event>
<event>
 7    1  0.4966153E-006  0.1158683E+03  0.7561462E-02  0.1250073E+00
          2   -1    0    0  501    0  0.00000000000E+00  0.00000000000E+00  0.19177761114E+02  0.19177761114E+02  0.00000000000E+00 0. -1.
         -2   -1    0    0    0  501 -0.00000000000E+00 -0.00000000000E+00 -0.10243667882E+04  0.10243667882E+04  0.00000000000E+00 0.  1.
         23    2    1    2    0    0 -0.43754607240E+02 -0.67075953455E+01 -0.83793522122E+03  0.84837643632E+03  0.12509070809E+03 0.  0.
          5    1    3    3  502    0 -0.17069216710E+02 -0.64774215569E+02 -0.36425287110E+03  0.37038450786E+03  0.41800000000E+01 0. -1.
         -5    1    3    3    0  502 -0.26685390530E+02  0.58066620223E+02 -0.47368235012E+03  0.47799192845E+03  0.41800000000E+01 0. -1.
        -11    1    1    2    0    0 -0.17892081651E+02 -0.25402623672E+02 -0.52337150589E+02  0.60865402382E+02  0.00000000000E+00 0.  1.
         11    1    1    2    0    0  0.61646688892E+02  0.32110219017E+02 -0.11491665524E+03  0.13430271058E+03  0.00000000000E+00 0. -1.
</event>
<event>
 7    1  0.4966153E-006  0.2128584E+03  0.7561462E-02  0.1139322E+00
         -2   -1    0    0    0  501 -0.00000000000E+00  0.00000000000E+00  0.93327036940E+02  0.93327036940E+02  0.00000000000E+00 0.  1.
          2   -1    0    0  501    0  0.00000000000E+00 -0.00000000000E+00 -0.63659412728E+03  0.63659412728E+03  0.00000000000E+00 0. -1.
         23    2    1    2    0    0 -0.18540682929E+03  0.37870734573E+02 -0.11866860991E+03  0.25600495958E+03  0.12508563254E+03 0.  0.
          5    1    3    3  502    0  0.24320622670E+01  0.26938042376E+02 -0.47450253625E+02  0.54777477333E+02  0.41800000000E+01 0. -1.
         -5    1    3    3    0  502 -0.18783889156E+03  0.10932692196E+02 -0.71218356283E+02  0.20122748225E+03  0.41800000000E+01 0. -1.
        -11    1    1    2    0    0  0.14392430142E+03  0.12993568472E+02 -0.27884854636E+03  0.31406933815E+03  0.00000000000E+00 0.  1.
         11    1    1    2    0    0  0.41482527873E+02 -0.50864303044E+02 -0.14574993407E+03  0.15984686649E+03  0.00000000000E+00 0. -1.
</event>
<event>
 6    1  0.4966153E-006  0.1104944E+03  0.7561462E-02  0.1259657E+00
          1   -1    0    0  501    0  0.00000000000E+00  0.00000000000E+00  0.61266521498E+02  0.61266521498E+02  0.00000000000E+00 0. -1.
         -1   -1    0    0    0  501 -0.00000000000E+00 -0.00000000000E+00 -0.37851749162E+03  0.37851749162E+03  0.00000000000E+00 0.  1.
          5    1    1    2  502    0 -0.23428468159E+02  0.30266871439E+02 -0.79578777833E+01  0.39316368675E+02  0.41800000000E+01 0. -1.
         -5    1    1    2    0  502  0.84782553101E+02 -0.41824435398E+00 -0.26085754490E+03  0.27432168592E+03  0.41800000000E+01 0.  1.
        -11    1    1    2    0    0 -0.46989005350E+02  0.15933256361E+02  0.99176916225E+01  0.50598378326E+02  0.00000000000E+00 0. -1.
         11    1    1    2    0    0 -0.14365079591E+02 -0.45781883446E+02 -0.58353239061E+02  0.75547580189E+02  0.00000000000E+00 0.  1.
</event>
<event>
 7    1  0.4966153E-006  0.1100202E+03  0.7561462E-02  0.1260533E+00
          1   -1    0    0  501    0  0.00000000000E+00  0.00000000000E+00  0.10364884448E+03  0.10364884448E+03  0.00000000000E+00 0. -1.
         -1   -1    0    0    0  501 -0.00000000000E+00 -0.00000000000E+00 -0.12497853547E+03  0.12497853547E+03  0.00000000000E+00 0.  1.
         23    2    1    2    0    0  0.34763023494E+02  0.48157169582E+01 -0.20933483929E+02  0.13159503531E+03  0.12508950250E+03 0.  0.
          5    1    3    3  502    0 -0.20636482797E+02 -0.48152337202E+02 -0.14752829744E+02  0.54585990745E+02  0.41800000000E+01 0. -1.
         -5    1    3    3    0  502  0.55399506291E+02  0.52968054160E+02 -0.61806541850E+01  0.77009044566E+02  0.41800000000E+01 0. -1.
        -11    1    1    2    0    0 -0.16154494434E+01 -0.41357442586E+02 -0.17330378058E+02  0.44870811646E+02  0.00000000000E+00 0.  1.
         11    1    1    2    0    0 -0.33147574051E+02  0.36541725628E+02  0.16934170991E+02  0.52161532996E+02  0.00000000000E+00 0. -1.
</event>
<event>
 7    1  0.4966153E-006  0.1399142E+03  0.7561462E-02  0.1213444E+00
         -3   -1    0    0    0  501 -0.00000000000E+00  0.00000000000E+00  0.73391690364E+03  0.73391690364E+03  0.00000000000E+00 0.  1.
          3   -1    0    0  501    0  0.00000000000E+00 -0.00000000000E+00 -0.75529410047E+02  0.75529410047E+02  0.00000000000E+00 0. -1.
         23    2    1    2    0    0 -0.10943035952E+03  0.25800080228E+02  0.64381318966E+03  0.66540766848E+03  0.12502517494E+03 0.  0.
          5    1    3    3  502    0 -0.30197936777E+02 -0.30976117876E+02  0.63492866862E+02  0.76943172580E+02  0.41800000000E+01 0. -1.
         -5    1    3    3    0  502 -0.79232422740E+02  0.56776198104E+02  0.58032032280E+03  0.58846449590E+03  0.41800000000E+01 0.  1.
        -11    1    1    2    0    0  0.75147369369E+02 -0.55518863138E+02 -0.72089387648E+01  0.93709338304E+02  0.00000000000E+00 0. -1.
         11    1    1    2    0    0  0.34282990148E+02  0.29718782910E+02  0.21783242705E+02  0.50329306908E+02  0.00000000000E+00 0.  1.
</event>
<event>
 6    1  0.4966153E-006  0.1779427E+03  0.7561462E-02  0.1169809E+00
         -2   -1    0    0    0  501 -0.00000000000E+00  0.00000000000E+00  0.14131700954E+03  0.14131700954E+03  0.00000000000E+00 0.  1.
          2   -1    0    0  501    0  0.00000000000E+00 -0.00000000000E+00 -0.46261030704E+03  0.46261030704E+03  0.00000000000E+00 0. -1.
          5    1    1    2  502    0  0.79328172730E+02  0.94426134639E+02 -0.22419985261E+02  0.12541683312E+03  0.41800000000E+01 0. -1.
         -5    1    1    2    0  502 -0.65800653101E+02  0.21672388789E+02  0.55069453535E+02  0.88597604352E+02  0.41800000000E+01 0.  1.
        -11    1    1    2    0    0 -0.50289613112E+02 -0.10640429217E+02 -0.12596020099E+03  0.13604497842E+03  0.00000000000E+00 0.  1.
         11    1    1    2    0    0  0.36762093483E+02 -0.10545809421E+03 -0.22798256478E+03  0.25386790068E+03  0.00000000000E+00 0. -1.
</event>
<event>
 7    1  0.4966153E-006  0.1727091E+03  0.7561462E-02  0.1175052E+00
          1   -1    0    0  501    0  0.00000000000E+00  0.00000000000E+00  0.61697677755E+03  0.61697677755E+03  0.00000000000E+00 0. -1.
         -1   -1    0    0    0  501 -0.00000000000E+00 -0.00000000000E+00 -0.65861250931E+02  0.65861250931E+02  0.00000000000E+00 0.  1.
         23    2    1    2    0    0  0.83497969016E+02 -0.12426900754E+03  0.15166017483E+03  0.24710995116E+03  0.12509125575E+03 0.  0.
          5    1    3    3  502    0 -0.82084790272E+01 -0.56630322833E+02  0.11295523570E+03  0.12669147668E+03  0.41800000000E+01 0. -1.
         -5    1    3    3    0  502  0.91706448043E+02 -0.67638684707E+02  0.38704939133E+02  0.12041847447E+03  0.41800000000E+01 0. -1.
        -11    1    1    2    0    0 -0.98215377788E+02  0.77875450599E+02  0.28360871069E+03  0.31007216421E+03  0.00000000000E+00 0.  1.
         11    1    1    2    0    0  0.14717408771E+02  0.46393556941E+02  0.11584664109E+03  0.12565591311E+03  0.00000000000E+00 0. -1.
</event>
<event>
 6    1  0.4966153E-006  0.1328527E+03  0.7561462E-02  0.1223283E+00
         -1   -1    0    0    0  501 -0.00000000000E+00  0.00000000000E+00  0.16013507626E+03  0.16013507626E+03  0.00000000000E+00 0.  1.
          1   -1    0    0  501    0  0.00000000000E+00 -0.00000000000E+00 -0.17473193073E+03  0.17473193073E+03  0.00000000000E+00 0. -1.
          5    1    1    2  502    0  0.88889048818E+02 -0.71965180694E+01  0.32863092753E+02  0.95134158625E+02  0.41800000000E+01 0. -1.
         -5    1    1    2    0  502 -0.53129632311E+02  0.68631214484E+02  0.37356112509E+02  0.94583048020E+02  0.41800000000E+01 0.  1.
        -11    1    1    2    0    0 -0.16598447608E+02  0.73335151160E+01 -0.69904409599E+02  0.72221294563E+02  0.00000000000E+00 0. -1.
         11    1    1    2    0    0 -0.19160968899E+02 -0.68768211530E+02 -0.14911650130E+02  0.72928505784E+02  0.00000000000E+00 0.  1.
</event>
<event>
 7    1  0.4966153E-006  0.8168847E+02  0.7561462E-02  0.1324327E+00
         -2   -1    0    0    0  501 -0.00000000000E+00  0.00000000000E+00  0.18273326229E+03  0.18273326229E+03  0.00000000000E+00 0.  1.
          2   -1    0    0  501    0  0.00000000000E+00 -0.00000000000E+00 -0.86968364061E+02  0.86968364061E+02  0.00000000000E+00 0. -1.
         23    2    1    2    0    0  0.49358858601E+02 -0.38233829638E+02  0.63930840216E+02  0.15372745271E+03  0.12508738839E+03 0.  0.
          5    1    3    3  502    0  0.25841659553E+02  0.17756699055E+02 -0.28815469588E+02  0.42788963733E+02  0.41800000000E+01 0.  1.
         -5    1    3    3    0  502  0.23517199048E+02 -0.55990528693E+02  0.92746309804E+02  0.11093848898E+03  0.41800000000E+01 0.  1.
        -11    1    1    2    0    0 -0.42034549028E+02  0.12113939453E+02  0.61695541107E+02  0.75630619682E+02  0.00000000000E+00 0.  1.
         11    1    1    2    0    0 -0.73243095732E+01  0.26119890185E+02 -0.29861483090E+02  0.40343553962E+02  0.00000000000E+00 0. -1.
</event>
<event>
 7    1  0.4966153E-006  0.1111475E+03  0.7561462E-02  0.1258460E+00
          1   -1    0    0  501    0  0.00000000000E+00  0.00000000000E+00  0.18306127417E+03  0.18306127417E+03  0.00000000000E+00 0. -1.
         -1   -1    0    0    0  501 -0.00000000000E+00 -0.00000000000E+00 -0.10827911374E+03  0.10827911374E+03  0.00000000000E+00 0.  1.
         23    2    1    2    0    0  0.15262144271E+02 -0.29579054918E+02 -0.44009638282E+02  0.13672345046E+03  0.12509436481E+03 0.  0.
          5    1    3    3  502    0 -0.41648064806E+02 -0.52927916944E+02 -0.27732877950E+02  0.72955538607E+02  0.41800000000E+01 0. -1.
         -5    1    3    3    0  502  0.56910209077E+02  0.23348862026E+02 -0.16276760333E+02  0.63767911853E+02  0.41800000000E+01 0. -1.
        -11    1    1    2    0    0 -0.34014532872E+02 -0.20480133194E+02  0.77469338652E+02  0.87051264973E+02  0.00000000000E+00 0. -1.
         11    1    1    2    0    0  0.18752388601E+02  0.50059188112E+02  0.41322460052E+02  0.67565672478E+02  0.00000000000E+00 0.  1.
</event>
<event>
 7    1  0.4966153E-006  0.4725006E+02  0.7561462E-02  0.1460765E+00
         -2   -1    0    0    0  501 -0.00000000000E+00  0.00000000000E+00  0.10835518322E+03  0.10835518322E+03  0.00000000000E+00 0.  1.
          2   -1    0    0  501    0  0.00000000000E+00 -0.00000000000E+00 -0.10959849602E+03  0.10959849602E+03  0.00000000000E+00 0. -1.
         23    2    1    2    0    0  0.74887848281E+01  0.77644698276E+01  0.19897079985E+02  0.12711805680E+03  0.12508692051E+03 0.  0.
          5    1    3    3  502    0 -0.71815363910E+01  0.17242758219E+02 -0.50741886754E+02  0.54231896954E+02  0.41800000000E+01 0. -1.
         -5    1    3    3    0  502  0.14670321219E+02 -0.94782883915E+01  0.70638966739E+02  0.72886159849E+02  0.41800000000E+01 0. -1.
        -11    1    1    2    0    0 -0.33062989131E+01  0.24572622870E+02 -0.44351500784E+02  0.50811426166E+02  0.00000000000E+00 0. -1.
         11    1    1    2    0    0 -0.41824859150E+01 -0.32337092698E+02  0.23211107995E+02  0.40024196269E+02  0.00000000000E+00 0.  1.
</event>
<event>
 7    1  0.4966153E-006  0.8303681E+02  0.7561462E-02  0.1320648E+00
          2   -1    0    0  501    0  0.00000000000E+00  0.00000000000E+00  0.30620421253E+03  0.30620421253E+03  0.00000000000E+00 0. -1.
         -2   -1    0    0    0  501 -0.00000000000E+00 -0.00000000000E+00 -0.59448636368E+02  0.59448636368E+02  0.00000000000E+00 0.  1.
         23    2    1    2    0    0  0.41292079133E+02  0.64499390199E+02  0.13422802690E+03  0.19883299182E+03  0.12510870592E+03 0.  0.
          5    1    3    3  502    0  0.79886461314E+01  0.50030311987E+02 -0.84623085313E+01  0.51535751185E+02  0.41800000000E+01 0. -1.
         -5    1    3    3    0  502  0.33303433001E+02  0.14469078212E+02  0.14269033543E+03  0.14729724064E+03  0.41800000000E+01 0. -1.
        -11    1    1    2    0    0 -0.25110092299E+02 -0.53560392100E+02  0.12858184053E+03  0.14153629235E+03  0.00000000000E+00 0. -1.
         11    1    1    2    0    0 -0.16181986834E+02 -0.10938998099E+02 -0.16054291267E+02  0.25283564729E+02  0.00000000000E+00 0.  1.
</event>
<event>
 7    1  0.4966153E-006  0.1108898E+03  0.7561462E-02  0.1258931E+00
          2   -1    0    0  501    0  0.00000000000E+00  0.00000000000E+00  0.62939655915E+03  0.62939655915E+03  0.00000000000E+00 0. -1.
         -2   -1    0    0    0  501 -0.00000000000E+00 -0.00000000000E+00 -0.23289155628E+02  0.23289155628E+02  0.00000000000E+00 0.  1.
         23    2    1    2    0    0 -0.42790435612E+00 -0.28284755877E+02  0.21981067727E+03  0.25448472226E+03  0.12508209107E+03 0.  0.
          5    1    3    3  502    0  0.56058873240E+02 -0.41565225634E+02  0.11379793207E+03  0.13355787882E+03  0.41800000000E+01 0. -1.
         -5    1    3    3    0  502 -0.56486777597E+02  0.13280469758E+02  0.10601274520E+03  0.12092684344E+03  0.41800000000E+01 0. -1.
        -11    1    1    2    0    0 -0.41289039145E+02  0.31377110450E+02  0.26111603810E+03  0.26621587700E+03  0.00000000000E+00 0. -1.
         11    1    1    2    0    0  0.41716943501E+02 -0.30923545730E+01  0.12518068816E+03  0.13198511552E+03  0.00000000000E+00 0.  1.
</event>
<event>
 7    1  0.4966153E-006  0.9870971E+02  0.7561462E-02  0.1283033E+00
         -1   -1    0    0    0  501 -0.00000000000E+00  0.00000000000E+00  0.68410337083E+02  0.68410337083E+02  0.00000000000E+00 0.  1.
          1   -1    0    0  501    0  0.00000000000E+00 -0.00000000000E+00 -0.22069318319E+03  0.22069318319E+03  0.00000000000E+00 0. -1.
         23    2    1    2    0    0  0.18954803167E+02  0.54259482609E+02 -0.88419526927E+02  0.16361136653E+03  0.12508913022E+03 0.  0.
          5    1    3    3  502    0 -0.47733959419E+02  0.52129429282E+02 -0.45909501601E+02  0.84386983690E+02  0.41800000000E+01 0. -1.
         -5    1    3    3    0  502  0.66688762586E+02  0.21300533273E+01 -0.42510025326E+02  0.79224382835E+02  0.41800000000E+01 0. -1.
        -11    1    1    2    0    0  0.22830476161E+01 -0.14547988730E+02  0.23195597186E+02  0.27475298203E+02  0.00000000000E+00 0.  1.
         11    1    1    2    0    0 -0.21237850783E+02 -0.39711493878E+02 -0.87058916372E+02  0.98016855549E+02  0.00000000000E+00 0. -1.
</event>
<event>
 7    1  0.4966153E-006  0.6156231E+02  0.7561462E-02  0.1391390E+00
          1   -1    0    0  501    0  0.00000000000E+00  0.00000000000E+00  0.30513024887E+02  0.30513024887E+02  0.00000000000E+00 0. -1.
         -1   -1    0    0    0  501 -0.00000000000E+00 -0.00000000000E+00 -0.42152797522E+03  0.42152797522E+03  0.00000000000E+00 0.  1.
         23    2    1    2    0    0 -0.70515133485E+01  0.16104473328E+02 -0.28437136105E+03  0.31116397375E+03  0.12508744810E+03 0.  0.
          5    1    3    3  502    0  0.22502477120E+02  0.20888409357E+02 -0.27868790927E+03  0.28040526082E+03  0.41800000000E+01 0.  1.
         -5    1    3    3    0  502 -0.29553990469E+02 -0.47839360295E+01 -0.56834517742E+01  0.30758712922E+02  0.41800000000E+01 0.  1.
        -11    1    1    2    0    0  0.32505872510E+02 -0.16495396468E+02 -0.10936008469E+03  0.11527514032E+03  0.00000000000E+00 0.  1.
         11    1    1    2    0    0 -0.25454359162E+02  0.39092314003E+00  0.27164954122E+01  0.25601886035E+02  0.00000000000E+00 0. -1.
</event>
<event>
 7    1  0.4966153E-006  0.4541393E+02  0.7561462E-02  0.1471774E+00
          2   -1    0    0  501    0  0.00000000000E+00  0.00000000000E+00  0.55620266520E+02  0.55620266520E+02  0.00000000000E+00 0. -1.
         -2   -1    0    0    0  501 -0.00000000000E+00 -0.00000000000E+00 -0.21433705871E+03  0.21433705871E+03  0.00000000000E+00 0.  1.
         23    2    1    2    0    0 -0.13481944018E+02 -0.15880347592E+02 -0.86676952938E+02  0.15360623548E+03  0.12509209868E+03 0.  0.
          5    1    3    3  502    0 -0.11837161573E+02 -0.11599950076E+01  0.31761478460E+02  0.34172033836E+02  0.41800000000E+01 0. -1.
         -5    1    3    3    0  502 -0.16447824449E+01 -0.14720352584E+02 -0.11843843140E+03  0.11943420164E+03  0.41800000000E+01 0. -1.
        -11    1    1    2    0    0  0.64314329848E-01 -0.22331337777E+02 -0.72487772559E+02  0.75849653617E+02  0.00000000000E+00 0.  1.
         11    1    1    2    0    0  0.13417629688E+02  0.38211685369E+02  0.44793330269E+00  0.40501436140E+02  0.00000000000E+00 0. -1.
</event>
<event>
 6    1  0.4966153E-006  0.1222421E+03  0.7561462E-02  0.1239443E+00
          2   -1    0    0  501    0  0.00000000000E+00  0.00000000000E+00  0.48110363902E+03  0.48110363902E+03  0.00000000000E+00 0. -1.
         -2   -1    0    0    0  501 -0.00000000000E+00 -0.00000000000E+00 -0.66783479658E+02  0.66783479658E+02  0.00000000000E+00 0.  1.
          5    1    1    2  502    0 -0.51810439670E+02  0.69167913270E+02  0.12170203794E+03  0.14932307365E+03  0.41800000000E+01 0. -1.
         -5    1    1    2    0  502  0.33088057993E+01 -0.66058275906E+02 -0.22059000069E+02  0.69847805231E+02  0.41800000000E+01 0.  1.
        -11    1    1    2    0    0 -0.58093990995E+01  0.28340428952E+02  0.62882923576E+02  0.69218430411E+02  0.00000000000E+00 0.  1.
         11    1    1    2    0    0  0.54311032971E+02 -0.31450066316E+02  0.25179419791E+03  0.25949780938E+03  0.00000000000E+00 0. -1.
</event>
<event>
 7    1  0.4966153E-006  0.1272076E+03  0.7561462E-02  0.1231659E+00
         -3   -1    0    0    0  501 -0.00000000000E+00  0.00000000000E+00  0.30288643114E+03  0.30288643114E+03  0.00000000000E+00 0.  1.
          3   -1    0    0  501    0  0.00000000000E+00 -0.00000000000E+00 -0.75113386864E+02  0.75113386864E+02  0.00000000000E+00 0. -1.
         23    2    1    2    0    0 -0.68195913348E+02  0.77077881538E+02  0.14371910843E+03  0.21655324621E+03  0.12509374044E+03 0.  0.
          5    1    3    3  502    0  0.14925841656E+02  0.80904981681E+01  0.97381863754E+02  0.98939055473E+02  0.41800000000E+01 0.  1.
         -5    1    3    3    0  502 -0.83121755003E+02  0.68987383370E+02  0.46337244675E+02  0.11761419074E+03  0.41800000000E+01 0.  1.
        -11    1    1    2    0    0  0.80663477686E+02 -0.40651293711E+02  0.83397132287E+02  0.12293984702E+03  0.00000000000E+00 0.  1.
         11    1    1    2    0    0 -0.12467564338E+02 -0.36426587827E+02  0.65680355857E+00  0.38506724765E+02  0.00000000000E+00 0. -1.
</event>
<event>
 7    1  0.4966153E-006  0.1237123E+03  0.7561462E-02  0.1237096E+00
          1   -1    0    0  501    0  0.00000000000E+00  0.00000000000E+00  0.29349017863E+03  0.29349017863E+03  0.00000000000E+00 0. -1.
         -1   -1    0    0    0  501 -0.00000000000E+00 -0.00000000000E+00 -0.76900049041E+02  0.76900049041E+02  0.00000000000E+00 0.  1.
         23    2    1    2    0    0 -0.82011561567E+02 -0.44178309537E+02  0.60465221533E+02  0.16727928139E+03  0.12509474690E+03 0.  0.
          5    1    3    3  502    0 -0.25476551031E+02  0.22812630489E+02 -0.26701595885E+02  0.43588053238E+02  0.41800000000E+01 0. -1.
         -5    1    3    3    0  502 -0.56535010536E+02 -0.66990940026E+02  0.87166817418E+02  0.12369122815E+03  0.41800000000E+01 0. -1.
        -11    1    1    2    0    0  0.15071250275E+01  0.44683167111E+02  0.31298307747E+02  0.54575094290E+02  0.00000000000E+00 0.  1.
         11    1    1    2    0    0  0.80504436539E+02 -0.50485757419E+00  0.12482660031E+03  0.14853585200E+03  0.00000000000E+00 0. -1.
</event>
<event>
 7    1  0.4966153E-006  0.1204521E+03  0.7561462E-02  0.1242353E+00
          1   -1    0    0  501    0  0.00000000000E+00  0.00000000000E+00  0.22542175475E+03  0.22542175475E+03  0.00000000000E+00 0. -1.
         -1   -1    0    0    0  501 -0.00000000000E+00 -0.00000000000E+00 -0.16487073737E+03  0.16487073737E+03  0.00000000000E+00 0.  1.
         23    2    1    2    0    0 -0.77015139943E+02  0.50547708923E+02 -0.99162531255E+02  0.18430031611E+03  0.12508795408E+03 0.  0.
          5    1    3    3  502    0 -0.94714171794E+02  0.41558911200E+02 -0.23747079842E+02  0.10620411310E+03  0.41800000000E+01 0.  1.
         -5    1    3    3    0  502  0.17699031851E+02  0.89887977227E+01 -0.75415451413E+02  0.78096203012E+02  0.41800000000E+01 0.  1.
        -11    1    1    2    0    0  0.64085823822E+02  0.86276846077E+00  0.41277776088E+02  0.76233798168E+02  0.00000000000E+00 0.  1.
         11    1    1    2    0    0  0.12929316120E+02 -0.51410477384E+02  0.11843577255E+03  0.12975837784E+03  0.00000000000E+00 0. -1.
</event>
<event>
 7    1  0.4966153E-006  0.7804742E+02  0.7561462E-02  0.1334686E+00
          1   -1    0    0  501    0  0.00000000000E+00  0.00000000000E+00  0.22920039259E+03  0.22920039259E+03  0.00000000000E+00 0. -1.
         -1   -1    0    0    0  501 -0.00000000000E+00 -0.00000000000E+00 -0.51389963002E+02  0.51389963002E+02  0.00000000000E+00 0.  1.
         23    2    1    2    0    0  0.30578712619E+01 -0.15382958986E+02  0.88878961951E+02  0.15424993232E+03  0.12509031034E+03 0.  0.
          5    1    3    3  502    0  0.25774896729E+02 -0.30924547690E+02  0.11134668117E+03  0.11847459120E+03  0.41800000000E+01 0. -1.
         -5    1    3    3    0  502 -0.22717025467E+02  0.15541588704E+02 -0.22467719223E+02  0.35775341125E+02  0.41800000000E+01 0. -1.
        -11    1    1    2    0    0  0.15937423823E+02  0.47701328281E+02  0.63663538927E+02  0.81132388025E+02  0.00000000000E+00 0.  1.
         11    1    1    2    0    0 -0.18995295085E+02 -0.32318369296E+02  0.25267928713E+02  0.45208035245E+02  0.00000000000E+00 0. -1.
</event>
<event>
 7    1  0.4966153E-006  0.9568911E+02  0.7561462E-02  0.1289632E+00
          1   -1    0    0  501    0  0.00000000000E+00  0.00000000000E+00  0.60427251647E+02  0.60427251647E+02  0.00000000000E+00 0. -1.
         -1   -1    0    0    0  501 -0.00000000000E+00 -0.00000000000E+00 -0.42797822638E+03  0.42797822638E+03  0.00000000000E+00 0.  1.
         23    2    1    2    0    0 -0.53345920165E+02  0.28521741267E+02 -0.33771712462E+03  0.36518201920E+03  0.12508306824E+03 0.  0.
          5    1    3    3  502    0 -0.47352679979E+02  0.47233093609E+02 -0.33850961033E+03  0.34507893317E+03  0.41800000000E+01 0. -1.
         -5    1    3    3    0  502 -0.59932401860E+01 -0.18711352341E+02  0.79248570552E+00  0.20103086031E+02  0.41800000000E+01 0. -1.
        -11    1    1    2    0    0  0.49270278458E+02  0.21738478861E+02 -0.45414833850E+02  0.70445929167E+02  0.00000000000E+00 0. -1.
         11    1    1    2    0    0  0.40756417062E+01 -0.50260220128E+02  0.15580983739E+02  0.52777529659E+02  0.00000000000E+00 0.  1.
</event>
<event>
 7    1  0.4966153E-006  0.9706511E+02  0.7561462E-02  0.1286592E+00
         -1   -1    0    0    0  501 -0.00000000000E+00  0.00000000000E+00  0.38269422544E+02  0.38269422544E+02  0.00000000000E+00 0.  1.
          1   -1    0    0  501    0  0.00000000000E+00 -0.00000000000E+00 -0.34006315467E+03  0.34006315467E+03  0.00000000000E+00 0. -1.
         23    2    1    2    0    0  0.16914984372E+02  0.35240925051E+02 -0.17775574263E+03  0.22084430808E+03  0.12508822838E+03 0.  0.
          5    1    3    3  502    0  0.66623141899E+02  0.29915164046E+02 -0.66747591104E+02  0.99026629725E+02  0.41800000000E+01 0. -1.
         -5    1    3    3    0  502 -0.49708157528E+02  0.53257610051E+01 -0.11100815153E+03  0.12181767836E+03  0.41800000000E+01 0. -1.
        -11    1    1    2    0    0 -0.53011822620E+01  0.16735087701E+02  0.46966772161E+01  0.18172079424E+02  0.00000000000E+00 0.  1.
         11    1    1    2    0    0 -0.11613802110E+02 -0.51976012752E+02 -0.12873466671E+03  0.13931618971E+03  0.00000000000E+00 0. -1.
</event>
<event>
 7    1  0.4966153E-006  0.1341599E+03  0.7561462E-02  0.1221410E+00
         -3   -1    0    0    0  501 -0.00000000000E+00  0.00000000000E+00  0.28550847281E+03  0.28550847281E+03  0.00000000000E+00 0.  1.
          3   -1    0    0  501    0  0.00000000000E+00 -0.00000000000E+00 -0.66342593499E+02  0.66342593499E+02  0.00000000000E+00 0. -1.
         23    2    1    2    0    0  0.27541742384E+02 -0.79527924202E+02  0.13915657878E+03  0.20516024345E+03  0.12507171453E+03 0.  0.
          5    1    3    3  502    0 -0.42539468844E+02 -0.40346167498E+01  0.66047470273E+02  0.78775791150E+02  0.41800000000E+01 0. -1.
         -5    1    3    3    0  502  0.70081211228E+02 -0.75493307453E+02  0.73109108502E+02  0.12638445230E+03  0.41800000000E+01 0. -1.
        -11    1    1    2    0    0 -0.58317697590E+02  0.67618884437E+02  0.51490640867E+02  0.10307547469E+03  0.00000000000E+00 0.  1.
         11    1    1    2    0    0  0.30775955206E+02  0.11909039766E+02  0.28518659669E+02  0.43615348173E+02  0.00000000000E+00 0. -1.
</event>
<event>
 7    1  0.4966153E-006  0.1580778E+03  0.7561462E-02  0.1190884E+00
          1   -1    0    0  501    0  0.00000000000E+00  0.00000000000E+00  0.38324576141E+03  0.38324576141E+03  0.00000000000E+00 0. -1.
         -1   -1    0    0    0  501 -0.00000000000E+00 -0.00000000000E+00 -0.14135530126E+03  0.14135530126E+03  0.00000000000E+00 0.  1.
         23    2    1    2    0    0 -0.12182563747E+03 -0.17876521379E+02 -0.64317183974E+02  0.18175951420E+03  0.11721247751E+03 0.  0.
          5    1    3    3  502    0 -0.98557934056E+02 -0.61389881885E+02 -0.25789139264E+02  0.11901653695E+03  0.41800000000E+01 0. -1.
         -5    1    3    3    0  502 -0.23267703412E+02  0.43513360506E+02 -0.38528044710E+02  0.62742977247E+02  0.41800000000E+01 0.  1.
        -11    1    1    2    0    0  0.21518294189E+02  0.42077735199E+02  0.13395449553E+03  0.14204710365E+03  0.00000000000E+00 0.  1.
         11    1    1    2    0    0  0.10030734328E+03 -0.24201213821E+02  0.17225314860E+03  0.20079444481E+03  0.00000000000E+00 0. -1.
</event>
<event>
 7    1  0.4966153E-006  0.1505465E+03  0.7561462E-02  0.1199803E+00
         -1   -1    0    0    0  501 -0.00000000000E+00  0.00000000000E+00  0.18030538205E+03  0.18030538205E+03  0.00000000000E+00 0.  1.
          1   -1    0    0  501    0  0.00000000000E+00 -0.00000000000E+00 -0.17426101983E+03  0.17426101983E+03  0.00000000000E+00 0. -1.
         23    2    1    2    0    0  0.97967418056E+02 -0.69723356034E+02  0.74509039248E+02  0.18883351750E+03  0.12509012361E+03 0.  0.
          5    1    3    3  502    0  0.12807312348E+03 -0.54878955689E+02  0.64200626286E+02  0.15347187870E+03  0.41800000000E+01 0. -1.
         -5    1    3    3    0  502 -0.30105705425E+02 -0.14844400346E+02  0.10308412963E+02  0.35361638799E+02  0.41800000000E+01 0. -1.
        -11    1    1    2    0    0 -0.18232415483E+02 -0.46670153787E+01 -0.52185994883E+02  0.55475941351E+02  0.00000000000E+00 0. -1.
         11    1    1    2    0    0 -0.79735002573E+02  0.74390371413E+02 -0.16278682144E+02  0.11025694303E+03  0.00000000000E+00 0.  1.
</event>
<event>
 7    1  0.4966153E-006  0.1118630E+03  0.7561462E-02  0.1257158E+00
         -1   -1    0    0    0  501 -0.00000000000E+00  0.00000000000E+00  0.13591875682E+03  0.13591875682E+03  0.00000000000E+00 0.  1.
          1   -1    0    0  501    0  0.00000000000E+00 -0.00000000000E+00 -0.15853052289E+03  0.15853052289E+03  0.00000000000E+00 0. -1.
         23    2    1    2    0    0 -0.34492209662E+02  0.55744222908E+01  0.80354522290E+02  0.15272653055E+03  0.12509099556E+03 0.  0.
          5    1    3    3  502    0  0.24337520551E+02  0.48194096522E+02  0.18504818439E+02  0.57226624499E+02  0.41800000000E+01 0. -1.
         -5    1    3    3    0  502 -0.58829730212E+02 -0.42619674231E+02  0.61849703851E+02  0.95499906046E+02  0.41800000000E+01 0. -1.
        -11    1    1    2    0    0  0.41138697630E+02 -0.42582097396E+02 -0.70330664322E+02  0.91934921577E+02  0.00000000000E+00 0.  1.
         11    1    1    2    0    0 -0.66464879685E+01  0.37007675106E+02 -0.32635624036E+02  0.49787827581E+02  0.00000000000E+00 0. -1.
</event>
<event>
 6    1  0.4966153E-006  0.1539876E+03  0.7561462E-02  0.1195657E+00
          1   -1    0    0  501    0  0.00000000000E+00  0.00000000000E+00  0.25049578450E+03  0.25049578450E+03  0.00000000000E+00 0. -1.
         -1   -1    0    0    0  501 -0.00000000000E+00 -0.00000000000E+00 -0.13374167690E+03  0.13374167690E+03  0.00000000000E+00 0.  1.
          5    1    1    2  502    0  0.19007945415E+02  0.11999443018E+03  0.72733028735E+00  0.12156466046E+03  0.41800000000E+01 0. -1.
         -5    1    1    2    0  502 -0.22344960658E+02 -0.95974639441E+02 -0.16575957211E+02  0.10001331631E+03  0.41800000000E+01 0.  1.
        -11    1    1    2    0    0  0.34634486861E+02 -0.39776999615E+02  0.10690036539E+03  0.11920337872E+03  0.00000000000E+00 0.  1.
         11    1    1    2    0    0 -0.31297471617E+02  0.15757208879E+02  0.25702369137E+02  0.43456105906E+02  0.00000000000E+00 0. -1.
</event>
<event>
 7    1  0.4966153E-006  0.1002315E+03  0.7561462E-02  0.1279810E+00
          2   -1    0    0  501    0  0.00000000000E+00  0.00000000000E+00  0.45717420093E+02  0.45717420093E+02  0.00000000000E+00 0. -1.
         -2   -1    0    0    0  501 -0.00000000000E+00 -0.00000000000E+00 -0.27160548337E+03  0.27160548337E+03  0.00000000000E+00 0.  1.
         23    2    1    2    0    0  0.13333500675E+01 -0.31949502000E+02 -0.14872149661E+03  0.19694865567E+03  0.12509252943E+03 0.  0.
          5    1    3    3  502    0  0.12135029891E+02  0.36488899213E+02 -0.11185485890E+03  0.11835404757E+03  0.41800000000E+01 0.  1.
         -5    1    3    3    0  502 -0.10801679823E+02 -0.68438401213E+02 -0.36866637705E+02  0.78594608106E+02  0.41800000000E+01 0.  1.
        -11    1    1    2    0    0  0.35662446856E+02 -0.94066543973E+01 -0.31892952475E+02  0.48759159962E+02  0.00000000000E+00 0. -1.
         11    1    1    2    0    0 -0.36995796923E+02  0.41356156397E+02 -0.45273614200E+02  0.71615087828E+02  0.00000000000E+00 0.  1.
</event>
<event>
 7    1  0.4966153E-006  0.1299489E+03  0.7561462E-02  0.1227532E+00
          3   -1    0    0  501    0  0.00000000000E+00  0.00000000000E+00  0.24145527464E+03  0.24145527464E+03  0.00000000000E+00 0. -1.
         -3   -1    0    0    0  501 -0.00000000000E+00 -0.00000000000E+00 -0.11028889964E+03  0.11028889964E+03  0.00000000000E+00 0.  1.
         23    2    1    2    0    0 -0.81214234312E+02 -0.46343204187E+02 -0.13585639434E+02  0.15676873751E+03  0.12509365705E+03 0.  0.
          5    1    3    3  502    0  0.19443795207E+02 -0.27709828635E+02  0.30004947649E+02  0.45427580372E+02  0.41800000000E+01 0. -1.
         -5    1    3    3    0  502 -0.10065802952E+03 -0.18633375552E+02 -0.43590587082E+02  0.11134115714E+03  0.41800000000E+01 0. -1.
        -11    1    1    2    0    0  0.74665510704E+02  0.67828861493E+02  0.13907659644E+03  0.17180801092E+03  0.00000000000E+00 0.  1.
         11    1    1    2    0    0  0.65487236083E+01 -0.21485657306E+02  0.56754179907E+01  0.23167425842E+02  0.00000000000E+00 0. -1.
</event>
<event>
 7    1  0.4966153E-006  0.1115881E+03  0.7561462E-02  0.1257657E+00
          2   -1    0    0  501    0  0.00000000000E+00  0.00000000000E+00  0.33885886410E+03  0.33885886410E+03  0.00000000000E+00 0. -1.
         -2   -1    0    0    0  501 -0.00000000000E+00 -0.00000000000E+00 -0.44799654858E+02  0.44799654858E+02  0.00000000000E+00 0.  1.
         23    2    1    2    0    0 -0.35953136978E+02 -0.13137837483E+02  0.96558685296E+02  0.16258975763E+03  0.12508644510E+03 0.  0.
          5    1    3    3  502    0  0.28677807235E+02  0.33459414569E+02  0.60673182250E+02  0.75104304107E+02  0.41800000000E+01 0.  1.
         -5    1    3    3    0  502 -0.64630944214E+02 -0.46597252052E+02  0.35885503045E+02  0.87485453520E+02  0.41800000000E+01 0.  1.
        -11    1    1    2    0    0  0.83563686774E+01  0.51329456033E+02  0.11057327695E+03  0.12219243647E+03  0.00000000000E+00 0. -1.
         11    1    1    2    0    0  0.27596768301E+02 -0.38191618550E+02  0.86927246991E+02  0.98876324859E+02  0.00000000000E+00 0.  1.
</event>
<event>
 7    1  0.4966153E-006  0.1211266E+03  0.7561462E-02  0.1241250E+00
          2   -1    0    0  501    0  0.00000000000E+00  0.00000000000E+00  0.53610973811E+03  0.53610973811E+03  0.00000000000E+00 0. -1.
         -2   -1    0    0    0  501 -0.00000000000E+00 -0.00000000000E+00 -0.46697272335E+02  0.46697272335E+02  0.00000000000E+00 0.  1.
         23    2    1    2    0    0  0.61281820956E+02  0.94660212988E+02  0.26523625766E+03  0.31419348796E+03  0.12510498790E+03 0.  0.
          5    1    3    3  502    0  0.13241595713E+02  0.51889299427E+02  0.14973061792E+02  0.55762928828E+02  0.41800000000E+01 0.  1.
         -5    1    3    3    0  502  0.48040225243E+02  0.42770913562E+02  0.25026319587E+03  0.25843055914E+03  0.41800000000E+01 0.  1.
        -11    1    1    2    0    0 -0.16566108175E+02  0.28478865851E+01 -0.32840823668E+01  0.17126926024E+02  0.00000000000E+00 0.  1.
         11    1    1    2    0    0 -0.44715712781E+02 -0.97508099573E+02  0.22746029048E+03  0.25148659645E+03  0.00000000000E+00 0. -1.
</event>
<event>
 7    1  0.4966153E-006  0.1455343E+03  0.7561462E-02  0.1206070E+00
          1   -1    0    0  501    0  0.00000000000E+00  0.00000000000E+00  0.52911759014E+03  0.52911759014E+03  0.00000000000E+00 0. -1.
         -1   -1    0    0    0  501 -0.00000000000E+00 -0.00000000000E+00 -0.94966892825E+02  0.94966892825E+02  0.00000000000E+00 0.  1.
         23    2    1    2    0    0 -0.14159890561E+03  0.13630517076E+02  0.37742821120E+02  0.19315416426E+03  0.12509184450E+03 0.  0.
          5    1    3    3  502    0 -0.62205309670E+02  0.25922403160E+02  0.78025701324E+02  0.10318407825E+03  0.41800000000E+01 0.  1.
         -5    1    3    3    0  502 -0.79393595941E+02 -0.12291886084E+02 -0.40282880204E+02  0.89970086015E+02  0.41800000000E+01 0.  1.
        -11    1    1    2    0    0  0.74427010723E+02  0.63889424340E+00  0.89359751004E+02  0.11629683233E+03  0.00000000000E+00 0.  1.
         11    1    1    2    0    0  0.67171894888E+02 -0.14269411320E+02  0.30704812519E+03  0.31463348637E+03  0.00000000000E+00 0. -1.
</event>
<event>
 7    1  0.4966153E-006  0.1406821E+03  0.7561462E-02  0.1212414E+00
         -2   -1    0    0    0  501 -0.00000000000E+00  0.00000000000E+00  0.32746444946E+02  0.32746444946E+02  0.00000000000E+00 0. -1.
          2   -1    0    0  501    0  0.00000000000E+00 -0.00000000000E+00 -0.80000050745E+03  0.80000050745E+03  0.00000000000E+00 0.  1.
         23    2    1    2    0    0 -0.32714165254E+02  0.95432094140E+02 -0.24571933210E+03  0.29360334809E+03  0.12508970638E+03 0.  0.
          5    1    3    3  502    0 -0.71305464635E+02  0.23864293690E+02 -0.85877973796E+02  0.11422115646E+03  0.41800000000E+01 0.  1.
         -5    1    3    3    0  502  0.38591299381E+02  0.71567800450E+02 -0.15984135831E+03  0.17938219163E+03  0.41800000000E+01 0.  1.
        -11    1    1    2    0    0  0.51706270182E+02 -0.38057531750E+02 -0.37785517094E+03  0.38327071934E+03  0.00000000000E+00 0.  1.
         11    1    1    2    0    0 -0.18992104928E+02 -0.57374562391E+02 -0.14367955947E+03  0.15587288497E+03  0.00000000000E+00 0. -1.
</event>
<event>
 7    1  0.4966153E-006  0.2341253E+03  0.7561462E-02  0.1123769E+00
         -2   -1    0    0    0  501 -0.00000000000E+00  0.00000000000E+00  0.49440227469E+03  0.49440227469E+03  0.00000000000E+00 0.  1.
          2   -1    0    0  501    0  0.00000000000E+00 -0.00000000000E+00 -0.13891545485E+03  0.13891545485E+03  0.00000000000E+00 0. -1.
         23    2    1    2    0    0 -0.11961126294E+03  0.17728235574E+03  0.30625336180E+03  0.39392216471E+03  0.12509061660E+03 0.  0.
          5    1    3    3  502    0 -0.99051072567E+02  0.48095802737E+02  0.95388545924E+02  0.14574212950E+03  0.41800000000E+01 0.  1.
         -5    1    3    3    0  502 -0.20560190375E+02  0.12918655300E+03  0.21086481587E+03  0.24818003521E+03  0.41800000000E+01 0.  1.
        -11    1    1    2    0    0  0.10417618803E+03 -0.87399210674E+02  0.57878865110E+02  0.14778789939E+03  0.00000000000E+00 0.  1.
         11    1    1    2    0    0  0.15435074914E+02 -0.89883145068E+02 -0.86454070626E+01  0.91607665444E+02  0.00000000000E+00 0. -1.
</event>
<event>
 7    1  0.4966153E-006  0.1409339E+03  0.7561462E-02  0.1212078E+00
          1   -1    0    0  501    0  0.00000000000E+00  0.00000000000E+00  0.22161297152E+03  0.22161297152E+03  0.00000000000E+00 0. -1.
         -1   -1    0    0    0  501 -0.00000000000E+00 -0.00000000000E+00 -0.12538383383E+03  0.12538383383E+03  0.00000000000E+00 0.  1.
         23    2    1    2    0    0  0.89397741615E+02  0.75477867393E+02 -0.26335984807E+01  0.17130064057E+03  0.12509240163E+03 0.  0.
          5    1    3    3  502    0 -0.65771048413E+01  0.61907336710E+02 -0.31745698094E+02  0.70007416708E+02  0.41800000000E+01 0. -1.
         -5    1    3    3    0  502  0.95974846457E+02  0.13570530682E+02  0.29112099614E+02  0.10129322386E+03  0.41800000000E+01 0. -1.
        -11    1    1    2    0    0 -0.52099165780E+02 -0.65781713752E+02  0.10732886498E+03  0.13623891587E+03  0.00000000000E+00 0. -1.
         11    1    1    2    0    0 -0.37298575836E+02 -0.96961536408E+01 -0.84661288095E+01  0.39457248914E+02  0.00000000000E+00 0.  1.
</event>
<event>
 7    1  0.4966153E-006  0.8965184E+02  0.7561462E-02  0.1303697E+00
         -2   -1    0    0    0  501 -0.00000000000E+00  0.00000000000E+00  0.42443094660E+03  0.42443094660E+03  0.00000000000E+00 0.  1.
          2   -1    0    0  501    0  0.00000000000E+00 -0.00000000000E+00 -0.30690912324E+02  0.30690912324E+02  0.00000000000E+00 0. -1.
         23    2    1    2    0    0  0.34322542478E+02 -0.14875188769E+01  0.21013721000E+03  0.24695126123E+03  0.12508808401E+03 0.  0.
          5    1    3    3  502    0 -0.22183418788E+02 -0.28932910778E+02  0.16613775981E+03  0.17014242572E+03  0.41800000000E+01 0. -1.
         -5    1    3    3    0  502  0.56505961266E+02  0.27445391901E+02  0.43999450195E+02  0.76808835512E+02  0.41800000000E+01 0. -1.
        -11    1    1    2    0    0  0.22028305613E+02 -0.59285862776E+01  0.12295288474E+03  0.12505121451E+03  0.00000000000E+00 0.  1.
         11    1    1    2    0    0 -0.56350848091E+02  0.74161051545E+01  0.60649939531E+02  0.83119383187E+02  0.00000000000E+00 0. -1.
</event>
<event>
 7    1  0.4966153E-006  0.1027353E+03  0.7561462E-02  0.1274647E+00
         -1   -1    0    0    0  501 -0.00000000000E+00  0.00000000000E+00  0.54959232097E+02  0.54959232097E+02  0.00000000000E+00 0.  1.
          1   -1    0    0  501    0  0.00000000000E+00 -0.00000000000E+00 -0.26368446743E+03  0.26368446743E+03  0.00000000000E+00 0. -1.
         23    2    1    2    0    0  0.18086868598E+02  0.16850659891E+02 -0.57499619507E+02  0.13987473628E+03  0.12509059137E+03 0.  0.
          5    1    3    3  502    0 -0.48896554078E+02  0.12725981059E+01  0.15773538112E+01  0.49116727820E+02  0.41800000000E+01 0.  1.
         -5    1    3    3    0  502  0.66983422676E+02  0.15578061786E+02 -0.59076973318E+02  0.90758008456E+02  0.41800000000E+01 0.  1.
        -11    1    1    2    0    0  0.61511930305E+01  0.32192818223E+02 -0.94230606244E+02  0.99767839878E+02  0.00000000000E+00 0.  1.
         11    1    1    2    0    0 -0.24238061628E+02 -0.49043478114E+02 -0.56995009585E+02  0.79001123376E+02  0.00000000000E+00 0. -1.
</event>
<event>
 7    1  0.4966153E-006  0.9060603E+02  0.7561462E-02  0.1301391E+00
          1   -1    0    0  501    0  0.00000000000E+00  0.00000000000E+00  0.75072750752E+02  0.75072750752E+02  0.00000000000E+00 0. -1.
         -1   -1    0    0    0  501 -0.00000000000E+00 -0.00000000000E+00 -0.19466245412E+03  0.19466245412E+03  0.00000000000E+00 0.  1.
         23    2    1    2    0    0 -0.32040974649E+02  0.13268357284E+02 -0.11389625463E+03  0.17269229731E+03  0.12509036481E+03 0.  0.
          5    1    3    3  502    0  0.25641041503E+02  0.29118442890E+01  0.15633703509E+02  0.30460251672E+02  0.41800000000E+01 0. -1.
         -5    1    3    3    0  502 -0.57682016153E+02  0.10356512994E+02 -0.12952995814E+03  0.14223204563E+03  0.41800000000E+01 0. -1.
        -11    1    1    2    0    0  0.14793677763E+02 -0.51922655337E+02  0.19803690407E+01  0.54025335728E+02  0.00000000000E+00 0.  1.
         11    1    1    2    0    0  0.17247296887E+02  0.38654298053E+02 -0.76738177794E+01  0.43017571842E+02  0.00000000000E+00 0. -1.
</event>
<event>
 7    1  0.4966153E-006  0.1087576E+03  0.7561462E-02  0.1262888E+00
          2   -1    0    0  501    0  0.00000000000E+00  0.00000000000E+00  0.76196248610E+02  0.76196248610E+02  0.00000000000E+00 0. -1.
         -2   -1    0    0    0  501 -0.00000000000E+00 -0.00000000000E+00 -0.27234798602E+03  0.27234798602E+03  0.00000000000E+00 0.  1.
         23    2    1    2    0    0 -0.68910957783E+02  0.62234912457E+02 -0.12692368146E+03  0.20094440989E+03  0.12508849075E+03 0.  0.
          5    1    3    3  502    0 -0.69536291186E+02  0.84756211318E+01 -0.83323876321E+01  0.70668472667E+02  0.41800000000E+01 0. -1.
         -5    1    3    3    0  502  0.62533340249E+00  0.53759291325E+02 -0.11859129383E+03  0.13027593722E+03  0.41800000000E+01 0. -1.
        -11    1    1    2    0    0  0.88465149783E+01 -0.13129307045E+02  0.22468516052E+02  0.27485882637E+02  0.00000000000E+00 0. -1.
         11    1    1    2    0    0  0.60064442805E+02 -0.49105605411E+02 -0.91696571994E+02  0.12011394210E+03  0.00000000000E+00 0.  1.
</event>
<event>
 7    1  0.4966153E-006  0.1403713E+03  0.7561462E-02  0.1212830E+00
          2   -1    0    0  501    0  0.00000000000E+00  0.00000000000E+00  0.64672019984E+03  0.64672019984E+03  0.00000000000E+00 0.  1.
         -2   -1    0    0    0  501 -0.00000000000E+00 -0.00000000000E+00 -0.36544348981E+02  0.36544348981E+02  0.00000000000E+00 0. -1.
         23    2    1    2    0    0 -0.89131748189E+02 -0.53617034428E+02  0.25590142558E+03  0.30323636858E+03  0.12508997040E+03 0.  0.
          5    1    3    3  502    0  0.31987349284E+02 -0.91420514475E+01  0.49429001523E+02  0.59728269776E+02  0.41800000000E+01 0. -1.
         -5    1    3    3    0  502 -0.12111909747E+03 -0.44474982980E+02  0.20647242406E+03  0.24350809880E+03  0.41800000000E+01 0. -1.
        -11    1    1    2    0    0  0.24513138624E+02 -0.10880836036E+02  0.19852993707E+02  0.33368067327E+02  0.00000000000E+00 0. -1.
         11    1    1    2    0    0  0.64618609565E+02  0.64497870464E+02  0.33442143156E+03  0.34666011291E+03  0.00000000000E+00 0.  1.
</event>
<event>
 7    1  0.4966153E-006  0.1530941E+03  0.7561462E-02  0.1196722E+00
          2   -1    0    0  501    0  0.00000000000E+00  0.00000000000E+00  0.74160094887E+03  0.74160094887E+03  0.00000000000E+00 0.  1.
         -2   -1    0    0    0  501 -0.00000000000E+00 -0.00000000000E+00 -0.41743625096E+02  0.41743625096E+02  0.00000000000E+00 0. -1.
         23    2    1    2    0    0 -0.11124100249E+03  0.75508774621E+01  0.18962196710E+03  0.25305250422E+03  0.12508998001E+03 0.  0.
          5    1    3    3  502    0 -0.84585055545E+01 -0.46979812971E+02  0.79331456436E+02  0.92680103168E+02  0.41800000000E+01 0.  1.
         -5    1    3    3    0  502 -0.10278249694E+03  0.54530690433E+02  0.11029051066E+03  0.16037240105E+03  0.41800000000E+01 0.  1.
        -11    1    1    2    0    0  0.60020073414E+02  0.39858025418E+02  0.30929046103E+03  0.31757150484E+03  0.00000000000E+00 0.  1.
         11    1    1    2    0    0  0.51220929080E+02 -0.47408902880E+02  0.20094489565E+03  0.21272056491E+03  0.00000000000E+00 0. -1.
</event>
<event>
 7    1  0.4966153E-006  0.1444252E+03  0.7561462E-02  0.1207496E+00
          1   -1    0    0  501    0  0.00000000000E+00  0.00000000000E+00  0.11600490403E+03  0.11600490403E+03  0.00000000000E+00 0. -1.
         -1   -1    0    0    0  501 -0.00000000000E+00 -0.00000000000E+00 -0.25289710674E+03  0.25289710674E+03  0.00000000000E+00 0.  1.
         23    2    1    2    0    0  0.31962300976E+02 -0.91482071505E+02 -0.16948749469E+03  0.23187106396E+03  0.12509045269E+03 0.  0.
          5    1    3    3  502    0  0.79113043254E+02 -0.56823431872E+02 -0.87136563477E+02  0.13075943223E+03  0.41800000000E+01 0. -1.
         -5    1    3    3    0  502 -0.47150742277E+02 -0.34658639632E+02 -0.82350931215E+02  0.10111163173E+03  0.41800000000E+01 0. -1.
        -11    1    1    2    0    0 -0.59512774414E+02  0.33020129165E+02  0.11345170745E+02  0.68998638738E+02  0.00000000000E+00 0.  1.
         11    1    1    2    0    0  0.27550473437E+02  0.58461942340E+02  0.21250121244E+02  0.68032308073E+02  0.00000000000E+00 0. -1.
</event>
<event>
 7    1  0.4966153E-006  0.6650384E+02  0.7561462E-02  0.1372402E+00
          2   -1    0    0  501    0  0.00000000000E+00  0.00000000000E+00  0.16851000718E+03  0.16851000718E+03  0.00000000000E+00 0. -1.
         -2   -1    0    0    0  501 -0.00000000000E+00 -0.00000000000E+00 -0.10518171588E+03  0.10518171588E+03  0.00000000000E+00 0.  1.
         23    2    1    2    0    0  0.91817900977E+01  0.98166135964E+01 -0.42151894914E+02  0.13268103138E+03  0.12508718028E+03 0.  0.
          5    1    3    3  502    0  0.17756049651E+02 -0.10663751510E+02 -0.83191848364E+02  0.85833262374E+02  0.41800000000E+01 0. -1.
         -5    1    3    3    0  502 -0.85742595536E+01  0.20480365106E+02  0.41039953450E+02  0.46847769007E+02  0.41800000000E+01 0. -1.
        -11    1    1    2    0    0  0.39776654825E+02 -0.50237960431E+01  0.68870605338E+02  0.79690533160E+02  0.00000000000E+00 0.  1.
         11    1    1    2    0    0 -0.48958444923E+02 -0.47928175533E+01  0.36609580870E+02  0.61320158519E+02  0.00000000000E+00 0. -1.
</event>
<event>
 6    1  0.4966153E-006  0.1840458E+03  0.7561462E-02  0.1163944E+00
          2   -1    0    0  501    0  0.00000000000E+00  0.00000000000E+00  0.87899785573E+03  0.87899785573E+03  0.00000000000E+00 0. -1.
         -2   -1    0    0    0  501 -0.00000000000E+00 -0.00000000000E+00 -0.67611618604E+02  0.67611618604E+02  0.00000000000E+00 0.  1.
          5    1    1    2  502    0  0.76397300502E+01  0.57684667231E+02  0.18180995568E+03  0.19094035376E+03  0.41800000000E+01 0. -1.
         -5    1    1    2    0  502  0.29071309666E+02  0.12163333706E+03  0.39677954142E+02  0.13126927354E+03  0.41800000000E+01 0.  1.
        -11    1    1    2    0    0 -0.28037166578E+02 -0.77113851545E+02  0.13417019920E+03  0.15727132976E+03  0.00000000000E+00 0.  1.
         11    1    1    2    0    0 -0.86738731381E+01 -0.10220415275E+03  0.45572812810E+03  0.46712851728E+03  0.00000000000E+00 0. -1.
</event>
<event>
 7    1  0.4966153E-006  0.2462625E+03  0.7561462E-02  0.1115690E+00
          1   -1    0    0  501    0  0.00000000000E+00  0.00000000000E+00  0.32131091359E+03  0.32131091359E+03  0.00000000000E+00 0. -1.
         -1   -1    0    0    0  501 -0.00000000000E+00 -0.00000000000E+00 -0.22489681843E+03  0.22489681843E+03  0.00000000000E+00 0.  1.
         23    2    1    2    0    0  0.14659634579E+03 -0.18441802227E+03 -0.30123829696E+02  0.26337531943E+03  0.11383592680E+03 0.  0.
          5    1    3    3  502    0  0.32072354070E+02 -0.10783018367E+03 -0.51664863305E+02  0.12386571320E+03  0.41800000000E+01 0. -1.
         -5    1    3    3    0  502  0.11452399172E+03 -0.76587838599E+02  0.21541033609E+02  0.13950960623E+03  0.41800000000E+01 0.  1.
        -11    1    1    2    0    0 -0.11925444711E+03  0.17761546058E+03  0.13553422299E+03  0.25325560328E+03  0.00000000000E+00 0. -1.
         11    1    1    2    0    0 -0.27341898683E+02  0.68025616959E+01 -0.89962981369E+01  0.29576809317E+02  0.00000000000E+00 0.  1.
</event>
<event>
 7    1  0.7469398E-006  0.1541859E+03  0.7561462E-02  0.1195422E+00
          2   -1    0    0  501    0  0.00000000000E+00  0.00000000000E+00  0.33057218254E+03  0.33057218254E+03  0.00000000000E+00 0. -1.
         -2   -1    0    0    0  501 -0.00000000000E+00 -0.00000000000E+00 -0.10687877581E+03  0.10687877581E+03  0.00000000000E+00 0.  1.
         23    2    1    2    0    0 -0.13622382622E+02 -0.13942963619E+03  0.44933915727E+02  0.19311291869E+03  0.12508936737E+03 0.  0.
          5    1    3    3  502    0  0.37179985207E+01 -0.66198932836E+02 -0.41578148577E+02  0.78373063362E+02  0.41800000000E+01 0. -1.
         -5    1    3    3    0  502 -0.17340381142E+02 -0.73230703350E+02  0.86512064304E+02  0.11473985533E+03  0.41800000000E+01 0. -1.
        -11    1    1    2    0    0 -0.31216581389E+02  0.10637123445E+03  0.11795960201E+03  0.16187582333E+03  0.00000000000E+00 0. -1.
         11    1    1    2    0    0  0.44838964010E+02  0.33058401735E+02  0.60799889004E+02  0.82462216328E+02  0.00000000000E+00 0.  1.
</event>
<event>
 7    1  0.4966153E-006  0.7121369E+02  0.7561462E-02  0.1356014E+00
          1   -1    0    0  501    0  0.00000000000E+00  0.00000000000E+00  0.78529142761E+02  0.78529142761E+02  0.00000000000E+00 0. -1.
         -1   -1    0    0    0  501 -0.00000000000E+00 -0.00000000000E+00 -0.18960399794E+03  0.18960399794E+03  0.00000000000E+00 0.  1.
         23    2    1    2    0    0 -0.10295971434E+02 -0.28472129089E+02 -0.12591485894E+03  0.18006276239E+03  0.12510546564E+03 0.  0.
          5    1    3    3  502    0  0.16006302597E+02  0.17481194226E+02  0.15753558764E+02  0.28765272259E+02  0.41800000000E+01 0. -1.
         -5    1    3    3    0  502 -0.26302274031E+02 -0.45953323315E+02 -0.14166841771E+03  0.15129749013E+03  0.41800000000E+01 0. -1.
        -11    1    1    2    0    0  0.34224376030E+02  0.12309065416E+02 -0.21036982882E+02  0.42016373652E+02  0.00000000000E+00 0.  1.
         11    1    1    2    0    0 -0.23928404597E+02  0.16163063673E+02  0.35876986652E+02  0.46054004659E+02  0.00000000000E+00 0. -1.
</event>
<event>
 7    1  0.4966153E-006  0.1029666E+03  0.7561462E-02  0.1274178E+00
         -2   -1    0    0    0  501 -0.00000000000E+00  0.00000000000E+00  0.18531815166E+03  0.18531815166E+03  0.00000000000E+00 0. -1.
          2   -1    0    0  501    0  0.00000000000E+00 -0.00000000000E+00 -0.93784032766E+02  0.93784032766E+02  0.00000000000E+00 0.  1.
         23    2    1    2    0    0  0.50158380803E+02  0.50734035859E+02  0.74911882280E+02  0.16232558427E+03  0.12509196475E+03 0.  0.
          5    1    3    3  502    0 -0.34772863114E+02  0.18910442898E+02 -0.65572606742E+01  0.40338900918E+02  0.41800000000E+01 0.  1.
         -5    1    3    3    0  502  0.84931243918E+02  0.31823592961E+02  0.81469142954E+02  0.12198668336E+03  0.41800000000E+01 0.  1.
        -11    1    1    2    0    0 -0.38996701226E+02 -0.22605956002E+02 -0.34911967275E+02  0.57014186062E+02  0.00000000000E+00 0.  1.
         11    1    1    2    0    0 -0.11161679577E+02 -0.28128079857E+02  0.51534203894E+02  0.59762414094E+02  0.00000000000E+00 0. -1.
</event>
<event>
 7    1  0.4966153E-006  0.7782052E+02  0.7561462E-02  0.1335353E+00
          1   -1    0    0  501    0  0.00000000000E+00  0.00000000000E+00  0.74903837083E+02  0.74903837083E+02  0.00000000000E+00 0. -1.
         -1   -1    0    0    0  501 -0.00000000000E+00 -0.00000000000E+00 -0.20088276671E+03  0.20088276671E+03  0.00000000000E+00 0.  1.
         23    2    1    2    0    0 -0.88943255517E+01  0.92255276307E+00 -0.13329729789E+03  0.18301830271E+03  0.12509024491E+03 0.  0.
          5    1    3    3  502    0  0.38426117374E+02  0.24488957964E+01  0.28285480464E+01  0.38833447839E+02  0.41800000000E+01 0.  1.
         -5    1    3    3    0  502 -0.47320442925E+02 -0.15263430333E+01 -0.13612584594E+03  0.14418485487E+03  0.41800000000E+01 0.  1.
        -11    1    1    2    0    0  0.37268135184E+02 -0.11651445869E+02 -0.26613416353E+02  0.47254037086E+02  0.00000000000E+00 0.  1.
         11    1    1    2    0    0 -0.28373809632E+02  0.10728893106E+02  0.33931784614E+02  0.45514264000E+02  0.00000000000E+00 0. -1.
</event>
<event>
 6    1  0.4966153E-006  0.1081036E+03  0.7561462E-02  0.1264123E+00
          1   -1    0    0  501    0  0.00000000000E+00  0.00000000000E+00  0.23590543130E+03  0.23590543130E+03  0.00000000000E+00 0. -1.
         -1   -1    0    0    0  501 -0.00000000000E+00 -0.00000000000E+00 -0.87430496222E+02  0.87430496222E+02  0.00000000000E+00 0.  1.
          5    1    1    2  502    0  0.39717804066E+02 -0.39275373157E+02 -0.25355382004E+01  0.56071028619E+02  0.41800000000E+01 0. -1.
         -5    1    1    2    0  502 -0.88275151407E+02  0.34745188584E+02  0.14805194679E+02  0.96106173970E+02  0.41800000000E+01 0.  1.
        -11    1    1    2    0    0  0.14436652372E+02  0.22452485369E+02 -0.28650645875E+01  0.26846594310E+02  0.00000000000E+00 0.  1.
         11    1    1    2    0    0  0.34120694969E+02 -0.17922300797E+02  0.13907034319E+03  0.14431213063E+03  0.00000000000E+00 0. -1.
</event>
<event>
 7    1  0.4966153E-006  0.1008164E+03  0.7561462E-02  0.1278589E+00
          1   -1    0    0  501    0  0.00000000000E+00  0.00000000000E+00  0.54963284306E+03  0.54963284306E+03  0.00000000000E+00 0. -1.
         -1   -1    0    0    0  501 -0.00000000000E+00 -0.00000000000E+00 -0.22744875178E+02  0.22744875178E+02  0.00000000000E+00 0.  1.
         23    2    1    2    0    0 -0.33774233209E+02  0.12400567795E+02  0.20533917412E+03  0.23616665746E+03  0.11097765881E+03 0.  0.
          5    1    3    3  502    0  0.22474782711E+02  0.41479501717E+02  0.12576372490E+03  0.13438620398E+03  0.41800000000E+01 0. -1.
         -5    1    3    3    0  502 -0.56249015920E+02 -0.29078933922E+02  0.79575449225E+02  0.10178045347E+03  0.41800000000E+01 0.  1.
        -11    1    1    2    0    0  0.61745588688E+02 -0.11623252045E+02  0.27335514562E+03  0.28048289315E+03  0.00000000000E+00 0. -1.
         11    1    1    2    0    0 -0.27971355479E+02 -0.77731575019E+00  0.48193648134E+02  0.55728167632E+02  0.00000000000E+00 0.  1.
</event>
<event>
 7    1  0.4966153E-006  0.1550435E+03  0.7561462E-02  0.1194409E+00
          2   -1    0    0  501    0  0.00000000000E+00  0.00000000000E+00  0.10528740597E+04  0.10528740597E+04  0.00000000000E+00 0. -1.
         -2   -1    0    0    0  501 -0.00000000000E+00 -0.00000000000E+00 -0.24298829386E+02  0.24298829386E+02  0.00000000000E+00 0.  1.
         23    2    1    2    0    0 -0.11313342208E+03 -0.23097630420E+02  0.58451215924E+03  0.60879746866E+03  0.12508885570E+03 0.  0.
          5    1    3    3  502    0 -0.46675543268E+02  0.45749231073E+02  0.33890505578E+03  0.34517489439E+03  0.41800000000E+01 0. -1.
         -5    1    3    3    0  502 -0.66457878809E+02 -0.68846861492E+02  0.24560710346E+03  0.26362257427E+03  0.41800000000E+01 0. -1.
        -11    1    1    2    0    0  0.48278914731E+02  0.57758867602E+02  0.23427724981E+03  0.24607472477E+03  0.00000000000E+00 0.  1.
         11    1    1    2    0    0  0.64854507346E+02 -0.34661237182E+02  0.20978582128E+03  0.22230069567E+03  0.00000000000E+00 0. -1.
</event>
<event>
 7    1  0.5977351E-006  0.1682613E+03  0.7561462E-02  0.1179673E+00
         -2   -1    0    0    0  501 -0.00000000000E+00  0.00000000000E+00  0.68782766505E+02  0.68782766505E+02  0.00000000000E+00 0.  1.
          2   -1    0    0  501    0  0.00000000000E+00 -0.00000000000E+00 -0.54856144720E+03  0.54856144720E+03  0.00000000000E+00 0. -1.
         23    2    1    2    0    0 -0.15263263355E+03  0.28337212821E+02 -0.18618261218E+03  0.27278399312E+03  0.12508966132E+03 0.  0.
          5    1    3    3  502    0 -0.31313666977E+02 -0.27294503357E+02 -0.11310390561E+03  0.12056326769E+03  0.41800000000E+01 0.  1.
         -5    1    3    3    0  502 -0.12131896657E+03  0.55631716178E+02 -0.73078706572E+02  0.15222072543E+03  0.41800000000E+01 0.  1.
        -11    1    1    2    0    0  0.11299554325E+03 -0.83638833650E+00 -0.26594243631E+03  0.28895340762E+03  0.00000000000E+00 0. -1.
         11    1    1    2    0    0  0.39637090299E+02 -0.27500824485E+02 -0.27653632206E+02  0.55606812972E+02  0.00000000000E+00 0.  1.
</event>
<event>
 7    1  0.4966153E-006  0.1006662E+03  0.7561462E-02  0.1278901E+00
         -2   -1    0    0    0  501 -0.00000000000E+00  0.00000000000E+00  0.11658408705E+03  0.11658408705E+03  0.00000000000E+00 0.  1.
          2   -1    0    0  501    0  0.00000000000E+00 -0.00000000000E+00 -0.10244645614E+03  0.10244645614E+03  0.00000000000E+00 0. -1.
         23    2    1    2    0    0 -0.18109651761E+01  0.11617285948E+02  0.21297747742E+02  0.12744781750E+03  0.12510440120E+03 0.  0.
          5    1    3    3  502    0 -0.50854934415E+02  0.30140389639E+02 -0.17841207271E+02  0.61890617373E+02  0.41800000000E+01 0.  1.
         -5    1    3    3    0  502  0.49043969239E+02 -0.18523103691E+02  0.39138955013E+02  0.65557200127E+02  0.41800000000E+01 0.  1.
        -11    1    1    2    0    0  0.40197610349E+00  0.38919220223E+02  0.59024481014E+01  0.39366307690E+02  0.00000000000E+00 0. -1.
         11    1    1    2    0    0  0.14089890726E+01 -0.50536506172E+02 -0.13062564930E+02  0.52216418000E+02  0.00000000000E+00 0.  1.
</event>
<event>
 7    1  0.4966153E-006  0.1036317E+03  0.7561462E-02  0.1272839E+00
         -3   -1    0    0    0  501 -0.00000000000E+00  0.00000000000E+00  0.20325548803E+03  0.20325548803E+03  0.00000000000E+00 0.  1.
          3   -1    0    0  501    0  0.00000000000E+00 -0.00000000000E+00 -0.98270759320E+02  0.98270759320E+02  0.00000000000E+00 0. -1.
         23    2    1    2    0    0  0.26572005864E+02  0.80893774066E+02  0.74974646468E+02  0.16886713224E+03  0.12508012056E+03 0.  0.
          5    1    3    3  502    0  0.33810680550E+02  0.86213481174E+02 -0.54310080457E+00  0.92702178043E+02  0.41800000000E+01 0. -1.
         -5    1    3    3    0  502 -0.72386746854E+01 -0.53197071081E+01  0.75517747272E+02  0.76164954198E+02  0.41800000000E+01 0. -1.
        -11    1    1    2    0    0 -0.37291580525E+02 -0.85276535195E+02  0.52863574876E+02  0.10703881063E+03  0.00000000000E+00 0.  1.
         11    1    1    2    0    0  0.10719574661E+02  0.43827611286E+01 -0.22853492633E+02  0.25620304478E+02  0.00000000000E+00 0. -1.
</event>
<event>
 7    1  0.4966153E-006  0.1270679E+03  0.7561462E-02  0.1231872E+00
         -2   -1    0    0    0  501 -0.00000000000E+00  0.00000000000E+00  0.76089985767E+02  0.76089985767E+02  0.00000000000E+00 0.  1.
          2   -1    0    0  501    0  0.00000000000E+00 -0.00000000000E+00 -0.26134763785E+03  0.26134763785E+03  0.00000000000E+00 0. -1.
         23    2    1    2    0    0 -0.86571008737E+02  0.20674642540E+02 -0.98853590893E+02  0.18259798391E+03  0.12509200972E+03 0.  0.
          5    1    3    3  502    0 -0.10235584425E+03  0.40820144057E+02 -0.38318642384E+02  0.11674242488E+03  0.41800000000E+01 0. -1.
         -5    1    3    3    0  502  0.15784835513E+02 -0.20145501517E+02 -0.60534948509E+02  0.65855559025E+02  0.41800000000E+01 0. -1.
        -11    1    1    2    0    0 -0.14332694013E+02 -0.74777491332E+01 -0.39711148706E+02  0.42875612897E+02  0.00000000000E+00 0. -1.
         11    1    1    2    0    0  0.10090370275E+03 -0.13196893406E+02 -0.46692912484E+02  0.11196402681E+03  0.00000000000E+00 0.  1.
</event>
<event>
 7    1  0.4966153E-006  0.1233734E+03  0.7561462E-02  0.1237633E+00
          2   -1    0    0  501    0  0.00000000000E+00  0.00000000000E+00  0.36382155182E+02  0.36382155182E+02  0.00000000000E+00 0. -1.
         -2   -1    0    0    0  501 -0.00000000000E+00 -0.00000000000E+00 -0.49186021283E+03  0.49186021283E+03  0.00000000000E+00 0.  1.
         23    2    1    2    0    0 -0.82288319066E+01 -0.64501918998E+02 -0.33741045092E+03  0.36567998838E+03  0.12509128781E+03 0.  0.
          5    1    3    3  502    0  0.48481825977E+01 -0.10124684903E+03 -0.23217090014E+03  0.25336777337E+03  0.41800000000E+01 0. -1.
         -5    1    3    3    0  502 -0.13077014504E+02  0.36744930035E+02 -0.10523955078E+03  0.11231221501E+03  0.41800000000E+01 0. -1.
        -11    1    1    2    0    0  0.13852908658E+02 -0.18370862464E+02 -0.50476842311E+02  0.55473446582E+02  0.00000000000E+00 0.  1.
         11    1    1    2    0    0 -0.56240767517E+01  0.82872781462E+02 -0.67590764416E+02  0.10708893305E+03  0.00000000000E+00 0. -1.
</event>
<event>
 7    1  0.4966153E-006  0.1163077E+03  0.7561462E-02  0.1249316E+00
         -1   -1    0    0    0  501 -0.00000000000E+00  0.00000000000E+00  0.50624850651E+02  0.50624850651E+02  0.00000000000E+00 0.  1.
          1   -1    0    0  501    0  0.00000000000E+00 -0.00000000000E+00 -0.30403762315E+03  0.30403762315E+03  0.00000000000E+00 0. -1.
         23    2    1    2    0    0  0.24034554309E+02  0.21005817433E+00 -0.82893005387E+02  0.15174316989E+03  0.12480799390E+03 0.  0.
          5    1    3    3  502    0 -0.41831255090E+02 -0.28417349289E+02 -0.54328334997E+02  0.74340029773E+02  0.41800000000E+01 0.  1.
         -5    1    3    3    0  502  0.65865809399E+02  0.28627407463E+02 -0.28564670389E+02  0.77403140119E+02  0.41800000000E+01 0.  1.
        -11    1    1    2    0    0 -0.42445989912E+02  0.44550195864E+02 -0.91997920000E+02  0.11067971492E+03  0.00000000000E+00 0. -1.
         11    1    1    2    0    0  0.18411435603E+02 -0.44760254038E+02 -0.78521847114E+02  0.92239588989E+02  0.00000000000E+00 0.  1.
</event>
<event>
 7    1  0.4966153E-006  0.7752955E+02  0.7561462E-02  0.1336212E+00
          1   -1    0    0  501    0  0.00000000000E+00  0.00000000000E+00  0.28998496494E+02  0.28998496494E+02  0.00000000000E+00 0. -1.
         -1   -1    0    0    0  501 -0.00000000000E+00 -0.00000000000E+00 -0.42763727773E+03  0.42763727773E+03  0.00000000000E+00 0.  1.
         23    2    1    2    0    0  0.12472881328E+02 -0.43478726587E+01 -0.29396429216E+03  0.31974432393E+03  0.12508777260E+03 0.  0.
          5    1    3    3  502    0  0.57949464284E+02  0.17016409535E+02 -0.23246812183E+03  0.24022197791E+03  0.41800000000E+01 0.  1.
         -5    1    3    3    0  502 -0.45476582956E+02 -0.21364282193E+02 -0.61496170332E+02  0.79522346020E+02  0.41800000000E+01 0.  1.
        -11    1    1    2    0    0 -0.25180461821E+02 -0.79604312567E+01 -0.11391242051E+03  0.11693358658E+03  0.00000000000E+00 0.  1.
         11    1    1    2    0    0  0.12707580493E+02  0.12308303915E+02  0.92379314302E+01  0.19957863723E+02  0.00000000000E+00 0. -1.
</event>
<event>
 7    1  0.4966153E-006  0.1660939E+03  0.7561462E-02  0.1181984E+00
         -2   -1    0    0    0  501 -0.00000000000E+00  0.00000000000E+00  0.56789421923E+02  0.56789421923E+02  0.00000000000E+00 0.  1.
          2   -1    0    0  501    0  0.00000000000E+00 -0.00000000000E+00 -0.58723248772E+03  0.58723248772E+03  0.00000000000E+00 0. -1.
         23    2    1    2    0    0  0.12432328628E+03 -0.67479239502E+02 -0.21183324727E+03  0.28377940292E+03  0.12509075746E+03 0.  0.
          5    1    3    3  502    0  0.86976686425E+02  0.23464541112E+02 -0.94074867594E+02  0.13031915356E+03  0.41800000000E+01 0. -1.
         -5    1    3    3    0  502  0.37346599854E+02 -0.90943780614E+02 -0.11775837967E+03  0.15346024937E+03  0.41800000000E+01 0. -1.
        -11    1    1    2    0    0 -0.46362954969E+02  0.39060401888E+02 -0.48387063288E+02  0.77566400476E+02  0.00000000000E+00 0.  1.
         11    1    1    2    0    0 -0.77960331310E+02  0.28418837614E+02 -0.27022275524E+03  0.28267610624E+03  0.00000000000E+00 0. -1.
</event>
<event>
 7    1  0.4966153E-006  0.2571764E+03  0.7561462E-02  0.1108852E+00
         -1   -1    0    0    0  501 -0.00000000000E+00  0.00000000000E+00  0.79531177945E+02  0.79531177945E+02  0.00000000000E+00 0.  1.
          1   -1    0    0  501    0  0.00000000000E+00 -0.00000000000E+00 -0.89462316956E+03  0.89462316956E+03  0.00000000000E+00 0. -1.
         23    2    1    2    0    0 -0.11299563389E+03  0.20840319966E+03 -0.31363826053E+03  0.41257282653E+03  0.12508985496E+03 0.  0.
          5    1    3    3  502    0 -0.16565737864E+02 -0.15231530502E+02 -0.15773652243E+02  0.27797548408E+02  0.41800000000E+01 0. -1.
         -5    1    3    3    0  502 -0.96429896023E+02  0.22363473016E+03 -0.29786460829E+03  0.38477527812E+03  0.41800000000E+01 0. -1.
        -11    1    1    2    0    0  0.65636973625E+02 -0.18242390273E+03 -0.34074802459E+03  0.39204069796E+03  0.00000000000E+00 0. -1.
         11    1    1    2    0    0  0.47358660262E+02 -0.25979296929E+02 -0.16070570649E+03  0.16954082301E+03  0.00000000000E+00 0.  1.
</event>
<event>
 7    1  0.4966153E-006  0.1191959E+03  0.7561462E-02  0.1244429E+00
         -2   -1    0    0    0  501 -0.00000000000E+00  0.00000000000E+00  0.72156446265E+02  0.72156446265E+02  0.00000000000E+00 0.  1.
          2   -1    0    0  501    0  0.00000000000E+00 -0.00000000000E+00 -0.22622495963E+03  0.22622495963E+03  0.00000000000E+00 0. -1.
         23    2    1    2    0    0 -0.43678923545E+02 -0.47459641665E+02 -0.65762776802E+02  0.15534954406E+03  0.12509385307E+03 0.  0.
          5    1    3    3  502    0 -0.25125414812E+02  0.34467545277E+02 -0.56236839411E+02  0.70706100542E+02  0.41800000000E+01 0. -1.
         -5    1    3    3    0  502 -0.18553508733E+02 -0.81927186943E+02 -0.95259373913E+01  0.84643443513E+02  0.41800000000E+01 0. -1.
        -11    1    1    2    0    0  0.69453662684E+02  0.16955932045E+02 -0.65944327836E+02  0.97262373328E+02  0.00000000000E+00 0. -1.
         11    1    1    2    0    0 -0.25774739139E+02  0.30503709620E+02 -0.22361408724E+02  0.45769488509E+02  0.00000000000E+00 0.  1.
</event>
<event>
 6    1  0.4966153E-006  0.1275944E+03  0.7561462E-02  0.1231070E+00
          1   -1    0    0  501    0  0.00000000000E+00  0.00000000000E+00  0.10546462626E+03  0.10546462626E+03  0.00000000000E+00 0. -1.
         -1   -1    0    0    0  501 -0.00000000000E+00 -0.00000000000E+00 -0.18155909342E+03  0.18155909342E+03  0.00000000000E+00 0.  1.
          5    1    1    2  502    0 -0.50324959326E+02 -0.48026163373E+02 -0.77608854370E+01  0.70120023119E+02  0.41800000000E+01 0. -1.
         -5    1    1    2    0  502  0.34873676932E+02  0.89453155723E+02 -0.70156864194E+02  0.11898528651E+03  0.41800000000E+01 0.  1.
        -11    1    1    2    0    0 -0.11045829608E+02  0.19805946393E+02 -0.17287078184E+02  0.28515415767E+02  0.00000000000E+00 0.  1.
         11    1    1    2    0    0  0.26497112002E+02 -0.61232938744E+02  0.19110360652E+02  0.69402994286E+02  0.00000000000E+00 0. -1.
</event>
<event>
 7    1  0.4966153E-006  0.1241437E+03  0.7561462E-02  0.1236414E+00
          1   -1    0    0  501    0  0.00000000000E+00  0.00000000000E+00  0.31542176893E+03  0.31542176893E+03  0.00000000000E+00 0. -1.
         -1   -1    0    0    0  501 -0.00000000000E+00 -0.00000000000E+00 -0.70621231875E+02  0.70621231875E+02  0.00000000000E+00 0.  1.
         23    2    1    2    0    0  0.88958153649E+01 -0.10084415691E+03  0.14463145923E+03  0.21636641779E+03  0.12508992059E+03 0.  0.
          5    1    3    3  502    0 -0.44028639415E+02 -0.43212441645E+02  0.11868280456E+03  0.13382420073E+03  0.41800000000E+01 0.  1.
         -5    1    3    3    0  502  0.52924454780E+02 -0.57631715267E+02  0.25948654668E+02  0.82542217062E+02  0.41800000000E+01 0.  1.
        -11    1    1    2    0    0  0.14166463958E+02  0.54781117985E+02  0.10360387650E+03  0.11804839184E+03  0.00000000000E+00 0. -1.
         11    1    1    2    0    0 -0.23062279323E+02  0.46063038927E+02 -0.34347986755E+01  0.51628191182E+02  0.00000000000E+00 0.  1.
</event>
<event>
 7    1  0.4966153E-006  0.1085912E+03  0.7561462E-02  0.1263201E+00
          4   -1    0    0  501    0  0.00000000000E+00  0.00000000000E+00  0.12650627002E+03  0.12650627002E+03  0.00000000000E+00 0. -1.
         -4   -1    0    0    0  501 -0.00000000000E+00 -0.00000000000E+00 -0.28650487732E+03  0.28650487732E+03  0.00000000000E+00 0.  1.
         23    2    1    2    0    0  0.20144492870E+02  0.19946676307E+02 -0.24988830285E+03  0.28088572067E+03  0.12509577805E+03 0.  0.
          5    1    3    3  502    0  0.54685183539E+02 -0.31591627471E+02 -0.96859452655E+02  0.11570534211E+03  0.41800000000E+01 0. -1.
         -5    1    3    3    0  502 -0.34540690669E+02  0.51538303779E+02 -0.15302885020E+03  0.16518037856E+03  0.41800000000E+01 0. -1.
        -11    1    1    2    0    0  0.34378188421E+02 -0.12952031725E+02  0.16096714099E+02  0.40108841540E+02  0.00000000000E+00 0.  1.
         11    1    1    2    0    0 -0.54522681291E+02 -0.69946445825E+01  0.73792981449E+02  0.92016585131E+02  0.00000000000E+00 0. -1.
</event>
<event>
 7    1  0.4966153E-006  0.8608625E+02  0.7561462E-02  0.1312616E+00
          1   -1    0    0  501    0  0.00000000000E+00  0.00000000000E+00  0.10279198692E+03  0.10279198692E+03  0.00000000000E+00 0. -1.
         -1   -1    0    0    0  501 -0.00000000000E+00 -0.00000000000E+00 -0.12003131207E+03  0.12003131207E+03  0.00000000000E+00 0.  1.
         23    2    1    2    0    0  0.19321957119E+02  0.86763851065E+01 -0.24783241842E+02  0.12926389271E+03  0.12508527969E+03 0.  0.
          5    1    3    3  502    0  0.59365249568E+02 -0.31035004043E+02 -0.27766300714E+02  0.72635006626E+02  0.41800000000E+01 0. -1.
         -5    1    3    3    0  502 -0.40043292449E+02  0.39711389149E+02  0.29830588719E+01  0.56628886079E+02  0.41800000000E+01 0. -1.
        -11    1    1    2    0    0 -0.42641761947E+01 -0.25541388627E+02 -0.36088270229E+02  0.44417440041E+02  0.00000000000E+00 0.  1.
         11    1    1    2    0    0 -0.15057780924E+02  0.16865003521E+02  0.43632186925E+02  0.49141966240E+02  0.00000000000E+00 0. -1.
</event>
<event>
 7    1  0.4966153E-006  0.1158576E+03  0.7561462E-02  0.1250091E+00
         -1   -1    0    0    0  501 -0.00000000000E+00  0.00000000000E+00  0.34342004839E+03  0.34342004839E+03  0.00000000000E+00 0.  1.
          1   -1    0    0  501    0  0.00000000000E+00 -0.00000000000E+00 -0.69628164446E+02  0.69628164446E+02  0.00000000000E+00 0. -1.
         23    2    1    2    0    0 -0.11137057836E+03 -0.23746839443E+02  0.15655881803E+03  0.23049068850E+03  0.12509186974E+03 0.  0.
          5    1    3    3  502    0 -0.83441376602E+01  0.36978968290E+01 -0.21035203010E+02  0.23307750641E+02  0.41800000000E+01 0.  1.
         -5    1    3    3    0  502 -0.10302644070E+03 -0.27444736272E+02  0.17759402104E+03  0.20718293786E+03  0.41800000000E+01 0.  1.
        -11    1    1    2    0    0  0.97691318875E+02  0.26047518200E+02  0.12932509385E+03  0.16415555698E+03  0.00000000000E+00 0.  1.
         11    1    1    2    0    0  0.13679259488E+02 -0.23006787577E+01 -0.12092027935E+02  0.18401967353E+02  0.00000000000E+00 0. -1.
</event>
<event>
 7    1  0.4966153E-006  0.8731591E+02  0.7561462E-02  0.1309485E+00
         -2   -1    0    0    0  501 -0.00000000000E+00  0.00000000000E+00  0.13483744175E+03  0.13483744175E+03  0.00000000000E+00 0.  1.
          2   -1    0    0  501    0  0.00000000000E+00 -0.00000000000E+00 -0.10635253864E+03  0.10635253864E+03  0.00000000000E+00 0. -1.
         23    2    1    2    0    0  0.17509426514E+02  0.40258246362E+02  0.14277154474E+02  0.13332994994E+03  0.12508290049E+03 0.  0.
          5    1    3    3  502    0 -0.11154196163E+02  0.80271014757E+02 -0.24224704462E+01  0.81186160553E+02  0.41800000000E+01 0.  1.
         -5    1    3    3    0  502  0.28663622677E+02 -0.40012768396E+02  0.16699624920E+02  0.52143789392E+02  0.41800000000E+01 0.  1.
        -11    1    1    2    0    0 -0.39890394020E+01 -0.13897013898E+02 -0.41947281262E+02  0.44369063951E+02  0.00000000000E+00 0. -1.
         11    1    1    2    0    0 -0.13520387112E+02 -0.26361232464E+02  0.56155029888E+02  0.63490966495E+02  0.00000000000E+00 0.  1.
</event>
<event>
 7    1  0.4966153E-006  0.1096450E+03  0.7561462E-02  0.1261229E+00
          4   -1    0    0  501    0  0.00000000000E+00  0.00000000000E+00  0.35948572930E+02  0.35948572930E+02  0.00000000000E+00 0. -1.
         -4   -1    0    0    0  501 -0.00000000000E+00 -0.00000000000E+00 -0.46358009129E+03  0.46358009129E+03  0.00000000000E+00 0.  1.
         23    2    1    2    0    0 -0.61468543886E+02 -0.15736155995E+02 -0.29999516259E+03  0.33116577296E+03  0.12509061959E+03 0.  0.
          5    1    3    3  502    0  0.22684446174E+02 -0.10301318587E+02 -0.69511811860E+01  0.26201003468E+02  0.41800000000E+01 0.  1.
         -5    1    3    3    0  502 -0.84152990060E+02 -0.54348374083E+01 -0.29304398140E+03  0.30496476949E+03  0.41800000000E+01 0.  1.
        -11    1    1    2    0    0  0.31364335703E+02 -0.37225055671E+02 -0.61754495696E+02  0.78632334713E+02  0.00000000000E+00 0.  1.
         11    1    1    2    0    0  0.30104208183E+02  0.52961211666E+02 -0.65881860072E+02  0.89730556546E+02  0.00000000000E+00 0. -1.
</event>
<event>
 6    1  0.4966153E-006  0.1435952E+03  0.7561462E-02  0.1208572E+00
         -2   -1    0    0    0  501 -0.00000000000E+00  0.00000000000E+00  0.76734324582E+02  0.76734324582E+02  0.00000000000E+00 0.  1.
          2   -1    0    0  501    0  0.00000000000E+00 -0.00000000000E+00 -0.29144548661E+03  0.29144548661E+03  0.00000000000E+00 0. -1.
          5    1    1    2  502    0 -0.33081485168E+02 -0.64996671928E+02 -0.28716190716E+02  0.78492318299E+02  0.41800000000E+01 0. -1.
         -5    1    1    2    0  502  0.86389730155E+02 -0.27786227353E+01 -0.45121049884E+02  0.97592457512E+02  0.41800000000E+01 0.  1.
        -11    1    1    2    0    0  0.27227405811E+02  0.21722477813E+02 -0.21585277885E+02  0.40977089830E+02  0.00000000000E+00 0.  1.
         11    1    1    2    0    0 -0.80535650798E+02  0.46052816850E+02 -0.11928864354E+03  0.15111794555E+03  0.00000000000E+00 0. -1.
</event>
<event>
 7    1  0.4966153E-006  0.1054034E+03  0.7561462E-02  0.1269327E+00
         -1   -1    0    0    0  501 -0.00000000000E+00  0.00000000000E+00  0.13568252688E+02  0.13568252688E+02  0.00000000000E+00 0.  1.
          1   -1    0    0  501    0  0.00000000000E+00 -0.00000000000E+00 -0.99032166807E+03  0.99032166807E+03  0.00000000000E+00 0. -1.
         23    2    1    2    0    0 -0.37505237808E+02  0.17063862845E+01 -0.50802415458E+03  0.52454304838E+03  0.12508922155E+03 0.  0.
          5    1    3    3  502    0  0.34241866110E+02  0.15233834391E+02 -0.32905800831E+03  0.33121174547E+03  0.41800000000E+01 0. -1.
         -5    1    3    3    0  502 -0.71747103918E+02 -0.13527448107E+02 -0.17896614627E+03  0.19333130291E+03  0.41800000000E+01 0. -1.
        -11    1    1    2    0    0  0.37718983517E+02 -0.43839296646E+02 -0.29107548970E+03  0.29676513668E+03  0.00000000000E+00 0. -1.
         11    1    1    2    0    0 -0.21374570888E+00  0.42132910362E+02 -0.17765377111E+03  0.18258173570E+03  0.00000000000E+00 0.  1.
</event>
<event>
 7    1  0.4966153E-006  0.1033544E+03  0.7561462E-02  0.1273396E+00
          2   -1    0    0  501    0  0.00000000000E+00  0.00000000000E+00  0.88994681872E+02  0.88994681872E+02  0.00000000000E+00 0. -1.
         -2   -1    0    0    0  501 -0.00000000000E+00 -0.00000000000E+00 -0.15599657408E+03  0.15599657408E+03  0.00000000000E+00 0.  1.
         23    2    1    2    0    0  0.46379395375E+02  0.24862293104E+01 -0.35846225739E+02  0.13818149668E+03  0.12510773147E+03 0.  0.
          5    1    3    3  502    0  0.40662269731E+00 -0.40951254691E+02  0.26752425618E+02  0.49095165538E+02  0.41800000000E+01 0.  1.
         -5    1    3    3    0  502  0.45972772678E+02  0.43437484001E+02 -0.62598651357E+02  0.89086331139E+02  0.41800000000E+01 0.  1.
        -11    1    1    2    0    0 -0.62968873155E+02  0.26850363286E+02 -0.20248872249E+02  0.71386538103E+02  0.00000000000E+00 0. -1.
         11    1    1    2    0    0  0.16589477779E+02 -0.29336592597E+02 -0.10906794224E+02  0.35423221175E+02  0.00000000000E+00 0.  1.
</event>
<event>
 7    1  0.4966153E-006  0.1224929E+03  0.7561462E-02  0.1239040E+00
          2   -1    0    0  501    0  0.00000000000E+00  0.00000000000E+00  0.86153911485E+02  0.86153911485E+02  0.00000000000E+00 0. -1.
         -2   -1    0    0    0  501 -0.00000000000E+00 -0.00000000000E+00 -0.18608499772E+03  0.18608499772E+03  0.00000000000E+00 0.  1.
         23    2    1    2    0    0 -0.15970562522E+02 -0.63269481124E+02 -0.55123179427E+02  0.15147122252E+03  0.12508749031E+03 0.  0.
          5    1    3    3  502    0 -0.54278807370E+02  0.12669142591E+02 -0.20220680541E+02  0.59439418108E+02  0.41800000000E+01 0.  1.
         -5    1    3    3    0  502  0.38308244848E+02 -0.75938623716E+02 -0.34902498886E+02  0.92031804414E+02  0.41800000000E+01 0.  1.
        -11    1    1    2    0    0 -0.18261884902E+02 -0.11583345850E+02  0.79058055130E+01  0.23025466381E+02  0.00000000000E+00 0. -1.
         11    1    1    2    0    0  0.34232447424E+02  0.74852826974E+02 -0.52713712317E+02  0.97742220298E+02  0.00000000000E+00 0.  1.
</event>
<event>
 7    1  0.4966153E-006  0.1413932E+03  0.7561462E-02  0.1211467E+00
         -2   -1    0    0    0  501 -0.00000000000E+00  0.00000000000E+00  0.20653809827E+03  0.20653809827E+03  0.00000000000E+00 0.  1.
          2   -1    0    0  501    0  0.00000000000E+00 -0.00000000000E+00 -0.10771019100E+03  0.10771019100E+03  0.00000000000E+00 0. -1.
         23    2    1    2    0    0  0.32138378444E+02 -0.89206109470E+02  0.98391864768E+02  0.18253049775E+03  0.12101990836E+03 0.  0.
          5    1    3    3  502    0  0.45799058817E+02  0.13445266969E+02  0.17324196745E+02  0.50950261876E+02  0.41800000000E+01 0. -1.
         -5    1    3    3    0  502 -0.13660680372E+02 -0.10265137644E+03  0.81067668023E+02  0.13158023587E+03  0.41800000000E+01 0.  1.
        -11    1    1    2    0    0  0.65907281047E+01 -0.16973856321E+02 -0.38613814517E+01  0.18613429616E+02  0.00000000000E+00 0.  1.
         11    1    1    2    0    0 -0.38729106549E+02  0.10617996579E+03  0.42974239561E+01  0.11310436191E+03  0.00000000000E+00 0. -1.
</event>
<event>
 7    1  0.4966153E-006  0.7364488E+02  0.7561462E-02  0.1348120E+00
          1   -1    0    0  501    0  0.00000000000E+00  0.00000000000E+00  0.42685440916E+03  0.42685440916E+03  0.00000000000E+00 0. -1.
         -1   -1    0    0    0  501 -0.00000000000E+00 -0.00000000000E+00 -0.32573339330E+02  0.32573339330E+02  0.00000000000E+00 0.  1.
         23    2    1    2    0    0 -0.32241552999E+02  0.19465350079E+02  0.22644131937E+03  0.26142359491E+03  0.12509279461E+03 0.  0.
          5    1    3    3  502    0 -0.25867606006E+02  0.20358811237E+01 -0.70080502755E+01  0.27200423179E+02  0.41800000000E+01 0. -1.
         -5    1    3    3    0  502 -0.63739469929E+01  0.17429468955E+02  0.23344936964E+03  0.23422317173E+03  0.41800000000E+01 0. -1.
        -11    1    1    2    0    0  0.32496042041E+02 -0.56376916122E+02  0.12863206714E+03  0.14415463266E+03  0.00000000000E+00 0.  1.
         11    1    1    2    0    0 -0.25448904175E+00  0.36911566044E+02  0.39207683324E+02  0.53849520927E+02  0.00000000000E+00 0. -1.
</event>
<event>
 7    1  0.4966153E-006  0.2352118E+03  0.7561462E-02  0.1123024E+00
          2   -1    0    0  501    0  0.00000000000E+00  0.00000000000E+00  0.29433124853E+02  0.29433124853E+02  0.00000000000E+00 0. -1.
         -2   -1    0    0    0  501 -0.00000000000E+00 -0.00000000000E+00 -0.24972080776E+04  0.24972080776E+04  0.00000000000E+00 0.  1.
         23    2    1    2    0    0  0.49187889865E+02  0.21806563975E+03 -0.16199254324E+04  0.16400545416E+04  0.12509364872E+03 0.  0.
          5    1    3    3  502    0  0.79889197896E+02  0.12694025805E+03 -0.75309248727E+03  0.76789444576E+03  0.41800000000E+01 0.  1.
         -5    1    3    3    0  502 -0.30701308032E+02  0.91125381703E+02 -0.86683294515E+03  0.87216009580E+03  0.41800000000E+01 0.  1.
        -11    1    1    2    0    0 -0.26822764191E+02 -0.15283862784E+03 -0.75585035386E+03  0.77161445312E+03  0.00000000000E+00 0.  1.
         11    1    1    2    0    0 -0.22365125673E+02 -0.65227011905E+02 -0.91999166475E+02  0.11497220777E+03  0.00000000000E+00 0. -1.
</event>
<event>
 7    1  0.4966153E-006  0.6398373E+02  0.7561462E-02  0.1381836E+00
         -1   -1    0    0    0  501 -0.00000000000E+00  0.00000000000E+00  0.31831768844E+02  0.31831768844E+02  0.00000000000E+00 0.  1.
          1   -1    0    0  501    0  0.00000000000E+00 -0.00000000000E+00 -0.34786492389E+03  0.34786492389E+03  0.00000000000E+00 0. -1.
         23    2    1    2    0    0 -0.10650019352E+02  0.28901453908E+02 -0.16190511483E+03  0.19847764204E+03  0.11059562031E+03 0.  0.
          5    1    3    3  502    0 -0.14035994978E+02 -0.11360814055E+02 -0.15639042769E+03  0.15748496920E+03  0.41800000000E+01 0. -1.
         -5    1    3    3    0  502  0.33859756258E+01  0.40262267963E+02 -0.55146871443E+01  0.40992672842E+02  0.41800000000E+01 0.  1.
        -11    1    1    2    0    0 -0.25864267864E+02 -0.13595734436E+02 -0.86848999218E+01  0.30483304179E+02  0.00000000000E+00 0.  1.
         11    1    1    2    0    0  0.36514287216E+02 -0.15305719472E+02 -0.14544314030E+03  0.15073574652E+03  0.00000000000E+00 0. -1.
</event>
<event>
 7    1  0.4966153E-006  0.1144558E+03  0.7561462E-02  0.1252534E+00
          2   -1    0    0  501    0  0.00000000000E+00  0.00000000000E+00  0.42879263320E+02  0.42879263320E+02  0.00000000000E+00 0. -1.
         -2   -1    0    0    0  501 -0.00000000000E+00 -0.00000000000E+00 -0.41701345663E+03  0.41701345663E+03  0.00000000000E+00 0.  1.
         23    2    1    2    0    0 -0.24500736187E+02  0.83052445312E+02 -0.26720072716E+03  0.30747627155E+03  0.12508970470E+03 0.  0.
          5    1    3    3  502    0  0.38054607599E+02  0.19876049222E+02 -0.25971156790E+02  0.50350609502E+02  0.41800000000E+01 0. -1.
         -5    1    3    3    0  502 -0.62555343786E+02  0.63176396090E+02 -0.24122957038E+03  0.25712566205E+03  0.41800000000E+01 0. -1.
        -11    1    1    2    0    0  0.34701378653E+02 -0.42055310359E+02 -0.93228845773E+02  0.10800209486E+03  0.00000000000E+00 0.  1.
         11    1    1    2    0    0 -0.10200642467E+02 -0.40997134953E+02 -0.13704620373E+02  0.44414353543E+02  0.00000000000E+00 0. -1.
</event>
<event>
 7    1  0.4966153E-006  0.2244981E+03  0.7561462E-02  0.1130573E+00
         -2   -1    0    0    0  501 -0.00000000000E+00  0.00000000000E+00  0.16471272282E+03  0.16471272282E+03  0.00000000000E+00 0.  1.
          2   -1    0    0  501    0  0.00000000000E+00 -0.00000000000E+00 -0.58181889300E+03  0.58181889300E+03  0.00000000000E+00 0. -1.
         23    2    1    2    0    0  0.87143179862E+02 -0.19964054045E+03  0.17767590640E+02  0.25182111953E+03  0.12509160555E+03 0.  0.
          5    1    3    3  502    0  0.77722708083E+02 -0.82042340327E+02  0.58011873524E+02  0.12710080577E+03  0.41800000000E+01 0. -1.
         -5    1    3    3    0  502  0.94204717784E+01 -0.11759820012E+03 -0.40244282883E+02  0.12472031376E+03  0.41800000000E+01 0. -1.
        -11    1    1    2    0    0 -0.46315123678E+02  0.11035744238E+03 -0.33010665512E+03  0.35113282319E+03  0.00000000000E+00 0. -1.
         11    1    1    2    0    0 -0.40828056183E+02  0.89283098065E+02 -0.10476710571E+03  0.14357767309E+03  0.00000000000E+00 0.  1.
</event>
<event>
 7    1  0.4966153E-006  0.1156212E+03  0.7561462E-02  0.1250501E+00
          1   -1    0    0  501    0  0.00000000000E+00  0.00000000000E+00  0.89514946334E+02  0.89514946334E+02  0.00000000000E+00 0. -1.
         -1   -1    0    0    0  501 -0.00000000000E+00 -0.00000000000E+00 -0.21080466168E+03  0.21080466168E+03  0.00000000000E+00 0.  1.
         23    2    1    2    0    0  0.83152198439E+02 -0.67062590579E+01 -0.76385546595E+02  0.16864594477E+03  0.12508973156E+03 0.  0.
          5    1    3    3  502    0 -0.11658799439E+02 -0.14582784763E+02  0.23723819752E+02  0.30477487419E+02  0.41800000000E+01 0. -1.
         -5    1    3    3    0  502  0.94810997877E+02  0.78765257047E+01 -0.10010936635E+03  0.13816845735E+03  0.41800000000E+01 0. -1.
        -11    1    1    2    0    0  0.53857732461E+01 -0.22899026763E+02  0.74040366134E+01  0.24661543713E+02  0.00000000000E+00 0. -1.
         11    1    1    2    0    0 -0.88537971685E+02  0.29605285821E+02 -0.52308205363E+02  0.10701211953E+03  0.00000000000E+00 0.  1.
</event>
<event>
 7    1  0.4966153E-006  0.1210662E+03  0.7561462E-02  0.1241348E+00
         -2   -1    0    0    0  501 -0.00000000000E+00  0.00000000000E+00  0.72158983337E+02  0.72158983337E+02  0.00000000000E+00 0. -1.
          2   -1    0    0  501    0  0.00000000000E+00 -0.00000000000E+00 -0.28366624532E+03  0.28366624532E+03  0.00000000000E+00 0.  1.
         23    2    1    2    0    0 -0.15390732518E+02  0.63939927778E+02 -0.32775760183E+02  0.14507258189E+03  0.12508642832E+03 0.  0.
          5    1    3    3  502    0 -0.42527410911E+02 -0.22923165022E+02 -0.22295814540E+02  0.53372539001E+02  0.41800000000E+01 0.  1.
         -5    1    3    3    0  502  0.27136678393E+02  0.86863092801E+02 -0.10479945642E+02  0.91700042889E+02  0.41800000000E+01 0.  1.
        -11    1    1    2    0    0 -0.32379587350E+02 -0.24887767396E+02 -0.11504592924E+03  0.12207950064E+03  0.00000000000E+00 0.  1.
         11    1    1    2    0    0  0.47770319868E+02 -0.39052160383E+02 -0.63685572560E+02  0.88673146121E+02  0.00000000000E+00 0. -1.
</event>
<event>
 7    1  0.4966153E-006  0.1057436E+03  0.7561462E-02  0.1268661E+00
         -2   -1    0    0    0  501 -0.00000000000E+00  0.00000000000E+00  0.12148704330E+03  0.12148704330E+03  0.00000000000E+00 0.  1.
          2   -1    0    0  501    0  0.00000000000E+00 -0.00000000000E+00 -0.12501908172E+03  0.12501908172E+03  0.00000000000E+00 0. -1.
         23    2    1    2    0    0 -0.20649691325E+02 -0.45510494386E+02  0.30132702588E+02  0.13800153634E+03  0.12505530543E+03 0.  0.
          5    1    3    3  502    0 -0.14902538821E+02  0.35149170926E+02  0.41144550920E+02  0.56284068354E+02  0.41800000000E+01 0.  1.
         -5    1    3    3    0  502 -0.57471525041E+01 -0.80659665311E+02 -0.11011848333E+02  0.81717467984E+02  0.41800000000E+01 0.  1.
        -11    1    1    2    0    0  0.13519628733E+02  0.67578620640E+02 -0.45385508612E+02  0.82519662630E+02  0.00000000000E+00 0. -1.
         11    1    1    2    0    0  0.71300625921E+01 -0.22068126254E+02  0.11720767607E+02  0.25984926058E+02  0.00000000000E+00 0.  1.
</event>
<event>
 7    1  0.4966153E-006  0.1173657E+03  0.7561462E-02  0.1247507E+00
         -2   -1    0    0    0  501 -0.00000000000E+00  0.00000000000E+00  0.26478998117E+03  0.26478998117E+03  0.00000000000E+00 0. -1.
          2   -1    0    0  501    0  0.00000000000E+00 -0.00000000000E+00 -0.57954719871E+02  0.57954719871E+02  0.00000000000E+00 0.  1.
         23    2    1    2    0    0 -0.48930699579E+02  0.91400401974E+01  0.15884413300E+03  0.20822210883E+03  0.12508890567E+03 0.  0.
          5    1    3    3  502    0 -0.71327103333E+02 -0.36233710208E+02  0.12004706437E+03  0.14432327425E+03  0.41800000000E+01 0. -1.
         -5    1    3    3    0  502  0.22396403754E+02  0.45373750405E+02  0.38797068630E+02  0.63898834584E+02  0.41800000000E+01 0. -1.
        -11    1    1    2    0    0 -0.23757788279E+02  0.13985541939E+02  0.10192536603E+02  0.29392442730E+02  0.00000000000E+00 0.  1.
         11    1    1    2    0    0  0.72688487858E+02 -0.23125582137E+02  0.37798591695E+02  0.85130149479E+02  0.00000000000E+00 0. -1.
</event>
<event>
 7    1  0.4966153E-006  0.5519720E+02  0.7561462E-02  0.1419169E+00
          2   -1    0    0  501    0  0.00000000000E+00  0.00000000000E+00  0.14875338606E+03  0.14875338606E+03  0.00000000000E+00 0. -1.
         -2   -1    0    0    0  501 -0.00000000000E+00 -0.00000000000E+00 -0.97041520537E+02  0.97041520537E+02  0.00000000000E+00 0.  1.
         23    2    1    2    0    0 -0.28611001720E+02  0.38997286333E+02  0.95498688988E+01  0.13445886883E+03  0.12509440295E+03 0.  0.
          5    1    3    3  502    0 -0.32965320150E+02  0.30252880541E+02 -0.53871370193E+02  0.70153731476E+02  0.41800000000E+01 0.  1.
         -5    1    3    3    0  502  0.43543184299E+01  0.87444057920E+01  0.63421239092E+02  0.64305137350E+02  0.41800000000E+01 0.  1.
        -11    1    1    2    0    0  0.84652375239E+01 -0.32619333710E+02 -0.24331463386E+02  0.41565626286E+02  0.00000000000E+00 0.  1.
         11    1    1    2    0    0  0.20145764196E+02 -0.63779526222E+01  0.66493460015E+02  0.69770411490E+02  0.00000000000E+00 0. -1.
</event>
<event>
 6    1  0.4966153E-006  0.1553105E+03  0.7561462E-02  0.1194095E+00
          2   -1    0    0  501    0  0.00000000000E+00  0.00000000000E+00  0.13396922627E+03  0.13396922627E+03  0.00000000000E+00 0. -1.
         -2   -1    0    0    0  501 -0.00000000000E+00 -0.00000000000E+00 -0.20096368094E+03  0.20096368094E+03  0.00000000000E+00 0.  1.
          5    1    1    2  502    0 -0.38394997037E+02  0.10392077804E+02  0.19283406786E+01  0.40042002651E+02  0.41800000000E+01 0. -1.
         -5    1    1    2    0  502  0.13673559219E+03 -0.11264709148E+02 -0.83167218531E+02  0.16049228792E+03  0.41800000000E+01 0.  1.
        -11    1    1    2    0    0  0.12352960201E+02 -0.17228292627E+02 -0.89260952364E+00  0.21218068817E+02  0.00000000000E+00 0.  1.
         11    1    1    2    0    0 -0.11069355535E+03  0.18100923971E+02  0.15137032705E+02  0.11318054782E+03  0.00000000000E+00 0. -1.
</event>
<event>
 7    1  0.4966153E-006  0.1182125E+03  0.7561462E-02  0.1246075E+00
         -2   -1    0    0    0  501 -0.00000000000E+00  0.00000000000E+00  0.41790899182E+02  0.41790899182E+02  0.00000000000E+00 0.  1.
          2   -1    0    0  501    0  0.00000000000E+00 -0.00000000000E+00 -0.40336408859E+03  0.40336408859E+03  0.00000000000E+00 0. -1.
         23    2    1    2    0    0 -0.50384854558E+02  0.47286759510E+02 -0.17277125238E+03  0.22421183221E+03  0.12508544624E+03 0.  0.
          5    1    3    3  502    0 -0.52441029043E+02 -0.21709266609E+02 -0.13245743818E+03  0.14416587361E+03  0.41800000000E+01 0. -1.
         -5    1    3    3    0  502  0.20561744846E+01  0.68996026119E+02 -0.40313814205E+02  0.80045958608E+02  0.41800000000E+01 0. -1.
        -11    1    1    2    0    0 -0.17506118425E+02 -0.37999308940E+02 -0.10275092592E+03  0.11094216709E+03  0.00000000000E+00 0. -1.
         11    1    1    2    0    0  0.67890972983E+02 -0.92874505695E+01 -0.86051011102E+02  0.11000098846E+03  0.00000000000E+00 0.  1.
</event>
<event>
 7    1  0.4966153E-006  0.1608949E+03  0.7561462E-02  0.1187690E+00
          1   -1    0    0  501    0  0.00000000000E+00  0.00000000000E+00  0.71822216650E+03  0.71822216650E+03  0.00000000000E+00 0. -1.
         -1   -1    0    0    0  501 -0.00000000000E+00 -0.00000000000E+00 -0.41400621082E+02  0.41400621082E+02  0.00000000000E+00 0.  1.
         23    2    1    2    0    0  0.60872660219E+02  0.11765463575E+03  0.32009554823E+03  0.36834217039E+03  0.12516669053E+03 0.  0.
          5    1    3    3  502    0  0.53066018190E+02 -0.16207978524E+01  0.50433054241E+02  0.73345719932E+02  0.41800000000E+01 0.  1.
         -5    1    3    3    0  502  0.78066420288E+01  0.11927543360E+03  0.26966249399E+03  0.29499645046E+03  0.41800000000E+01 0.  1.
        -11    1    1    2    0    0 -0.43897129167E+02 -0.17352305476E+02  0.53005875694E+02  0.70976639203E+02  0.00000000000E+00 0.  1.
         11    1    1    2    0    0 -0.16975531052E+02 -0.10030233027E+03  0.30372012149E+03  0.32030397798E+03  0.00000000000E+00 0. -1.
</event>
<event>
 7    1  0.4966153E-006  0.1012210E+03  0.7561462E-02  0.1277749E+00
          1   -1    0    0  501    0  0.00000000000E+00  0.00000000000E+00  0.40497790196E+02  0.40497790196E+02  0.00000000000E+00 0. -1.
         -1   -1    0    0    0  501 -0.00000000000E+00 -0.00000000000E+00 -0.35326239937E+03  0.35326239937E+03  0.00000000000E+00 0.  1.
         23    2    1    2    0    0  0.74996765015E+01  0.45183896148E+02 -0.21269078991E+03  0.25094608539E+03  0.12505493210E+03 0.  0.
          5    1    3    3  502    0 -0.16885812423E+02 -0.25282619865E+02 -0.61254505672E+01  0.31294329727E+02  0.41800000000E+01 0.  1.
         -5    1    3    3    0  502  0.24385488925E+02  0.70466516012E+02 -0.20656533934E+03  0.21965175566E+03  0.41800000000E+01 0.  1.
        -11    1    1    2    0    0  0.34476618915E+02 -0.42891917769E+02 -0.77637726912E+02  0.95162863039E+02  0.00000000000E+00 0.  1.
         11    1    1    2    0    0 -0.41976295417E+02 -0.22919783790E+01 -0.22436092357E+02  0.47651241139E+02  0.00000000000E+00 0. -1.
</event>
<event>
 7    1  0.4966153E-006  0.1374051E+03  0.7561462E-02  0.1216864E+00
          3   -1    0    0  501    0  0.00000000000E+00  0.00000000000E+00  0.86643854937E+02  0.86643854937E+02  0.00000000000E+00 0. -1.
         -3   -1    0    0    0  501 -0.00000000000E+00 -0.00000000000E+00 -0.32288788173E+03  0.32288788173E+03  0.00000000000E+00 0.  1.
         23    2    1    2    0    0 -0.91073894112E+02 -0.28203584092E+02 -0.22576536462E+03  0.27515207829E+03  0.12509504381E+03 0.  0.
          5    1    3    3  502    0 -0.24593242484E+02  0.49162540652E+02 -0.75435240633E+02  0.93433029003E+02  0.41800000000E+01 0. -1.
         -5    1    3    3    0  502 -0.66480651628E+02 -0.77366124744E+02 -0.15033012398E+03  0.18171904929E+03  0.41800000000E+01 0. -1.
        -11    1    1    2    0    0  0.19335077826E+02 -0.22555895567E+02  0.25759004966E+02  0.39320986715E+02  0.00000000000E+00 0. -1.
         11    1    1    2    0    0  0.71738816286E+02  0.50759479659E+02 -0.36237667145E+02  0.95058671659E+02  0.00000000000E+00 0.  1.
</event>
<event>
 7    1  0.4966153E-006  0.7678816E+02  0.7561462E-02  0.1338421E+00
          2   -1    0    0  501    0  0.00000000000E+00  0.00000000000E+00  0.87680444200E+02  0.87680444200E+02  0.00000000000E+00 0. -1.
         -2   -1    0    0    0  501 -0.00000000000E+00 -0.00000000000E+00 -0.19289961285E+03  0.19289961285E+03  0.00000000000E+00 0.  1.
         23    2    1    2    0    0 -0.39255989102E+01 -0.37893880811E+02 -0.12346817200E+03  0.17984320634E+03  0.12509129801E+03 0.  0.
          5    1    3    3  502    0  0.16814774353E+02 -0.45712368931E+01 -0.13696140912E+03  0.13812868215E+03  0.41800000000E+01 0. -1.
         -5    1    3    3    0  502 -0.20740373264E+02 -0.33322643918E+02  0.13493237116E+02  0.41714524193E+02  0.41800000000E+01 0. -1.
        -11    1    1    2    0    0  0.81895130405E+01  0.66631431852E+02  0.23669606340E+02  0.71183327393E+02  0.00000000000E+00 0.  1.
         11    1    1    2    0    0 -0.42639141302E+01 -0.28737551040E+02 -0.54206029809E+01  0.29553523313E+02  0.00000000000E+00 0. -1.
</event>
<event>
 7    1  0.4966153E-006  0.4452595E+02  0.7561462E-02  0.1477323E+00
          1   -1    0    0  501    0  0.00000000000E+00  0.00000000000E+00  0.12717746689E+03  0.12717746689E+03  0.00000000000E+00 0. -1.
         -1   -1    0    0    0  501 -0.00000000000E+00 -0.00000000000E+00 -0.10184800910E+03  0.10184800910E+03  0.00000000000E+00 0.  1.
         23    2    1    2    0    0  0.26619169435E+02 -0.54260360038E+01 -0.56864998350E+01  0.12813357473E+03  0.12509138518E+03 0.  0.
          5    1    3    3  502    0  0.25856644922E+01  0.13900922086E+01  0.58711642621E+02  0.58933414940E+02  0.41800000000E+01 0.  1.
         -5    1    3    3    0  502  0.24033504943E+02 -0.68161282124E+01 -0.64398142456E+02  0.69200159793E+02  0.41800000000E+01 0.  1.
        -11    1    1    2    0    0 -0.21596991355E+02  0.28072414091E+02 -0.22914141275E+02  0.42184693182E+02  0.00000000000E+00 0.  1.
         11    1    1    2    0    0 -0.50221780799E+01 -0.22646378087E+02  0.53930098901E+02  0.58707208080E+02  0.00000000000E+00 0. -1.
</event>
<event>
 7    1  0.4966153E-006  0.1061539E+03  0.7561462E-02  0.1267863E+00
         -1   -1    0    0    0  501 -0.00000000000E+00  0.00000000000E+00  0.59172650074E+02  0.59172650074E+02  0.00000000000E+00 0.  1.
          1   -1    0    0  501    0  0.00000000000E+00 -0.00000000000E+00 -0.24854021477E+03  0.24854021477E+03  0.00000000000E+00 0. -1.
         23    2    1    2    0    0  0.41119286406E+02  0.83299578557E+01 -0.11762665775E+03  0.17676162161E+03  0.12509379020E+03 0.  0.
          5    1    3    3  502    0  0.71506124989E+02  0.14227279750E+01 -0.20271044445E+02  0.74454937437E+02  0.41800000000E+01 0. -1.
         -5    1    3    3    0  502 -0.30386838583E+02  0.69072298807E+01 -0.97355613309E+02  0.10230668417E+03  0.41800000000E+01 0. -1.
        -11    1    1    2    0    0 -0.45867894630E+02 -0.49672024072E+02 -0.39447273582E+02  0.78276823685E+02  0.00000000000E+00 0.  1.
         11    1    1    2    0    0  0.47486082243E+01  0.41342066217E+02 -0.32293633356E+02  0.52674419546E+02  0.00000000000E+00 0. -1.
</event>
<event>
 7    1  0.4966153E-006  0.1078043E+03  0.7561462E-02  0.1264691E+00
          2   -1    0    0  501    0  0.00000000000E+00  0.00000000000E+00  0.45823575155E+03  0.45823575155E+03  0.00000000000E+00 0.  1.
         -2   -1    0    0    0  501 -0.00000000000E+00 -0.00000000000E+00 -0.32443540026E+02  0.32443540026E+02  0.00000000000E+00 0. -1.
         23    2    1    2    0    0  0.41151110692E+02  0.27240592473E+02  0.18650342380E+03  0.22992829729E+03  0.12509209014E+03 0.  0.
          5    1    3    3  502    0  0.49333609632E+02 -0.36025469459E+02  0.49474456863E+02  0.78719970598E+02  0.41800000000E+01 0.  1.
         -5    1    3    3    0  502 -0.81824989402E+01  0.63266061932E+02  0.13702896693E+03  0.15120832669E+03  0.41800000000E+01 0.  1.
        -11    1    1    2    0    0 -0.63936173927E+00 -0.45858996710E+02  0.18449230412E+03  0.19010751338E+03  0.00000000000E+00 0.  1.
         11    1    1    2    0    0 -0.40511748953E+02  0.18618404237E+02  0.54796483606E+02  0.70643480910E+02  0.00000000000E+00 0. -1.
</event>
<event>
 6    1  0.4966153E-006  0.1069895E+03  0.7561462E-02  0.1266249E+00
          2   -1    0    0  501    0  0.00000000000E+00  0.00000000000E+00  0.62852949401E+03  0.62852949401E+03  0.00000000000E+00 0. -1.
         -2   -1    0    0    0  501 -0.00000000000E+00 -0.00000000000E+00 -0.39350399242E+02  0.39350399242E+02  0.00000000000E+00 0.  1.
          5    1    1    2  502    0  0.45700683301E+02 -0.25591145567E+02  0.37057461814E+03  0.37428128352E+03  0.41800000000E+01 0. -1.
         -5    1    1    2    0  502  0.50715997970E+02  0.52865029594E+01  0.22712857600E+02  0.55976833279E+02  0.41800000000E+01 0.  1.
        -11    1    1    2    0    0 -0.40069066299E+02 -0.16105713185E+02  0.15061840802E+03  0.15668704128E+03  0.00000000000E+00 0. -1.
         11    1    1    2    0    0 -0.56347614972E+02  0.36410355793E+02  0.45273211012E+02  0.80934735172E+02  0.00000000000E+00 0.  1.
</event>
<event>
 7    1  0.4966153E-006  0.1091957E+03  0.7561462E-02  0.1262067E+00
          2   -1    0    0  501    0  0.00000000000E+00  0.00000000000E+00  0.59996296741E+03  0.59996296741E+03  0.00000000000E+00 0. -1.
         -2   -1    0    0    0  501 -0.00000000000E+00 -0.00000000000E+00 -0.31047901158E+02  0.31047901158E+02  0.00000000000E+00 0.  1.
         23    2    1    2    0    0 -0.60049831406E+01 -0.69657724301E+02  0.20923932007E+03  0.25360690721E+03  0.12508841650E+03 0.  0.
          5    1    3    3  502    0  0.13576131530E+02  0.13779655162E+02 -0.69788529807E+01  0.20984923937E+02  0.41800000000E+01 0.  1.
         -5    1    3    3    0  502 -0.19581114670E+02 -0.83437379463E+02  0.21621817305E+03  0.23262198327E+03  0.41800000000E+01 0.  1.
        -11    1    1    2    0    0 -0.16495820960E+02  0.84333114269E+02  0.29776086638E+03  0.30991243896E+03  0.00000000000E+00 0. -1.
         11    1    1    2    0    0  0.22500804100E+02 -0.14675389968E+02  0.61914879794E+02  0.67491522400E+02  0.00000000000E+00 0.  1.
</event>
<event>
 7    1  0.4966153E-006  0.9832555E+02  0.7561462E-02  0.1283857E+00
         -2   -1    0    0    0  501 -0.00000000000E+00  0.00000000000E+00  0.26283621707E+02  0.26283621707E+02  0.00000000000E+00 0.  1.
          2   -1    0    0  501    0  0.00000000000E+00 -0.00000000000E+00 -0.57832696698E+03  0.57832696698E+03  0.00000000000E+00 0. -1.
         23    2    1    2    0    0  0.25714280392E+02  0.52569416622E+02 -0.31239864823E+03  0.34155733777E+03  0.12507490472E+03 0.  0.
          5    1    3    3  502    0 -0.20253584117E+02  0.37953392855E+01  0.99556398820E+00  0.21049366203E+02  0.41800000000E+01 0. -1.
         -5    1    3    3    0  502  0.45967864509E+02  0.48774077336E+02 -0.31339421222E+03  0.32050797157E+03  0.41800000000E+01 0. -1.
        -11    1    1    2    0    0  0.34582076125E+02 -0.19693737983E+02 -0.86733751778E+02  0.95428020006E+02  0.00000000000E+00 0.  1.
         11    1    1    2    0    0 -0.60296356517E+02 -0.32875678639E+02 -0.15291094527E+03  0.16762523091E+03  0.00000000000E+00 0. -1.
</event>
<event>
 6    1  0.4966153E-006  0.1109393E+03  0.7561462E-02  0.1258840E+00
          1   -1    0    0  501    0  0.00000000000E+00  0.00000000000E+00  0.16485367204E+03  0.16485367204E+03  0.00000000000E+00 0. -1.
         -1   -1    0    0    0  501 -0.00000000000E+00 -0.00000000000E+00 -0.13262096108E+03  0.13262096108E+03  0.00000000000E+00 0.  1.
          5    1    1    2  502    0  0.39650219192E+02  0.54415690594E+02  0.39816232811E+00  0.67459900668E+02  0.41800000000E+01 0. -1.
         -5    1    1    2    0  502 -0.49434889540E+02 -0.45940621650E+02 -0.67327341178E+02  0.95419035268E+02  0.41800000000E+01 0.  1.
        -11    1    1    2    0    0  0.22780874236E+02 -0.43687588288E+02  0.75732127993E+02  0.90348928116E+02  0.00000000000E+00 0. -1.
         11    1    1    2    0    0 -0.12996203888E+02  0.35212519344E+02  0.23429761823E+02  0.44246769070E+02  0.00000000000E+00 0.  1.
</event>
<event>
 7    1  0.4966153E-006  0.2121445E+03  0.7561462E-02  0.1139879E+00
          3   -1    0    0  501    0  0.00000000000E+00  0.00000000000E+00  0.17393738228E+03  0.17393738228E+03  0.00000000000E+00 0. -1.
         -3   -1    0    0    0  501 -0.00000000000E+00 -0.00000000000E+00 -0.29240995299E+03  0.29240995299E+03  0.00000000000E+00 0.  1.
         23    2    1    2    0    0  0.15858263859E+03 -0.11604036775E+03 -0.42240802979E+02  0.23674041079E+03  0.12509163223E+03 0.  0.
          5    1    3    3  502    0  0.13613976308E+03 -0.30966513748E+02 -0.49897651219E+02  0.14832467112E+03  0.41800000000E+01 0.  1.
         -5    1    3    3    0  502  0.22442875510E+02 -0.85073854002E+02  0.76568482394E+01  0.88415739667E+02  0.41800000000E+01 0.  1.
        -11    1    1    2    0    0 -0.86196918920E+02  0.64876722254E+02 -0.89247583142E+02  0.14001438861E+03  0.00000000000E+00 0.  1.
         11    1    1    2    0    0 -0.72385719671E+02  0.51163645495E+02  0.13015815411E+02  0.89592535870E+02  0.00000000000E+00 0. -1.
</event>
<event>
 7    1  0.4966153E-006  0.9190333E+02  0.7561462E-02  0.1298307E+00
         -1   -1    0    0    0  501 -0.00000000000E+00  0.00000000000E+00  0.26610010294E+03  0.26610010294E+03  0.00000000000E+00 0.  1.
          1   -1    0    0  501    0  0.00000000000E+00 -0.00000000000E+00 -0.50788060787E+02  0.50788060787E+02  0.00000000000E+00 0. -1.
         23    2    1    2    0    0 -0.13209879011E+02 -0.22189963035E+02  0.16806967510E+03  0.21111095535E+03  0.12511404564E+03 0.  0.
          5    1    3    3  502    0 -0.64148931909E+02 -0.35017802946E+02  0.79653330515E+02  0.10818251915E+03  0.41800000000E+01 0. -1.
         -5    1    3    3    0  502  0.50939052898E+02  0.12827839911E+02  0.88416344587E+02  0.10292843619E+03  0.41800000000E+01 0. -1.
        -11    1    1    2    0    0 -0.19884615924E+02  0.12238247235E+02 -0.19629227571E+02  0.30503757487E+02  0.00000000000E+00 0. -1.
         11    1    1    2    0    0  0.33094494935E+02  0.99517158001E+01  0.66871594625E+02  0.75273450898E+02  0.00000000000E+00 0.  1.
</event>
<event>
 7    1  0.4966153E-006  0.1353055E+03  0.7561462E-02  0.1219789E+00
         -1   -1    0    0    0  501 -0.00000000000E+00  0.00000000000E+00  0.92005078532E+02  0.92005078532E+02  0.00000000000E+00 0.  1.
          1   -1    0    0  501    0  0.00000000000E+00 -0.00000000000E+00 -0.23364523065E+03  0.23364523065E+03  0.00000000000E+00 0. -1.
         23    2    1    2    0    0  0.55501074550E+02 -0.69017950614E+02 -0.29696273088E+02  0.15611627615E+03  0.12508627527E+03 0.  0.
          5    1    3    3  502    0 -0.21208606138E+02  0.17955178889E+02 -0.28560264825E+02  0.40066875971E+02  0.41800000000E+01 0.  1.
         -5    1    3    3    0  502  0.76709680688E+02 -0.86973129503E+02 -0.11360082635E+01  0.11604940018E+03  0.41800000000E+01 0.  1.
        -11    1    1    2    0    0  0.64772850435E+01  0.63954006514E+02 -0.47088128408E+02  0.79682884033E+02  0.00000000000E+00 0.  1.
         11    1    1    2    0    0 -0.61978359594E+02  0.50639441002E+01 -0.64855750619E+02  0.89851148998E+02  0.00000000000E+00 0. -1.
</event>
<event>
 7    1  0.4966153E-006  0.8794725E+02  0.7561462E-02  0.1307900E+00
          1   -1    0    0  501    0  0.00000000000E+00  0.00000000000E+00  0.88509618321E+02  0.88509618321E+02  0.00000000000E+00 0. -1.
         -1   -1    0    0    0  501 -0.00000000000E+00 -0.00000000000E+00 -0.19356058725E+03  0.19356058725E+03  0.00000000000E+00 0.  1.
         23    2    1    2    0    0  0.53904660255E+02  0.29731922631E+02 -0.99535094589E+02  0.17130320418E+03  0.12509137895E+03 0.  0.
          5    1    3    3  502    0  0.41995668540E+02 -0.14538008877E+02 -0.11450388854E+03  0.12289671586E+03  0.41800000000E+01 0.  1.
         -5    1    3    3    0  502  0.11908991715E+02  0.44269931508E+02  0.14968793949E+02  0.48406488322E+02  0.41800000000E+01 0.  1.
        -11    1    1    2    0    0 -0.32812407200E+02  0.14764486318E+02  0.32555768625E+02  0.48523419019E+02  0.00000000000E+00 0. -1.
         11    1    1    2    0    0 -0.21092253055E+02 -0.44496408949E+02 -0.38071642961E+02  0.62243582369E+02  0.00000000000E+00 0.  1.
</event>
<event>
 7    1  0.4966153E-006  0.2423038E+03  0.7561462E-02  0.1118268E+00
         -1   -1    0    0    0  501 -0.00000000000E+00  0.00000000000E+00  0.98769510584E+02  0.98769510584E+02  0.00000000000E+00 0.  1.
          1   -1    0    0  501    0  0.00000000000E+00 -0.00000000000E+00 -0.66545266681E+03  0.66545266681E+03  0.00000000000E+00 0. -1.
         23    2    1    2    0    0  0.85799852372E+02 -0.20825408440E+03 -0.21154609609E+03  0.33336474846E+03  0.12509566902E+03 0.  0.
          5    1    3    3  502    0 -0.34040464706E+01 -0.15102255362E+03 -0.11445660365E+03  0.18957105727E+03  0.41800000000E+01 0.  1.
         -5    1    3    3    0  502  0.89203898843E+02 -0.57231530776E+02 -0.97089492446E+02  0.14379369119E+03  0.41800000000E+01 0.  1.
        -11    1    1    2    0    0 -0.82011870212E+01  0.55346278705E+02 -0.30514958431E+02  0.63730940077E+02  0.00000000000E+00 0.  1.
         11    1    1    2    0    0 -0.77598665351E+02  0.15290780569E+03 -0.32462210170E+03  0.36712648885E+03  0.00000000000E+00 0. -1.
</event>
<event>
 6    1  0.4966153E-006  0.1311003E+03  0.7561462E-02  0.1225832E+00
          4   -1    0    0  501    0  0.00000000000E+00  0.00000000000E+00  0.11938339649E+03  0.11938339649E+03  0.00000000000E+00 0. -1.
         -4   -1    0    0    0  501 -0.00000000000E+00 -0.00000000000E+00 -0.29227113786E+03  0.29227113786E+03  0.00000000000E+00 0.  1.
          5    1    1    2  502    0 -0.25933509325E+02  0.87965603351E+02 -0.37992143975E+02  0.99354766784E+02  0.41800000000E+01 0. -1.
         -5    1    1    2    0  502  0.80492108131E+02 -0.20737597283E+02 -0.15441759650E+03  0.17541748465E+03  0.41800000000E+01 0.  1.
        -11    1    1    2    0    0 -0.31388602617E+02 -0.46375180600E+02 -0.40594151058E+02  0.69164924998E+02  0.00000000000E+00 0.  1.
         11    1    1    2    0    0 -0.23169996189E+02 -0.20852825468E+02  0.60116150156E+02  0.67717357915E+02  0.00000000000E+00 0. -1.
</event>
<event>
 7    1  0.4966153E-006  0.1253805E+03  0.7561462E-02  0.1234476E+00
          1   -1    0    0  501    0  0.00000000000E+00  0.00000000000E+00  0.90459405031E+02  0.90459405031E+02  0.00000000000E+00 0.  1.
         -1   -1    0    0    0  501 -0.00000000000E+00 -0.00000000000E+00 -0.20577195129E+03  0.20577195129E+03  0.00000000000E+00 0. -1.
         23    2    1    2    0    0  0.14974088041E+02  0.67836697315E+02 -0.11529589593E+03  0.18375508587E+03  0.12508695835E+03 0.  0.
          5    1    3    3  502    0  0.15372861808E+02  0.10251278931E+03 -0.64672094753E+02  0.12225035416E+03  0.41800000000E+01 0. -1.
         -5    1    3    3    0  502 -0.39877376693E+00 -0.34676091999E+02 -0.50623801175E+02  0.61504731706E+02  0.41800000000E+01 0. -1.
        -11    1    1    2    0    0 -0.39881536792E+02 -0.76040674839E+02  0.39440354521E+01  0.85955084914E+02  0.00000000000E+00 0.  1.
         11    1    1    2    0    0  0.24907448751E+02  0.82039775237E+01 -0.39606857840E+01  0.26521185539E+02  0.00000000000E+00 0. -1.
</event>
<event>
 7    1  0.4966153E-006  0.1118082E+03  0.7561462E-02  0.1257258E+00
         -3   -1    0    0    0  501 -0.00000000000E+00  0.00000000000E+00  0.23357180045E+02  0.23357180045E+02  0.00000000000E+00 0.  1.
          3   -1    0    0  501    0  0.00000000000E+00 -0.00000000000E+00 -0.55910822346E+03  0.55910822346E+03  0.00000000000E+00 0. -1.
         23    2    1    2    0    0  0.35647275098E+01 -0.35708837629E+02 -0.28584433986E+03  0.31407251967E+03  0.12508690024E+03 0.  0.
          5    1    3    3  502    0 -0.47340988486E+02  0.22092126442E+02 -0.10123915707E+03  0.11400030950E+03  0.41800000000E+01 0. -1.
         -5    1    3    3    0  502  0.50905715995E+02 -0.57800964071E+02 -0.18460518279E+03  0.20007221017E+03  0.41800000000E+01 0. -1.
        -11    1    1    2    0    0  0.30792386400E+02  0.48468269879E+02 -0.11419618950E+03  0.12782063191E+03  0.00000000000E+00 0.  1.
         11    1    1    2    0    0 -0.34357113910E+02 -0.12759432250E+02 -0.13571051406E+03  0.14057225193E+03  0.00000000000E+00 0. -1.
</event>
<event>
 7    1  0.4966153E-006  0.1807838E+03  0.7561462E-02  0.1167047E+00
         -1   -1    0    0    0  501 -0.00000000000E+00  0.00000000000E+00  0.69215006232E+03  0.69215006232E+03  0.00000000000E+00 0.  1.
          1   -1    0    0  501    0  0.00000000000E+00 -0.00000000000E+00 -0.62692756905E+02  0.62692756905E+02  0.00000000000E+00 0. -1.
         23    2    1    2    0    0 -0.23448585175E+02  0.14881724927E+03  0.49785784677E+03  0.53498376941E+03  0.12509511629E+03 0.  0.
          5    1    3    3  502    0 -0.38139030597E+02  0.26262481996E+01  0.46761761521E+02  0.60544343873E+02  0.41800000000E+01 0.  1.
         -5    1    3    3    0  502  0.14690445422E+02  0.14619100107E+03  0.45109608525E+03  0.47443942554E+03  0.41800000000E+01 0.  1.
        -11    1    1    2    0    0 -0.23914340158E+02 -0.46321262937E+01  0.18231660387E+02  0.30426069409E+02  0.00000000000E+00 0. -1.
         11    1    1    2    0    0  0.47362925333E+02 -0.14418512297E+03  0.11336779826E+03  0.18943298040E+03  0.00000000000E+00 0.  1.
</event>
<event>
 6    1  0.4966153E-006  0.9655894E+02  0.7561462E-02  0.1287703E+00
         -2   -1    0    0    0  501 -0.00000000000E+00  0.00000000000E+00  0.55952078355E+02  0.55952078355E+02  0.00000000000E+00 0.  1.
          2   -1    0    0  501    0  0.00000000000E+00 -0.00000000000E+00 -0.32605135076E+03  0.32605135076E+03  0.00000000000E+00 0. -1.
          5    1    1    2  502    0  0.29224027256E+02  0.32605510111E+02 -0.14183379918E+03  0.14849734694E+03  0.41800000000E+01 0. -1.
         -5    1    1    2    0  502 -0.57326552049E+02 -0.29881237028E+02  0.10306335066E+02  0.65596606914E+02  0.41800000000E+01 0.  1.
        -11    1    1    2    0    0  0.10817162348E+02  0.38319166660E+02 -0.27915540621E+02  0.48627635589E+02  0.00000000000E+00 0.  1.
         11    1    1    2    0    0  0.17285362445E+02 -0.41043439743E+02 -0.11065626767E+03  0.11928183968E+03  0.00000000000E+00 0. -1.
</event>
<event>
 7    1  0.4966153E-006  0.1319810E+03  0.7561462E-02  0.1224545E+00
          2   -1    0    0  501    0  0.00000000000E+00  0.00000000000E+00  0.10315145699E+04  0.10315145699E+04  0.00000000000E+00 0. -1.
         -2   -1    0    0    0  501 -0.00000000000E+00 -0.00000000000E+00 -0.21468909852E+02  0.21468909852E+02  0.00000000000E+00 0.  1.
         23    2    1    2    0    0 -0.90809486323E+02 -0.14206556317E+02  0.39447380744E+03  0.42391695555E+03  0.12509121231E+03 0.  0.
          5    1    3    3  502    0  0.56939529712E+00  0.32747307601E+02  0.27999189641E+02  0.43291308443E+02  0.41800000000E+01 0.  1.
         -5    1    3    3    0  502 -0.91378881620E+02 -0.46953863919E+02  0.36647461780E+03  0.38062564711E+03  0.41800000000E+01 0.  1.
        -11    1    1    2    0    0  0.10331497549E+02  0.41790615059E+02  0.25390295497E+03  0.25752651493E+03  0.00000000000E+00 0.  1.
         11    1    1    2    0    0  0.80477988774E+02 -0.27584058742E+02  0.36166889761E+03  0.37154000925E+03  0.00000000000E+00 0. -1.
</event>
<event>
 7    1  0.4966153E-006  0.1543973E+03  0.7561462E-02  0.1195171E+00
         -2   -1    0    0    0  501 -0.00000000000E+00  0.00000000000E+00  0.13792355331E+04  0.13792355331E+04  0.00000000000E+00 0.  1.
          2   -1    0    0  501    0  0.00000000000E+00 -0.00000000000E+00 -0.20542785629E+02  0.20542785629E+02  0.00000000000E+00 0. -1.
         23    2    1    2    0    0 -0.42389607687E+02 -0.10759170776E+03  0.97190564547E+03  0.98672223543E+03  0.12508929521E+03 0.  0.
          5    1    3    3  502    0 -0.27636159521E+02 -0.13248279293E+03  0.87776492908E+03  0.88814649177E+03  0.41800000000E+01 0.  1.
         -5    1    3    3    0  502 -0.14753448166E+02  0.24891085174E+02  0.94140716393E+02  0.98575743654E+02  0.41800000000E+01 0.  1.
        -11    1    1    2    0    0  0.58080876331E+02  0.30722813109E+02  0.15500353408E+03  0.16835490792E+03  0.00000000000E+00 0. -1.
         11    1    1    2    0    0 -0.15691268645E+02  0.76868894651E+02  0.23178356789E+03  0.24470117536E+03  0.00000000000E+00 0.  1.
</event>
<event>
 7    1  0.4966153E-006  0.9445393E+02  0.7561462E-02  0.1292411E+00
          4   -1    0    0  501    0  0.00000000000E+00  0.00000000000E+00  0.13058523316E+03  0.13058523316E+03  0.00000000000E+00 0.  1.
         -4   -1    0    0    0  501 -0.00000000000E+00 -0.00000000000E+00 -0.13564800513E+03  0.13564800513E+03  0.00000000000E+00 0. -1.
         23    2    1    2    0    0 -0.75147485772E+01  0.46009489706E+02 -0.13054062725E+02  0.13412982474E+03  0.12508819586E+03 0.  0.
          5    1    3    3  502    0  0.40410683921E+02  0.23360344672E+02 -0.50653204804E+02  0.69006873825E+02  0.41800000000E+01 0.  1.
         -5    1    3    3    0  502 -0.47925432499E+02  0.22649145034E+02  0.37599142080E+02  0.65122950917E+02  0.41800000000E+01 0.  1.
        -11    1    1    2    0    0 -0.33917462684E+02 -0.14827970128E+02  0.52178469870E+02  0.63975430370E+02  0.00000000000E+00 0.  1.
         11    1    1    2    0    0  0.41432211261E+02 -0.31181519578E+02 -0.44187179120E+02  0.68127983177E+02  0.00000000000E+00 0. -1.
</event>
<event>
 7    1  0.4966153E-006  0.9162926E+02  0.7561462E-02  0.1298954E+00
         -2   -1    0    0    0  501 -0.00000000000E+00  0.00000000000E+00  0.35352897666E+03  0.35352897666E+03  0.00000000000E+00 0.  1.
          2   -1    0    0  501    0  0.00000000000E+00 -0.00000000000E+00 -0.63330338377E+02  0.63330338377E+02  0.00000000000E+00 0. -1.
         23    2    1    2    0    0 -0.77732225264E+02  0.23481379060E+02  0.24509358874E+03  0.28691759206E+03  0.12512858741E+03 0.  0.
          5    1    3    3  502    0 -0.81383990612E+02  0.34243418943E+02  0.25586973425E+03  0.27070788495E+03  0.41800000000E+01 0.  1.
         -5    1    3    3    0  502  0.36517653480E+01 -0.10762039882E+02 -0.10776145511E+02  0.16209707112E+02  0.41800000000E+01 0.  1.
        -11    1    1    2    0    0  0.49581598378E+02 -0.68318320437E+01 -0.22474146997E+02  0.54864342792E+02  0.00000000000E+00 0. -1.
         11    1    1    2    0    0  0.28150626886E+02 -0.16649547017E+02  0.67579196536E+02  0.75077380178E+02  0.00000000000E+00 0.  1.
</event>
<event>
 7    1  0.4966153E-006  0.7783232E+02  0.7561462E-02  0.1335318E+00
         -1   -1    0    0    0  501 -0.00000000000E+00  0.00000000000E+00  0.11385480795E+03  0.11385480795E+03  0.00000000000E+00 0.  1.
          1   -1    0    0  501    0  0.00000000000E+00 -0.00000000000E+00 -0.13770587896E+03  0.13770587896E+03  0.00000000000E+00 0. -1.
         23    2    1    2    0    0  0.62150768695E+02  0.80579980911E+00 -0.27360145029E+02  0.14233315174E+03  0.12508709440E+03 0.  0.
          5    1    3    3  502    0 -0.10498124753E+02 -0.15016249606E+02 -0.58627672536E+02  0.61566019545E+02  0.41800000000E+01 0. -1.
         -5    1    3    3    0  502  0.72648893448E+02  0.15822049415E+02  0.31267527508E+02  0.80767132197E+02  0.41800000000E+01 0. -1.
        -11    1    1    2    0    0 -0.49351522522E+02 -0.28838242085E+01 -0.40148439464E+02  0.63685056400E+02  0.00000000000E+00 0. -1.
         11    1    1    2    0    0 -0.12799246173E+02  0.20780243994E+01  0.43657513486E+02  0.45542478762E+02  0.00000000000E+00 0.  1.
</event>
<event>
 7    1  0.4966153E-006  0.1337854E+03  0.7561462E-02  0.1221945E+00
         -1   -1    0    0    0  501 -0.00000000000E+00  0.00000000000E+00  0.12769214695E+03  0.12769214695E+03  0.00000000000E+00 0.  1.
          1   -1    0    0  501    0  0.00000000000E+00 -0.00000000000E+00 -0.15040796985E+03  0.15040796985E+03  0.00000000000E+00 0. -1.
         23    2    1    2    0    0 -0.11173951207E+02 -0.84063665160E+02 -0.97822080368E+00  0.15112861565E+03  0.12508934633E+03 0.  0.
          5    1    3    3  502    0 -0.10818011795E+01 -0.11613572926E+03  0.66252148936E+01  0.11640465530E+03  0.41800000000E+01 0. -1.
         -5    1    3    3    0  502 -0.10092150028E+02  0.32072064096E+02 -0.76034356973E+01  0.34723960344E+02  0.41800000000E+01 0. -1.
        -11    1    1    2    0    0 -0.34639180728E+02  0.47871719133E+02 -0.32749298893E+02  0.67558055865E+02  0.00000000000E+00 0. -1.
         11    1    1    2    0    0  0.45813131935E+02  0.36191946027E+02  0.11011696791E+02  0.59413445289E+02  0.00000000000E+00 0.  1.
</event>
<event>
 7    1  0.4966153E-006  0.1230446E+03  0.7561462E-02  0.1238157E+00
          1   -1    0    0  501    0  0.00000000000E+00  0.00000000000E+00  0.16829839932E+03  0.16829839932E+03  0.00000000000E+00 0. -1.
         -1   -1    0    0    0  501 -0.00000000000E+00 -0.00000000000E+00 -0.36078941850E+03  0.36078941850E+03  0.00000000000E+00 0.  1.
         23    2    1    2    0    0 -0.91868903040E+02 -0.25129960677E+01 -0.31416940132E+03  0.35042223476E+03  0.12508844628E+03 0.  0.
          5    1    3    3  502    0 -0.79197057593E+02 -0.29953063682E+02 -0.87955245397E+02  0.12215955774E+03  0.41800000000E+01 0. -1.
         -5    1    3    3    0  502 -0.12671845447E+02  0.27440067614E+02 -0.22621415592E+03  0.22826267701E+03  0.41800000000E+01 0. -1.
        -11    1    1    2    0    0  0.95565952123E+02 -0.28377884300E+02  0.91219740533E+02  0.13512659466E+03  0.00000000000E+00 0.  1.
         11    1    1    2    0    0 -0.36970490830E+01  0.30890880368E+02  0.30458641611E+02  0.43538988397E+02  0.00000000000E+00 0. -1.
</event>
<event>
 7    1  0.4966153E-006  0.1315293E+03  0.7561462E-02  0.1225204E+00
         -1   -1    0    0    0  501 -0.00000000000E+00  0.00000000000E+00  0.46959610479E+02  0.46959610479E+02  0.00000000000E+00 0.  1.
          1   -1    0    0  501    0  0.00000000000E+00 -0.00000000000E+00 -0.40280906667E+03  0.40280906667E+03  0.00000000000E+00 0. -1.
         23    2    1    2    0    0  0.23590297568E+02 -0.80459226796E+02 -0.23071659484E+03  0.27386892214E+03  0.12142425649E+03 0.  0.
          5    1    3    3  502    0  0.65773208264E+02 -0.70122680907E+02 -0.19511331957E+03  0.21755455678E+03  0.41800000000E+01 0. -1.
         -5    1    3    3    0  502 -0.42182910696E+02 -0.10336545890E+02 -0.35603275273E+02  0.56314365360E+02  0.41800000000E+01 0.  1.
        -11    1    1    2    0    0  0.74198364540E+01  0.90342780054E+02 -0.85412725887E+02  0.12454800530E+03  0.00000000000E+00 0.  1.
         11    1    1    2    0    0 -0.31010134022E+02 -0.98835532572E+01 -0.39720135468E+02  0.51351749714E+02  0.00000000000E+00 0. -1.
</event>
<event>
 6    1  0.4966153E-006  0.1919444E+03  0.7561462E-02  0.1156719E+00
         -1   -1    0    0    0  501 -0.00000000000E+00  0.00000000000E+00  0.49138834605E+02  0.49138834605E+02  0.00000000000E+00 0.  1.
          1   -1    0    0  501    0  0.00000000000E+00 -0.00000000000E+00 -0.76435812837E+03  0.76435812837E+03  0.00000000000E+00 0. -1.
          5    1    1    2  502    0  0.12497379665E+03 -0.17891539187E+02 -0.29031985430E+03  0.31660961328E+03  0.41800000000E+01 0. -1.
         -5    1    1    2    0  502 -0.14885416612E+03 -0.25417416773E+02 -0.24578878146E+03  0.28850165570E+03  0.41800000000E+01 0.  1.
        -11    1    1    2    0    0 -0.34469295698E+02  0.10956377308E+01 -0.58728398838E+02  0.68105488751E+02  0.00000000000E+00 0.  1.
         11    1    1    2    0    0  0.58349665169E+02  0.42213318229E+02 -0.12038225916E+03  0.14028020524E+03  0.00000000000E+00 0. -1.
</event>
<event>
 7    1  0.4966153E-006  0.1133354E+03  0.7561462E-02  0.1254515E+00
         -2   -1    0    0    0  501 -0.00000000000E+00  0.00000000000E+00  0.51700261680E+02  0.51700261680E+02  0.00000000000E+00 0.  1.
          2   -1    0    0  501    0  0.00000000000E+00 -0.00000000000E+00 -0.28663223721E+03  0.28663223721E+03  0.00000000000E+00 0. -1.
         23    2    1    2    0    0 -0.43071643656E+02 -0.24131357154E+02 -0.98120303187E+02  0.16647005761E+03  0.12508875768E+03 0.  0.
          5    1    3    3  502    0 -0.28486664600E+02  0.44191974182E+02 -0.77061326508E+02  0.93382766533E+02  0.41800000000E+01 0.  1.
         -5    1    3    3    0  502 -0.14584979056E+02 -0.68323331335E+02 -0.21058976679E+02  0.73087291081E+02  0.41800000000E+01 0.  1.
        -11    1    1    2    0    0 -0.27472574550E+02 -0.44398020106E+01 -0.33763101795E+02  0.43753871110E+02  0.00000000000E+00 0. -1.
         11    1    1    2    0    0  0.70544218206E+02  0.28571159164E+02 -0.10304857055E+03  0.12810857017E+03  0.00000000000E+00 0.  1.
</event>
<event>
 7    1  0.4966153E-006  0.1582520E+03  0.7561462E-02  0.1190684E+00
         -2   -1    0    0    0  501 -0.00000000000E+00  0.00000000000E+00  0.22702299062E+03  0.22702299062E+03  0.00000000000E+00 0.  1.
          2   -1    0    0  501    0  0.00000000000E+00 -0.00000000000E+00 -0.18922810015E+03  0.18922810015E+03  0.00000000000E+00 0. -1.
         23    2    1    2    0    0  0.45744444830E+01  0.12269024411E+03  0.13542098812E+03  0.22149484576E+03  0.12508917272E+03 0.  0.
          5    1    3    3  502    0  0.28866861141E+02  0.68858428524E+01  0.89701318663E+02  0.94575416858E+02  0.41800000000E+01 0. -1.
         -5    1    3    3    0  502 -0.24292416658E+02  0.11580440125E+03  0.45719669460E+02  0.12691942890E+03  0.41800000000E+01 0. -1.
        -11    1    1    2    0    0  0.54952609124E+02 -0.66616430523E+02 -0.56710514473E+02  0.10331321560E+03  0.00000000000E+00 0.  1.
         11    1    1    2    0    0 -0.59527053607E+02 -0.56073813583E+02 -0.40915583182E+02  0.91443029412E+02  0.00000000000E+00 0. -1.
</event>
<event>
 7    1  0.4966153E-006  0.3801731E+03  0.7561462E-02  0.1050870E+00
          1   -1    0    0  501    0  0.00000000000E+00  0.00000000000E+00  0.13555907114E+04  0.13555907114E+04  0.00000000000E+00 0. -1.
         -1   -1    0    0    0  501 -0.00000000000E+00 -0.00000000000E+00 -0.21614270850E+03  0.21614270850E+03  0.00000000000E+00 0.  1.
         23    2    1    2    0    0 -0.50679583282E+02 -0.36792629665E+03  0.20314843136E+02  0.38909247231E+03  0.11420192304E+03 0.  0.
          5    1    3    3  502    0 -0.66450786777E+02 -0.10637973595E+03 -0.65170839339E+01  0.12566741848E+03  0.41800000000E+01 0. -1.
         -5    1    3    3    0  502  0.15771203495E+02 -0.26154656071E+03  0.26831927070E+02  0.26342505383E+03  0.41800000000E+01 0.  1.
        -11    1    1    2    0    0  0.17530447589E+02  0.47065196278E+02  0.26307066104E+03  0.26782199684E+03  0.00000000000E+00 0.  1.
         11    1    1    2    0    0  0.33149135693E+02  0.32086110037E+03  0.85606249876E+03  0.91481895078E+03  0.00000000000E+00 0. -1.
</event>
<event>
 7    1  0.4966153E-006  0.1227828E+03  0.7561462E-02  0.1238576E+00
         -1   -1    0    0    0  501 -0.00000000000E+00  0.00000000000E+00  0.11543865308E+03  0.11543865308E+03  0.00000000000E+00 0.  1.
          1   -1    0    0  501    0  0.00000000000E+00 -0.00000000000E+00 -0.23267546654E+03  0.23267546654E+03  0.00000000000E+00 0. -1.
         23    2    1    2    0    0 -0.32188569170E+02  0.79301785870E+02  0.30680459552E+02  0.15464067457E+03  0.12509024904E+03 0.  0.
          5    1    3    3  502    0 -0.63614545476E+02  0.10587006088E+02  0.43480243037E+02  0.77890301249E+02  0.41800000000E+01 0.  1.
         -5    1    3    3    0  502  0.31425976306E+02  0.68714779782E+02 -0.12799783485E+02  0.76750373319E+02  0.41800000000E+01 0.  1.
        -11    1    1    2    0    0  0.50325409554E+02 -0.64780642750E+02 -0.57647705468E+02  0.10026183954E+03  0.00000000000E+00 0.  1.
         11    1    1    2    0    0 -0.18136840384E+02 -0.14521143120E+02 -0.90269567545E+02  0.93211605508E+02  0.00000000000E+00 0. -1.
</event>
<event>
 7    1  0.4966153E-006  0.8229502E+02  0.7561462E-02  0.1322662E+00
          2   -1    0    0  501    0  0.00000000000E+00  0.00000000000E+00  0.30103625930E+02  0.30103625930E+02  0.00000000000E+00 0. -1.
         -2   -1    0    0    0  501 -0.00000000000E+00 -0.00000000000E+00 -0.57468485460E+03  0.57468485460E+03  0.00000000000E+00 0.  1.
         23    2    1    2    0    0  0.13935177102E+01 -0.55252198045E+02 -0.40842969708E+03  0.43070959539E+03  0.12506474653E+03 0.  0.
          5    1    3    3  502    0  0.43281932146E+01 -0.21860465829E+02 -0.39286054567E+03  0.39351428686E+03  0.41800000000E+01 0. -1.
         -5    1    3    3    0  502 -0.29346755044E+01 -0.33391732216E+02 -0.15569151407E+02  0.37195308525E+02  0.41800000000E+01 0. -1.
        -11    1    1    2    0    0 -0.86225793952E+01 -0.25573586186E+02 -0.28262269517E+02  0.39078294028E+02  0.00000000000E+00 0. -1.
         11    1    1    2    0    0  0.72290616850E+01  0.80825784232E+02 -0.10788926208E+03  0.13500059111E+03  0.00000000000E+00 0.  1.
</event>
<event>
 7    1  0.4966153E-006  0.8223357E+02  0.7561462E-02  0.1322830E+00
          2   -1    0    0  501    0  0.00000000000E+00  0.00000000000E+00  0.10082475899E+03  0.10082475899E+03  0.00000000000E+00 0. -1.
         -2   -1    0    0    0  501 -0.00000000000E+00 -0.00000000000E+00 -0.13201431652E+03  0.13201431652E+03  0.00000000000E+00 0.  1.
         23    2    1    2    0    0 -0.15389519562E+02  0.12080056099E+02 -0.53025354334E+02  0.13726446327E+03  0.12508828725E+03 0.  0.
          5    1    3    3  502    0  0.64423622690E+01  0.38453969274E+02 -0.82853138173E+02  0.91664206153E+02  0.41800000000E+01 0.  1.
         -5    1    3    3    0  502 -0.21831881831E+02 -0.26373913175E+02  0.29827783839E+02  0.45600257118E+02  0.41800000000E+01 0.  1.
        -11    1    1    2    0    0  0.81203324395E+01  0.38660127374E+02  0.20013126426E+02  0.44283975396E+02  0.00000000000E+00 0. -1.
         11    1    1    2    0    0  0.72691871227E+01 -0.50740183473E+02  0.18226703699E+01  0.51290636842E+02  0.00000000000E+00 0.  1.
</event>
<event>
 7    1  0.4966153E-006  0.4839455E+02  0.7561462E-02  0.1454198E+00
         -1   -1    0    0    0  501 -0.00000000000E+00  0.00000000000E+00  0.60318137808E+02  0.60318137808E+02  0.00000000000E+00 0.  1.
          1   -1    0    0  501    0  0.00000000000E+00 -0.00000000000E+00 -0.21526003794E+03  0.21526003794E+03  0.00000000000E+00 0. -1.
         23    2    1    2    0    0 -0.13412529235E+02  0.14093661928E+02 -0.54021606090E+02  0.13765292644E+03  0.12510582315E+03 0.  0.
          5    1    3    3  502    0  0.15143327557E+02  0.11744117155E+02 -0.89633700693E+02  0.91754658503E+02  0.41800000000E+01 0. -1.
         -5    1    3    3    0  502 -0.28555856792E+02  0.23495447735E+01  0.35612094603E+02  0.45898267939E+02  0.41800000000E+01 0. -1.
        -11    1    1    2    0    0  0.13351810297E+02 -0.29725944710E+02 -0.11335779083E+03  0.11794868108E+03  0.00000000000E+00 0. -1.
         11    1    1    2    0    0  0.60718937696E-01  0.15632282781E+02  0.12437496787E+02  0.19976568225E+02  0.00000000000E+00 0.  1.
</event>
<event>
 7    1  0.4966153E-006  0.9593783E+02  0.7561462E-02  0.1289078E+00
         -1   -1    0    0    0  501 -0.00000000000E+00  0.00000000000E+00  0.82397546301E+03  0.82397546301E+03  0.00000000000E+00 0.  1.
          1   -1    0    0  501    0  0.00000000000E+00 -0.00000000000E+00 -0.17588588117E+02  0.17588588117E+02  0.00000000000E+00 0. -1.
         23    2    1    2    0    0 -0.52333145535E+01 -0.18805080155E+02  0.63109421876E+03  0.64366847914E+03  0.12509268352E+03 0.  0.
          5    1    3    3  502    0 -0.20934368154E+02  0.41682036927E+02  0.44195223245E+03  0.44442647101E+03  0.41800000000E+01 0. -1.
         -5    1    3    3    0  502  0.15701053601E+02 -0.60487117082E+02  0.18914198631E+03  0.19924200813E+03  0.41800000000E+01 0. -1.
        -11    1    1    2    0    0  0.16686731730E+02  0.48125089633E+02  0.14698898882E+03  0.15556424429E+03  0.00000000000E+00 0.  1.
         11    1    1    2    0    0 -0.11453417176E+02 -0.29320009477E+02  0.28303667316E+02  0.42331327693E+02  0.00000000000E+00 0. -1.
</event>
<event>
 7    1  0.4966153E-006  0.1037576E+03  0.7561462E-02  0.1272587E+00
         -2   -1    0    0    0  501 -0.00000000000E+00  0.00000000000E+00  0.51000227965E+02  0.51000227965E+02  0.00000000000E+00 0.  1.
          2   -1    0    0  501    0  0.00000000000E+00 -0.00000000000E+00 -0.23873120469E+03  0.23873120469E+03  0.00000000000E+00 0. -1.
         23    2    1    2    0    0 -0.19090365721E+02 -0.83406871104E+01 -0.10102110003E+03  0.16210060015E+03  0.12504932145E+03 0.  0.
          5    1    3    3  502    0  0.31533229919E+02  0.43696020522E+02 -0.43860547071E+02  0.69605364649E+02  0.41800000000E+01 0. -1.
         -5    1    3    3    0  502 -0.50623595640E+02 -0.52036707632E+02 -0.57160552957E+02  0.92495235505E+02  0.41800000000E+01 0. -1.
        -11    1    1    2    0    0  0.49406464906E+02  0.39359562857E+00 -0.82285763910E+02  0.95979688655E+02  0.00000000000E+00 0.  1.
         11    1    1    2    0    0 -0.30316099186E+02  0.79470914818E+01 -0.44241127873E+01  0.31651143847E+02  0.00000000000E+00 0. -1.
</event>
<event>
 7    1  0.4966153E-006  0.1285142E+03  0.7561462E-02  0.1229677E+00
          2   -1    0    0  501    0  0.00000000000E+00  0.00000000000E+00  0.10695687828E+03  0.10695687828E+03  0.00000000000E+00 0. -1.
         -2   -1    0    0    0  501 -0.00000000000E+00 -0.00000000000E+00 -0.17283440476E+03  0.17283440476E+03  0.00000000000E+00 0.  1.
         23    2    1    2    0    0  0.49950910515E+02  0.61813307186E+02 -0.45418931501E+02  0.15500225158E+03  0.12508733049E+03 0.  0.
          5    1    3    3  502    0 -0.26782668035E+02 -0.20158807031E+02 -0.21744615390E+02  0.40174488254E+02  0.41800000000E+01 0. -1.
         -5    1    3    3    0  502  0.76733578550E+02  0.81972114217E+02 -0.23674316110E+02  0.11482776332E+03  0.41800000000E+01 0. -1.
        -11    1    1    2    0    0  0.99410073912E+01  0.12160595716E+02 -0.24973599734E+02  0.29502277875E+02  0.00000000000E+00 0.  1.
         11    1    1    2    0    0 -0.59891917906E+02 -0.73973902902E+02  0.45150047555E+01  0.95286753586E+02  0.00000000000E+00 0. -1.
</event>
<event>
 6    1  0.4966153E-006  0.1684409E+03  0.7561462E-02  0.1179484E+00
         -1   -1    0    0    0  501 -0.00000000000E+00  0.00000000000E+00  0.16158284210E+03  0.16158284210E+03  0.00000000000E+00 0.  1.
          1   -1    0    0  501    0  0.00000000000E+00 -0.00000000000E+00 -0.28040785796E+03  0.28040785796E+03  0.00000000000E+00 0. -1.
          5    1    1    2  502    0  0.11865616594E+03 -0.14853083827E+02 -0.15112180395E+03  0.19275676861E+03  0.41800000000E+01 0. -1.
         -5    1    1    2    0  502 -0.13407294225E+03 -0.35592883424E+02  0.36252594233E+02  0.14343685086E+03  0.41800000000E+01 0.  1.
        -11    1    1    2    0    0  0.33556916001E+02  0.11482051788E+02 -0.37247102817E+02  0.51432001643E+02  0.00000000000E+00 0. -1.
         11    1    1    2    0    0 -0.18140139684E+02  0.38963915463E+02  0.33291296673E+02  0.54365078958E+02  0.00000000000E+00 0.  1.
</event>
<event>
 7    1  0.4966153E-006  0.7425836E+02  0.7561462E-02  0.1346183E+00
         -1   -1    0    0    0  501 -0.00000000000E+00  0.00000000000E+00  0.33524247954E+03  0.33524247954E+03  0.00000000000E+00 0.  1.
          1   -1    0    0  501    0  0.00000000000E+00 -0.00000000000E+00 -0.49882183008E+02  0.49882183008E+02  0.00000000000E+00 0. -1.
         23    2    1    2    0    0 -0.12724959058E+02 -0.44447832222E+02  0.23930036193E+03  0.27395151152E+03  0.12508890066E+03 0.  0.
          5    1    3    3  502    0 -0.24202033229E+02 -0.48693837315E+02  0.25079103877E+03  0.25665238307E+03  0.41800000000E+01 0. -1.
         -5    1    3    3    0  502  0.11477074171E+02  0.42460050933E+01 -0.11490676843E+02  0.17299128449E+02  0.41800000000E+01 0. -1.
        -11    1    1    2    0    0  0.12848306574E+02 -0.16044874915E+02  0.46324067236E+02  0.50679741496E+02  0.00000000000E+00 0.  1.
         11    1    1    2    0    0 -0.12334751608E+00  0.60492707137E+02 -0.26413263173E+00  0.60493409537E+02  0.00000000000E+00 0. -1.
</event>
<event>
 6    1  0.4966153E-006  0.1189704E+03  0.7561462E-02  0.1244805E+00
          1   -1    0    0  501    0  0.00000000000E+00  0.00000000000E+00  0.42215925104E+02  0.42215925104E+02  0.00000000000E+00 0. -1.
         -1   -1    0    0    0  501 -0.00000000000E+00 -0.00000000000E+00 -0.36893767236E+03  0.36893767236E+03  0.00000000000E+00 0.  1.
          5    1    1    2  502    0  0.60077819404E+02 -0.73364373367E+02 -0.10834381466E+03  0.14404002999E+03  0.41800000000E+01 0. -1.
         -5    1    1    2    0  502 -0.39884882160E+02  0.31698666529E+02 -0.12217416108E+03  0.13243718254E+03  0.41800000000E+01 0.  1.
        -11    1    1    2    0    0 -0.96184879862E+01  0.65304910038E+02 -0.81563948430E+02  0.10492818625E+03  0.00000000000E+00 0.  1.
         11    1    1    2    0    0 -0.10574449258E+02 -0.23639203200E+02 -0.14639823092E+02  0.29748198688E+02  0.00000000000E+00 0. -1.
</event>
<event>
 7    1  0.4966153E-006  0.7516838E+02  0.7561462E-02  0.1343350E+00
         -2   -1    0    0    0  501 -0.00000000000E+00  0.00000000000E+00  0.92080507362E+02  0.92080507362E+02  0.00000000000E+00 0.  1.
          2   -1    0    0  501    0  0.00000000000E+00 -0.00000000000E+00 -0.13500306192E+03  0.13500306192E+03  0.00000000000E+00 0. -1.
         23    2    1    2    0    0 -0.92585842046E+01  0.20932854181E+02 -0.67865114754E+01  0.12734727194E+03  0.12508942868E+03 0.  0.
          5    1    3    3  502    0  0.37181861796E+02  0.24758808714E+02 -0.47491762997E+02  0.65333218259E+02  0.41800000000E+01 0.  1.
         -5    1    3    3    0  502 -0.46440446000E+02 -0.38259545331E+01  0.40705251522E+02  0.62014053683E+02  0.41800000000E+01 0.  1.
        -11    1    1    2    0    0  0.31448731630E+02 -0.18180453566E+02 -0.58017230238E+02  0.68451081931E+02  0.00000000000E+00 0. -1.
         11    1    1    2    0    0 -0.22190147425E+02 -0.27524006151E+01  0.21881187155E+02  0.31285215409E+02  0.00000000000E+00 0.  1.
</event>
<event>
 7    1  0.4966153E-006  0.1444735E+03  0.7561462E-02  0.1207433E+00
         -2   -1    0    0    0  501 -0.00000000000E+00  0.00000000000E+00  0.12556882942E+03  0.12556882942E+03  0.00000000000E+00 0.  1.
          2   -1    0    0  501    0  0.00000000000E+00 -0.00000000000E+00 -0.23711865725E+03  0.23711865725E+03  0.00000000000E+00 0. -1.
         23    2    1    2    0    0 -0.41085540963E+02 -0.12412734447E+03 -0.65397682316E+02  0.19240631704E+03  0.12509082566E+03 0.  0.
          5    1    3    3  502    0 -0.11851125598E+02  0.18338692490E+01 -0.61682393015E+02  0.62976203937E+02  0.41800000000E+01 0.  1.
         -5    1    3    3    0  502 -0.29234415365E+02 -0.12596121372E+03 -0.37152893010E+01  0.12943011311E+03  0.41800000000E+01 0.  1.
        -11    1    1    2    0    0  0.32033704700E+02  0.11737142313E+02 -0.46318761419E+02  0.57526918967E+02  0.00000000000E+00 0. -1.
         11    1    1    2    0    0  0.90518362629E+01  0.11239020216E+03  0.16661589941E+00  0.11275425066E+03  0.00000000000E+00 0.  1.
</event>
<event>
 7    1  0.4966153E-006  0.1250472E+03  0.7561462E-02  0.1234996E+00
         -1   -1    0    0    0  501 -0.00000000000E+00  0.00000000000E+00  0.44637621165E+03  0.44637621165E+03  0.00000000000E+00 0.  1.
          1   -1    0    0  501    0  0.00000000000E+00 -0.00000000000E+00 -0.59866434539E+02  0.59866434539E+02  0.00000000000E+00 0. -1.
         23    2    1    2    0    0 -0.22631927652E+02  0.59789731621E+02  0.36432555760E+03  0.39047173847E+03  0.12509216787E+03 0.  0.
          5    1    3    3  502    0 -0.57522772474E+02 -0.10956721481E+02  0.19463760187E+03  0.20329827240E+03  0.41800000000E+01 0. -1.
         -5    1    3    3    0  502  0.34890844823E+02  0.70746453102E+02  0.16968795573E+03  0.18717346606E+03  0.41800000000E+01 0. -1.
        -11    1    1    2    0    0 -0.35888001927E+02 -0.29750266208E+02  0.17614866460E+02  0.49832825950E+02  0.00000000000E+00 0.  1.
         11    1    1    2    0    0  0.58519929579E+02 -0.30039465413E+02  0.45693530459E+01  0.65938081770E+02  0.00000000000E+00 0. -1.
</event>
<event>
 7    1  0.4966153E-006  0.7086616E+02  0.7561462E-02  0.1357172E+00
          4   -1    0    0  501    0  0.00000000000E+00  0.00000000000E+00  0.82004682484E+02  0.82004682484E+02  0.00000000000E+00 0. -1.
         -4   -1    0    0    0  501 -0.00000000000E+00 -0.00000000000E+00 -0.18405862328E+03  0.18405862328E+03  0.00000000000E+00 0.  1.
         23    2    1    2    0    0 -0.53168359546E+02 -0.18439085764E+02 -0.86267372800E+02  0.16203606909E+03  0.12508698468E+03 0.  0.
          5    1    3    3  502    0 -0.42591556768E+02 -0.23769438285E+02 -0.11808440493E+03  0.12782967571E+03  0.41800000000E+01 0. -1.
         -5    1    3    3    0  502 -0.10576802778E+02  0.53303525206E+01  0.31817032127E+02  0.34206393384E+02  0.41800000000E+01 0. -1.
        -11    1    1    2    0    0  0.36051208937E+02 -0.17750899939E+02 -0.40440740489E+02  0.57010855157E+02  0.00000000000E+00 0.  1.
         11    1    1    2    0    0  0.17117150608E+02  0.36189985704E+02  0.24654172488E+02  0.47016381520E+02  0.00000000000E+00 0. -1.
</event>
<event>
 7    1  0.4966153E-006  0.1313871E+03  0.7561462E-02  0.1225412E+00
         -1   -1    0    0    0  501 -0.00000000000E+00  0.00000000000E+00  0.95683573689E+02  0.95683573689E+02  0.00000000000E+00 0.  1.
          1   -1    0    0  501    0  0.00000000000E+00 -0.00000000000E+00 -0.22854234886E+03  0.22854234886E+03  0.00000000000E+00 0. -1.
         23    2    1    2    0    0  0.87312157193E+02  0.35237908285E+02 -0.37463688183E+02  0.16098784804E+03  0.12509371011E+03 0.  0.
          5    1    3    3  502    0  0.97075252539E+02  0.65596561132E+02 -0.82276545606E+01  0.11752310491E+03  0.41800000000E+01 0.  1.
         -5    1    3    3    0  502 -0.97630953468E+01 -0.30358652847E+02 -0.29236033623E+02  0.43464743131E+02  0.41800000000E+01 0.  1.
        -11    1    1    2    0    0  0.10221727898E+02 -0.29934827289E+01 -0.49663510955E+02  0.50792804416E+02  0.00000000000E+00 0. -1.
         11    1    1    2    0    0 -0.97533885091E+02 -0.32244425557E+02 -0.45731576037E+02  0.11244527010E+03  0.00000000000E+00 0.  1.
</event>
<event>
 7    1  0.4966153E-006  0.7508470E+02  0.7561462E-02  0.1343609E+00
          1   -1    0    0  501    0  0.00000000000E+00  0.00000000000E+00  0.81202221866E+02  0.81202221866E+02  0.00000000000E+00 0. -1.
         -1   -1    0    0    0  501 -0.00000000000E+00 -0.00000000000E+00 -0.17266330069E+03  0.17266330069E+03  0.00000000000E+00 0.  1.
         23    2    1    2    0    0 -0.40161917408E+02  0.13149147626E+02 -0.74308267855E+02  0.15151000441E+03  0.12509069938E+03 0.  0.
          5    1    3    3  502    0 -0.32044648052E+02  0.20488383983E+02  0.28704312231E+02  0.47833495457E+02  0.41800000000E+01 0. -1.
         -5    1    3    3    0  502 -0.81172693563E+01 -0.73392363573E+01 -0.10301258009E+03  0.10367650895E+03  0.41800000000E+01 0. -1.
        -11    1    1    2    0    0 -0.15489778530E+02  0.27303102257E+02  0.23531603356E+00  0.31391846161E+02  0.00000000000E+00 0.  1.
         11    1    1    2    0    0  0.55651695938E+02 -0.40452249883E+02 -0.17388127003E+02  0.70963671988E+02  0.00000000000E+00 0. -1.
</event>
<event>
 7    1  0.4966153E-006  0.1108213E+03  0.7561462E-02  0.1259057E+00
          1   -1    0    0  501    0  0.00000000000E+00  0.00000000000E+00  0.35082886884E+03  0.35082886884E+03  0.00000000000E+00 0. -1.
         -1   -1    0    0    0  501 -0.00000000000E+00 -0.00000000000E+00 -0.68335297089E+02  0.68335297089E+02  0.00000000000E+00 0.  1.
         23    2    1    2    0    0 -0.66511022974E+02 -0.45935207072E+02  0.54975173618E+02  0.15876461590E+03  0.12510065596E+03 0.  0.
          5    1    3    3  502    0  0.15666911891E+02  0.10270211902E+02  0.55909288879E+02  0.59112184562E+02  0.41800000000E+01 0.  1.
         -5    1    3    3    0  502 -0.82177934865E+02 -0.56205418974E+02 -0.93411526099E+00  0.99652431340E+02  0.41800000000E+01 0.  1.
        -11    1    1    2    0    0  0.75246678357E+02  0.23667800035E+02  0.22235065585E+03  0.23592804310E+03  0.00000000000E+00 0. -1.
         11    1    1    2    0    0 -0.87356553831E+01  0.22267407037E+02  0.51677422813E+01  0.24471506929E+02  0.00000000000E+00 0.  1.
</event>
<event>
 7    1  0.4966153E-006  0.1109844E+03  0.7561462E-02  0.1258758E+00
         -3   -1    0    0    0  501 -0.00000000000E+00  0.00000000000E+00  0.22746137439E+03  0.22746137439E+03  0.00000000000E+00 0.  1.
          3   -1    0    0  501    0  0.00000000000E+00 -0.00000000000E+00 -0.68480676862E+02  0.68480676862E+02  0.00000000000E+00 0. -1.
         23    2    1    2    0    0  0.33975269429E+02  0.47559571867E+02  0.11585254687E+03  0.18023562949E+03  0.12508732035E+03 0.  0.
          5    1    3    3  502    0  0.91546306808E+01  0.76062675806E+02  0.23314900930E+02  0.80189743229E+02  0.41800000000E+01 0.  1.
         -5    1    3    3    0  502  0.24820638748E+02 -0.28503103939E+02  0.92537645942E+02  0.10004588626E+03  0.41800000000E+01 0.  1.
        -11    1    1    2    0    0 -0.29688137187E+02  0.22359922543E+02  0.17887581845E+02  0.41247026681E+02  0.00000000000E+00 0.  1.
         11    1    1    2    0    0 -0.42871322425E+01 -0.69919494411E+02  0.25240568812E+02  0.74459395078E+02  0.00000000000E+00 0. -1.
</event>
<event>
 7    1  0.4966153E-006  0.1121789E+03  0.7561462E-02  0.1256587E+00
          1   -1    0    0  501    0  0.00000000000E+00  0.00000000000E+00  0.58006914249E+03  0.58006914249E+03  0.00000000000E+00 0.  1.
         -1   -1    0    0    0  501 -0.00000000000E+00 -0.00000000000E+00 -0.23495358461E+02  0.23495358461E+02  0.00000000000E+00 0. -1.
         23    2    1    2    0    0  0.99727231076E+01  0.37403962421E+02  0.26476095649E+03  0.29536582145E+03  0.12507634785E+03 0.  0.
          5    1    3    3  502    0  0.64178574364E+02  0.28208228042E+02  0.10468534063E+03  0.12605985276E+03  0.41800000000E+01 0. -1.
         -5    1    3    3    0  502 -0.54205851256E+02  0.91957343793E+01  0.16007561586E+03  0.16930596869E+03  0.41800000000E+01 0. -1.
        -11    1    1    2    0    0  0.20261980232E+02  0.23479076505E+02  0.83365654318E+02  0.88947440639E+02  0.00000000000E+00 0. -1.
         11    1    1    2    0    0 -0.30234703339E+02 -0.60883038927E+02  0.20844717322E+03  0.21925123886E+03  0.00000000000E+00 0.  1.
</event>
<event>
 7    1  0.4966153E-006  0.1278943E+03  0.7561462E-02  0.1230614E+00
         -2   -1    0    0    0  501 -0.00000000000E+00  0.00000000000E+00  0.17732227601E+03  0.17732227601E+03  0.00000000000E+00 0.  1.
          2   -1    0    0  501    0  0.00000000000E+00 -0.00000000000E+00 -0.14815127301E+03  0.14815127301E+03  0.00000000000E+00 0. -1.
         23    2    1    2    0    0  0.16983264020E+02  0.10880706696E+03  0.64866019495E+02  0.17883598246E+03  0.12508916444E+03 0.  0.
          5    1    3    3  502    0 -0.55646625700E+01  0.10889624406E+03 -0.96749010635E+00  0.10912271018E+03  0.41800000000E+01 0. -1.
         -5    1    3    3    0  502  0.22547926590E+02 -0.89177093609E-01  0.65833509601E+02  0.69713272284E+02  0.41800000000E+01 0. -1.
        -11    1    1    2    0    0  0.19440125902E+02 -0.58384417404E+02  0.18374130686E+02  0.64220459117E+02  0.00000000000E+00 0.  1.
         11    1    1    2    0    0 -0.36423389922E+02 -0.50422649558E+02 -0.54069147185E+02  0.82417107442E+02  0.00000000000E+00 0. -1.
</event>
<event>
 7    1  0.4966153E-006  0.7975319E+02  0.7561462E-02  0.1329753E+00
          1   -1    0    0  501    0  0.00000000000E+00  0.00000000000E+00  0.63972612742E+03  0.63972612742E+03  0.00000000000E+00 0. -1.
         -1   -1    0    0    0  501 -0.00000000000E+00 -0.00000000000E+00 -0.21323618685E+02  0.21323618685E+02  0.00000000000E+00 0.  1.
         23    2    1    2    0    0  0.32364802948E+02 -0.57912907339E+01  0.31609196451E+03  0.34153074308E+03  0.12509236157E+03 0.  0.
          5    1    3    3  502    0  0.22117098868E+02  0.19228864538E+02  0.31254411392E+03  0.31394300572E+03  0.41800000000E+01 0. -1.
         -5    1    3    3    0  502  0.10247704080E+02 -0.25020155271E+02  0.35478505871E+01  0.27587737358E+02  0.41800000000E+01 0. -1.
        -11    1    1    2    0    0  0.21967360572E+02  0.34647266166E+02  0.10085148557E+03  0.10887616877E+03  0.00000000000E+00 0. -1.
         11    1    1    2    0    0 -0.54332163520E+02 -0.28855975432E+02  0.20145905865E+03  0.21064283426E+03  0.00000000000E+00 0.  1.
</event>
<event>
 7    1  0.4966153E-006  0.1088999E+03  0.7561462E-02  0.1262621E+00
         -2   -1    0    0    0  501 -0.00000000000E+00  0.00000000000E+00  0.14487677075E+02  0.14487677075E+02  0.00000000000E+00 0.  1.
          2   -1    0    0  501    0  0.00000000000E+00 -0.00000000000E+00 -0.13569190183E+04  0.13569190183E+04  0.00000000000E+00 0. -1.
         23    2    1    2    0    0 -0.60359301552E+02 -0.59044478834E+02 -0.85078771761E+03  0.86406987068E+03  0.12508998853E+03 0.  0.
          5    1    3    3  502    0 -0.12215623145E+02 -0.39266717938E+02 -0.74452306379E+03  0.74566960613E+03  0.41800000000E+01 0. -1.
         -5    1    3    3    0  502 -0.48143678407E+02 -0.19777760896E+02 -0.10626465382E+03  0.11840026456E+03  0.41800000000E+01 0. -1.
        -11    1    1    2    0    0 -0.18325116394E+02  0.38941388148E+02 -0.14160377338E+03  0.14799956161E+03  0.00000000000E+00 0. -1.
         11    1    1    2    0    0  0.78684417946E+02  0.20103090687E+02 -0.35003985028E+03  0.35933726312E+03  0.00000000000E+00 0.  1.
</event>
<event>
 7    1  0.4966153E-006  0.3033953E+03  0.7561462E-02  0.1083556E+00
          2   -1    0    0  501    0  0.00000000000E+00  0.00000000000E+00  0.38268837288E+03  0.38268837288E+03  0.00000000000E+00 0.  1.
         -2   -1    0    0    0  501 -0.00000000000E+00 -0.00000000000E+00 -0.27966109134E+03  0.27966109134E+03  0.00000000000E+00 0. -1.
         23    2    1    2    0    0 -0.63996072879E+01 -0.30284472101E+03 -0.50892849430E+01  0.32776357926E+03  0.12508870074E+03 0.  0.
          5    1    3    3  502    0  0.18031730167E+01 -0.75930705318E+02  0.53778139726E+02  0.93157308653E+02  0.41800000000E+01 0.  1.
         -5    1    3    3    0  502 -0.82027803046E+01 -0.22691401569E+03 -0.58867424669E+02  0.23460627061E+03  0.41800000000E+01 0.  1.
        -11    1    1    2    0    0 -0.74674703670E+01  0.80251241645E+02  0.73135985070E+02  0.10883426488E+03  0.00000000000E+00 0.  1.
         11    1    1    2    0    0  0.13867077655E+02  0.22259347936E+03  0.34980581412E+02  0.22575162009E+03  0.00000000000E+00 0. -1.
</event>
<event>
 7    1  0.4966154E-006  0.1457370E+03  0.7561462E-02  0.1205811E+00
          2   -1    0    0  501    0  0.00000000000E+00  0.00000000000E+00  0.22370091171E+03  0.22370091171E+03  0.00000000000E+00 0. -1.
         -2   -1    0    0    0  501 -0.00000000000E+00 -0.00000000000E+00 -0.16418987015E+03  0.16418987015E+03  0.00000000000E+00 0.  1.
         23    2    1    2    0    0  0.13616465402E+03 -0.39003508457E+02 -0.38135177350E+02  0.19277889299E+03  0.12508926075E+03 0.  0.
          5    1    3    3  502    0  0.11659433868E+03 -0.43597621370E+02 -0.78688536892E+02  0.14732396492E+03  0.41800000000E+01 0. -1.
         -5    1    3    3    0  502  0.19570315340E+02  0.45941129135E+01  0.40553359542E+02  0.45454928073E+02  0.41800000000E+01 0. -1.
        -11    1    1    2    0    0 -0.81807623167E+02  0.41988065423E+02  0.10567844625E+03  0.14008361377E+03  0.00000000000E+00 0. -1.
         11    1    1    2    0    0 -0.54357030854E+02 -0.29845569664E+01 -0.80322273372E+01  0.55028275091E+02  0.00000000000E+00 0.  1.
</event>
<event>
 7    1  0.4966153E-006  0.7819477E+02  0.7561462E-02  0.1334254E+00
         -2   -1    0    0    0  501 -0.00000000000E+00  0.00000000000E+00  0.14724111418E+03  0.14724111418E+03  0.00000000000E+00 0.  1.
          2   -1    0    0  501    0  0.00000000000E+00 -0.00000000000E+00 -0.14431984334E+03  0.14431984334E+03  0.00000000000E+00 0. -1.
         23    2    1    2    0    0 -0.13166392003E+02  0.55516908648E+02  0.74308590954E+02  0.15908428828E+03  0.12857123732E+03 0.  0.
          5    1    3    3  502    0  0.43261504424E+00  0.44013042473E+02 -0.29840084538E+02  0.53340773417E+02  0.41800000000E+01 0. -1.
         -5    1    3    3    0  502 -0.13599007048E+02  0.11503866175E+02  0.10414867549E+03  0.10574351487E+03  0.41800000000E+01 0.  1.
        -11    1    1    2    0    0  0.14082565606E+02  0.16593660755E+02 -0.54105172008E+02  0.58318417926E+02  0.00000000000E+00 0. -1.
         11    1    1    2    0    0 -0.91617360226E+00 -0.72110569403E+02 -0.17282148110E+02  0.74158251308E+02  0.00000000000E+00 0.  1.
</event>
<event>
 7    1  0.4966153E-006  0.1478181E+03  0.7561462E-02  0.1203180E+00
         -1   -1    0    0    0  501 -0.00000000000E+00  0.00000000000E+00  0.90697495636E+03  0.90697495636E+03  0.00000000000E+00 0.  1.
          1   -1    0    0  501    0  0.00000000000E+00 -0.00000000000E+00 -0.35454631401E+02  0.35454631401E+02  0.00000000000E+00 0. -1.
         23    2    1    2    0    0 -0.73465520241E+02  0.11813016166E+03  0.53790502183E+03  0.56950969184E+03  0.12509020281E+03 0.  0.
          5    1    3    3  502    0 -0.62573146896E+02  0.79287648206E+02  0.15883524375E+03  0.18827649064E+03  0.41800000000E+01 0. -1.
         -5    1    3    3    0  502 -0.10892373345E+02  0.38842513454E+02  0.37906977807E+03  0.38123320120E+03  0.41800000000E+01 0. -1.
        -11    1    1    2    0    0  0.61387557380E+02 -0.36394845027E+02  0.22750694765E+03  0.23843747225E+03  0.00000000000E+00 0.  1.
         11    1    1    2    0    0  0.12077962861E+02 -0.81735316633E+02  0.10610835549E+03  0.13448242367E+03  0.00000000000E+00 0. -1.
</event>
<event>
 7    1  0.4966153E-006  0.1045911E+03  0.7561462E-02  0.1270927E+00
          2   -1    0    0  501    0  0.00000000000E+00  0.00000000000E+00  0.20637531052E+03  0.20637531052E+03  0.00000000000E+00 0. -1.
         -2   -1    0    0    0  501 -0.00000000000E+00 -0.00000000000E+00 -0.68621858694E+02  0.68621858694E+02  0.00000000000E+00 0.  1.
         23    2    1    2    0    0  0.43765060403E+02 -0.21913509171E+02  0.61105626821E+02  0.14757064685E+03  0.12509043043E+03 0.  0.
          5    1    3    3  502    0 -0.90757666919E+01 -0.64772344538E+02  0.37044498325E+02  0.75283420579E+02  0.41800000000E+01 0. -1.
         -5    1    3    3    0  502  0.52840827095E+02  0.42858835366E+02  0.24061128496E+02  0.72287226268E+02  0.41800000000E+01 0. -1.
        -11    1    1    2    0    0  0.13075352628E+02 -0.30043756359E+01 -0.12809243281E+02  0.18549065549E+02  0.00000000000E+00 0.  1.
         11    1    1    2    0    0 -0.56840413031E+02  0.24917884807E+02  0.89457068291E+02  0.10887745682E+03  0.00000000000E+00 0. -1.
</event>
<event>
 7    1  0.4966153E-006  0.8883115E+02  0.7561462E-02  0.1305707E+00
         -1   -1    0    0    0  501 -0.00000000000E+00  0.00000000000E+00  0.11482968409E+03  0.11482968409E+03  0.00000000000E+00 0.  1.
          1   -1    0    0  501    0  0.00000000000E+00 -0.00000000000E+00 -0.15621301310E+03  0.15621301310E+03  0.00000000000E+00 0. -1.
         23    2    1    2    0    0  0.28793883817E+02 -0.26918468361E+02  0.45118037057E+02  0.13869706280E+03  0.12509015260E+03 0.  0.
          5    1    3    3  502    0  0.11503057107E+02 -0.61928438909E+02  0.68372890905E+02  0.93057920024E+02  0.41800000000E+01 0.  1.
         -5    1    3    3    0  502  0.17290826710E+02  0.35009970548E+02 -0.23254853848E+02  0.45639142778E+02  0.41800000000E+01 0.  1.
        -11    1    1    2    0    0 -0.45819238058E+02  0.33764064531E+02 -0.15467894043E+02  0.58980254119E+02  0.00000000000E+00 0.  1.
         11    1    1    2    0    0  0.17025354241E+02 -0.68455961699E+01 -0.71033472023E+02  0.73365380266E+02  0.00000000000E+00 0. -1.
</event>
<event>
 7    1  0.4966153E-006  0.9352898E+02  0.7561462E-02  0.1294524E+00
          2   -1    0    0  501    0  0.00000000000E+00  0.00000000000E+00  0.23970218596E+03  0.23970218596E+03  0.00000000000E+00 0.  1.
         -2   -1    0    0    0  501 -0.00000000000E+00 -0.00000000000E+00 -0.76678188343E+02  0.76678188343E+02  0.00000000000E+00 0. -1.
         23    2    1    2    0    0  0.50063446363E+02  0.62699730320E+02  0.98814914325E+02  0.17845272971E+03  0.12507351680E+03 0.  0.
          5    1    3    3  502    0 -0.14010228139E+02  0.30481501381E+02 -0.20240096890E+02  0.39402313905E+02  0.41800000000E+01 0.  1.
         -5    1    3    3    0  502  0.64073674502E+02  0.32218228939E+02  0.11905501121E+03  0.13905041580E+03  0.41800000000E+01 0.  1.
        -11    1    1    2    0    0 -0.40274582286E+02 -0.57846694139E+02  0.87406413874E+02  0.11228607744E+03  0.00000000000E+00 0.  1.
         11    1    1    2    0    0 -0.97888640768E+01 -0.48530361808E+01 -0.23197330579E+02  0.25641567153E+02  0.00000000000E+00 0. -1.
</event>
<event>
 7    1  0.4966153E-006  0.8342129E+02  0.7561462E-02  0.1319613E+00
          1   -1    0    0  501    0  0.00000000000E+00  0.00000000000E+00  0.13005863343E+03  0.13005863343E+03  0.00000000000E+00 0. -1.
         -1   -1    0    0    0  501 -0.00000000000E+00 -0.00000000000E+00 -0.10267880855E+03  0.10267880855E+03  0.00000000000E+00 0.  1.
         23    2    1    2    0    0 -0.76135783475E+01 -0.19173371932E+02 -0.20674278606E+02  0.12845500999E+03  0.12509068323E+03 0.  0.
          5    1    3    3  502    0  0.23456095447E+02  0.31452096668E+02  0.30554693495E+02  0.49904754212E+02  0.41800000000E+01 0.  1.
         -5    1    3    3    0  502 -0.31069673795E+02 -0.50625468600E+02 -0.51228972101E+02  0.78550255781E+02  0.41800000000E+01 0.  1.
        -11    1    1    2    0    0 -0.19320791232E+02 -0.14904884840E+02 -0.14305275689E+02  0.28285852974E+02  0.00000000000E+00 0.  1.
         11    1    1    2    0    0  0.26934369579E+02  0.34078256773E+02  0.62359379176E+02  0.75996579005E+02  0.00000000000E+00 0. -1.
</event>
<event>
 7    1  0.4966153E-006  0.7303015E+02  0.7561462E-02  0.1350082E+00
          4   -1    0    0  501    0  0.00000000000E+00  0.00000000000E+00  0.41225437281E+02  0.41225437281E+02  0.00000000000E+00 0.  1.
         -4   -1    0    0    0  501 -0.00000000000E+00 -0.00000000000E+00 -0.33580832647E+03  0.33580832647E+03  0.00000000000E+00 0. -1.
         23    2    1    2    0    0 -0.32125303781E+02 -0.19413867984E+02 -0.21165114933E+03  0.24871458543E+03  0.12511515727E+03 0.  0.
          5    1    3    3  502    0 -0.53947210430E+02 -0.12811654768E+02 -0.21775757074E+03  0.22474490434E+03  0.41800000000E+01 0. -1.
         -5    1    3    3    0  502  0.21821906649E+02 -0.66022132164E+01  0.61064214091E+01  0.23969681090E+02  0.41800000000E+01 0. -1.
        -11    1    1    2    0    0 -0.85886784352E+01  0.24765340580E+02  0.89341656490E+01  0.27693082298E+02  0.00000000000E+00 0.  1.
         11    1    1    2    0    0  0.40713982216E+02 -0.53514725956E+01 -0.91865905514E+02  0.10062609603E+03  0.00000000000E+00 0. -1.
</event>
<event>
 7    1  0.4966153E-006  0.1965147E+03  0.7561462E-02  0.1152713E+00
         -1   -1    0    0    0  501 -0.00000000000E+00  0.00000000000E+00  0.20907659817E+03  0.20907659817E+03  0.00000000000E+00 0.  1.
          1   -1    0    0  501    0  0.00000000000E+00 -0.00000000000E+00 -0.21524469680E+03  0.21524469680E+03  0.00000000000E+00 0. -1.
         23    2    1    2    0    0 -0.18199620920E+03 -0.61408407005E+00  0.27050257978E+01  0.22085290385E+03  0.12508273546E+03 0.  0.
          5    1    3    3  502    0 -0.35941011878E+02 -0.43618908780E+02  0.32966050469E+02  0.65563697436E+02  0.41800000000E+01 0. -1.
         -5    1    3    3    0  502 -0.14605519733E+03  0.43004824710E+02 -0.30261024671E+02  0.15528920641E+03  0.41800000000E+01 0. -1.
        -11    1    1    2    0    0  0.11211018868E+02  0.68627059962E+01  0.25920577406E+02  0.29063035125E+02  0.00000000000E+00 0.  1.
         11    1    1    2    0    0  0.17078519033E+03 -0.62486219262E+01 -0.34793701838E+02  0.17440535600E+03  0.00000000000E+00 0. -1.
</event>
<event>
 7    1  0.4966153E-006  0.9213578E+02  0.7561462E-02  0.1297760E+00
         -2   -1    0    0    0  501 -0.00000000000E+00  0.00000000000E+00  0.24961878313E+02  0.24961878313E+02  0.00000000000E+00 0.  1.
          2   -1    0    0  501    0  0.00000000000E+00 -0.00000000000E+00 -0.54965129240E+03  0.54965129240E+03  0.00000000000E+00 0. -1.
         23    2    1    2    0    0 -0.34702918685E+02 -0.31224045491E+02 -0.30867098698E+03  0.33630946571E+03  0.12508814868E+03 0.  0.
          5    1    3    3  502    0 -0.60268782990E+02 -0.53412529899E+01 -0.61262981090E+02  0.86206034816E+02  0.41800000000E+01 0. -1.
         -5    1    3    3    0  502  0.25565864305E+02 -0.25882792501E+02 -0.24740800589E+03  0.25010343089E+03  0.41800000000E+01 0. -1.
        -11    1    1    2    0    0  0.53027167842E+02  0.40253031077E+02 -0.97647319727E+02  0.11818285024E+03  0.00000000000E+00 0.  1.
         11    1    1    2    0    0 -0.18324249157E+02 -0.90289855862E+01 -0.11837110738E+03  0.12012085476E+03  0.00000000000E+00 0. -1.
</event>
<event>
 7    1  0.4966153E-006  0.1234997E+03  0.7561462E-02  0.1237433E+00
         -2   -1    0    0    0  501 -0.00000000000E+00  0.00000000000E+00  0.16416457314E+02  0.16416457314E+02  0.00000000000E+00 0.  1.
          2   -1    0    0  501    0  0.00000000000E+00 -0.00000000000E+00 -0.98731189368E+03  0.98731189368E+03  0.00000000000E+00 0. -1.
         23    2    1    2    0    0  0.37394642087E+02  0.46964356413E+02 -0.43460654271E+03  0.45621348895E+03  0.12507553918E+03 0.  0.
          5    1    3    3  502    0  0.54893829387E+02 -0.26578466651E+02 -0.15744037462E+03  0.16889254381E+03  0.41800000000E+01 0.  1.
         -5    1    3    3    0  502 -0.17499187300E+02  0.73542823064E+02 -0.27716616809E+03  0.28732094513E+03  0.41800000000E+01 0.  1.
        -11    1    1    2    0    0 -0.67627869281E+02 -0.41745379732E+02 -0.37388725724E+03  0.38224061344E+03  0.00000000000E+00 0. -1.
         11    1    1    2    0    0  0.30233227194E+02 -0.52189766814E+01 -0.16240163642E+03  0.16527424862E+03  0.00000000000E+00 0.  1.
</event>
<event>
 6    1  0.4966153E-006  0.7774688E+02  0.7561462E-02  0.1335570E+00
          2   -1    0    0  501    0  0.00000000000E+00  0.00000000000E+00  0.37967685012E+03  0.37967685012E+03  0.00000000000E+00 0. -1.
         -2   -1    0    0    0  501 -0.00000000000E+00 -0.00000000000E+00 -0.85293990481E+02  0.85293990481E+02  0.00000000000E+00 0.  1.
          5    1    1    2  502    0 -0.36092765444E+02  0.79116149781E+01  0.58838591943E+02  0.69604121076E+02  0.41800000000E+01 0. -1.
         -5    1    1    2    0  502  0.24009091022E+02  0.12111082236E+01 -0.70830875515E+02  0.74915876562E+02  0.41800000000E+01 0.  1.
        -11    1    1    2    0    0 -0.38826124558E+02  0.90235054725E+01  0.13355168099E+03  0.13937339450E+03  0.00000000000E+00 0.  1.
         11    1    1    2    0    0  0.50909798980E+02 -0.18146228674E+02  0.17282346222E+03  0.18107744846E+03  0.00000000000E+00 0. -1.
</event>
<event>
 7    1  0.4966153E-006  0.1041749E+03  0.7561462E-02  0.1271754E+00
          2   -1    0    0  501    0  0.00000000000E+00  0.00000000000E+00  0.11528086089E+03  0.11528086089E+03  0.00000000000E+00 0. -1.
         -2   -1    0    0    0  501 -0.00000000000E+00 -0.00000000000E+00 -0.14376572944E+03  0.14376572944E+03  0.00000000000E+00 0.  1.
         23    2    1    2    0    0 -0.25555830114E+02 -0.27505083754E+02 -0.74031658800E+02  0.15013600177E+03  0.12510196816E+03 0.  0.
          5    1    3    3  502    0  0.36741417072E+02  0.17254405319E+02 -0.59188915558E+02  0.71891907446E+02  0.41800000000E+01 0. -1.
         -5    1    3    3    0  502 -0.62297247185E+02 -0.44759489073E+02 -0.14842743242E+02  0.78244094320E+02  0.41800000000E+01 0. -1.
        -11    1    1    2    0    0 -0.21038821570E+02  0.37562258041E+02  0.43494002733E+02  0.61198721522E+02  0.00000000000E+00 0. -1.
         11    1    1    2    0    0  0.46594651683E+02 -0.10057174287E+02  0.20527875198E+01  0.47711867043E+02  0.00000000000E+00 0.  1.
</event>
<event>
 7    1  0.4966153E-006  0.2661423E+03  0.7561462E-02  0.1103508E+00
         -2   -1    0    0    0  501 -0.00000000000E+00  0.00000000000E+00  0.57268968384E+02  0.57268968384E+02  0.00000000000E+00 0.  1.
          2   -1    0    0  501    0  0.00000000000E+00 -0.00000000000E+00 -0.13628501949E+04  0.13628501949E+04  0.00000000000E+00 0. -1.
         23    2    1    2    0    0 -0.13861961311E+03  0.21265916964E+03 -0.56481269366E+03  0.63174305094E+03  0.12508630590E+03 0.  0.
          5    1    3    3  502    0 -0.12933907906E+03  0.22663360386E+03 -0.49228617986E+03  0.55718447848E+03  0.41800000000E+01 0.  1.
         -5    1    3    3    0  502 -0.92805340532E+01 -0.13974434228E+02 -0.72526513792E+02  0.74558572459E+02  0.41800000000E+01 0.  1.
        -11    1    1    2    0    0  0.77052516078E+02 -0.12660943674E+03 -0.55642168125E+03  0.57582299977E+03  0.00000000000E+00 0.  1.
         11    1    1    2    0    0  0.61567097032E+02 -0.86049732893E+02 -0.18434685166E+03  0.21255311262E+03  0.00000000000E+00 0. -1.
</event>
<event>
 7    1  0.4966153E-006  0.8022996E+02  0.7561462E-02  0.1328400E+00
          2   -1    0    0  501    0  0.00000000000E+00  0.00000000000E+00  0.40314229714E+03  0.40314229714E+03  0.00000000000E+00 0. -1.
         -2   -1    0    0    0  501 -0.00000000000E+00 -0.00000000000E+00 -0.88171888231E+02  0.88171888231E+02  0.00000000000E+00 0.  1.
         23    2    1    2    0    0 -0.12295406987E+02  0.39650766041E+02 -0.27320873621E+02  0.13460247826E+03  0.12509211302E+03 0.  0.
          5    1    3    3  502    0  0.11391105531E+02  0.36530010883E+02  0.44475763220E+02  0.58819766188E+02  0.41800000000E+01 0.  1.
         -5    1    3    3    0  502 -0.23686512518E+02  0.31207551579E+01 -0.71796636841E+02  0.75782712077E+02  0.41800000000E+01 0.  1.
        -11    1    1    2    0    0 -0.24064754343E+02 -0.53611716408E+02  0.24419234433E+03  0.25116375050E+03  0.00000000000E+00 0.  1.
         11    1    1    2    0    0  0.36360161329E+02  0.13960950367E+02  0.98098938198E+02  0.10554795660E+03  0.00000000000E+00 0. -1.
</event>
<event>
 7    1  0.4966153E-006  0.1706356E+03  0.7561462E-02  0.1177187E+00
          2   -1    0    0  501    0  0.00000000000E+00  0.00000000000E+00  0.43962462433E+03  0.43962462433E+03  0.00000000000E+00 0. -1.
         -2   -1    0    0    0  501 -0.00000000000E+00 -0.00000000000E+00 -0.81272879745E+02  0.81272879745E+02  0.00000000000E+00 0.  1.
         23    2    1    2    0    0  0.52387461052E+02 -0.13120758301E+03  0.94287881728E+02  0.21094503125E+03  0.12509086958E+03 0.  0.
          5    1    3    3  502    0  0.57597128323E+02 -0.15401588069E+03  0.77382997263E+02  0.18177987061E+03  0.41800000000E+01 0.  1.
         -5    1    3    3    0  502 -0.52096672710E+01  0.22808297679E+02  0.16904884465E+02  0.29165160635E+02  0.41800000000E+01 0.  1.
        -11    1    1    2    0    0  0.20094813751E+01  0.74181220751E+02  0.18013497009E+03  0.19482171074E+03  0.00000000000E+00 0. -1.
         11    1    1    2    0    0 -0.54396942427E+02  0.57026362256E+02  0.83928892772E+02  0.11513076209E+03  0.00000000000E+00 0.  1.
</event>
<event>
 6    1  0.4966153E-006  0.1239643E+03  0.7561462E-02  0.1236697E+00
          2   -1    0    0  501    0  0.00000000000E+00  0.00000000000E+00  0.68930517337E+03  0.68930517337E+03  0.00000000000E+00 0. -1.
         -2   -1    0    0    0  501 -0.00000000000E+00 -0.00000000000E+00 -0.66127709848E+02  0.66127709848E+02  0.00000000000E+00 0.  1.
          5    1    1    2  502    0  0.72360538627E+02 -0.17796737398E+02  0.22303988557E+03  0.23519573629E+03  0.41800000000E+01 0. -1.
         -5    1    1    2    0  502 -0.55960837234E+02  0.51083403289E+02 -0.28205098606E+02  0.80957577674E+02  0.41800000000E+01 0.  1.
        -11    1    1    2    0    0 -0.66431518714E+01  0.31346995112E+02  0.14249905455E+03  0.14605733845E+03  0.00000000000E+00 0.  1.
         11    1    1    2    0    0 -0.97565495222E+01 -0.64633661002E+02  0.28584362201E+03  0.29322223080E+03  0.00000000000E+00 0. -1.
</event>
<event>
 7    1  0.4966153E-006  0.1990262E+03  0.7561462E-02  0.1150563E+00
         -1   -1    0    0    0  501 -0.00000000000E+00  0.00000000000E+00  0.74380038587E+02  0.74380038587E+02  0.00000000000E+00 0.  1.
          1   -1    0    0  501    0  0.00000000000E+00 -0.00000000000E+00 -0.72537832881E+03  0.72537832881E+03  0.00000000000E+00 0. -1.
         23    2    1    2    0    0 -0.14970486469E+03  0.10050017890E+03 -0.16864797198E+03  0.27676944706E+03  0.12508939164E+03 0.  0.
          5    1    3    3  502    0 -0.60644844621E+02  0.11234310700E+03 -0.81422104307E+02  0.15147871910E+03  0.41800000000E+01 0. -1.
         -5    1    3    3    0  502 -0.89060020067E+02 -0.11842928104E+02 -0.87225867675E+02  0.12529072796E+03  0.41800000000E+01 0. -1.
        -11    1    1    2    0    0  0.76477009561E+02 -0.54272882398E+02 -0.36674971449E+03  0.37854937833E+03  0.00000000000E+00 0. -1.
         11    1    1    2    0    0  0.73227855127E+02 -0.46227296502E+02 -0.11560060375E+03  0.14443954201E+03  0.00000000000E+00 0.  1.
</event>
<event>
 7    1  0.4966153E-006  0.2153890E+03  0.7561462E-02  0.1137368E+00
          1   -1    0    0  501    0  0.00000000000E+00  0.00000000000E+00  0.47148031310E+03  0.47148031310E+03  0.00000000000E+00 0. -1.
         -1   -1    0    0    0  501 -0.00000000000E+00 -0.00000000000E+00 -0.12788712458E+03  0.12788712458E+03  0.00000000000E+00 0.  1.
         23    2    1    2    0    0 -0.80844340099E+02  0.17745649388E+03  0.53632417928E+02  0.23780440341E+03  0.12509150045E+03 0.  0.
          5    1    3    3  502    0 -0.48508070743E+01  0.13417751669E+03 -0.15002683288E+01  0.13433860026E+03  0.41800000000E+01 0.  1.
         -5    1    3    3    0  502 -0.75993533025E+02  0.43278977182E+02  0.55132686257E+02  0.10346580315E+03  0.41800000000E+01 0.  1.
        -11    1    1    2    0    0  0.47150279667E+02 -0.16712989388E+03  0.19956426782E+03  0.26454006746E+03  0.00000000000E+00 0. -1.
         11    1    1    2    0    0  0.33694060432E+02 -0.10326599991E+02  0.90396502768E+02  0.97022966810E+02  0.00000000000E+00 0.  1.
</event>
<event>
 7    1  0.4966153E-006  0.1134757E+03  0.7561462E-02  0.1254266E+00
          1   -1    0    0  501    0  0.00000000000E+00  0.00000000000E+00  0.50500645032E+03  0.50500645032E+03  0.00000000000E+00 0. -1.
         -1   -1    0    0    0  501 -0.00000000000E+00 -0.00000000000E+00 -0.33526234719E+02  0.33526234719E+02  0.00000000000E+00 0.  1.
         23    2    1    2    0    0 -0.64451479166E+01 -0.71502137537E+02  0.26534313612E+03  0.30200983672E+03  0.12509542751E+03 0.  0.
          5    1    3    3  502    0 -0.51922156716E+01  0.30986152277E+02  0.23955180982E+02  0.39729382482E+02  0.41800000000E+01 0.  1.
         -5    1    3    3    0  502 -0.12529322450E+01 -0.10248828981E+03  0.24138795514E+03  0.26228045424E+03  0.41800000000E+01 0.  1.
        -11    1    1    2    0    0 -0.60857461512E+01  0.78220553145E+02  0.20788513614E+03  0.22219748213E+03  0.00000000000E+00 0. -1.
         11    1    1    2    0    0  0.12530894068E+02 -0.67184156078E+01 -0.17480566535E+01  0.14325366190E+02  0.00000000000E+00 0.  1.
</event>
<event>
 7    1  0.1311991E-005  0.2658248E+03  0.7561462E-02  0.1103693E+00
         -2   -1    0    0    0  501 -0.00000000000E+00  0.00000000000E+00  0.31028007616E+02  0.31028007616E+02  0.00000000000E+00 0.  1.
          2   -1    0    0  501    0  0.00000000000E+00 -0.00000000000E+00 -0.23577558671E+04  0.23577558671E+04  0.00000000000E+00 0. -1.
         23    2    1    2    0    0 -0.96499912691E+00 -0.24537205579E+03 -0.12873097467E+04  0.13164428757E+04  0.12508830475E+03 0.  0.
          5    1    3    3  502    0  0.53518259055E+02 -0.11677218711E+03 -0.46904660801E+03  0.48633541987E+03  0.41800000000E+01 0. -1.
         -5    1    3    3    0  502 -0.54483258182E+02 -0.12859986868E+03 -0.81826313870E+03  0.83010745582E+03  0.41800000000E+01 0. -1.
        -11    1    1    2    0    0 -0.24661167235E+02  0.23411812341E+03 -0.94322129364E+03  0.97215527446E+03  0.00000000000E+00 0.  1.
         11    1    1    2    0    0  0.25626166362E+02  0.11253932383E+02 -0.96196819126E+02  0.10018572456E+03  0.00000000000E+00 0. -1.
</event>
<event>
 7    1  0.4966153E-006  0.1057479E+03  0.7561462E-02  0.1268653E+00
         -2   -1    0    0    0  501 -0.00000000000E+00  0.00000000000E+00  0.96371343353E+01  0.96371343353E+01  0.00000000000E+00 0.  1.
          2   -1    0    0  501    0  0.00000000000E+00 -0.00000000000E+00 -0.11930599655E+04  0.11930599655E+04  0.00000000000E+00 0. -1.
         23    2    1    2    0    0 -0.12709379146E+02 -0.25009231196E+02 -0.69104172966E+03  0.70051756164E+03  0.11135165944E+03 0.  0.
          5    1    3    3  502    0  0.41895232667E+02 -0.38021993554E+02 -0.40879497294E+03  0.41271259348E+03  0.41800000000E+01 0. -1.
         -5    1    3    3    0  502 -0.54604611813E+02  0.13012762358E+02 -0.28224675672E+03  0.28780496816E+03  0.41800000000E+01 0.  1.
        -11    1    1    2    0    0 -0.37205238998E+02  0.30702800802E+02 -0.22367166966E+03  0.22881413329E+03  0.00000000000E+00 0.  1.
         11    1    1    2    0    0  0.49914618144E+02 -0.56935696066E+01 -0.26870943183E+03  0.27336540489E+03  0.00000000000E+00 0. -1.
</event>
<event>
 7    1  0.4966153E-006  0.1335805E+03  0.7561462E-02  0.1222238E+00
          1   -1    0    0  501    0  0.00000000000E+00  0.00000000000E+00  0.75717497922E+03  0.75717497922E+03  0.00000000000E+00 0. -1.
         -1   -1    0    0    0  501 -0.00000000000E+00 -0.00000000000E+00 -0.26406490920E+02  0.26406490920E+02  0.00000000000E+00 0.  1.
         23    2    1    2    0    0  0.24750573639E+02  0.79763339395E+02  0.30402835831E+03  0.33919872897E+03  0.12509098239E+03 0.  0.
          5    1    3    3  502    0 -0.42610590398E+02 -0.29878183021E+01  0.10261970162E+03  0.11123338093E+03  0.41800000000E+01 0.  1.
         -5    1    3    3    0  502  0.67361164038E+02  0.82751157698E+02  0.20140865668E+03  0.22796534804E+03  0.41800000000E+01 0.  1.
        -11    1    1    2    0    0  0.25131873531E+02 -0.57657682974E+02  0.29787457891E+03  0.30444257953E+03  0.00000000000E+00 0. -1.
         11    1    1    2    0    0 -0.49882447171E+02 -0.22105656422E+02  0.12886555109E+03  0.13994016164E+03  0.00000000000E+00 0.  1.
</event>
<event>
 7    1  0.4966153E-006  0.1100924E+03  0.7561462E-02  0.1260399E+00
         -1   -1    0    0    0  501 -0.00000000000E+00  0.00000000000E+00  0.16428673872E+03  0.16428673872E+03  0.00000000000E+00 0.  1.
          1   -1    0    0  501    0  0.00000000000E+00 -0.00000000000E+00 -0.13275326276E+03  0.13275326276E+03  0.00000000000E+00 0. -1.
         23    2    1    2    0    0 -0.88908063051E+02  0.74670290992E+01  0.59899963964E+02  0.16491342934E+03  0.12509209926E+03 0.  0.
          5    1    3    3  502    0 -0.62005355517E+02  0.17767191940E+02 -0.29385878881E+02  0.71002390804E+02  0.41800000000E+01 0.  1.
         -5    1    3    3    0  502 -0.26902707534E+02 -0.10300162841E+02  0.89285842845E+02  0.93911038541E+02  0.41800000000E+01 0.  1.
        -11    1    1    2    0    0  0.25536112506E+02  0.39865481354E+02  0.20385237523E+01  0.47386762124E+02  0.00000000000E+00 0. -1.
         11    1    1    2    0    0  0.63371950545E+02 -0.47332510453E+02 -0.30405011753E+02  0.84739810015E+02  0.00000000000E+00 0.  1.
</event>
<event>
 7    1  0.4966153E-006  0.2342205E+03  0.7561462E-02  0.1123704E+00
          1   -1    0    0  501    0  0.00000000000E+00  0.00000000000E+00  0.11925288106E+03  0.11925288106E+03  0.00000000000E+00 0. -1.
         -1   -1    0    0    0  501 -0.00000000000E+00 -0.00000000000E+00 -0.49566552581E+03  0.49566552581E+03  0.00000000000E+00 0.  1.
         23    2    1    2    0    0 -0.10125045798E+03 -0.19130586942E+03 -0.23861483999E+03  0.34559128314E+03  0.12508677869E+03 0.  0.
          5    1    3    3  502    0 -0.61464909554E+02 -0.19776597182E+03 -0.21563117234E+03  0.29900433041E+03  0.41800000000E+01 0.  1.
         -5    1    3    3    0  502 -0.39785548422E+02  0.64601024035E+01 -0.22983667652E+02  0.46586952734E+02  0.41800000000E+01 0.  1.
        -11    1    1    2    0    0  0.15061997138E+02  0.72230567204E+02 -0.86371484747E+02  0.11359644349E+03  0.00000000000E+00 0.  1.
         11    1    1    2    0    0  0.86188460838E+02  0.11907530222E+03 -0.51426320012E+02  0.15573068024E+03  0.00000000000E+00 0. -1.
</event>
<event>
 7    1  0.4966153E-006  0.9941164E+02  0.7561462E-02  0.1281538E+00
          2   -1    0    0  501    0  0.00000000000E+00  0.00000000000E+00  0.15909731383E+03  0.15909731383E+03  0.00000000000E+00 0. -1.
         -2   -1    0    0    0  501 -0.00000000000E+00 -0.00000000000E+00 -0.89653021905E+02  0.89653021905E+02  0.00000000000E+00 0.  1.
         23    2    1    2    0    0  0.32864534898E+01 -0.30347804850E+02 -0.73083146801E+01  0.12897186955E+03  0.12509413111E+03 0.  0.
          5    1    3    3  502    0  0.51846360010E+02 -0.28792220423E+02  0.30917852480E+02  0.67010618600E+02  0.41800000000E+01 0.  1.
         -5    1    3    3    0  502 -0.48559906520E+02 -0.15555844272E+01 -0.38226167160E+02  0.61961250955E+02  0.41800000000E+01 0.  1.
        -11    1    1    2    0    0  0.27005408344E+02  0.48342178444E+02  0.36686315319E+02  0.66423971789E+02  0.00000000000E+00 0.  1.
         11    1    1    2    0    0 -0.30291861834E+02 -0.17994373594E+02  0.40066291283E+02  0.53354494390E+02  0.00000000000E+00 0. -1.
</event>
<event>
 7    1  0.4966153E-006  0.1034908E+03  0.7561462E-02  0.1273122E+00
         -1   -1    0    0    0  501 -0.00000000000E+00  0.00000000000E+00  0.67523854212E+03  0.67523854212E+03  0.00000000000E+00 0.  1.
          1   -1    0    0  501    0  0.00000000000E+00 -0.00000000000E+00 -0.23465994212E+02  0.23465994212E+02  0.00000000000E+00 0. -1.
         23    2    1    2    0    0  0.29509719518E+02 -0.47854490235E+02  0.45553431853E+03  0.47573080416E+03  0.12508959543E+03 0.  0.
          5    1    3    3  502    0  0.61830952809E+02 -0.44029213005E+02  0.42207405749E+03  0.42886550424E+03  0.41800000000E+01 0. -1.
         -5    1    3    3    0  502 -0.32321233292E+02 -0.38252772295E+01  0.33460261041E+02  0.46865299917E+02  0.41800000000E+01 0. -1.
        -11    1    1    2    0    0  0.11340205312E+02  0.55449271059E+02  0.69679080813E+02  0.89768570338E+02  0.00000000000E+00 0. -1.
         11    1    1    2    0    0 -0.40849924830E+02 -0.75947808246E+01  0.12655914857E+03  0.13320516184E+03  0.00000000000E+00 0.  1.
</event>
<event>
 7    1  0.4966153E-006  0.1069195E+03  0.7561462E-02  0.1266383E+00
          4   -1    0    0  501    0  0.00000000000E+00  0.00000000000E+00  0.10484825705E+03  0.10484825705E+03  0.00000000000E+00 0. -1.
         -4   -1    0    0    0  501 -0.00000000000E+00 -0.00000000000E+00 -0.17407281222E+03  0.17407281222E+03  0.00000000000E+00 0.  1.
         23    2    1    2    0    0  0.78691781496E+02 -0.17622794155E+02 -0.41276535764E+02  0.15444754347E+03  0.12508929583E+03 0.  0.
          5    1    3    3  502    0  0.57912612482E+02  0.15040373611E+02  0.34542085697E+02  0.69214966642E+02  0.41800000000E+01 0.  1.
         -5    1    3    3    0  502  0.20779169014E+02 -0.32663167766E+02 -0.75818621461E+02  0.85232576833E+02  0.41800000000E+01 0.  1.
        -11    1    1    2    0    0 -0.39076637661E+02  0.50211251608E+02  0.44860127519E+01  0.63783051897E+02  0.00000000000E+00 0.  1.
         11    1    1    2    0    0 -0.39615143835E+02 -0.32588457453E+02 -0.32434032151E+02  0.60690473897E+02  0.00000000000E+00 0. -1.
</event>
<event>
 7    1  0.4966153E-006  0.9285059E+02  0.7561462E-02  0.1296092E+00
          1   -1    0    0  501    0  0.00000000000E+00  0.00000000000E+00  0.42594749387E+02  0.42594749387E+02  0.00000000000E+00 0. -1.
         -1   -1    0    0    0  501 -0.00000000000E+00 -0.00000000000E+00 -0.51849334109E+03  0.51849334109E+03  0.00000000000E+00 0.  1.
         23    2    1    2    0    0 -0.30573250738E+01  0.43831505308E+02 -0.42821235803E+03  0.44826733038E+03  0.12508887969E+03 0.  0.
          5    1    3    3  502    0 -0.23986915426E+02 -0.18018078898E+02 -0.23599048742E+02  0.38398056987E+02  0.41800000000E+01 0.  1.
         -5    1    3    3    0  502  0.20929590353E+02  0.61849584206E+02 -0.40461330929E+03  0.40986927339E+03  0.41800000000E+01 0.  1.
        -11    1    1    2    0    0 -0.15208258232E+02  0.19122165029E+02 -0.39932218273E+02  0.46813783975E+02  0.00000000000E+00 0.  1.
         11    1    1    2    0    0  0.18265583306E+02 -0.62953670338E+02 -0.77540154051E+01  0.66006976127E+02  0.00000000000E+00 0. -1.
</event>
<event>
 7    1  0.4966153E-006  0.1101008E+03  0.7561462E-02  0.1260383E+00
         -2   -1    0    0    0  501 -0.00000000000E+00  0.00000000000E+00  0.21769833726E+03  0.21769833726E+03  0.00000000000E+00 0.  1.
          2   -1    0    0  501    0  0.00000000000E+00 -0.00000000000E+00 -0.76626885290E+02  0.76626885290E+02  0.00000000000E+00 0. -1.
         23    2    1    2    0    0 -0.19723243442E+02  0.40087908142E+02  0.14097847011E+03  0.19369599226E+03  0.12508861529E+03 0.  0.
          5    1    3    3  502    0  0.16487870805E+02 -0.39073637084E+02  0.27923059307E+02  0.50948686340E+02  0.41800000000E+01 0. -1.
         -5    1    3    3    0  502 -0.36211114248E+02  0.79161545226E+02  0.11305541080E+03  0.14274730592E+03  0.41800000000E+01 0. -1.
        -11    1    1    2    0    0  0.39088892991E+02 -0.53948141402E+02  0.20034385058E+02  0.69568096860E+02  0.00000000000E+00 0.  1.
         11    1    1    2    0    0 -0.19365649549E+02  0.13860233260E+02 -0.19941403194E+02  0.31061133427E+02  0.00000000000E+00 0. -1.
</event>
<event>
 7    1  0.4966153E-006  0.1496064E+03  0.7561462E-02  0.1200957E+00
          1   -1    0    0  501    0  0.00000000000E+00  0.00000000000E+00  0.20589923502E+02  0.20589923502E+02  0.00000000000E+00 0. -1.
         -1   -1    0    0    0  501 -0.00000000000E+00 -0.00000000000E+00 -0.11136038501E+04  0.11136038501E+04  0.00000000000E+00 0.  1.
         23    2    1    2    0    0  0.51574582097E+02  0.91310702110E+02 -0.67977612622E+03  0.69910029615E+03  0.12509220782E+03 0.  0.
          5    1    3    3  502    0  0.92908240011E+02  0.56273799808E+02 -0.46868638666E+03  0.48112688872E+03  0.41800000000E+01 0. -1.
         -5    1    3    3    0  502 -0.41333657914E+02  0.35036902302E+02 -0.21108973956E+03  0.21797340743E+03  0.41800000000E+01 0. -1.
        -11    1    1    2    0    0  0.24186495933E+02 -0.14120182799E+02 -0.85440267909E+02  0.89913322306E+02  0.00000000000E+00 0.  1.
         11    1    1    2    0    0 -0.75761078030E+02 -0.77190519310E+02 -0.32779753249E+03  0.34518015516E+03  0.00000000000E+00 0. -1.
</event>
<event>
 7    1  0.4966153E-006  0.1090047E+03  0.7561462E-02  0.1262424E+00
          1   -1    0    0  501    0  0.00000000000E+00  0.00000000000E+00  0.19231904384E+03  0.19231904384E+03  0.00000000000E+00 0. -1.
         -1   -1    0    0    0  501 -0.00000000000E+00 -0.00000000000E+00 -0.69934606881E+02  0.69934606881E+02  0.00000000000E+00 0.  1.
         23    2    1    2    0    0  0.36795856130E+02 -0.46928691256E+01  0.67402389818E+02  0.14685960914E+03  0.12509478244E+03 0.  0.
          5    1    3    3  502    0  0.68592533706E+02  0.36551049279E+02  0.34672957552E+02  0.85209161884E+02  0.41800000000E+01 0.  1.
         -5    1    3    3    0  502 -0.31796677576E+02 -0.41243918404E+02  0.32729432267E+02  0.61650447254E+02  0.41800000000E+01 0.  1.
        -11    1    1    2    0    0 -0.31532122711E+02 -0.35448590791E+02  0.41097000357E+00  0.47445192044E+02  0.00000000000E+00 0.  1.
         11    1    1    2    0    0 -0.52637334187E+01  0.40141459916E+02  0.54571077137E+02  0.67948849539E+02  0.00000000000E+00 0. -1.
</event>
<event>
 7    1  0.4966153E-006  0.1163777E+03  0.7561462E-02  0.1249195E+00
          2   -1    0    0  501    0  0.00000000000E+00  0.00000000000E+00  0.83061391251E+02  0.83061391251E+02  0.00000000000E+00 0. -1.
         -2   -1    0    0    0  501 -0.00000000000E+00 -0.00000000000E+00 -0.17778917793E+03  0.17778917793E+03  0.00000000000E+00 0.  1.
         23    2    1    2    0    0  0.45876204944E+02  0.26666741331E+02 -0.61511713830E+02  0.14915000894E+03  0.12508514283E+03 0.  0.
          5    1    3    3  502    0 -0.24279500955E+02 -0.27837572269E+02 -0.45545096745E+02  0.58789904184E+02  0.41800000000E+01 0. -1.
         -5    1    3    3    0  502  0.70155705900E+02  0.54504313600E+02 -0.15966617085E+02  0.90360104761E+02  0.41800000000E+01 0. -1.
        -11    1    1    2    0    0 -0.43660907992E+02  0.28041451923E+02 -0.16664209674E+02  0.54500401803E+02  0.00000000000E+00 0. -1.
         11    1    1    2    0    0 -0.22152969526E+01 -0.54708193255E+02 -0.16551863171E+02  0.57200158428E+02  0.00000000000E+00 0.  1.
</event>
<event>
 7    1  0.4966153E-006  0.1802603E+03  0.7561462E-02  0.1167551E+00
          1   -1    0    0  501    0  0.00000000000E+00  0.00000000000E+00  0.20815413726E+03  0.20815413726E+03  0.00000000000E+00 0. -1.
         -1   -1    0    0    0  501 -0.00000000000E+00 -0.00000000000E+00 -0.21601112012E+03  0.21601112012E+03  0.00000000000E+00 0.  1.
         23    2    1    2    0    0 -0.14291585844E+03 -0.17219353789E+02 -0.11510752655E+03  0.22275888242E+03  0.12510127214E+03 0.  0.
          5    1    3    3  502    0 -0.15646363155E+03 -0.42085054332E+02 -0.96952593601E+02  0.18886317164E+03  0.41800000000E+01 0.  1.
         -5    1    3    3    0  502  0.13547773103E+02  0.24865700543E+02 -0.18154932948E+02  0.33895710789E+02  0.41800000000E+01 0.  1.
        -11    1    1    2    0    0  0.12835143565E+03  0.46984547185E+02  0.79053133294E+02  0.15789565096E+03  0.00000000000E+00 0.  1.
         11    1    1    2    0    0  0.14564422790E+02 -0.29765193396E+02  0.28197410396E+02  0.43510723990E+02  0.00000000000E+00 0. -1.
</event>
<event>
 6    1  0.4966153E-006  0.2072450E+03  0.7561462E-02  0.1143766E+00
          2   -1    0    0  501    0  0.00000000000E+00  0.00000000000E+00  0.71524909445E+03  0.71524909445E+03  0.00000000000E+00 0. -1.
         -2   -1    0    0    0  501 -0.00000000000E+00 -0.00000000000E+00 -0.60368769773E+02  0.60368769773E+02  0.00000000000E+00 0.  1.
          5    1    1    2  502    0 -0.28701708531E+02  0.18613825159E+03  0.31445641654E+03  0.36656724769E+03  0.41800000000E+01 0. -1.
         -5    1    1    2    0  502  0.32048203848E+02 -0.85677689975E+02  0.13025942924E+03  0.15922545411E+03  0.41800000000E+01 0.  1.
        -11    1    1    2    0    0 -0.44772734943E+02 -0.70083958311E+02  0.14050432333E+03  0.16327223855E+03  0.00000000000E+00 0.  1.
         11    1    1    2    0    0  0.41426239625E+02 -0.30376603300E+02  0.69660155559E+02  0.86552923867E+02  0.00000000000E+00 0. -1.
</event>
<event>
 7    1  0.4966153E-006  0.1631644E+03  0.7561462E-02  0.1185170E+00
         -4   -1    0    0    0  501 -0.00000000000E+00  0.00000000000E+00  0.42354625364E+03  0.42354625364E+03  0.00000000000E+00 0.  1.
          4   -1    0    0  501    0  0.00000000000E+00 -0.00000000000E+00 -0.18846026521E+03  0.18846026521E+03  0.00000000000E+00 0. -1.
         23    2    1    2    0    0  0.70152224371E+01  0.14848762430E+03  0.35217789627E+03  0.40222533451E+03  0.12513257443E+03 0.  0.
          5    1    3    3  502    0  0.36672393843E+02  0.13724141159E+03  0.19195350921E+03  0.23883821223E+03  0.41800000000E+01 0.  1.
         -5    1    3    3    0  502 -0.29657171406E+02  0.11246212709E+02  0.16022438706E+03  0.16338712227E+03  0.41800000000E+01 0.  1.
        -11    1    1    2    0    0 -0.14531030048E+02 -0.28451805016E+02  0.11270869300E+02  0.33877552121E+02  0.00000000000E+00 0.  1.
         11    1    1    2    0    0  0.75158076111E+01 -0.12003581928E+03 -0.12836277714E+03  0.17590363223E+03  0.00000000000E+00 0. -1.
</event>
<event>
 7    1  0.4966153E-006  0.1039546E+03  0.7561462E-02  0.1272193E+00
         -1   -1    0    0    0  501 -0.00000000000E+00  0.00000000000E+00  0.27029176368E+02  0.27029176368E+02  0.00000000000E+00 0.  1.
          1   -1    0    0  501    0  0.00000000000E+00 -0.00000000000E+00 -0.47215826231E+03  0.47215826231E+03  0.00000000000E+00 0. -1.
         23    2    1    2    0    0  0.28954016535E+02  0.14915889696E+01 -0.23480403889E+03  0.26762174878E+03  0.12509158178E+03 0.  0.
          5    1    3    3  502    0 -0.14218439926E+02  0.46491522213E+02 -0.17289808176E+03  0.17965201014E+03  0.41800000000E+01 0.  1.
         -5    1    3    3    0  502  0.43172456461E+02 -0.44999933244E+02 -0.61905957126E+02  0.87969738640E+02  0.41800000000E+01 0.  1.
        -11    1    1    2    0    0 -0.20680857289E+02 -0.46477942830E+02 -0.11933347779E+03  0.12972423038E+03  0.00000000000E+00 0. -1.
         11    1    1    2    0    0 -0.82731592452E+01  0.44986353861E+02 -0.90991569265E+02  0.10184145951E+03  0.00000000000E+00 0.  1.
</event>
<event>
 6    1  0.4966153E-006  0.1152955E+03  0.7561462E-02  0.1251066E+00
          2   -1    0    0  501    0  0.00000000000E+00  0.00000000000E+00  0.12745661742E+03  0.12745661742E+03  0.00000000000E+00 0. -1.
         -2   -1    0    0    0  501 -0.00000000000E+00 -0.00000000000E+00 -0.22046556443E+03  0.22046556443E+03  0.00000000000E+00 0.  1.
          5    1    1    2  502    0  0.25810546779E+02  0.51479581479E+02 -0.46467955360E+02  0.74115281215E+02  0.41800000000E+01 0. -1.
         -5    1    1    2    0  502 -0.14004798927E+02 -0.84912038755E+02 -0.12365202745E+03  0.15070993667E+03  0.41800000000E+01 0.  1.
        -11    1    1    2    0    0 -0.45083064524E+02  0.10536259027E+02  0.14368429848E+02  0.48476254367E+02  0.00000000000E+00 0. -1.
         11    1    1    2    0    0  0.33277316672E+02  0.22896198250E+02  0.62742605951E+02  0.74620709597E+02  0.00000000000E+00 0.  1.
</event>
<event>
 7    1  0.4966153E-006  0.1266893E+03  0.7561462E-02  0.1232452E+00
         -1   -1    0    0    0  501 -0.00000000000E+00  0.00000000000E+00  0.49079961069E+02  0.49079961069E+02  0.00000000000E+00 0.  1.
          1   -1    0    0  501    0  0.00000000000E+00 -0.00000000000E+00 -0.44415852098E+03  0.44415852098E+03  0.00000000000E+00 0. -1.
         23    2    1    2    0    0  0.45757903686E+02  0.75146478467E+02 -0.13550611184E+03  0.20433329723E+03  0.12509760603E+03 0.  0.
          5    1    3    3  502    0 -0.26247774309E+02  0.19254964824E+01  0.79954667291E+01  0.27821809450E+02  0.41800000000E+01 0. -1.
         -5    1    3    3    0  502  0.72005677995E+02  0.73220981985E+02 -0.14350157856E+03  0.17651148778E+03  0.41800000000E+01 0. -1.
        -11    1    1    2    0    0 -0.49085996161E+02 -0.35665575153E+00 -0.73997813414E+02  0.88798866054E+02  0.00000000000E+00 0.  1.
         11    1    1    2    0    0  0.33280924752E+01 -0.74789822716E+02 -0.18557463466E+03  0.20010631876E+03  0.00000000000E+00 0. -1.
</event>
<event>
 7    1  0.4966153E-006  0.1202270E+03  0.7561462E-02  0.1242723E+00
         -2   -1    0    0    0  501 -0.00000000000E+00  0.00000000000E+00  0.42640871208E+03  0.42640871208E+03  0.00000000000E+00 0.  1.
          2   -1    0    0  501    0  0.00000000000E+00 -0.00000000000E+00 -0.46975769161E+02  0.46975769161E+02  0.00000000000E+00 0. -1.
         23    2    1    2    0    0  0.50240986719E+02  0.39929611764E+02  0.32095029956E+03  0.34716294931E+03  0.11573455812E+03 0.  0.
          5    1    3    3  502    0  0.25756983964E+02 -0.39959021779E+02  0.97213431505E+02  0.10829621097E+03  0.41800000000E+01 0. -1.
         -5    1    3    3    0  502  0.24484002755E+02  0.79888633542E+02  0.22373686806E+03  0.23886673835E+03  0.41800000000E+01 0.  1.
        -11    1    1    2    0    0 -0.95644951495E+00  0.26408958456E+02  0.28081555924E+01  0.26575056354E+02  0.00000000000E+00 0.  1.
         11    1    1    2    0    0 -0.49284537204E+02 -0.66338570220E+02  0.55674487757E+02  0.99646475568E+02  0.00000000000E+00 0. -1.
</event>
<event>
 7    1  0.4966153E-006  0.8254824E+02  0.7561462E-02  0.1321972E+00
          2   -1    0    0  501    0  0.00000000000E+00  0.00000000000E+00  0.16000751295E+03  0.16000751295E+03  0.00000000000E+00 0. -1.
         -2   -1    0    0    0  501 -0.00000000000E+00 -0.00000000000E+00 -0.65433910403E+02  0.65433910403E+02  0.00000000000E+00 0.  1.
         23    2    1    2    0    0 -0.11873349529E+02 -0.25294208529E+02  0.41391649500E+02  0.13468699994E+03  0.12508615387E+03 0.  0.
          5    1    3    3  502    0  0.38419729098E+02 -0.13676119682E+02  0.65730101573E+02  0.77466318399E+02  0.41800000000E+01 0. -1.
         -5    1    3    3    0  502 -0.50293078627E+02 -0.11618088847E+02 -0.24338452073E+02  0.57220681537E+02  0.41800000000E+01 0. -1.
        -11    1    1    2    0    0  0.39809792384E+02  0.15038193115E+02  0.23020626222E+02  0.48383014101E+02  0.00000000000E+00 0.  1.
         11    1    1    2    0    0 -0.27936442855E+02  0.10256015413E+02  0.30161326821E+02  0.42371409313E+02  0.00000000000E+00 0. -1.
</event>
<event>
 6    1  0.4966153E-006  0.1037484E+03  0.7561462E-02  0.1272605E+00
         -1   -1    0    0    0  501 -0.00000000000E+00  0.00000000000E+00  0.75760644877E+02  0.75760644877E+02  0.00000000000E+00 0.  1.
          1   -1    0    0  501    0  0.00000000000E+00 -0.00000000000E+00 -0.17541498953E+03  0.17541498953E+03  0.00000000000E+00 0. -1.
          5    1    1    2  502    0  0.56051316554E+02 -0.38082848375E+02 -0.57545978612E+02  0.89000367877E+02  0.41800000000E+01 0. -1.
         -5    1    1    2    0  502 -0.55566449694E+02  0.18322260462E+02  0.48692531794E+01  0.58860152791E+02  0.41800000000E+01 0.  1.
        -11    1    1    2    0    0 -0.31119977818E+02  0.34911298001E+02 -0.19800836162E+01  0.46809961319E+02  0.00000000000E+00 0.  1.
         11    1    1    2    0    0  0.30635110958E+02 -0.15150710088E+02 -0.44997535607E+02  0.56505152422E+02  0.00000000000E+00 0. -1.
</event>
<event>
 6    1  0.4966153E-006  0.1509963E+03  0.7561462E-02  0.1199254E+00
         -3   -1    0    0    0  501 -0.00000000000E+00  0.00000000000E+00  0.94390534762E+03  0.94390534762E+03  0.00000000000E+00 0.  1.
          3   -1    0    0  501    0  0.00000000000E+00 -0.00000000000E+00 -0.49433035869E+02  0.49433035869E+02  0.00000000000E+00 0. -1.
          5    1    1    2  502    0 -0.90621471132E+02 -0.15393681425E+02  0.62676703082E+02  0.11133309466E+03  0.41800000000E+01 0. -1.
         -5    1    1    2    0  502  0.88630481297E+02 -0.67507113232E+02  0.66090502957E+03  0.67024286871E+03  0.41800000000E+01 0.  1.
        -11    1    1    2    0    0 -0.25147388186E+02  0.48874600134E+02  0.26623528195E+02  0.61073152239E+02  0.00000000000E+00 0. -1.
         11    1    1    2    0    0  0.27138378021E+02  0.34026194524E+02  0.14426705090E+03  0.15068926787E+03  0.00000000000E+00 0.  1.
</event>
<event>
 7    1  0.4966153E-006  0.2657228E+03  0.7561462E-02  0.1103753E+00
         -2   -1    0    0    0  501 -0.00000000000E+00  0.00000000000E+00  0.65442341768E+02  0.65442341768E+02  0.00000000000E+00 0.  1.
          2   -1    0    0  501    0  0.00000000000E+00 -0.00000000000E+00 -0.11415905952E+04  0.11415905952E+04  0.00000000000E+00 0. -1.
         23    2    1    2    0    0  0.16639044175E+03 -0.18716039539E+03 -0.53739065648E+03  0.60593035196E+03  0.12509229013E+03 0.  0.
          5    1    3    3  502    0  0.22635208504E+02 -0.10875340676E+03 -0.16324389663E+03  0.19749860337E+03  0.41800000000E+01 0. -1.
         -5    1    3    3    0  502  0.14375523325E+03 -0.78406988623E+02 -0.37414675985E+03  0.40843174859E+03  0.41800000000E+01 0. -1.
        -11    1    1    2    0    0 -0.47065739076E+02  0.93903344831E+02 -0.14357775284E+03  0.17789770396E+03  0.00000000000E+00 0.  1.
         11    1    1    2    0    0 -0.11932470267E+03  0.93257050555E+02 -0.39517984415E+03  0.42320488108E+03  0.00000000000E+00 0. -1.
</event>
<event>
 7    1  0.4966153E-006  0.1594956E+03  0.7561462E-02  0.1189267E+00
          1   -1    0    0  501    0  0.00000000000E+00  0.00000000000E+00  0.42508964313E+03  0.42508964313E+03  0.00000000000E+00 0. -1.
         -1   -1    0    0    0  501 -0.00000000000E+00 -0.00000000000E+00 -0.10051775182E+03  0.10051775182E+03  0.00000000000E+00 0.  1.
         23    2    1    2    0    0 -0.58202838404E+02  0.14319784153E+03  0.63785488635E+02  0.20882873984E+03  0.12509061437E+03 0.  0.
          5    1    3    3  502    0 -0.28086911749E+02  0.12457388698E+03  0.96752206356E+02  0.16026849273E+03  0.41800000000E+01 0. -1.
         -5    1    3    3    0  502 -0.30115926656E+02  0.18623954553E+02 -0.32966717721E+02  0.48560247104E+02  0.41800000000E+01 0. -1.
        -11    1    1    2    0    0  0.37764379381E+02 -0.11265499234E+03  0.11116947427E+03  0.16271431301E+03  0.00000000000E+00 0.  1.
         11    1    1    2    0    0  0.20438459023E+02 -0.30542849195E+02  0.14961692840E+03  0.15406434211E+03  0.00000000000E+00 0. -1.
</event>
<event>
 7    1  0.4966153E-006  0.1253996E+03  0.7561462E-02  0.1234446E+00
         -1   -1    0    0    0  501 -0.00000000000E+00  0.00000000000E+00  0.12792484552E+03  0.12792484552E+03  0.00000000000E+00 0.  1.
          1   -1    0    0  501    0  0.00000000000E+00 -0.00000000000E+00 -0.13606796373E+03  0.13606796373E+03  0.00000000000E+00 0. -1.
         23    2    1    2    0    0  0.62119964646E+02  0.33839694910E+02 -0.23086185102E+02  0.14555120198E+03  0.12509262766E+03 0.  0.
          5    1    3    3  502    0  0.59686675869E+02 -0.37452840252E+02 -0.22516993616E+02  0.74092522705E+02  0.41800000000E+01 0.  1.
         -5    1    3    3    0  502  0.24332887770E+01  0.71292535162E+02 -0.56919148602E+00  0.71458679270E+02  0.41800000000E+01 0.  1.
        -11    1    1    2    0    0 -0.58647549924E+02  0.14400468906E+02  0.30475550962E+02  0.67643682804E+02  0.00000000000E+00 0.  1.
         11    1    1    2    0    0 -0.34724147217E+01 -0.48240163816E+02 -0.15532484067E+02  0.50797924469E+02  0.00000000000E+00 0. -1.
</event>
<event>
 7    1  0.4966153E-006  0.1072478E+03  0.7561462E-02  0.1265753E+00
         -2   -1    0    0    0  501 -0.00000000000E+00  0.00000000000E+00  0.29204386569E+02  0.29204386569E+02  0.00000000000E+00 0.  1.
          2   -1    0    0  501    0  0.00000000000E+00 -0.00000000000E+00 -0.58013452897E+03  0.58013452897E+03  0.00000000000E+00 0. -1.
         23    2    1    2    0    0  0.59706846004E+02  0.38533203192E+02 -0.33201327306E+03  0.36184276967E+03  0.12509061221E+03 0.  0.
          5    1    3    3  502    0  0.62677068538E+02  0.59277998079E+02 -0.32913728189E+03  0.34028094085E+03  0.41800000000E+01 0. -1.
         -5    1    3    3    0  502 -0.29702225339E+01 -0.20744794887E+02 -0.28759911770E+01  0.21561828820E+02  0.41800000000E+01 0. -1.
        -11    1    1    2    0    0  0.12062538380E+02 -0.32579041605E+02 -0.12137965992E+03  0.12625339848E+03  0.00000000000E+00 0. -1.
         11    1    1    2    0    0 -0.71769384384E+02 -0.59541615871E+01 -0.97537209416E+02  0.12124274739E+03  0.00000000000E+00 0.  1.
</event>
<event>
 7    1  0.4966153E-006  0.1249572E+03  0.7561462E-02  0.1235136E+00
          1   -1    0    0  501    0  0.00000000000E+00  0.00000000000E+00  0.10583284427E+03  0.10583284427E+03  0.00000000000E+00 0. -1.
         -1   -1    0    0    0  501 -0.00000000000E+00 -0.00000000000E+00 -0.32544101207E+03  0.32544101207E+03  0.00000000000E+00 0.  1.
         23    2    1    2    0    0 -0.86761356060E+02 -0.43922287191E+02 -0.24731410811E+03  0.29371400531E+03  0.12508776369E+03 0.  0.
          5    1    3    3  502    0 -0.78702332929E+02  0.70719141622E+01 -0.59819039460E+02  0.99196063734E+02  0.41800000000E+01 0. -1.
         -5    1    3    3    0  502 -0.80590231306E+01 -0.50994201353E+02 -0.18749506865E+03  0.19451794157E+03  0.41800000000E+01 0. -1.
        -11    1    1    2    0    0  0.84740903841E+02  0.10367209960E+02  0.48347837829E+02  0.98112248210E+02  0.00000000000E+00 0. -1.
         11    1    1    2    0    0  0.20204522183E+01  0.33555077231E+02 -0.20641897521E+02  0.39447602823E+02  0.00000000000E+00 0.  1.
</event>
<event>
 7    1  0.4966153E-006  0.7034292E+02  0.7561462E-02  0.1358931E+00
          1   -1    0    0  501    0  0.00000000000E+00  0.00000000000E+00  0.42497659295E+03  0.42497659295E+03  0.00000000000E+00 0. -1.
         -1   -1    0    0    0  501 -0.00000000000E+00 -0.00000000000E+00 -0.37351190037E+02  0.37351190037E+02  0.00000000000E+00 0.  1.
         23    2    1    2    0    0  0.61008910313E+02  0.19459466032E+02  0.22474227576E+03  0.26506198140E+03  0.12509198820E+03 0.  0.
          5    1    3    3  502    0  0.20557794283E+02  0.83436795825E+01 -0.11326239895E+02  0.25258582797E+02  0.41800000000E+01 0. -1.
         -5    1    3    3    0  502  0.40451116030E+02  0.11115786450E+02  0.23606851566E+03  0.23980339860E+03  0.41800000000E+01 0. -1.
        -11    1    1    2    0    0 -0.15902000737E+02  0.12867497830E+02 -0.44810454625E+01  0.20941009916E+02  0.00000000000E+00 0.  1.
         11    1    1    2    0    0 -0.45106909576E+02 -0.32326963862E+02  0.16736417261E+03  0.17632479167E+03  0.00000000000E+00 0. -1.
</event>
<event>
 7    1  0.4966153E-006  0.1190378E+03  0.7561462E-02  0.1244693E+00
         -1   -1    0    0    0  501 -0.00000000000E+00  0.00000000000E+00  0.86505127207E+02  0.86505127207E+02  0.00000000000E+00 0.  1.
          1   -1    0    0  501    0  0.00000000000E+00 -0.00000000000E+00 -0.24398382718E+03  0.24398382718E+03  0.00000000000E+00 0. -1.
         23    2    1    2    0    0  0.89477359742E+02  0.53069038217E+02 -0.77409290991E+02  0.18017295235E+03  0.12509026222E+03 0.  0.
          5    1    3    3  502    0  0.79670660995E+02  0.16427886222E+02 -0.10514010010E+03  0.13300076209E+03  0.41800000000E+01 0. -1.
         -5    1    3    3    0  502  0.98066987466E+01  0.36641151995E+02  0.27730809104E+02  0.47172190255E+02  0.41800000000E+01 0. -1.
        -11    1    1    2    0    0 -0.96680026492E+02 -0.42354314109E+02 -0.85959983910E+02  0.13612506852E+03  0.00000000000E+00 0.  1.
         11    1    1    2    0    0  0.72026667506E+01 -0.10714724108E+02  0.58905749315E+01  0.14190933516E+02  0.00000000000E+00 0. -1.
</event>
<event>
 7    1  0.4966153E-006  0.9551224E+02  0.7561462E-02  0.1290027E+00
          1   -1    0    0  501    0  0.00000000000E+00  0.00000000000E+00  0.68362536221E+03  0.68362536221E+03  0.00000000000E+00 0. -1.
         -1   -1    0    0    0  501 -0.00000000000E+00 -0.00000000000E+00 -0.25845843822E+02  0.25845843822E+02  0.00000000000E+00 0.  1.
         23    2    1    2    0    0  0.58879510812E+02  0.48668506754E+02  0.37469630314E+03  0.40234263944E+03  0.12508740778E+03 0.  0.
          5    1    3    3  502    0  0.51401614410E+02  0.56115918697E+02  0.38154680621E+03  0.38908425826E+03  0.41800000000E+01 0. -1.
         -5    1    3    3    0  502  0.74778964013E+01 -0.74474119427E+01 -0.68505030734E+01  0.13258381183E+02  0.41800000000E+01 0. -1.
        -11    1    1    2    0    0  0.44416619287E+00  0.15824662972E+02  0.67066271221E+01  0.17192908106E+02  0.00000000000E+00 0.  1.
         11    1    1    2    0    0 -0.59323677005E+02 -0.64493169727E+02  0.27637658813E+03  0.28993565848E+03  0.00000000000E+00 0. -1.
</event>
<event>
 7    1  0.4966153E-006  0.1241611E+03  0.7561462E-02  0.1236386E+00
         -2   -1    0    0    0  501 -0.00000000000E+00  0.00000000000E+00  0.33902484483E+02  0.33902484483E+02  0.00000000000E+00 0.  1.
          2   -1    0    0  501    0  0.00000000000E+00 -0.00000000000E+00 -0.52785387117E+03  0.52785387117E+03  0.00000000000E+00 0. -1.
         23    2    1    2    0    0 -0.13071169247E+02  0.76996335144E+02 -0.26201282793E+03  0.30068027539E+03  0.12513438744E+03 0.  0.
          5    1    3    3  502    0 -0.59401345460E+01  0.11160414371E+03 -0.20304244259E+03  0.23180698002E+03  0.41800000000E+01 0. -1.
         -5    1    3    3    0  502 -0.71310347006E+01 -0.34607808562E+02 -0.58970385335E+02  0.68873295375E+02  0.41800000000E+01 0. -1.
        -11    1    1    2    0    0  0.29097288435E+02 -0.81547657490E+01 -0.14932383940E+03  0.15235078409E+03  0.00000000000E+00 0. -1.
         11    1    1    2    0    0 -0.16026119189E+02 -0.68841569395E+02 -0.82614719362E+02  0.10872529617E+03  0.00000000000E+00 0.  1.
</event>
<event>
 7    1  0.4966153E-006  0.9673282E+02  0.7561462E-02  0.1287320E+00
         -1   -1    0    0    0  501 -0.00000000000E+00  0.00000000000E+00  0.51432712256E+02  0.51432712256E+02  0.00000000000E+00 0.  1.
          1   -1    0    0  501    0  0.00000000000E+00 -0.00000000000E+00 -0.32713794373E+03  0.32713794373E+03  0.00000000000E+00 0. -1.
         23    2    1    2    0    0  0.25955252523E+02  0.27898302696E+02 -0.64937872425E+02  0.14597921390E+03  0.12506403635E+03 0.  0.
          5    1    3    3  502    0  0.38235105607E+02  0.53808937734E+02 -0.87193915446E+02  0.10944211425E+03  0.41800000000E+01 0. -1.
         -5    1    3    3    0  502 -0.12279853084E+02 -0.25910635039E+02  0.22256043021E+02  0.36537099650E+02  0.41800000000E+01 0. -1.
        -11    1    1    2    0    0 -0.95326036243E+01 -0.60816824006E+02 -0.13413570789E+03  0.14758707513E+03  0.00000000000E+00 0.  1.
         11    1    1    2    0    0 -0.16422648898E+02  0.32918521311E+02 -0.76631651166E+02  0.85004366961E+02  0.00000000000E+00 0. -1.
</event>
<event>
 7    1  0.4966153E-006  0.1470814E+03  0.7561462E-02  0.1204106E+00
         -2   -1    0    0    0  501 -0.00000000000E+00  0.00000000000E+00  0.14603429472E+03  0.14603429472E+03  0.00000000000E+00 0. -1.
          2   -1    0    0  501    0  0.00000000000E+00 -0.00000000000E+00 -0.15925993085E+03  0.15925993085E+03  0.00000000000E+00 0.  1.
         23    2    1    2    0    0 -0.98654253271E+02 -0.38562725655E+02  0.54413273001E+01  0.16400271946E+03  0.12509012132E+03 0.  0.
          5    1    3    3  502    0  0.23491027683E+02  0.77874645977E+01 -0.18419076305E+02  0.31132101734E+02  0.41800000000E+01 0.  1.
         -5    1    3    3    0  502 -0.12214528095E+03 -0.46350190252E+02  0.23860403605E+02  0.13287061773E+03  0.41800000000E+01 0.  1.
        -11    1    1    2    0    0  0.10935702683E+02 -0.26809922783E+02  0.49443166819E+01  0.29373590524E+02  0.00000000000E+00 0. -1.
         11    1    1    2    0    0  0.87718550589E+02  0.65372648438E+02 -0.23611280114E+02  0.11191791559E+03  0.00000000000E+00 0.  1.
</event>
<event>
 7    1  0.4966153E-006  0.8492972E+02  0.7561462E-02  0.1315616E+00
         -1   -1    0    0    0  501 -0.00000000000E+00  0.00000000000E+00  0.11674565106E+03  0.11674565106E+03  0.00000000000E+00 0.  1.
          1   -1    0    0  501    0  0.00000000000E+00 -0.00000000000E+00 -0.13685153934E+03  0.13685153934E+03  0.00000000000E+00 0. -1.
         23    2    1    2    0    0 -0.49255798809E+02 -0.19141883688E+02  0.28096312130E+02  0.13867390213E+03  0.12509397647E+03 0.  0.
          5    1    3    3  502    0 -0.15541425370E+02  0.29839895469E+02  0.61585555169E+02  0.70300841173E+02  0.41800000000E+01 0. -1.
         -5    1    3    3    0  502 -0.33714373439E+02 -0.48981779157E+02 -0.33489243039E+02  0.68373060960E+02  0.41800000000E+01 0. -1.
        -11    1    1    2    0    0  0.52844211194E+01 -0.18017409637E+02 -0.53895483368E+02  0.57072544048E+02  0.00000000000E+00 0. -1.
         11    1    1    2    0    0  0.43971377689E+02  0.37159293325E+02  0.56932829532E+01  0.57850744223E+02  0.00000000000E+00 0.  1.
</event>
<event>
 7    1  0.4966153E-006  0.2002195E+03  0.7561462E-02  0.1149554E+00
         -1   -1    0    0    0  501 -0.00000000000E+00  0.00000000000E+00  0.87976168389E+02  0.87976168389E+02  0.00000000000E+00 0.  1.
          1   -1    0    0  501    0  0.00000000000E+00 -0.00000000000E+00 -0.56956021881E+03  0.56956021881E+03  0.00000000000E+00 0. -1.
         23    2    1    2    0    0 -0.58769213498E+02 -0.16596475924E+03 -0.12510392188E+03  0.24959222291E+03  0.12508862739E+03 0.  0.
          5    1    3    3  502    0 -0.50873853155E+02 -0.86823467619E+01 -0.59681301661E+02  0.79011785501E+02  0.41800000000E+01 0.  1.
         -5    1    3    3    0  502 -0.78953603429E+01 -0.15728241248E+03 -0.65422620223E+02  0.17058043741E+03  0.41800000000E+01 0.  1.
        -11    1    1    2    0    0  0.39467474675E+01  0.11862788768E+03 -0.16527412512E+03  0.20347896448E+03  0.00000000000E+00 0.  1.
         11    1    1    2    0    0  0.54822466030E+02  0.47336871558E+02 -0.19120600342E+03  0.20446519981E+03  0.00000000000E+00 0. -1.
</event>
<event>
 7    1  0.4966153E-006  0.1208353E+03  0.7561462E-02  0.1241725E+00
          2   -1    0    0  501    0  0.00000000000E+00  0.00000000000E+00  0.44540473160E+03  0.44540473160E+03  0.00000000000E+00 0. -1.
         -2   -1    0    0    0  501 -0.00000000000E+00 -0.00000000000E+00 -0.55109575274E+02  0.55109575274E+02  0.00000000000E+00 0.  1.
         23    2    1    2    0    0  0.19485629745E+02 -0.92205931245E+02  0.10890582303E+03  0.19076047566E+03  0.12508979679E+03 0.  0.
          5    1    3    3  502    0 -0.15593801188E+02 -0.96648970829E+02  0.27292016412E+02  0.10171782910E+03  0.41800000000E+01 0.  1.
         -5    1    3    3    0  502  0.35079430933E+02  0.44430395845E+01  0.81613806617E+02  0.89042646557E+02  0.41800000000E+01 0.  1.
        -11    1    1    2    0    0  0.16452046244E+02  0.50032406826E+02  0.52922139064E+02  0.74663674980E+02  0.00000000000E+00 0.  1.
         11    1    1    2    0    0 -0.35937675989E+02  0.42173524419E+02  0.22846719423E+03  0.23509015623E+03  0.00000000000E+00 0. -1.
</event>
<event>
 7    1  0.4966153E-006  0.1332339E+03  0.7561462E-02  0.1222735E+00
          1   -1    0    0  501    0  0.00000000000E+00  0.00000000000E+00  0.78713604199E+03  0.78713604199E+03  0.00000000000E+00 0. -1.
         -1   -1    0    0    0  501 -0.00000000000E+00 -0.00000000000E+00 -0.23226490105E+02  0.23226490105E+02  0.00000000000E+00 0.  1.
         23    2    1    2    0    0  0.28359862227E+01 -0.77747328563E+02  0.36395238765E+03  0.39263704204E+03  0.12509922616E+03 0.  0.
          5    1    3    3  502    0 -0.58212706764E+02 -0.56454759402E+02  0.22820018620E+03  0.24221613586E+03  0.41800000000E+01 0.  1.
         -5    1    3    3    0  502  0.61048692986E+02 -0.21292569161E+02  0.13575220145E+03  0.15042090618E+03  0.41800000000E+01 0.  1.
        -11    1    1    2    0    0  0.28960440985E+02  0.83308761811E+02  0.28699078518E+03  0.30023785190E+03  0.00000000000E+00 0.  1.
         11    1    1    2    0    0 -0.31796427207E+02 -0.55614332481E+01  0.11296637905E+03  0.11748763815E+03  0.00000000000E+00 0. -1.
</event>
<event>
 7    1  0.4966153E-006  0.1048761E+03  0.7561462E-02  0.1270364E+00
          2   -1    0    0  501    0  0.00000000000E+00  0.00000000000E+00  0.11184001844E+03  0.11184001844E+03  0.00000000000E+00 0. -1.
         -2   -1    0    0    0  501 -0.00000000000E+00 -0.00000000000E+00 -0.12206156583E+03  0.12206156583E+03  0.00000000000E+00 0.  1.
         23    2    1    2    0    0 -0.34607555155E+02 -0.10000775516E+02 -0.30027100449E+02  0.13359343107E+03  0.12509148524E+03 0.  0.
          5    1    3    3  502    0  0.11256839977E+02 -0.49978250204E+02 -0.47674421928E+02  0.70106097067E+02  0.41800000000E+01 0. -1.
         -5    1    3    3    0  502 -0.45864395132E+02  0.39977474688E+02  0.17647321479E+02  0.63487334002E+02  0.41800000000E+01 0. -1.
        -11    1    1    2    0    0  0.41888185476E+02 -0.33266428651E+02  0.38785987126E+01  0.53631323736E+02  0.00000000000E+00 0.  1.
         11    1    1    2    0    0 -0.72806303209E+01  0.43267204167E+02  0.15926954348E+02  0.46676829468E+02  0.00000000000E+00 0. -1.
</event>
<event>
 7    1  0.4966153E-006  0.8716223E+02  0.7561462E-02  0.1309873E+00
          1   -1    0    0  501    0  0.00000000000E+00  0.00000000000E+00  0.32579710342E+02  0.32579710342E+02  0.00000000000E+00 0. -1.
         -1   -1    0    0    0  501 -0.00000000000E+00 -0.00000000000E+00 -0.61561054414E+03  0.61561054414E+03  0.00000000000E+00 0.  1.
         23    2    1    2    0    0 -0.49640627283E+02 -0.59227650122E+02 -0.42543671266E+03  0.45012813584E+03  0.12508731265E+03 0.  0.
          5    1    3    3  502    0 -0.14426012246E+02  0.25484514727E+01  0.32390833340E+01  0.15574610592E+02  0.41800000000E+01 0. -1.
         -5    1    3    3    0  502 -0.35214615037E+02 -0.61776101595E+02 -0.42867579599E+03  0.43455352525E+03  0.41800000000E+01 0. -1.
        -11    1    1    2    0    0 -0.65561045451E+01  0.14919490446E+02  0.76386205924E+01  0.17997839496E+02  0.00000000000E+00 0.  1.
         11    1    1    2    0    0  0.56196731829E+02  0.44308159676E+02 -0.16523274173E+03  0.18006427914E+03  0.00000000000E+00 0. -1.
</event>
<event>
 7    1  0.4966153E-006  0.1173135E+03  0.7561462E-02  0.1247596E+00
         -2   -1    0    0    0  501 -0.00000000000E+00  0.00000000000E+00  0.71037036478E+02  0.71037036478E+02  0.00000000000E+00 0.  1.
          2   -1    0    0  501    0  0.00000000000E+00 -0.00000000000E+00 -0.31772212164E+03  0.31772212164E+03  0.00000000000E+00 0. -1.
         23    2    1    2    0    0 -0.61663242144E+02  0.49739883412E+02 -0.47160592144E+02  0.15539685373E+03  0.12509056425E+03 0.  0.
          5    1    3    3  502    0  0.36107170356E+02  0.11413156119E+02  0.43669522835E+01  0.38347497389E+02  0.41800000000E+01 0. -1.
         -5    1    3    3    0  502 -0.97770412501E+02  0.38326727292E+02 -0.51527544428E+02  0.11704935634E+03  0.41800000000E+01 0. -1.
        -11    1    1    2    0    0  0.25996711439E+01 -0.28571058844E+02 -0.15191795595E+03  0.15460313397E+03  0.00000000000E+00 0. -1.
         11    1    1    2    0    0  0.59063571000E+02 -0.21168824567E+02 -0.47606537066E+02  0.78759170414E+02  0.00000000000E+00 0.  1.
</event>
<event>
 7    1  0.4966153E-006  0.1306041E+03  0.7561462E-02  0.1226562E+00
         -2   -1    0    0    0  501 -0.00000000000E+00  0.00000000000E+00  0.23091131498E+02  0.23091131498E+02  0.00000000000E+00 0.  1.
          2   -1    0    0  501    0  0.00000000000E+00 -0.00000000000E+00 -0.75293408995E+03  0.75293408995E+03  0.00000000000E+00 0. -1.
         23    2    1    2    0    0  0.10145011884E+02  0.74933935406E+02 -0.38812518909E+03  0.41473549070E+03  0.12508536643E+03 0.  0.
          5    1    3    3  502    0 -0.30896146135E+02  0.93667394764E+02 -0.29683339538E+03  0.31281894076E+03  0.41800000000E+01 0. -1.
         -5    1    3    3    0  502  0.41041158019E+02 -0.18733459358E+02 -0.91291793720E+02  0.10191654994E+03  0.41800000000E+01 0. -1.
        -11    1    1    2    0    0  0.39390545384E+02 -0.23974663152E+02 -0.14250077791E+03  0.14977607033E+03  0.00000000000E+00 0. -1.
         11    1    1    2    0    0 -0.49535557267E+02 -0.50959272254E+02 -0.19921699145E+03  0.21151366042E+03  0.00000000000E+00 0.  1.
</event>
<event>
 7    1  0.4966153E-006  0.1312558E+03  0.7561462E-02  0.1225604E+00
         -1   -1    0    0    0  501 -0.00000000000E+00  0.00000000000E+00  0.70709299546E+02  0.70709299546E+02  0.00000000000E+00 0.  1.
          1   -1    0    0  501    0  0.00000000000E+00 -0.00000000000E+00 -0.35243271713E+03  0.35243271713E+03  0.00000000000E+00 0. -1.
         23    2    1    2    0    0 -0.40751672926E+01  0.11417778364E+03 -0.15098047230E+03  0.22692810178E+03  0.12509231430E+03 0.  0.
          5    1    3    3  502    0  0.42382275627E+02  0.55592696858E+02 -0.14892597082E+02  0.71596557732E+02  0.41800000000E+01 0.  1.
         -5    1    3    3    0  502 -0.46457442920E+02  0.58585086781E+02 -0.13608787521E+03  0.15533154405E+03  0.41800000000E+01 0.  1.
        -11    1    1    2    0    0 -0.91080684897E+01 -0.15030808690E+02  0.12457252640E+02  0.21542174097E+02  0.00000000000E+00 0.  1.
         11    1    1    2    0    0  0.13183235782E+02 -0.99146974949E+02 -0.14320019792E+03  0.17467174080E+03  0.00000000000E+00 0. -1.
</event>
<event>
 7    1  0.4966153E-006  0.1253737E+03  0.7561462E-02  0.1234486E+00
         -1   -1    0    0    0  501 -0.00000000000E+00  0.00000000000E+00  0.23119713657E+03  0.23119713657E+03  0.00000000000E+00 0.  1.
          1   -1    0    0  501    0  0.00000000000E+00 -0.00000000000E+00 -0.80526194893E+02  0.80526194893E+02  0.00000000000E+00 0. -1.
         23    2    1    2    0    0 -0.14308877382E+02 -0.75690364289E+02  0.72660196572E+02  0.16389054779E+03  0.12508729860E+03 0.  0.
          5    1    3    3  502    0 -0.62856790494E+02 -0.17741851106E+02  0.56526264878E+02  0.86477976462E+02  0.41800000000E+01 0. -1.
         -5    1    3    3    0  502  0.48547913112E+02 -0.57948513183E+02  0.16133931695E+02  0.77412571328E+02  0.41800000000E+01 0. -1.
        -11    1    1    2    0    0  0.38209984355E+02  0.97273916678E+01 -0.43179210986E+01  0.39664461369E+02  0.00000000000E+00 0. -1.
         11    1    1    2    0    0 -0.23901106973E+02  0.65962972621E+02  0.82328666207E+02  0.10816832231E+03  0.00000000000E+00 0.  1.
</event>
<event>
 7    1  0.4966153E-006  0.1264866E+03  0.7561462E-02  0.1232764E+00
          1   -1    0    0  501    0  0.00000000000E+00  0.00000000000E+00  0.59718233136E+03  0.59718233136E+03  0.00000000000E+00 0. -1.
         -1   -1    0    0    0  501 -0.00000000000E+00 -0.00000000000E+00 -0.30169583328E+02  0.30169583328E+02  0.00000000000E+00 0.  1.
         23    2    1    2    0    0  0.12503157702E+01  0.70413625828E+02  0.29162045316E+03  0.32503392686E+03  0.12507966628E+03 0.  0.
          5    1    3    3  502    0  0.30469875114E+02 -0.23891298639E+02  0.12894168743E+03  0.13469461236E+03  0.41800000000E+01 0.  1.
         -5    1    3    3    0  502 -0.29219559344E+02  0.94304924468E+02  0.16267876573E+03  0.19033931450E+03  0.41800000000E+01 0.  1.
        -11    1    1    2    0    0 -0.13397885943E+02  0.19952449391E+02  0.11800012269E+03  0.12042272435E+03  0.00000000000E+00 0.  1.
         11    1    1    2    0    0  0.12147570173E+02 -0.90366075220E+02  0.15739217218E+03  0.18189526348E+03  0.00000000000E+00 0. -1.
</event>
<event>
 7    1  0.4966153E-006  0.8934931E+02  0.7561462E-02  0.1304435E+00
          2   -1    0    0  501    0  0.00000000000E+00  0.00000000000E+00  0.48223590609E+02  0.48223590609E+02  0.00000000000E+00 0. -1.
         -2   -1    0    0    0  501 -0.00000000000E+00 -0.00000000000E+00 -0.25851390904E+03  0.25851390904E+03  0.00000000000E+00 0.  1.
         23    2    1    2    0    0  0.49982572418E+01  0.29143219421E+02 -0.14972042279E+03  0.19732571177E+03  0.12508765612E+03 0.  0.
          5    1    3    3  502    0  0.50539873071E+02  0.16749450286E+02 -0.13877257935E+03  0.14869473438E+03  0.41800000000E+01 0.  1.
         -5    1    3    3    0  502 -0.45541615829E+02  0.12393769135E+02 -0.10947843440E+02  0.48630977387E+02  0.41800000000E+01 0.  1.
        -11    1    1    2    0    0 -0.18191678615E+02  0.19994022636E+02  0.38710042970E+01  0.27307192940E+02  0.00000000000E+00 0. -1.
         11    1    1    2    0    0  0.13193421373E+02 -0.49137242057E+02 -0.64440899940E+02  0.82104594936E+02  0.00000000000E+00 0.  1.
</event>
<event>
 7    1  0.4966153E-006  0.1044508E+03  0.7561462E-02  0.1271205E+00
          1   -1    0    0  501    0  0.00000000000E+00  0.00000000000E+00  0.15840640636E+02  0.15840640636E+02  0.00000000000E+00 0. -1.
         -1   -1    0    0    0  501 -0.00000000000E+00 -0.00000000000E+00 -0.91036875609E+03  0.91036875609E+03  0.00000000000E+00 0.  1.
         23    2    1    2    0    0 -0.48400296745E+01  0.68313469376E+01 -0.72312332111E+03  0.73391080136E+03  0.12509050172E+03 0.  0.
          5    1    3    3  502    0  0.31284019449E+02 -0.48894278357E+02 -0.30088158634E+03  0.30645805867E+03  0.41800000000E+01 0.  1.
         -5    1    3    3    0  502 -0.36124049124E+02  0.55725625295E+02 -0.42224173478E+03  0.42745274269E+03  0.41800000000E+01 0.  1.
        -11    1    1    2    0    0 -0.19139764064E+01  0.38391650327E+02 -0.53830347403E+02  0.66145963006E+02  0.00000000000E+00 0. -1.
         11    1    1    2    0    0  0.67540060809E+01 -0.45222997264E+02 -0.11757444693E+03  0.12615263236E+03  0.00000000000E+00 0.  1.
</event>
<event>
 7    1  0.4966153E-006  0.1641995E+03  0.7561462E-02  0.1184036E+00
          2   -1    0    0  501    0  0.00000000000E+00  0.00000000000E+00  0.74973665078E+02  0.74973665078E+02  0.00000000000E+00 0.  1.
         -2   -1    0    0    0  501 -0.00000000000E+00 -0.00000000000E+00 -0.56745995001E+03  0.56745995001E+03  0.00000000000E+00 0. -1.
         23    2    1    2    0    0  0.38647547271E+01 -0.15481943327E+03 -0.36914187588E+03  0.41940106871E+03  0.12509012215E+03 0.  0.
          5    1    3    3  502    0 -0.30290127819E+01 -0.11912895788E+03 -0.12583172950E+03  0.17335506936E+03  0.41800000000E+01 0.  1.
         -5    1    3    3    0  502  0.68937675090E+01 -0.35690475387E+02 -0.24331014638E+03  0.24604599934E+03  0.41800000000E+01 0.  1.
        -11    1    1    2    0    0  0.29674996640E+02  0.12231215850E+03 -0.48648487968E+02  0.13493533609E+03  0.00000000000E+00 0. -1.
         11    1    1    2    0    0 -0.33539751367E+02  0.32507274765E+02 -0.74695921088E+02  0.88097210294E+02  0.00000000000E+00 0.  1.
</event>
<event>
 7    1  0.4966153E-006  0.2511099E+03  0.7561462E-02  0.1112605E+00
          4   -1    0    0  501    0  0.00000000000E+00  0.00000000000E+00  0.35229852923E+03  0.35229852923E+03  0.00000000000E+00 0. -1.
         -4   -1    0    0    0  501 -0.00000000000E+00 -0.00000000000E+00 -0.29110542856E+03  0.29110542856E+03  0.00000000000E+00 0.  1.
         23    2    1    2    0    0 -0.19031538995E+03 -0.14184816418E+03 -0.15475107080E+03  0.30973556072E+03  0.12508946528E+03 0.  0.
          5    1    3    3  502    0 -0.18788302104E+03 -0.93083674703E+02 -0.89220244461E+02  0.22790858806E+03  0.41800000000E+01 0.  1.
         -5    1    3    3    0  502 -0.24323689094E+01 -0.48764489477E+02 -0.65530826341E+02  0.81826972652E+02  0.41800000000E+01 0.  1.
        -11    1    1    2    0    0  0.14311692352E+03  0.13320289714E+03  0.20722416967E+03  0.28489879273E+03  0.00000000000E+00 0. -1.
         11    1    1    2    0    0  0.47198466435E+02  0.86452670359E+01  0.87200017940E+01  0.48769604337E+02  0.00000000000E+00 0.  1.
</event>
<event>
 7    1  0.4966153E-006  0.1228439E+03  0.7561462E-02  0.1238478E+00
          2   -1    0    0  501    0  0.00000000000E+00  0.00000000000E+00  0.23852182972E+03  0.23852182972E+03  0.00000000000E+00 0. -1.
         -2   -1    0    0    0  501 -0.00000000000E+00 -0.00000000000E+00 -0.10225178996E+03  0.10225178996E+03  0.00000000000E+00 0.  1.
         23    2    1    2    0    0 -0.66870382549E+01  0.95618400385E+02  0.78129582275E+01  0.15778387895E+03  0.12508842939E+03 0.  0.
          5    1    3    3  502    0  0.25933704143E+02 -0.72483219112E+00 -0.37957307242E+02  0.46166134399E+02  0.41800000000E+01 0.  1.
         -5    1    3    3    0  502 -0.32620742398E+02  0.96343232576E+02  0.45770265470E+02  0.11161774455E+03  0.41800000000E+01 0.  1.
        -11    1    1    2    0    0 -0.30707464669E+02 -0.49255917084E+02  0.24136517704E+02  0.62862272001E+02  0.00000000000E+00 0.  1.
         11    1    1    2    0    0  0.37394502924E+02 -0.46362483300E+02  0.10432056383E+03  0.12012746873E+03  0.00000000000E+00 0. -1.
</event>
<event>
 7    1  0.4966153E-006  0.1381865E+03  0.7561462E-02  0.1215790E+00
          1   -1    0    0  501    0  0.00000000000E+00  0.00000000000E+00  0.20880932407E+02  0.20880932407E+02  0.00000000000E+00 0. -1.
         -1   -1    0    0    0  501 -0.00000000000E+00 -0.00000000000E+00 -0.10381117416E+04  0.10381117416E+04  0.00000000000E+00 0.  1.
         23    2    1    2    0    0 -0.24774956731E+02  0.84725043805E+02 -0.71345448757E+03  0.72969654658E+03  0.12509041820E+03 0.  0.
          5    1    3    3  502    0  0.44499414595E+02  0.58029541648E+01 -0.15415057085E+03  0.16060430589E+03  0.41800000000E+01 0.  1.
         -5    1    3    3    0  502 -0.69274371327E+02  0.78922089640E+02 -0.55930391672E+03  0.56909224069E+03  0.41800000000E+01 0.  1.
        -11    1    1    2    0    0 -0.17067541962E+02  0.11970169282E+02 -0.66211425472E+02  0.69415695663E+02  0.00000000000E+00 0. -1.
         11    1    1    2    0    0  0.41842498694E+02 -0.96695213087E+02 -0.23756489614E+03  0.25988043175E+03  0.00000000000E+00 0.  1.
</event>
<event>
 7    1  0.4966153E-006  0.8462587E+02  0.7561462E-02  0.1316414E+00
          2   -1    0    0  501    0  0.00000000000E+00  0.00000000000E+00  0.10990304277E+03  0.10990304277E+03  0.00000000000E+00 0. -1.
         -2   -1    0    0    0  501 -0.00000000000E+00 -0.00000000000E+00 -0.13874942081E+03  0.13874942081E+03  0.00000000000E+00 0.  1.
         23    2    1    2    0    0 -0.23424875154E+02  0.52944108279E+02 -0.30976560399E+02  0.14127678476E+03  0.12509108378E+03 0.  0.
          5    1    3    3  502    0 -0.34170465328E+02  0.66464867687E+02 -0.67416259263E+02  0.10073541458E+03  0.41800000000E+01 0.  1.
         -5    1    3    3    0  502  0.10745590174E+02 -0.13520759408E+02  0.36439698865E+02  0.40541370185E+02  0.41800000000E+01 0.  1.
        -11    1    1    2    0    0  0.39112858286E+02 -0.32446134408E+02  0.37807316121E+02  0.63340038472E+02  0.00000000000E+00 0. -1.
         11    1    1    2    0    0 -0.15687983132E+02 -0.20497973871E+02 -0.35677133760E+02  0.44035640349E+02  0.00000000000E+00 0.  1.
</event>
<event>
 7    1  0.4966153E-006  0.1672148E+03  0.7561462E-02  0.1180784E+00
          1   -1    0    0  501    0  0.00000000000E+00  0.00000000000E+00  0.20027300103E+03  0.20027300103E+03  0.00000000000E+00 0. -1.
         -1   -1    0    0    0  501 -0.00000000000E+00 -0.00000000000E+00 -0.30914545372E+03  0.30914545372E+03  0.00000000000E+00 0.  1.
         23    2    1    2    0    0 -0.12697387907E+03 -0.36499330338E+02 -0.24398058764E+03  0.30434965396E+03  0.12509043784E+03 0.  0.
          5    1    3    3  502    0 -0.87762878264E+02  0.38117906670E+02 -0.15067489281E+03  0.17853765242E+03  0.41800000000E+01 0.  1.
         -5    1    3    3    0  502 -0.39211000810E+02 -0.74617237008E+02 -0.93305694832E+02  0.12581200154E+03  0.41800000000E+01 0.  1.
        -11    1    1    2    0    0  0.35270607947E+02  0.50392093324E+02  0.52707432646E+02  0.81002791993E+02  0.00000000000E+00 0. -1.
         11    1    1    2    0    0  0.91703271127E+02 -0.13892762986E+02  0.82400702305E+02  0.12406600880E+03  0.00000000000E+00 0.  1.
</event>
<event>
 7    1  0.4966153E-006  0.1087211E+03  0.7561462E-02  0.1262957E+00
         -1   -1    0    0    0  501 -0.00000000000E+00  0.00000000000E+00  0.49973220087E+03  0.49973220087E+03  0.00000000000E+00 0.  1.
          1   -1    0    0  501    0  0.00000000000E+00 -0.00000000000E+00 -0.47957515919E+02  0.47957515919E+02  0.00000000000E+00 0. -1.
         23    2    1    2    0    0  0.89478695947E+02  0.42260295975E+02  0.32635456409E+03  0.36324534944E+03  0.12509001856E+03 0.  0.
          5    1    3    3  502    0  0.47831323530E+02  0.46805323911E+02  0.31144413690E+03  0.31858043987E+03  0.41800000000E+01 0.  1.
         -5    1    3    3    0  502  0.41647372417E+02 -0.45450279356E+01  0.14910427193E+02  0.44664909574E+02  0.41800000000E+01 0.  1.
        -11    1    1    2    0    0 -0.26269714474E+02  0.80771333853E+01  0.93683551000E+02  0.97631683947E+02  0.00000000000E+00 0.  1.
         11    1    1    2    0    0 -0.63208981473E+02 -0.50337429361E+02  0.31736569863E+02  0.86812683406E+02  0.00000000000E+00 0. -1.
</event>
<event>
 7    1  0.4966153E-006  0.1465473E+03  0.7561462E-02  0.1204781E+00
         -2   -1    0    0    0  501 -0.00000000000E+00  0.00000000000E+00  0.50106699490E+02  0.50106699490E+02  0.00000000000E+00 0.  1.
          2   -1    0    0  501    0  0.00000000000E+00 -0.00000000000E+00 -0.78730395443E+03  0.78730395443E+03  0.00000000000E+00 0. -1.
         23    2    1    2    0    0  0.95566051616E+02 -0.82148600201E+02 -0.15537754564E+03  0.23594026947E+03  0.12507744135E+03 0.  0.
          5    1    3    3  502    0 -0.93829183127E+01  0.27896037096E+01 -0.81082176463E+02  0.81777825753E+02  0.41800000000E+01 0. -1.
         -5    1    3    3    0  502  0.10494896993E+03 -0.84938203911E+02 -0.74295369173E+02  0.15416244372E+03  0.41800000000E+01 0. -1.
        -11    1    1    2    0    0  0.35510164275E+01 -0.10874766865E+02 -0.16770443357E+02  0.20300690688E+02  0.00000000000E+00 0.  1.
         11    1    1    2    0    0 -0.99117068043E+02  0.93023367066E+02 -0.56504926594E+03  0.58116969376E+03  0.00000000000E+00 0. -1.
</event>
<event>
 7    1  0.4966153E-006  0.1933610E+03  0.7561462E-02  0.1155464E+00
         -2   -1    0    0    0  501 -0.00000000000E+00  0.00000000000E+00  0.50540350467E+03  0.50540350467E+03  0.00000000000E+00 0. -1.
          2   -1    0    0  501    0  0.00000000000E+00 -0.00000000000E+00 -0.96188522897E+02  0.96188522897E+02  0.00000000000E+00 0.  1.
         23    2    1    2    0    0 -0.16886991950E+03 -0.24678618559E+02  0.33027777807E+03  0.39224561472E+03  0.12508847930E+03 0.  0.
          5    1    3    3  502    0 -0.35224783669E+02 -0.62036119232E+02  0.92274308423E+02  0.11671026462E+03  0.41800000000E+01 0. -1.
         -5    1    3    3    0  502 -0.13364513583E+03  0.37357500673E+02  0.23800346965E+03  0.27553535009E+03  0.41800000000E+01 0. -1.
        -11    1    1    2    0    0  0.86193444902E+02  0.35164673811E+02 -0.20851579390E+01  0.93113973774E+02  0.00000000000E+00 0.  1.
         11    1    1    2    0    0  0.82676474598E+02 -0.10486055253E+02  0.81022361640E+02  0.11623243907E+03  0.00000000000E+00 0. -1.
</event>
<event>
 7    1  0.4966153E-006  0.1385503E+03  0.7561462E-02  0.1215293E+00
          2   -1    0    0  501    0  0.00000000000E+00  0.00000000000E+00  0.58154384005E+03  0.58154384005E+03  0.00000000000E+00 0. -1.
         -2   -1    0    0    0  501 -0.00000000000E+00 -0.00000000000E+00 -0.43935261558E+02  0.43935261558E+02  0.00000000000E+00 0.  1.
         23    2    1    2    0    0  0.84653802446E+02  0.16181920548E+02  0.13411199032E+03  0.20263658874E+03  0.12508972910E+03 0.  0.
          5    1    3    3  502    0 -0.24304166265E+00  0.56567665138E+02  0.38992766230E+02  0.68832172904E+02  0.41800000000E+01 0.  1.
         -5    1    3    3    0  502  0.84896844109E+02 -0.40385744590E+02  0.95119224090E+02  0.13380441584E+03  0.41800000000E+01 0.  1.
        -11    1    1    2    0    0 -0.39213933008E+02  0.38649483099E+02  0.16530033247E+03  0.17422891551E+03  0.00000000000E+00 0. -1.
         11    1    1    2    0    0 -0.45439869438E+02 -0.54831403647E+02  0.23819625570E+03  0.24861359736E+03  0.00000000000E+00 0.  1.
</event>
<event>
 7    1  0.4966153E-006  0.7867946E+02  0.7561462E-02  0.1332841E+00
          4   -1    0    0  501    0  0.00000000000E+00  0.00000000000E+00  0.36342431110E+03  0.36342431110E+03  0.00000000000E+00 0.  1.
         -4   -1    0    0    0  501 -0.00000000000E+00 -0.00000000000E+00 -0.37300565882E+02  0.37300565882E+02  0.00000000000E+00 0. -1.
         23    2    1    2    0    0  0.24516003958E+02 -0.34857606610E+02  0.17105109398E+03  0.21615430116E+03  0.12509243769E+03 0.  0.
          5    1    3    3  502    0  0.96697905815E+01  0.38301276303E+02  0.11792197102E+03  0.12443293883E+03  0.41800000000E+01 0.  1.
         -5    1    3    3    0  502  0.14846213377E+02 -0.73158882913E+02  0.53129122960E+02  0.91721362327E+02  0.41800000000E+01 0.  1.
        -11    1    1    2    0    0 -0.79588066924E+01  0.77800762657E+01 -0.10907297337E+02  0.15583366961E+02  0.00000000000E+00 0. -1.
         11    1    1    2    0    0 -0.16557197266E+02  0.27077530344E+02  0.16597994857E+03  0.16898720886E+03  0.00000000000E+00 0.  1.
</event>
<event>
 7    1  0.4966153E-006  0.1137647E+03  0.7561462E-02  0.1253753E+00
         -1   -1    0    0    0  501 -0.00000000000E+00  0.00000000000E+00  0.42313312227E+02  0.42313312227E+02  0.00000000000E+00 0.  1.
          1   -1    0    0  501    0  0.00000000000E+00 -0.00000000000E+00 -0.50886725549E+03  0.50886725549E+03  0.00000000000E+00 0. -1.
         23    2    1    2    0    0 -0.59325408493E+02  0.29368917711E+02 -0.11796583419E+03  0.18424642282E+03  0.12509503933E+03 0.  0.
          5    1    3    3  502    0 -0.39634503509E+02 -0.36771652945E+02 -0.98470684337E+02  0.11241439589E+03  0.41800000000E+01 0. -1.
         -5    1    3    3    0  502 -0.19690904985E+02  0.66140570656E+02 -0.19495149855E+02  0.71832026935E+02  0.41800000000E+01 0. -1.
        -11    1    1    2    0    0 -0.15997836126E+02 -0.23748451481E+02 -0.39724781988E+02  0.48969153683E+02  0.00000000000E+00 0.  1.
         11    1    1    2    0    0  0.75323244619E+02 -0.56204662303E+01 -0.30886332709E+03  0.31796499122E+03  0.00000000000E+00 0. -1.
</event>
<event>
 7    1  0.4966153E-006  0.1274810E+03  0.7561462E-02  0.1231242E+00
         -1   -1    0    0    0  501 -0.00000000000E+00  0.00000000000E+00  0.83541220992E+03  0.83541220992E+03  0.00000000000E+00 0.  1.
          1   -1    0    0  501    0  0.00000000000E+00 -0.00000000000E+00 -0.28559216070E+02  0.28559216070E+02  0.00000000000E+00 0. -1.
         23    2    1    2    0    0  0.67731750690E+02  0.65052784002E+02  0.59438180731E+03  0.61461900848E+03  0.12508931995E+03 0.  0.
          5    1    3    3  502    0  0.88147868595E+02  0.85129858860E+01  0.25608006218E+03  0.27099259826E+03  0.41800000000E+01 0.  1.
         -5    1    3    3    0  502 -0.20416117905E+02  0.56539798116E+02  0.33830174513E+03  0.34362641021E+03  0.41800000000E+01 0.  1.
        -11    1    1    2    0    0 -0.73889959858E+02 -0.48498342449E+02  0.21408884483E+03  0.23161573536E+03  0.00000000000E+00 0.  1.
         11    1    1    2    0    0  0.61582091682E+01 -0.16554441554E+02 -0.16176582859E+01  0.17736682149E+02  0.00000000000E+00 0. -1.
</event>
<event>
 7    1  0.4966153E-006  0.1224298E+03  0.7561462E-02  0.1239142E+00
          2   -1    0    0  501    0  0.00000000000E+00  0.00000000000E+00  0.51637468965E+03  0.51637468965E+03  0.00000000000E+00 0. -1.
         -2   -1    0    0    0  501 -0.00000000000E+00 -0.00000000000E+00 -0.44244171758E+02  0.44244171758E+02  0.00000000000E+00 0.  1.
         23    2    1    2    0    0 -0.84781187753E+02 -0.25094115756E+02  0.15544490830E+03  0.21823861281E+03  0.12508960053E+03 0.  0.
          5    1    3    3  502    0  0.29473755213E+02  0.20537895152E+01  0.59391045758E+02  0.66465698025E+02  0.41800000000E+01 0.  1.
         -5    1    3    3    0  502 -0.11425494297E+03 -0.27147905272E+02  0.96053862544E+02  0.15177291478E+03  0.41800000000E+01 0.  1.
        -11    1    1    2    0    0  0.32357217048E+02  0.30929712018E+02  0.37910337978E+02  0.58658591069E+02  0.00000000000E+00 0.  1.
         11    1    1    2    0    0  0.52423970705E+02 -0.58355962612E+01  0.27877527162E+03  0.28372165753E+03  0.00000000000E+00 0. -1.
</event>
<event>
 7    1  0.4966153E-006  0.1776413E+03  0.7561462E-02  0.1170105E+00
         -2   -1    0    0    0  501 -0.00000000000E+00  0.00000000000E+00  0.31278191928E+03  0.31278191928E+03  0.00000000000E+00 0.  1.
          2   -1    0    0  501    0  0.00000000000E+00 -0.00000000000E+00 -0.11609994363E+03  0.11609994363E+03  0.00000000000E+00 0. -1.
         23    2    1    2    0    0  0.97665603284E+02  0.11174019643E+03  0.16001310651E+03  0.25154551943E+03  0.12508602052E+03 0.  0.
          5    1    3    3  502    0  0.40454457037E+01 -0.25515072872E+02  0.11216046960E+02  0.28472033366E+02  0.41800000000E+01 0.  1.
         -5    1    3    3    0  502  0.93620157581E+02  0.13725526930E+03  0.14879705955E+03  0.22307348607E+03  0.41800000000E+01 0.  1.
        -11    1    1    2    0    0 -0.63276776826E+02 -0.22296965065E+02  0.45561293539E+02  0.81098314443E+02  0.00000000000E+00 0.  1.
         11    1    1    2    0    0 -0.34388826458E+02 -0.89443231364E+02 -0.88924243970E+01  0.96238029041E+02  0.00000000000E+00 0. -1.
</event>
<event>
 7    1  0.4966153E-006  0.1623306E+03  0.7561462E-02  0.1186090E+00
         -1   -1    0    0    0  501 -0.00000000000E+00  0.00000000000E+00  0.12696740204E+04  0.12696740204E+04  0.00000000000E+00 0.  1.
          1   -1    0    0  501    0  0.00000000000E+00 -0.00000000000E+00 -0.27385633266E+02  0.27385633266E+02  0.00000000000E+00 0. -1.
         23    2    1    2    0    0  0.12539806479E+03  0.54000212303E+02  0.88840596393E+03  0.90749793545E+03  0.12508656407E+03 0.  0.
          5    1    3    3  502    0 -0.13883656616E+02  0.15643191848E+02  0.28862572153E+02  0.35888519662E+02  0.41800000000E+01 0. -1.
         -5    1    3    3    0  502  0.13928172140E+03  0.38357020455E+02  0.85954339178E+03  0.87160941579E+03  0.41800000000E+01 0. -1.
        -11    1    1    2    0    0 -0.11098171902E+03 -0.87644809300E+01  0.28434885226E+03  0.30536540057E+03  0.00000000000E+00 0.  1.
         11    1    1    2    0    0 -0.14416345762E+02 -0.45235731373E+02  0.69533570955E+02  0.84196317662E+02  0.00000000000E+00 0. -1.
</event>
<event>
 7    1  0.4966153E-006  0.2797050E+03  0.7561462E-02  0.1095850E+00
         -2   -1    0    0    0  501 -0.00000000000E+00  0.00000000000E+00  0.89566149755E+02  0.89566149755E+02  0.00000000000E+00 0.  1.
          2   -1    0    0  501    0  0.00000000000E+00 -0.00000000000E+00 -0.11059529240E+04  0.11059529240E+04  0.00000000000E+00 0. -1.
         23    2    1    2    0    0 -0.15116601525E+03 -0.21999415846E+03 -0.27908266850E+03  0.40593614019E+03  0.12509364546E+03 0.  0.
          5    1    3    3  502    0 -0.83128697113E+02 -0.20696466093E+03 -0.19008093291E+03  0.29307504945E+03  0.41800000000E+01 0.  1.
         -5    1    3    3    0  502 -0.68037318135E+02 -0.13029497535E+02 -0.89001735589E+02  0.11286109074E+03  0.41800000000E+01 0.  1.
        -11    1    1    2    0    0  0.87063198934E+02  0.12885553903E+03 -0.29523518907E+03  0.33368782929E+03  0.00000000000E+00 0.  1.
         11    1    1    2    0    0  0.64102816315E+02  0.91138619430E+02 -0.44206891666E+03  0.45589510426E+03  0.00000000000E+00 0. -1.
</event>
<event>
 7    1  0.4966153E-006  0.1830762E+03  0.7561462E-02  0.1164859E+00
          1   -1    0    0  501    0  0.00000000000E+00  0.00000000000E+00  0.63533827047E+03  0.63533827047E+03  0.00000000000E+00 0. -1.
         -1   -1    0    0    0  501 -0.00000000000E+00 -0.00000000000E+00 -0.65522281106E+02  0.65522281106E+02  0.00000000000E+00 0.  1.
         23    2    1    2    0    0 -0.78268313452E+02 -0.15283554081E+03  0.30642486059E+03  0.37286480523E+03  0.12508931356E+03 0.  0.
          5    1    3    3  502    0  0.18624276554E+02 -0.11258916561E+02  0.10922584733E+03  0.11145126740E+03  0.41800000000E+01 0. -1.
         -5    1    3    3    0  502 -0.96892590006E+02 -0.14157662425E+03  0.19719901326E+03  0.26141353783E+03  0.41800000000E+01 0. -1.
        -11    1    1    2    0    0  0.68191925397E+02  0.14234928792E+03  0.26942151164E+03  0.31225215675E+03  0.00000000000E+00 0. -1.
         11    1    1    2    0    0  0.10076388055E+02  0.10486252889E+02 -0.60303828647E+01  0.15743589597E+02  0.00000000000E+00 0.  1.
</event>
<event>
 7    1  0.4966153E-006  0.1174289E+03  0.7561462E-02  0.1247400E+00
          1   -1    0    0  501    0  0.00000000000E+00  0.00000000000E+00  0.61541130243E+03  0.61541130243E+03  0.00000000000E+00 0. -1.
         -1   -1    0    0    0  501 -0.00000000000E+00 -0.00000000000E+00 -0.34305496789E+02  0.34305496789E+02  0.00000000000E+00 0.  1.
         23    2    1    2    0    0  0.92342569466E+02  0.14683592618E+02  0.26685868405E+03  0.30919848194E+03  0.12508951175E+03 0.  0.
          5    1    3    3  502    0  0.65949528781E+02  0.31336454410E+02  0.46642543486E+02  0.86742797881E+02  0.41800000000E+01 0. -1.
         -5    1    3    3    0  502  0.26393040684E+02 -0.16652861792E+02  0.22021614057E+03  0.22245568405E+03  0.41800000000E+01 0. -1.
        -11    1    1    2    0    0 -0.18316156916E+02  0.36089099500E+02  0.11711956061E+03  0.12391487475E+03  0.00000000000E+00 0.  1.
         11    1    1    2    0    0 -0.74026412549E+02 -0.50772692118E+02  0.19712756098E+03  0.21660344254E+03  0.00000000000E+00 0. -1.
</event>
<event>
 7    1  0.4966153E-006  0.5357839E+02  0.7561462E-02  0.1426944E+00
         -4   -1    0    0    0  501 -0.00000000000E+00  0.00000000000E+00  0.15122685380E+03  0.15122685380E+03  0.00000000000E+00 0.  1.
          4   -1    0    0  501    0  0.00000000000E+00 -0.00000000000E+00 -0.84658205674E+02  0.84658205674E+02  0.00000000000E+00 0. -1.
         23    2    1    2    0    0  0.11130947874E+02 -0.27387527127E+01  0.67509473986E+02  0.14263456111E+03  0.12512270049E+03 0.  0.
          5    1    3    3  502    0  0.14704174756E+02  0.15236606033E+02  0.10151243412E+03  0.10378156676E+03  0.41800000000E+01 0. -1.
         -5    1    3    3    0  502 -0.35732268821E+01 -0.17975358745E+02 -0.34002960131E+02  0.38852994351E+02  0.41800000000E+01 0. -1.
        -11    1    1    2    0    0  0.60547883637E+01 -0.29568430708E+02 -0.32913270400E+02  0.44656868734E+02  0.00000000000E+00 0. -1.
         11    1    1    2    0    0 -0.17185736238E+02  0.32307183421E+02  0.31972444539E+02  0.48593629628E+02  0.00000000000E+00 0.  1.
</event>
<event>
 7    1  0.4966153E-006  0.9661545E+02  0.7561462E-02  0.1287579E+00
         -3   -1    0    0    0  501 -0.00000000000E+00  0.00000000000E+00  0.56956207902E+02  0.56956207902E+02  0.00000000000E+00 0.  1.
          3   -1    0    0  501    0  0.00000000000E+00 -0.00000000000E+00 -0.28526149122E+03  0.28526149122E+03  0.00000000000E+00 0. -1.
         23    2    1    2    0    0 -0.63206879940E+02 -0.21723258262E+02 -0.14034447403E+03  0.19952031160E+03  0.12507906991E+03 0.  0.
          5    1    3    3  502    0 -0.42451521764E+02  0.99475760751E+01  0.95755049901E+01  0.44835796700E+02  0.41800000000E+01 0.  1.
         -5    1    3    3    0  502 -0.20755358176E+02 -0.31670834337E+02 -0.14991997902E+03  0.15468451490E+03  0.41800000000E+01 0.  1.
        -11    1    1    2    0    0  0.40338647394E+02  0.56675399295E+02 -0.45424720314E+02  0.83082564804E+02  0.00000000000E+00 0.  1.
         11    1    1    2    0    0  0.22868232547E+02 -0.34952141033E+02 -0.42536088973E+02  0.59614822718E+02  0.00000000000E+00 0. -1.
</event>
<event>
 7    1  0.5119967E-006  0.9867506E+02  0.7561462E-02  0.1283107E+00
         -2   -1    0    0    0  501 -0.00000000000E+00  0.00000000000E+00  0.20459529797E+03  0.20459529797E+03  0.00000000000E+00 0.  1.
          2   -1    0    0  501    0  0.00000000000E+00 -0.00000000000E+00 -0.55115748264E+02  0.55115748264E+02  0.00000000000E+00 0. -1.
         23    2    1    2    0    0 -0.62230758574E+01 -0.37239483124E+02  0.12626068294E+03  0.18169945258E+03  0.12508966878E+03 0.  0.
          5    1    3    3  502    0  0.10256977625E+02  0.44073083549E+02  0.60963021323E+02  0.76036863772E+02  0.41800000000E+01 0.  1.
         -5    1    3    3    0  502 -0.16480053483E+02 -0.81312566673E+02  0.65297661618E+02  0.10566258881E+03  0.41800000000E+01 0.  1.
        -11    1    1    2    0    0 -0.15766555390E+02  0.43254226510E+02  0.81076871756E+00  0.46045300800E+02  0.00000000000E+00 0. -1.
         11    1    1    2    0    0  0.21989631248E+02 -0.60147433867E+01  0.22408098051E+02  0.31966292852E+02  0.00000000000E+00 0.  1.
</event>
<event>
 7    1  0.4966153E-006  0.1711300E+03  0.7561462E-02  0.1176675E+00
          1   -1    0    0  501    0  0.00000000000E+00  0.00000000000E+00  0.26377237089E+02  0.26377237089E+02  0.00000000000E+00 0. -1.
         -1   -1    0    0    0  501 -0.00000000000E+00 -0.00000000000E+00 -0.14644287404E+04  0.14644287404E+04  0.00000000000E+00 0.  1.
         23    2    1    2    0    0 -0.14609670129E+03 -0.73694203758E+02 -0.78446143341E+03  0.81105000343E+03  0.12508911130E+03 0.  0.
          5    1    3    3  502    0 -0.93501858603E+02 -0.78965924180E+02 -0.30499155523E+03  0.32865717078E+03  0.41800000000E+01 0. -1.
         -5    1    3    3    0  502 -0.52594842690E+02  0.52717204221E+01 -0.47946987818E+03  0.48239283265E+03  0.41800000000E+01 0. -1.
        -11    1    1    2    0    0  0.38251173662E+02  0.36025172241E+02 -0.85979424210E+02  0.10076421343E+03  0.00000000000E+00 0. -1.
         11    1    1    2    0    0  0.10784552763E+03  0.37669031517E+02 -0.56761064572E+03  0.57899176064E+03  0.00000000000E+00 0.  1.
</event>
<event>
 7    1  0.4966153E-006  0.1624617E+03  0.7561462E-02  0.1185945E+00
          1   -1    0    0  501    0  0.00000000000E+00  0.00000000000E+00  0.33649992225E+03  0.33649992225E+03  0.00000000000E+00 0. -1.
         -1   -1    0    0    0  501 -0.00000000000E+00 -0.00000000000E+00 -0.81751770900E+02  0.81751770900E+02  0.00000000000E+00 0.  1.
         23    2    1    2    0    0  0.12467373675E+03  0.17766774121E+01  0.11995963968E+03  0.21350557435E+03  0.12509043891E+03 0.  0.
          5    1    3    3  502    0 -0.22898803313E+02 -0.29865820262E+01  0.37778665253E+02  0.44474428761E+02  0.41800000000E+01 0. -1.
         -5    1    3    3    0  502  0.14757254006E+03  0.47632594383E+01  0.82180974432E+02  0.16903114559E+03  0.41800000000E+01 0. -1.
        -11    1    1    2    0    0 -0.12543965227E+03 -0.27164667725E+02  0.10700287742E+03  0.16710069213E+03  0.00000000000E+00 0.  1.
         11    1    1    2    0    0  0.76591552494E+00  0.25387990313E+02  0.27785634245E+02  0.37645426669E+02  0.00000000000E+00 0. -1.
</event>
<event>
 7    1  0.4966153E-006  0.9791962E+02  0.7561462E-02  0.1284733E+00
          1   -1    0    0  501    0  0.00000000000E+00  0.00000000000E+00  0.84631160512E+02  0.84631160512E+02  0.00000000000E+00 0. -1.
         -1   -1    0    0    0  501 -0.00000000000E+00 -0.00000000000E+00 -0.14581297834E+03  0.14581297834E+03  0.00000000000E+00 0.  1.
         23    2    1    2    0    0 -0.14526709068E+02 -0.20532020230E+02 -0.34291749239E+02  0.13211960956E+03  0.12508828095E+03 0.  0.
          5    1    3    3  502    0  0.31261591713E+02 -0.47729992083E+02  0.15309126952E+02  0.59222301785E+02  0.41800000000E+01 0.  1.
         -5    1    3    3    0  502 -0.45788300781E+02  0.27197971852E+02 -0.49600876191E+02  0.72897307771E+02  0.41800000000E+01 0.  1.
        -11    1    1    2    0    0 -0.33593417632E+02  0.20302090397E+01  0.97937640021E+01  0.35050781307E+02  0.00000000000E+00 0.  1.
         11    1    1    2    0    0  0.48120126700E+02  0.18501811191E+02 -0.36683832591E+02  0.63273747988E+02  0.00000000000E+00 0. -1.
</event>
<event>
 7    1  0.4966153E-006  0.9090217E+02  0.7561462E-02  0.1300682E+00
         -4   -1    0    0    0  501 -0.00000000000E+00  0.00000000000E+00  0.15400136876E+03  0.15400136876E+03  0.00000000000E+00 0.  1.
          4   -1    0    0  501    0  0.00000000000E+00 -0.00000000000E+00 -0.10820788785E+03  0.10820788785E+03  0.00000000000E+00 0. -1.
         23    2    1    2    0    0 -0.16892183626E+02 -0.88160795200E+01  0.93126239472E+02  0.15710553486E+03  0.12508630413E+03 0.  0.
          5    1    3    3  502    0 -0.35261156468E+01 -0.63245116234E+02  0.74543847271E+02  0.97911366986E+02  0.41800000000E+01 0. -1.
         -5    1    3    3    0  502 -0.13366067979E+02  0.54429036714E+02  0.18582392201E+02  0.59194167878E+02  0.41800000000E+01 0. -1.
        -11    1    1    2    0    0 -0.18295414751E+02  0.18093608923E+02 -0.61020986583E+02  0.66224328523E+02  0.00000000000E+00 0. -1.
         11    1    1    2    0    0  0.35187598377E+02 -0.92775294027E+01  0.13688228015E+02  0.38879393225E+02  0.00000000000E+00 0.  1.
</event>
<event>
 7    1  0.4966153E-006  0.1891820E+03  0.7561462E-02  0.1159201E+00
          1   -1    0    0  501    0  0.00000000000E+00  0.00000000000E+00  0.23706335817E+03  0.23706335817E+03  0.00000000000E+00 0. -1.
         -1   -1    0    0    0  501 -0.00000000000E+00 -0.00000000000E+00 -0.15814869756E+03  0.15814869756E+03  0.00000000000E+00 0.  1.
         23    2    1    2    0    0  0.15465883597E+03 -0.27663068981E+02  0.67121524782E+02  0.21174843230E+03  0.12508996189E+03 0.  0.
          5    1    3    3  502    0  0.32758038459E+02 -0.63929427924E+02  0.11478911716E+02  0.72864934314E+02  0.41800000000E+01 0. -1.
         -5    1    3    3    0  502  0.12190079751E+03  0.36266358944E+02  0.55642613066E+02  0.13888349799E+03  0.41800000000E+01 0. -1.
        -11    1    1    2    0    0 -0.14387939953E+03  0.51643731685E+02 -0.37646119447E+01  0.15291346878E+03  0.00000000000E+00 0.  1.
         11    1    1    2    0    0 -0.10779436439E+02 -0.23980662705E+02  0.15557747772E+02  0.30550154655E+02  0.00000000000E+00 0. -1.
</event>
<event>
 7    1  0.4966153E-006  0.1154118E+03  0.7561462E-02  0.1250864E+00
         -1   -1    0    0    0  501 -0.00000000000E+00  0.00000000000E+00  0.66521070937E+02  0.66521070937E+02  0.00000000000E+00 0.  1.
          1   -1    0    0  501    0  0.00000000000E+00 -0.00000000000E+00 -0.25492447231E+03  0.25492447231E+03  0.00000000000E+00 0. -1.
         23    2    1    2    0    0  0.47616328401E+02 -0.46802201171E+02 -0.68914697209E+02  0.15765415749E+03  0.12509131511E+03 0.  0.
          5    1    3    3  502    0  0.79748871531E+02 -0.38049002774E+02 -0.89193661460E+01  0.88908023345E+02  0.41800000000E+01 0. -1.
         -5    1    3    3    0  502 -0.32132543131E+02 -0.87531983969E+01 -0.59995331063E+02  0.68746134143E+02  0.41800000000E+01 0. -1.
        -11    1    1    2    0    0 -0.71594799670E+02  0.23472588733E+02 -0.63339375376E+02  0.98430961769E+02  0.00000000000E+00 0.  1.
         11    1    1    2    0    0  0.23978471270E+02  0.23329612437E+02 -0.56149328789E+02  0.65360423992E+02  0.00000000000E+00 0. -1.
</event>
<event>
 7    1  0.4966153E-006  0.2465526E+03  0.7561462E-02  0.1115503E+00
          2   -1    0    0  501    0  0.00000000000E+00  0.00000000000E+00  0.32428416520E+03  0.32428416520E+03  0.00000000000E+00 0. -1.
         -2   -1    0    0    0  501 -0.00000000000E+00 -0.00000000000E+00 -0.25398778693E+03  0.25398778693E+03  0.00000000000E+00 0.  1.
         23    2    1    2    0    0 -0.16416615003E+03 -0.17668488894E+03 -0.75451472511E+02  0.28196993630E+03  0.12508415358E+03 0.  0.
          5    1    3    3  502    0 -0.68363301297E+02 -0.97246857391E+02  0.25521891394E+02  0.12165250337E+03  0.41800000000E+01 0.  1.
         -5    1    3    3    0  502 -0.95802848731E+02 -0.79438031553E+02 -0.10097336391E+03  0.16031743293E+03  0.41800000000E+01 0.  1.
        -11    1    1    2    0    0  0.90686515021E+02  0.50986615250E+02  0.98392192502E+02  0.14319463149E+03  0.00000000000E+00 0.  1.
         11    1    1    2    0    0  0.73479635006E+02  0.12569827369E+03  0.47355658274E+02  0.15310738434E+03  0.00000000000E+00 0. -1.
</event>
<event>
 7    1  0.4966153E-006  0.1274015E+03  0.7561462E-02  0.1231363E+00
          2   -1    0    0  501    0  0.00000000000E+00  0.00000000000E+00  0.18625974413E+03  0.18625974413E+03  0.00000000000E+00 0. -1.
         -2   -1    0    0    0  501 -0.00000000000E+00 -0.00000000000E+00 -0.16838809886E+03  0.16838809886E+03  0.00000000000E+00 0.  1.
         23    2    1    2    0    0  0.10229129482E+03  0.12310164782E+02 -0.85230974372E+02  0.18310500734E+03  0.12509226821E+03 0.  0.
          5    1    3    3  502    0  0.28815647613E+02 -0.27754890064E+02 -0.90611170164E+02  0.99138953133E+02  0.41800000000E+01 0.  1.
         -5    1    3    3    0  502  0.73475647205E+02  0.40065054845E+02  0.53801957920E+01  0.83966054204E+02  0.41800000000E+01 0.  1.
        -11    1    1    2    0    0 -0.25162230228E+02  0.32870316065E+02  0.10228298111E+02  0.42640515834E+02  0.00000000000E+00 0.  1.
         11    1    1    2    0    0 -0.77129064589E+02 -0.45180480847E+02  0.92874321529E+02  0.12890231981E+03  0.00000000000E+00 0. -1.
</event>
<event>
 7    1  0.4966153E-006  0.1245976E+03  0.7561462E-02  0.1235700E+00
          2   -1    0    0  501    0  0.00000000000E+00  0.00000000000E+00  0.53495491858E+03  0.53495491858E+03  0.00000000000E+00 0. -1.
         -2   -1    0    0    0  501 -0.00000000000E+00 -0.00000000000E+00 -0.41265033191E+02  0.41265033191E+02  0.00000000000E+00 0.  1.
         23    2    1    2    0    0 -0.83592718049E+02 -0.11591391341E+01  0.15954304713E+03  0.21929629657E+03  0.12509114952E+03 0.  0.
          5    1    3    3  502    0  0.49253252606E+01  0.37963724312E+02  0.96027377634E+02  0.10346126255E+03  0.41800000000E+01 0. -1.
         -5    1    3    3    0  502 -0.88518043310E+02 -0.39122863446E+02  0.63515669496E+02  0.11583503402E+03  0.41800000000E+01 0. -1.
        -11    1    1    2    0    0  0.62717014240E+02  0.36651087740E+02  0.13240445717E+03  0.15102207252E+03  0.00000000000E+00 0.  1.
         11    1    1    2    0    0  0.20875703809E+02 -0.35491948606E+02  0.20174238108E+03  0.20590158268E+03  0.00000000000E+00 0. -1.
</event>
<event>
 7    1  0.4966153E-006  0.8787162E+02  0.7561462E-02  0.1308089E+00
         -1   -1    0    0    0  501 -0.00000000000E+00  0.00000000000E+00  0.37965582884E+02  0.37965582884E+02  0.00000000000E+00 0.  1.
          1   -1    0    0  501    0  0.00000000000E+00 -0.00000000000E+00 -0.45562694672E+03  0.45562694672E+03  0.00000000000E+00 0. -1.
         23    2    1    2    0    0 -0.55093767081E+01  0.38323459702E+02 -0.85144185460E+02  0.14577855235E+03  0.11181597924E+03 0.  0.
          5    1    3    3  502    0  0.21913776148E+02 -0.48334959709E+01 -0.91297291693E+02  0.94107619983E+02  0.41800000000E+01 0. -1.
         -5    1    3    3    0  502 -0.27423152856E+02  0.43156955672E+02  0.61531062335E+01  0.51670932368E+02  0.41800000000E+01 0.  1.
        -11    1    1    2    0    0  0.58851539867E+01  0.31370884113E+02 -0.90629209651E+02  0.96085488235E+02  0.00000000000E+00 0.  1.
         11    1    1    2    0    0 -0.37577727852E+00 -0.69694343815E+02 -0.24188796872E+03  0.25172848901E+03  0.00000000000E+00 0. -1.
</event>
<event>
 7    1  0.4966153E-006  0.1308299E+03  0.7561462E-02  0.1226230E+00
         -2   -1    0    0    0  501 -0.00000000000E+00  0.00000000000E+00  0.50697265661E+02  0.50697265661E+02  0.00000000000E+00 0.  1.
          2   -1    0    0  501    0  0.00000000000E+00 -0.00000000000E+00 -0.37189050812E+03  0.37189050812E+03  0.00000000000E+00 0. -1.
         23    2    1    2    0    0 -0.36560803942E+02  0.64776808300E+02 -0.11494235199E+03  0.18545023423E+03  0.12508923941E+03 0.  0.
          5    1    3    3  502    0 -0.75015447328E+02  0.66027425377E+01 -0.65114061574E+02  0.99640488565E+02  0.41800000000E+01 0.  1.
         -5    1    3    3    0  502  0.38454643386E+02  0.58174065762E+02 -0.49828290417E+02  0.85809745665E+02  0.41800000000E+01 0.  1.
        -11    1    1    2    0    0  0.40061299484E+02 -0.85997367624E+02 -0.17711578912E+03  0.20092400979E+03  0.00000000000E+00 0.  1.
         11    1    1    2    0    0 -0.35004955423E+01  0.21220559324E+02 -0.29135101344E+02  0.36213529756E+02  0.00000000000E+00 0. -1.
</event>
<event>
 7    1  0.4966153E-006  0.1377928E+03  0.7561462E-02  0.1216330E+00
         -2   -1    0    0    0  501 -0.00000000000E+00  0.00000000000E+00  0.26276741555E+02  0.26276741555E+02  0.00000000000E+00 0.  1.
          2   -1    0    0  501    0  0.00000000000E+00 -0.00000000000E+00 -0.98199594614E+03  0.98199594614E+03  0.00000000000E+00 0. -1.
         23    2    1    2    0    0  0.41318943024E+02 -0.11145127948E+03 -0.50003768278E+03  0.52897704630E+03  0.12510151300E+03 0.  0.
          5    1    3    3  502    0 -0.98991236710E+01 -0.33303988280E+02 -0.20824579765E+02  0.40722030981E+02  0.41800000000E+01 0.  1.
         -5    1    3    3    0  502  0.51218066694E+02 -0.78147291198E+02 -0.47921310302E+03  0.48825501532E+03  0.41800000000E+01 0.  1.
        -11    1    1    2    0    0  0.27239658104E+02  0.28077849558E+02 -0.15377109763E+03  0.15866920015E+03  0.00000000000E+00 0. -1.
         11    1    1    2    0    0 -0.68558601127E+02  0.83373429920E+02 -0.30191042417E+03  0.32062644124E+03  0.00000000000E+00 0.  1.
</event>
<event>
 7    1  0.4966153E-006  0.7169613E+02  0.7561462E-02  0.1354418E+00
          2   -1    0    0  501    0  0.00000000000E+00  0.00000000000E+00  0.33806253402E+02  0.33806253402E+02  0.00000000000E+00 0. -1.
         -2   -1    0    0    0  501 -0.00000000000E+00 -0.00000000000E+00 -0.39484956772E+03  0.39484956772E+03  0.00000000000E+00 0.  1.
         23    2    1    2    0    0 -0.17729394970E+01  0.20640397802E+02 -0.26588611530E+03  0.29457222515E+03  0.12509276633E+03 0.  0.
          5    1    3    3  502    0 -0.34479438312E+02  0.15989445196E+02 -0.25737923960E+03  0.26020384202E+03  0.41800000000E+01 0. -1.
         -5    1    3    3    0  502  0.32706498815E+02  0.46509526053E+01 -0.85068756915E+01  0.34368383129E+02  0.41800000000E+01 0. -1.
        -11    1    1    2    0    0  0.29934535430E+02  0.87158879690E+01 -0.64041605366E+00  0.31184182645E+02  0.00000000000E+00 0. -1.
         11    1    1    2    0    0 -0.28161595933E+02 -0.29356285771E+02 -0.94516782970E+02  0.10289941333E+03  0.00000000000E+00 0.  1.
</event>
<event>
 7    1  0.5132089E-006  0.1826657E+03  0.7561462E-02  0.1165248E+00
         -2   -1    0    0    0  501 -0.00000000000E+00  0.00000000000E+00  0.42140957186E+02  0.42140957186E+02  0.00000000000E+00 0. -1.
          2   -1    0    0  501    0  0.00000000000E+00 -0.00000000000E+00 -0.10758341430E+04  0.10758341430E+04  0.00000000000E+00 0.  1.
         23    2    1    2    0    0 -0.60372521410E+02  0.15917994942E+03 -0.35434958015E+03  0.41254597658E+03  0.12508980854E+03 0.  0.
          5    1    3    3  502    0 -0.11954687730E+02 -0.11069982150E+02 -0.44690435816E+00  0.16826502519E+02  0.41800000000E+01 0. -1.
         -5    1    3    3    0  502 -0.48417833681E+02  0.17024993157E+03 -0.35390267579E+03  0.39571947406E+03  0.41800000000E+01 0. -1.
        -11    1    1    2    0    0  0.90173662390E+00 -0.21085958892E+02 -0.19713116703E+02  0.28879711935E+02  0.00000000000E+00 0. -1.
         11    1    1    2    0    0  0.59470784786E+02 -0.13809399053E+03 -0.65963048896E+03  0.67654941167E+03  0.00000000000E+00 0.  1.
</event>
<event>
 7    1  0.4966153E-006  0.1033060E+03  0.7561462E-02  0.1273494E+00
          1   -1    0    0  501    0  0.00000000000E+00  0.00000000000E+00  0.19237864294E+03  0.19237864294E+03  0.00000000000E+00 0. -1.
         -1   -1    0    0    0  501 -0.00000000000E+00 -0.00000000000E+00 -0.11838840156E+03  0.11838840156E+03  0.00000000000E+00 0.  1.
         23    2    1    2    0    0 -0.39298122893E+02  0.14550233379E+02 -0.59703419626E+02  0.14480579587E+03  0.12509263946E+03 0.  0.
          5    1    3    3  502    0 -0.17445766513E+02 -0.48489824013E+02  0.47811074992E+01  0.51922530668E+02  0.41800000000E+01 0.  1.
         -5    1    3    3    0  502 -0.21852356380E+02  0.63040057393E+02 -0.64484527125E+02  0.92883265199E+02  0.41800000000E+01 0.  1.
        -11    1    1    2    0    0  0.51404999940E+01 -0.43183136938E+02  0.29263363414E+02  0.52417101163E+02  0.00000000000E+00 0.  1.
         11    1    1    2    0    0  0.34157622899E+02  0.28632903559E+02  0.10443029759E+03  0.11354414746E+03  0.00000000000E+00 0. -1.
</event>
<event>
 7    1  0.4966153E-006  0.1203913E+03  0.7561462E-02  0.1242453E+00
         -2   -1    0    0    0  501 -0.00000000000E+00  0.00000000000E+00  0.18938375512E+02  0.18938375512E+02  0.00000000000E+00 0.  1.
          2   -1    0    0  501    0  0.00000000000E+00 -0.00000000000E+00 -0.88726240886E+03  0.88726240886E+03  0.00000000000E+00 0. -1.
         23    2    1    2    0    0 -0.56624141338E+02 -0.35497947931E+02 -0.46996800753E+03  0.49090130078E+03  0.12509101213E+03 0.  0.
          5    1    3    3  502    0 -0.14916810650E+02 -0.74800731394E+02 -0.34500818012E+03  0.35336352020E+03  0.41800000000E+01 0. -1.
         -5    1    3    3    0  502 -0.41707330689E+02  0.39302783463E+02 -0.12495982741E+03  0.13753778058E+03  0.41800000000E+01 0. -1.
        -11    1    1    2    0    0  0.25806643447E+02 -0.26939431497E+02 -0.66800093075E+02  0.76511229569E+02  0.00000000000E+00 0.  1.
         11    1    1    2    0    0  0.30817497891E+02  0.62437379428E+02 -0.33155593274E+03  0.33878825402E+03  0.00000000000E+00 0. -1.
</event>
<event>
 7    1  0.4966153E-006  0.1188774E+03  0.7561462E-02  0.1244961E+00
          2   -1    0    0  501    0  0.00000000000E+00  0.00000000000E+00  0.66526739537E+03  0.66526739537E+03  0.00000000000E+00 0. -1.
         -2   -1    0    0    0  501 -0.00000000000E+00 -0.00000000000E+00 -0.21991018007E+02  0.21991018007E+02  0.00000000000E+00 0.  1.
         23    2    1    2    0    0  0.18789056659E+02 -0.48145525284E+02  0.35836071345E+03  0.38306891898E+03  0.12509346700E+03 0.  0.
          5    1    3    3  502    0  0.69202716042E+02 -0.86543549542E+01  0.16011936955E+03  0.17469859379E+03  0.41800000000E+01 0.  1.
         -5    1    3    3    0  502 -0.50413659383E+02 -0.39491170330E+02  0.19824134390E+03  0.20837032518E+03  0.41800000000E+01 0.  1.
        -11    1    1    2    0    0  0.30646301053E+02  0.44646826891E+02  0.11355869071E+03  0.12580982138E+03  0.00000000000E+00 0.  1.
         11    1    1    2    0    0 -0.49435357712E+02  0.34986983927E+01  0.17135697320E+03  0.17837967302E+03  0.00000000000E+00 0. -1.
</event>
<event>
 7    1  0.4966153E-006  0.1822022E+03  0.7561462E-02  0.1165689E+00
         -2   -1    0    0    0  501 -0.00000000000E+00  0.00000000000E+00  0.18701808457E+03  0.18701808457E+03  0.00000000000E+00 0. -1.
          2   -1    0    0  501    0  0.00000000000E+00 -0.00000000000E+00 -0.19432960063E+03  0.19432960063E+03  0.00000000000E+00 0.  1.
         23    2    1    2    0    0  0.15354512081E+03  0.36826244002E+01  0.26789327561E+02  0.19988738650E+03  0.12509050070E+03 0.  0.
          5    1    3    3  502    0  0.93512175764E+02  0.56048062993E+02  0.45073838882E+02  0.11804675232E+03  0.41800000000E+01 0.  1.
         -5    1    3    3    0  502  0.60032945044E+02 -0.52365438593E+02 -0.18284511321E+02  0.81840634186E+02  0.41800000000E+01 0.  1.
        -11    1    1    2    0    0 -0.12589231069E+03 -0.37958096256E+02 -0.38992320321E+02  0.13714988883E+03  0.00000000000E+00 0.  1.
         11    1    1    2    0    0 -0.27652810115E+02  0.34275471856E+02  0.48914767021E+01  0.44310409866E+02  0.00000000000E+00 0. -1.
</event>
<event>
 7    1  0.4966153E-006  0.1127116E+03  0.7561462E-02  0.1255629E+00
          2   -1    0    0  501    0  0.00000000000E+00  0.00000000000E+00  0.17062235055E+02  0.17062235055E+02  0.00000000000E+00 0. -1.
         -2   -1    0    0    0  501 -0.00000000000E+00 -0.00000000000E+00 -0.97866401541E+03  0.97866401541E+03  0.00000000000E+00 0.  1.
         23    2    1    2    0    0  0.20906903090E+02 -0.61403882687E+02 -0.61641892148E+03  0.63231959887E+03  0.12509297722E+03 0.  0.
          5    1    3    3  502    0 -0.35556836948E+02 -0.34025778776E+02 -0.94536118390E+02  0.10666110985E+03  0.41800000000E+01 0. -1.
         -5    1    3    3    0  502  0.56463740037E+02 -0.27378103912E+02 -0.52188280309E+03  0.52565848901E+03  0.41800000000E+01 0. -1.
        -11    1    1    2    0    0  0.28626379657E+02 -0.62423010689E+01 -0.75253348960E+02  0.80755820004E+02  0.00000000000E+00 0.  1.
         11    1    1    2    0    0 -0.49533282747E+02  0.67646183756E+02 -0.26992950992E+03  0.28265083160E+03  0.00000000000E+00 0. -1.
</event>
<event>
 7    1  0.4966153E-006  0.9760824E+02  0.7561462E-02  0.1285407E+00
          3   -1    0    0  501    0  0.00000000000E+00  0.00000000000E+00  0.28604141694E+03  0.28604141694E+03  0.00000000000E+00 0. -1.
         -3   -1    0    0    0  501 -0.00000000000E+00 -0.00000000000E+00 -0.53144892593E+02  0.53144892593E+02  0.00000000000E+00 0.  1.
         23    2    1    2    0    0  0.37996612772E+02 -0.14496770312E+01  0.70242297846E+02  0.14842227430E+03  0.12509734991E+03 0.  0.
          5    1    3    3  502    0  0.73432142672E+02 -0.29504984460E+02  0.65447561820E+02  0.10277976179E+03  0.41800000000E+01 0.  1.
         -5    1    3    3    0  502 -0.35435529900E+02  0.28055307429E+02  0.47947360264E+01  0.45642512505E+02  0.41800000000E+01 0.  1.
        -11    1    1    2    0    0 -0.28999617299E+02  0.29351780347E+02  0.21363797153E+02  0.46464143614E+02  0.00000000000E+00 0.  1.
         11    1    1    2    0    0 -0.89969954734E+01 -0.27902103316E+02  0.14129042934E+03  0.14429989162E+03  0.00000000000E+00 0. -1.
</event>
<event>
 7    1  0.4966153E-006  0.9662376E+02  0.7561462E-02  0.1287560E+00
         -2   -1    0    0    0  501 -0.00000000000E+00  0.00000000000E+00  0.52866461592E+02  0.52866461592E+02  0.00000000000E+00 0.  1.
          2   -1    0    0  501    0  0.00000000000E+00 -0.00000000000E+00 -0.45441145051E+03  0.45441145051E+03  0.00000000000E+00 0. -1.
         23    2    1    2    0    0  0.57816038394E+02 -0.67479759808E+02 -0.99665807080E+02  0.17967532932E+03  0.12022370227E+03 0.  0.
          5    1    3    3  502    0  0.34403304331E+02 -0.25907518914E+02 -0.12006026435E+03  0.12761945918E+03  0.41800000000E+01 0. -1.
         -5    1    3    3    0  502  0.23412734064E+02 -0.41572240893E+02  0.20394457269E+02  0.52055870145E+02  0.41800000000E+01 0.  1.
        -11    1    1    2    0    0 -0.25212253757E+02 -0.20434002273E+01 -0.12512224734E+02  0.28220364842E+02  0.00000000000E+00 0.  1.
         11    1    1    2    0    0 -0.32603784637E+02  0.69523160035E+02 -0.28936695710E+03  0.29938221794E+03  0.00000000000E+00 0. -1.
</event>
<event>
 7    1  0.4966153E-006  0.1147514E+03  0.7561462E-02  0.1252016E+00
         -1   -1    0    0    0  501 -0.00000000000E+00  0.00000000000E+00  0.31570300993E+02  0.31570300993E+02  0.00000000000E+00 0.  1.
          1   -1    0    0  501    0  0.00000000000E+00 -0.00000000000E+00 -0.51417091117E+03  0.51417091117E+03  0.00000000000E+00 0. -1.
         23    2    1    2    0    0 -0.17078836467E+02  0.45963487370E+02 -0.16840168171E+03  0.21543347858E+03  0.12509247965E+03 0.  0.
          5    1    3    3  502    0 -0.40114499855E+02 -0.28699543287E+02 -0.34471711744E+02  0.60320876933E+02  0.41800000000E+01 0.  1.
         -5    1    3    3    0  502  0.23035663388E+02  0.74663030657E+02 -0.13392996996E+03  0.15511260165E+03  0.41800000000E+01 0.  1.
        -11    1    1    2    0    0  0.53646426787E+02 -0.32858607611E+02 -0.20252159559E+03  0.21206749841E+03  0.00000000000E+00 0.  1.
         11    1    1    2    0    0 -0.36567590320E+02 -0.13104879759E+02 -0.11167733288E+03  0.11824023518E+03  0.00000000000E+00 0. -1.
</event>
<event>
 7    1  0.4966153E-006  0.1720769E+03  0.7561462E-02  0.1175699E+00
         -1   -1    0    0    0  501 -0.00000000000E+00  0.00000000000E+00  0.19934383455E+03  0.19934383455E+03  0.00000000000E+00 0.  1.
          1   -1    0    0  501    0  0.00000000000E+00 -0.00000000000E+00 -0.22638009786E+03  0.22638009786E+03  0.00000000000E+00 0. -1.
         23    2    1    2    0    0  0.11598975752E+03  0.82817422106E+02  0.89890890697E+02  0.20985790696E+03  0.12509044579E+03 0.  0.
          5    1    3    3  502    0  0.80449961791E+02  0.10952908787E+03  0.37545353175E+02  0.14105298078E+03  0.41800000000E+01 0.  1.
         -5    1    3    3    0  502  0.35539795728E+02 -0.26711665761E+02  0.52345537523E+02  0.68804926180E+02  0.41800000000E+01 0.  1.
        -11    1    1    2    0    0  0.83419128999E+01 -0.25117583417E+02 -0.63426106830E+02  0.68726643561E+02  0.00000000000E+00 0. -1.
         11    1    1    2    0    0 -0.12433167042E+03 -0.57699838690E+02 -0.53501047182E+02  0.14713938189E+03  0.00000000000E+00 0.  1.
</event>
<event>
 7    1  0.4966153E-006  0.1260391E+03  0.7561462E-02  0.1233454E+00
          2   -1    0    0  501    0  0.00000000000E+00  0.00000000000E+00  0.99483820314E+02  0.99483820314E+02  0.00000000000E+00 0.  1.
         -2   -1    0    0    0  501 -0.00000000000E+00 -0.00000000000E+00 -0.18665443231E+03  0.18665443231E+03  0.00000000000E+00 0. -1.
         23    2    1    2    0    0  0.79216195255E+01 -0.78165924288E+02 -0.75814739875E+02  0.16603550868E+03  0.12508897467E+03 0.  0.
          5    1    3    3  502    0  0.64472781071E+02 -0.42223860695E+02 -0.22765702849E+02  0.80469519306E+02  0.41800000000E+01 0. -1.
         -5    1    3    3    0  502 -0.56551161546E+02 -0.35942063593E+02 -0.53049037026E+02  0.85565989370E+02  0.41800000000E+01 0. -1.
        -11    1    1    2    0    0  0.26809520577E+02  0.65528420920E+02  0.17828047659E+02  0.73010708976E+02  0.00000000000E+00 0.  1.
         11    1    1    2    0    0 -0.34731140102E+02  0.12637503367E+02 -0.29183919784E+02  0.47092034975E+02  0.00000000000E+00 0. -1.
</event>
<event>
 7    1  0.4966153E-006  0.1836976E+03  0.7561462E-02  0.1164272E+00
         -2   -1    0    0    0  501 -0.00000000000E+00  0.00000000000E+00  0.84159388296E+02  0.84159388296E+02  0.00000000000E+00 0.  1.
          2   -1    0    0  501    0  0.00000000000E+00 -0.00000000000E+00 -0.47176773718E+03  0.47176773718E+03  0.00000000000E+00 0. -1.
         23    2    1    2    0    0 -0.61089133467E+02  0.14684970676E+03 -0.27048579889E+03  0.33779675084E+03  0.12508940352E+03 0.  0.
          5    1    3    3  502    0 -0.81026511543E+02  0.15621023356E+03 -0.21443506033E+03  0.27742891006E+03  0.41800000000E+01 0. -1.
         -5    1    3    3    0  502  0.19937378075E+02 -0.93605267979E+01 -0.56050738563E+02  0.60367840775E+02  0.41800000000E+01 0. -1.
        -11    1    1    2    0    0  0.20446958358E+01 -0.78929896246E+02 -0.12191745403E+02  0.79892101978E+02  0.00000000000E+00 0.  1.
         11    1    1    2    0    0  0.59044437632E+02 -0.67919810515E+02 -0.10493080459E+03  0.13823827266E+03  0.00000000000E+00 0. -1.
</event>
<event>
 7    1  0.4966153E-006  0.4818337E+02  0.7561462E-02  0.1455394E+00
         -2   -1    0    0    0  501 -0.00000000000E+00  0.00000000000E+00  0.30854534978E+02  0.30854534978E+02  0.00000000000E+00 0.  1.
          2   -1    0    0  501    0  0.00000000000E+00 -0.00000000000E+00 -0.41076061016E+03  0.41076061016E+03  0.00000000000E+00 0. -1.
         23    2    1    2    0    0 -0.18046553337E+02  0.22023080082E+02 -0.23734523428E+03  0.26979605544E+03  0.12508579916E+03 0.  0.
          5    1    3    3  502    0 -0.23996616914E+02  0.67768087759E+01 -0.24835150344E+03  0.24963514260E+03  0.41800000000E+01 0.  1.
         -5    1    3    3    0  502  0.59500635766E+01  0.15246271306E+02  0.11006269166E+02  0.20160912833E+02  0.41800000000E+01 0.  1.
        -11    1    1    2    0    0 -0.71211552184E+01 -0.27523947771E+02 -0.14325401939E+03  0.14604791208E+03  0.00000000000E+00 0. -1.
         11    1    1    2    0    0  0.25167708556E+02  0.55008676891E+01  0.69317848631E+00  0.25771177616E+02  0.00000000000E+00 0.  1.
</event>
<event>
 7    1  0.4966153E-006  0.1878690E+03  0.7561462E-02  0.1160397E+00
         -3   -1    0    0    0  501 -0.00000000000E+00  0.00000000000E+00  0.34251907752E+03  0.34251907752E+03  0.00000000000E+00 0.  1.
          3   -1    0    0  501    0  0.00000000000E+00 -0.00000000000E+00 -0.13055560757E+03  0.13055560757E+03  0.00000000000E+00 0. -1.
         23    2    1    2    0    0  0.22124778784E+02 -0.16486777475E+03  0.18983763032E+03  0.28170343315E+03  0.12509040480E+03 0.  0.
          5    1    3    3  502    0 -0.16432742042E+02 -0.13895161501E+03  0.18881718456E+03  0.23504677813E+03  0.41800000000E+01 0. -1.
         -5    1    3    3    0  502  0.38557520826E+02 -0.25916159743E+02  0.10204457625E+01  0.46656655019E+02  0.41800000000E+01 0. -1.
        -11    1    1    2    0    0  0.28656774161E+02  0.11278368218E+03  0.41552975103E+01  0.11644155688E+03  0.00000000000E+00 0. -1.
         11    1    1    2    0    0 -0.50781552945E+02  0.52084092572E+02  0.17970542115E+02  0.74929695065E+02  0.00000000000E+00 0.  1.
</event>
<event>
 6    1  0.4966153E-006  0.1810246E+03  0.7561462E-02  0.1166815E+00
         -1   -1    0    0    0  501 -0.00000000000E+00  0.00000000000E+00  0.60345117359E+03  0.60345117359E+03  0.00000000000E+00 0.  1.
          1   -1    0    0  501    0  0.00000000000E+00 -0.00000000000E+00 -0.68752039703E+02  0.68752039703E+02  0.00000000000E+00 0. -1.
          5    1    1    2  502    0  0.10822352591E+03 -0.46366321943E+01  0.24555996278E+03  0.26842316896E+03  0.41800000000E+01 0. -1.
         -5    1    1    2    0  502  0.16797899171E+01 -0.90286332056E+02  0.17758237576E+03  0.19926719758E+03  0.41800000000E+01 0.  1.
        -11    1    1    2    0    0 -0.77032697141E+02  0.10374142801E+03  0.59349664233E+02  0.14219248559E+03  0.00000000000E+00 0. -1.
         11    1    1    2    0    0 -0.32870618682E+02 -0.88184637583E+01  0.52207131119E+02  0.62320361161E+02  0.00000000000E+00 0.  1.
</event>
<event>
 7    1  0.4966153E-006  0.1408165E+03  0.7561462E-02  0.1212235E+00
          4   -1    0    0  501    0  0.00000000000E+00  0.00000000000E+00  0.41839315632E+03  0.41839315632E+03  0.00000000000E+00 0. -1.
         -4   -1    0    0    0  501 -0.00000000000E+00 -0.00000000000E+00 -0.66839289649E+02  0.66839289649E+02  0.00000000000E+00 0.  1.
         23    2    1    2    0    0 -0.70177982755E+02  0.94579785500E+02  0.12075222357E+03  0.20999724687E+03  0.12508980416E+03 0.  0.
          5    1    3    3  502    0  0.30782591872E+02  0.11922027370E+02  0.17025596387E+01  0.33317770158E+02  0.41800000000E+01 0.  1.
         -5    1    3    3    0  502 -0.10096057463E+03  0.82657758130E+02  0.11904966393E+03  0.17667947671E+03  0.41800000000E+01 0.  1.
        -11    1    1    2    0    0  0.29347801806E+02 -0.37079226932E+02  0.18546143709E+03  0.19139515978E+03  0.00000000000E+00 0. -1.
         11    1    1    2    0    0  0.40830180949E+02 -0.57500558568E+02  0.45340206010E+02  0.83840039319E+02  0.00000000000E+00 0.  1.
</event>
<event>
 7    1  0.4966153E-006  0.1176801E+03  0.7561462E-02  0.1246974E+00
         -2   -1    0    0    0  501 -0.00000000000E+00  0.00000000000E+00  0.12042864207E+03  0.12042864207E+03  0.00000000000E+00 0.  1.
          2   -1    0    0  501    0  0.00000000000E+00 -0.00000000000E+00 -0.15501051430E+03  0.15501051430E+03  0.00000000000E+00 0. -1.
         23    2    1    2    0    0 -0.77704588571E+02 -0.25943657613E+02 -0.18580251093E+01  0.14954271337E+03  0.12509394234E+03 0.  0.
          5    1    3    3  502    0 -0.88014112685E+02  0.27818664414E+02 -0.13611153146E+02  0.93397526795E+02  0.41800000000E+01 0.  1.
         -5    1    3    3    0  502  0.10309524115E+02 -0.53762322028E+02  0.11753128036E+02  0.56145186578E+02  0.41800000000E+01 0.  1.
        -11    1    1    2    0    0  0.54733075369E+02  0.18431945727E+01  0.24261437053E+02  0.59897614589E+02  0.00000000000E+00 0.  1.
         11    1    1    2    0    0  0.22971513202E+02  0.24100463041E+02 -0.56985284173E+02  0.65998828398E+02  0.00000000000E+00 0. -1.
</event>
<event>
 7    1  0.4966153E-006  0.1449512E+03  0.7561462E-02  0.1206818E+00
         -2   -1    0    0    0  501 -0.00000000000E+00  0.00000000000E+00  0.11993828216E+03  0.11993828216E+03  0.00000000000E+00 0.  1.
          2   -1    0    0  501    0  0.00000000000E+00 -0.00000000000E+00 -0.28569039018E+03  0.28569039018E+03  0.00000000000E+00 0. -1.
         23    2    1    2    0    0 -0.11539651077E+03 -0.64556722602E+02 -0.12574325498E+02  0.18245618103E+03  0.12509284233E+03 0.  0.
          5    1    3    3  502    0 -0.92221345694E+00 -0.40333840870E+02  0.37382953662E+02  0.55160011072E+02  0.41800000000E+01 0. -1.
         -5    1    3    3    0  502 -0.11447429731E+03 -0.24222881732E+02 -0.49957279161E+02  0.12729616996E+03  0.41800000000E+01 0. -1.
        -11    1    1    2    0    0  0.59920218314E+02  0.35175750727E+02 -0.14544288811E+02  0.70988043635E+02  0.00000000000E+00 0.  1.
         11    1    1    2    0    0  0.55476292457E+02  0.29380971875E+02 -0.13863349372E+03  0.15218444767E+03  0.00000000000E+00 0. -1.
</event>
<event>
 6    1  0.4966153E-006  0.1038510E+03  0.7561462E-02  0.1272400E+00
         -2   -1    0    0    0  501 -0.00000000000E+00  0.00000000000E+00  0.56581436193E+03  0.56581436193E+03  0.00000000000E+00 0.  1.
          2   -1    0    0  501    0  0.00000000000E+00 -0.00000000000E+00 -0.50063610757E+02  0.50063610757E+02  0.00000000000E+00 0. -1.
          5    1    1    2  502    0  0.43878924953E+02 -0.47193521812E+02  0.25981883140E+02  0.69606890518E+02  0.41800000000E+01 0. -1.
         -5    1    1    2    0  502 -0.29874616478E+02  0.44787227369E+02  0.43099641514E+03  0.43436594101E+03  0.41800000000E+01 0.  1.
        -11    1    1    2    0    0  0.37545057469E+02  0.90381939285E+00  0.58465700577E+01  0.38008296611E+02  0.00000000000E+00 0.  1.
         11    1    1    2    0    0 -0.51549365943E+02  0.15024750510E+01  0.52925882838E+02  0.73896844551E+02  0.00000000000E+00 0. -1.
</event>
<event>
 7    1  0.4966153E-006  0.1184389E+03  0.7561462E-02  0.1245695E+00
          4   -1    0    0  501    0  0.00000000000E+00  0.00000000000E+00  0.10467411464E+03  0.10467411464E+03  0.00000000000E+00 0. -1.
         -4   -1    0    0    0  501 -0.00000000000E+00 -0.00000000000E+00 -0.24945218802E+03  0.24945218802E+03  0.00000000000E+00 0.  1.
         23    2    1    2    0    0 -0.26167384785E+02  0.77675350210E+02 -0.17069234602E+03  0.22693969674E+03  0.12509019510E+03 0.  0.
          5    1    3    3  502    0  0.15702586292E+02  0.88354081797E+02 -0.15792581080E+03  0.18168943036E+03  0.41800000000E+01 0. -1.
         -5    1    3    3    0  502 -0.41869971077E+02 -0.10678731587E+02 -0.12766535217E+02  0.45250266383E+02  0.41800000000E+01 0. -1.
        -11    1    1    2    0    0  0.67917239514E+01 -0.83204056518E+02 -0.11914156689E+02  0.84326684181E+02  0.00000000000E+00 0.  1.
         11    1    1    2    0    0  0.19375660834E+02  0.55287063083E+01  0.37828429331E+02  0.42859921743E+02  0.00000000000E+00 0. -1.
</event>
<event>
 7    1  0.4966153E-006  0.9967039E+02  0.7561462E-02  0.1280991E+00
          2   -1    0    0  501    0  0.00000000000E+00  0.00000000000E+00  0.28886948083E+03  0.28886948083E+03  0.00000000000E+00 0. -1.
         -2   -1    0    0    0  501 -0.00000000000E+00 -0.00000000000E+00 -0.55345934506E+02  0.55345934506E+02  0.00000000000E+00 0.  1.
         23    2    1    2    0    0 -0.13238017602E+02 -0.52429903332E+02  0.77745081840E+02  0.15688630407E+03  0.12507947385E+03 0.  0.
          5    1    3    3  502    0 -0.58265730073E+02  0.56258747110E+01  0.16008976671E+02  0.60830136456E+02  0.41800000000E+01 0.  1.
         -5    1    3    3    0  502  0.45027712471E+02 -0.58055778043E+02  0.61736105170E+02  0.96056167611E+02  0.41800000000E+01 0.  1.
        -11    1    1    2    0    0  0.16533444890E+02  0.21443419469E+01 -0.61271938115E+01  0.17762193173E+02  0.00000000000E+00 0.  1.
         11    1    1    2    0    0 -0.32954272882E+01  0.50285561385E+02  0.16190565829E+03  0.16956691809E+03  0.00000000000E+00 0. -1.
</event>
<event>
 7    1  0.4966153E-006  0.1162303E+03  0.7561462E-02  0.1249449E+00
          1   -1    0    0  501    0  0.00000000000E+00  0.00000000000E+00  0.49801443451E+02  0.49801443451E+02  0.00000000000E+00 0. -1.
         -1   -1    0    0    0  501 -0.00000000000E+00 -0.00000000000E+00 -0.37411614872E+03  0.37411614872E+03  0.00000000000E+00 0.  1.
         23    2    1    2    0    0 -0.10379493463E+02  0.58440268317E+02 -0.26793254683E+03  0.30160479826E+03  0.12511836730E+03 0.  0.
          5    1    3    3  502    0 -0.32788767304E+02 -0.27026057325E+02 -0.46344013354E+02  0.63013895370E+02  0.41800000000E+01 0.  1.
         -5    1    3    3    0  502  0.22409273841E+02  0.85466325642E+02 -0.22158853348E+03  0.23859090289E+03  0.41800000000E+01 0.  1.
        -11    1    1    2    0    0 -0.18664717808E+02 -0.68170396483E+02 -0.17498083789E+02  0.72813169027E+02  0.00000000000E+00 0.  1.
         11    1    1    2    0    0  0.29044211272E+02  0.97301281662E+01 -0.38884074652E+02  0.49499624888E+02  0.00000000000E+00 0. -1.
</event>
<event>
 7    1  0.4966153E-006  0.1209532E+03  0.7561462E-02  0.1241533E+00
         -2   -1    0    0    0  501 -0.00000000000E+00  0.00000000000E+00  0.37233444562E+02  0.37233444562E+02  0.00000000000E+00 0.  1.
          2   -1    0    0  501    0  0.00000000000E+00 -0.00000000000E+00 -0.45583913005E+03  0.45583913005E+03  0.00000000000E+00 0. -1.
         23    2    1    2    0    0 -0.50543796757E+02 -0.47829680537E+02 -0.21371283922E+03  0.25722205090E+03  0.12509057554E+03 0.  0.
          5    1    3    3  502    0 -0.55761480851E+02 -0.83026958774E+02 -0.18844334523E+03  0.21338037724E+03  0.41800000000E+01 0. -1.
         -5    1    3    3    0  502  0.52176840941E+01  0.35197278236E+02 -0.25269493995E+02  0.43841673660E+02  0.41800000000E+01 0. -1.
        -11    1    1    2    0    0  0.34308077141E+02 -0.17603736730E+02 -0.31430270778E+02  0.49747337870E+02  0.00000000000E+00 0.  1.
         11    1    1    2    0    0  0.16235719616E+02  0.65433417267E+02 -0.17346257549E+03  0.18610318584E+03  0.00000000000E+00 0. -1.
</event>
<event>
 6    1  0.4966153E-006  0.2558098E+03  0.7561462E-02  0.1109687E+00
          1   -1    0    0  501    0  0.00000000000E+00  0.00000000000E+00  0.13486271290E+04  0.13486271290E+04  0.00000000000E+00 0. -1.
         -1   -1    0    0    0  501 -0.00000000000E+00 -0.00000000000E+00 -0.13504127391E+03  0.13504127391E+03  0.00000000000E+00 0.  1.
          5    1    1    2  502    0  0.27902044827E+02 -0.12154596249E+03 -0.65282432587E+02  0.14082334149E+03  0.41800000000E+01 0. -1.
         -5    1    1    2    0  502 -0.43359239564E+02  0.24828211640E+03  0.82679600563E+03  0.86436863681E+03  0.41800000000E+01 0.  1.
        -11    1    1    2    0    0 -0.14382131267E+02 -0.59399191708E+02  0.88708539978E+02  0.10772332496E+03  0.00000000000E+00 0.  1.
         11    1    1    2    0    0  0.29839326004E+02 -0.67336962203E+02  0.36336374212E+03  0.37075309970E+03  0.00000000000E+00 0. -1.
</event>
<event>
 7    1  0.4966153E-006  0.1823307E+03  0.7561462E-02  0.1165566E+00
          4   -1    0    0  501    0  0.00000000000E+00  0.00000000000E+00  0.18307883847E+03  0.18307883847E+03  0.00000000000E+00 0. -1.
         -4   -1    0    0    0  501 -0.00000000000E+00 -0.00000000000E+00 -0.19756625006E+03  0.19756625006E+03  0.00000000000E+00 0.  1.
         23    2    1    2    0    0 -0.31168501834E+02 -0.14816563937E+03 -0.39366865886E+02  0.20030602458E+03  0.12509285015E+03 0.  0.
          5    1    3    3  502    0  0.40297239433E+02 -0.10072938732E+03 -0.35919498326E+02  0.11435890755E+03  0.41800000000E+01 0.  1.
         -5    1    3    3    0  502 -0.71465741267E+02 -0.47436252053E+02 -0.34473675607E+01  0.85947117036E+02  0.41800000000E+01 0.  1.
        -11    1    1    2    0    0 -0.19667255672E+02  0.93564957307E+02 -0.13307391647E+02  0.96531284328E+02  0.00000000000E+00 0.  1.
         11    1    1    2    0    0  0.50835757505E+02  0.54600682062E+02  0.38186845944E+02  0.83807779626E+02  0.00000000000E+00 0. -1.
</event>
<event>
 7    1  0.4966153E-006  0.9133946E+02  0.7561462E-02  0.1299640E+00
          2   -1    0    0  501    0  0.00000000000E+00  0.00000000000E+00  0.50118537833E+02  0.50118537833E+02  0.00000000000E+00 0. -1.
         -2   -1    0    0    0  501 -0.00000000000E+00 -0.00000000000E+00 -0.40712445752E+03  0.40712445752E+03  0.00000000000E+00 0.  1.
         23    2    1    2    0    0  0.28840099234E+02  0.22378002884E+02 -0.32526368010E+03  0.35039569589E+03  0.12509258877E+03 0.  0.
          5    1    3    3  502    0  0.62078971250E+02 -0.17136721585E+02 -0.98277758696E+02  0.11757319487E+03  0.41800000000E+01 0. -1.
         -5    1    3    3    0  502 -0.33238872015E+02  0.39514724469E+02 -0.22698592141E+03  0.23282250102E+03  0.41800000000E+01 0. -1.
        -11    1    1    2    0    0 -0.20026653380E+02  0.16825223003E+02  0.25750423587E+02  0.36704758405E+02  0.00000000000E+00 0. -1.
         11    1    1    2    0    0 -0.88134458547E+01 -0.39203225887E+02 -0.57492663172E+02  0.70142541060E+02  0.00000000000E+00 0.  1.
</event>
<event>
 7    1  0.4966153E-006  0.1084311E+03  0.7561462E-02  0.1263503E+00
          1   -1    0    0  501    0  0.00000000000E+00  0.00000000000E+00  0.68535593811E+02  0.68535593811E+02  0.00000000000E+00 0. -1.
         -1   -1    0    0    0  501 -0.00000000000E+00 -0.00000000000E+00 -0.27630963279E+03  0.27630963279E+03  0.00000000000E+00 0.  1.
         23    2    1    2    0    0 -0.20587821729E+02  0.36076031922E+02 -0.20643068902E+03  0.24492092605E+03  0.12508913688E+03 0.  0.
          5    1    3    3  502    0 -0.59742962134E+02  0.53765729471E+02 -0.17129751206E+03  0.18926247707E+03  0.41800000000E+01 0. -1.
         -5    1    3    3    0  502  0.39155140406E+02 -0.17689697549E+02 -0.35133176963E+02  0.55658448982E+02  0.41800000000E+01 0. -1.
        -11    1    1    2    0    0 -0.20418057367E+02 -0.46599402694E+02 -0.18652466545E+02  0.54187783737E+02  0.00000000000E+00 0.  1.
         11    1    1    2    0    0  0.41005879096E+02  0.10523370772E+02  0.17309116588E+02  0.45736516810E+02  0.00000000000E+00 0. -1.
</event>
<event>
 7    1  0.4966153E-006  0.5632352E+02  0.7561462E-02  0.1413942E+00
          1   -1    0    0  501    0  0.00000000000E+00  0.00000000000E+00  0.48262401222E+02  0.48262401222E+02  0.00000000000E+00 0. -1.
         -1   -1    0    0    0  501 -0.00000000000E+00 -0.00000000000E+00 -0.25711768293E+03  0.25711768293E+03  0.00000000000E+00 0.  1.
         23    2    1    2    0    0 -0.13923194941E+02  0.19622126130E+02 -0.14424164898E+03  0.19243622012E+03  0.12508861787E+03 0.  0.
          5    1    3    3  502    0 -0.96866653175E+01  0.24195186453E+02  0.16755431084E+02  0.31264283188E+02  0.41800000000E+01 0. -1.
         -5    1    3    3    0  502 -0.42365296233E+01 -0.45730603229E+01 -0.16099708007E+03  0.16117193693E+03  0.41800000000E+01 0. -1.
        -11    1    1    2    0    0 -0.12540272577E+02 -0.42160311603E+02 -0.64636705084E+02  0.78183463436E+02  0.00000000000E+00 0.  1.
         11    1    1    2    0    0  0.26463467518E+02  0.22538185473E+02  0.23072356236E-01  0.34760400599E+02  0.00000000000E+00 0. -1.
</event>
<event>
 7    1  0.4966153E-006  0.1301903E+03  0.7561462E-02  0.1227174E+00
         -2   -1    0    0    0  501 -0.00000000000E+00  0.00000000000E+00  0.35524810567E+03  0.35524810567E+03  0.00000000000E+00 0.  1.
          2   -1    0    0  501    0  0.00000000000E+00 -0.00000000000E+00 -0.64981720054E+02  0.64981720054E+02  0.00000000000E+00 0. -1.
         23    2    1    2    0    0  0.30626574497E+02 -0.96124989765E+02  0.20569658253E+03  0.26103003214E+03  0.12509033892E+03 0.  0.
          5    1    3    3  502    0  0.27086923874E+01  0.23655705766E+02  0.36387551704E+01  0.24446725116E+02  0.41800000000E+01 0.  1.
         -5    1    3    3    0  502  0.27917882109E+02 -0.11978069553E+03  0.20205782736E+03  0.23658330702E+03  0.41800000000E+01 0.  1.
        -11    1    1    2    0    0 -0.43447261394E+02  0.55138212500E+02  0.91889314143E+02  0.11563534518E+03  0.00000000000E+00 0.  1.
         11    1    1    2    0    0  0.12820686898E+02  0.40986777265E+02 -0.73195110591E+01  0.43564448410E+02  0.00000000000E+00 0. -1.
</event>
<event>
 7    1  0.4966153E-006  0.9613646E+02  0.7561462E-02  0.1288637E+00
         -1   -1    0    0    0  501 -0.00000000000E+00  0.00000000000E+00  0.24631717924E+03  0.24631717924E+03  0.00000000000E+00 0.  1.
          1   -1    0    0  501    0  0.00000000000E+00 -0.00000000000E+00 -0.12051274892E+03  0.12051274892E+03  0.00000000000E+00 0. -1.
         23    2    1    2    0    0 -0.47723238298E+02  0.83850796199E+01  0.19880089838E+03  0.23982984670E+03  0.12509492850E+03 0.  0.
          5    1    3    3  502    0 -0.11782207015E+01 -0.42924399145E+02  0.19080004327E+02  0.47174264288E+02  0.41800000000E+01 0.  1.
         -5    1    3    3    0  502 -0.46545017596E+02  0.51309478765E+02  0.17972089405E+03  0.19265558241E+03  0.41800000000E+01 0.  1.
        -11    1    1    2    0    0 -0.35276737320E+01 -0.25463194606E+02  0.10321839444E+02  0.27701247825E+02  0.00000000000E+00 0.  1.
         11    1    1    2    0    0  0.51250912030E+02  0.17078114987E+02 -0.83318307512E+02  0.99298833639E+02  0.00000000000E+00 0. -1.
</event>
<event>
 7    1  0.4966153E-006  0.8431718E+02  0.7561462E-02  0.1317228E+00
          2   -1    0    0  501    0  0.00000000000E+00  0.00000000000E+00  0.28935918382E+03  0.28935918382E+03  0.00000000000E+00 0.  1.
         -2   -1    0    0    0  501 -0.00000000000E+00 -0.00000000000E+00 -0.49017799518E+02  0.49017799518E+02  0.00000000000E+00 0. -1.
         23    2    1    2    0    0  0.43051599699E+02 -0.24293459736E+02  0.11850584885E+03  0.17926245892E+03  0.12509108899E+03 0.  0.
          5    1    3    3  502    0  0.54921692958E+01  0.12972280169E+02 -0.23470063134E+02  0.27690435891E+02  0.41800000000E+01 0. -1.
         -5    1    3    3    0  502  0.37559430403E+02 -0.37265739905E+02  0.14197591198E+03  0.15157202303E+03  0.41800000000E+01 0. -1.
        -11    1    1    2    0    0  0.91699936253E+01 -0.26484310940E+02  0.22529641379E+02  0.35959591902E+02  0.00000000000E+00 0. -1.
         11    1    1    2    0    0 -0.52221593324E+02  0.50777770676E+02  0.99305894071E+02  0.12315493251E+03  0.00000000000E+00 0.  1.
</event>
<event>
 7    1  0.4966153E-006  0.1165657E+03  0.7561462E-02  0.1248872E+00
         -2   -1    0    0    0  501 -0.00000000000E+00  0.00000000000E+00  0.24187167267E+03  0.24187167267E+03  0.00000000000E+00 0.  1.
          2   -1    0    0  501    0  0.00000000000E+00 -0.00000000000E+00 -0.75769524147E+02  0.75769524147E+02  0.00000000000E+00 0. -1.
         23    2    1    2    0    0 -0.26043209002E+02 -0.16940822631E+02  0.16303255318E+03  0.20782792327E+03  0.12509033570E+03 0.  0.
          5    1    3    3  502    0  0.11766348151E+02 -0.65385107167E+02  0.73611045206E+02  0.99245743306E+02  0.41800000000E+01 0. -1.
         -5    1    3    3    0  502 -0.37809557154E+02  0.48444284536E+02  0.89421507976E+02  0.10858217996E+03  0.41800000000E+01 0. -1.
        -11    1    1    2    0    0  0.41922322602E+02 -0.32498333398E+02 -0.14508607425E+02  0.54992022107E+02  0.00000000000E+00 0. -1.
         11    1    1    2    0    0 -0.15879113600E+02  0.49439156029E+02  0.17578202771E+02  0.54821251447E+02  0.00000000000E+00 0.  1.
</event>
<event>
 7    1  0.4966153E-006  0.9947616E+02  0.7561462E-02  0.1281401E+00
         -1   -1    0    0    0  501 -0.00000000000E+00  0.00000000000E+00  0.84719845707E+03  0.84719845707E+03  0.00000000000E+00 0.  1.
          1   -1    0    0  501    0  0.00000000000E+00 -0.00000000000E+00 -0.20524547109E+02  0.20524547109E+02  0.00000000000E+00 0. -1.
         23    2    1    2    0    0  0.12802507066E+01  0.25549763584E+02  0.67294987256E+03  0.68495407241E+03  0.12508445495E+03 0.  0.
          5    1    3    3  502    0 -0.49811922929E+02  0.46276985123E+02  0.28186514615E+03  0.28997968900E+03  0.41800000000E+01 0.  1.
         -5    1    3    3    0  502  0.51092173635E+02 -0.20727221540E+02  0.39108472640E+03  0.39497438340E+03  0.41800000000E+01 0.  1.
        -11    1    1    2    0    0  0.13668681905E+02 -0.47249959762E+02  0.33069553695E+02  0.59270455913E+02  0.00000000000E+00 0. -1.
         11    1    1    2    0    0 -0.14948932611E+02  0.21700196178E+02  0.12065448371E+03  0.12349847586E+03  0.00000000000E+00 0.  1.
</event>
<event>
 7    1  0.4966153E-006  0.9114584E+02  0.7561462E-02  0.1300100E+00
          1   -1    0    0  501    0  0.00000000000E+00  0.00000000000E+00  0.22721380859E+03  0.22721380859E+03  0.00000000000E+00 0. -1.
         -1   -1    0    0    0  501 -0.00000000000E+00 -0.00000000000E+00 -0.64739115633E+02  0.64739115633E+02  0.00000000000E+00 0.  1.
         23    2    1    2    0    0 -0.26849687041E+02 -0.48653061900E+02  0.75350600642E+02  0.15624903855E+03  0.12509205772E+03 0.  0.
          5    1    3    3  502    0 -0.57818657622E+02  0.43344351783E+01  0.74797129169E+02  0.94730498940E+02  0.41800000000E+01 0. -1.
         -5    1    3    3    0  502  0.30968970581E+02 -0.52987497078E+02  0.55347147343E+00  0.61518539613E+02  0.41800000000E+01 0. -1.
        -11    1    1    2    0    0  0.24979463682E+02  0.15413616503E+02 -0.11566705741E+02  0.31549038991E+02  0.00000000000E+00 0.  1.
         11    1    1    2    0    0  0.18702233589E+01  0.33239445397E+02  0.98690798051E+02  0.10415484667E+03  0.00000000000E+00 0. -1.
</event>
<event>
 7    1  0.4966153E-006  0.1303505E+03  0.7561462E-02  0.1226937E+00
          1   -1    0    0  501    0  0.00000000000E+00  0.00000000000E+00  0.50578823228E+02  0.50578823228E+02  0.00000000000E+00 0. -1.
         -1   -1    0    0    0  501 -0.00000000000E+00 -0.00000000000E+00 -0.37925732962E+03  0.37925732962E+03  0.00000000000E+00 0.  1.
         23    2    1    2    0    0 -0.75842889541E+02  0.26740123997E+02 -0.13110618485E+03  0.19825109219E+03  0.12508991056E+03 0.  0.
          5    1    3    3  502    0 -0.10838502136E+03  0.39059955855E+01 -0.91165332629E+02  0.14174328884E+03  0.41800000000E+01 0. -1.
         -5    1    3    3    0  502  0.32542131819E+02  0.22834128411E+02 -0.39940852221E+02  0.56507803353E+02  0.41800000000E+01 0. -1.
        -11    1    1    2    0    0  0.19398677692E+02  0.27670135184E+02 -0.10484834486E+03  0.11015952296E+03  0.00000000000E+00 0.  1.
         11    1    1    2    0    0  0.56444211849E+02 -0.54410259181E+02 -0.92723976680E+02  0.12142553770E+03  0.00000000000E+00 0. -1.
</event>
<event>
 7    1  0.4966153E-006  0.7886897E+02  0.7561462E-02  0.1332292E+00
          1   -1    0    0  501    0  0.00000000000E+00  0.00000000000E+00  0.96647176208E+02  0.96647176208E+02  0.00000000000E+00 0. -1.
         -1   -1    0    0    0  501 -0.00000000000E+00 -0.00000000000E+00 -0.13102727512E+03  0.13102727512E+03  0.00000000000E+00 0.  1.
         23    2    1    2    0    0 -0.19183539407E+02  0.20096476367E+01 -0.33407084112E+02  0.13090246050E+03  0.12508946409E+03 0.  0.
          5    1    3    3  502    0  0.23123272343E+02  0.27794852883E+02 -0.63205248046E+02  0.72935693259E+02  0.41800000000E+01 0.  1.
         -5    1    3    3    0  502 -0.42306811749E+02 -0.25785205246E+02  0.29798163934E+02  0.57966767237E+02  0.41800000000E+01 0.  1.
        -11    1    1    2    0    0  0.40186019691E+02  0.16675783386E+02 -0.32667237174E+02  0.54407226678E+02  0.00000000000E+00 0.  1.
         11    1    1    2    0    0 -0.21002480285E+02 -0.18685431023E+02  0.31694222370E+02  0.42364764159E+02  0.00000000000E+00 0. -1.
</event>
<event>
 7    1  0.4966153E-006  0.6766302E+02  0.7561462E-02  0.1368225E+00
          2   -1    0    0  501    0  0.00000000000E+00  0.00000000000E+00  0.70101656341E+03  0.70101656341E+03  0.00000000000E+00 0.  1.
         -2   -1    0    0    0  501 -0.00000000000E+00 -0.00000000000E+00 -0.25574031343E+02  0.25574031343E+02  0.00000000000E+00 0. -1.
         23    2    1    2    0    0  0.13179650021E+02  0.10251579315E+01  0.16192676851E+03  0.20504352822E+03  0.12509123063E+03 0.  0.
          5    1    3    3  502    0 -0.34557468736E+01 -0.17972078401E+02 -0.16376945713E+02  0.24912136387E+02  0.41800000000E+01 0. -1.
         -5    1    3    3    0  502  0.16635396894E+02  0.18997236332E+02  0.17830371422E+03  0.18013139183E+03  0.41800000000E+01 0. -1.
        -11    1    1    2    0    0 -0.29410589904E+02 -0.39473006898E+02  0.29571132532E+03  0.29978040129E+03  0.00000000000E+00 0.  1.
         11    1    1    2    0    0  0.16230939883E+02  0.38447848967E+02  0.21780443823E+03  0.22176666525E+03  0.00000000000E+00 0. -1.
</event>
<event>
 6    1  0.4966153E-006  0.1502433E+03  0.7561462E-02  0.1200174E+00
          2   -1    0    0  501    0  0.00000000000E+00  0.00000000000E+00  0.32659108274E+03  0.32659108274E+03  0.00000000000E+00 0. -1.
         -2   -1    0    0    0  501 -0.00000000000E+00 -0.00000000000E+00 -0.28594710494E+03  0.28594710494E+03  0.00000000000E+00 0.  1.
          5    1    1    2  502    0  0.75128927247E+02  0.28635827007E+02  0.30374068009E+02  0.86048955282E+02  0.41800000000E+01 0. -1.
         -5    1    1    2    0  502 -0.92581756532E+02  0.57189297567E+02 -0.21374105589E+03  0.23988478228E+03  0.41800000000E+01 0.  1.
        -11    1    1    2    0    0  0.21855510653E+02  0.30712548303E+01 -0.18168989685E+02  0.28586852543E+02  0.00000000000E+00 0.  1.
         11    1    1    2    0    0 -0.44026813683E+01 -0.88896379405E+02  0.24217995537E+03  0.25801759757E+03  0.00000000000E+00 0. -1.
</event>
<event>
 7    1  0.4966153E-006  0.1040880E+03  0.7561462E-02  0.1271927E+00
          1   -1    0    0  501    0  0.00000000000E+00  0.00000000000E+00  0.16966325434E+02  0.16966325434E+02  0.00000000000E+00 0. -1.
         -1   -1    0    0    0  501 -0.00000000000E+00 -0.00000000000E+00 -0.77104518988E+03  0.77104518988E+03  0.00000000000E+00 0.  1.
         23    2    1    2    0    0  0.23207527871E+01  0.97523533848E+01 -0.55520210095E+03  0.56920757051E+03  0.12508953247E+03 0.  0.
          5    1    3    3  502    0  0.55245476990E+02  0.36128165830E+02 -0.30212024843E+03  0.30927564405E+03  0.41800000000E+01 0. -1.
         -5    1    3    3    0  502 -0.52924724203E+02 -0.26375812445E+02 -0.25308185252E+03  0.25993192645E+03  0.41800000000E+01 0. -1.
        -11    1    1    2    0    0 -0.28996841014E+02  0.25452738992E+02 -0.13988419793E+03  0.14510771014E+03  0.00000000000E+00 0.  1.
         11    1    1    2    0    0  0.26676088227E+02 -0.35205092377E+02 -0.58992565564E+02  0.73696234667E+02  0.00000000000E+00 0. -1.
</event>
<event>
 7    1  0.4966153E-006  0.1061687E+03  0.7561462E-02  0.1267834E+00
         -1   -1    0    0    0  501 -0.00000000000E+00  0.00000000000E+00  0.19155384972E+03  0.19155384972E+03  0.00000000000E+00 0.  1.
          1   -1    0    0  501    0  0.00000000000E+00 -0.00000000000E+00 -0.67318419003E+02  0.67318419003E+02  0.00000000000E+00 0. -1.
         23    2    1    2    0    0  0.32666913803E+02  0.89142936142E+01  0.78413099468E+02  0.15146658677E+03  0.12508765268E+03 0.  0.
          5    1    3    3  502    0 -0.56049185411E+01 -0.54022688547E+02  0.22692574684E+02  0.59010942507E+02  0.41800000000E+01 0.  1.
         -5    1    3    3    0  502  0.38271832344E+02  0.62936982162E+02  0.55720524784E+02  0.92455644267E+02  0.41800000000E+01 0.  1.
        -11    1    1    2    0    0 -0.45122154047E+02 -0.33719160550E+02  0.30439090815E+01  0.56411487806E+02  0.00000000000E+00 0. -1.
         11    1    1    2    0    0  0.12455240244E+02  0.24804866935E+02  0.42778422168E+02  0.50994194144E+02  0.00000000000E+00 0.  1.
</event>
<event>
 7    1  0.4966153E-006  0.1363404E+03  0.7561462E-02  0.1218340E+00
         -1   -1    0    0    0  501 -0.00000000000E+00  0.00000000000E+00  0.34950221682E+02  0.34950221682E+02  0.00000000000E+00 0.  1.
          1   -1    0    0  501    0  0.00000000000E+00 -0.00000000000E+00 -0.58357581450E+03  0.58357581450E+03  0.00000000000E+00 0. -1.
         23    2    1    2    0    0  0.60416232516E+02 -0.68049555363E+02 -0.28272507366E+03  0.32227615797E+03  0.12509033368E+03 0.  0.
          5    1    3    3  502    0 -0.21376718110E+02 -0.65966878596E+02 -0.16318190547E+03  0.17735388302E+03  0.41800000000E+01 0. -1.
         -5    1    3    3    0  502  0.81792950626E+02 -0.20826767672E+01 -0.11954316819E+03  0.14492227495E+03  0.41800000000E+01 0. -1.
        -11    1    1    2    0    0  0.56782092312E+01  0.53252220283E+02 -0.17421200933E+03  0.18225768905E+03  0.00000000000E+00 0. -1.
         11    1    1    2    0    0 -0.66094441747E+02  0.14797335080E+02 -0.91688509822E+02  0.11399218916E+03  0.00000000000E+00 0.  1.
</event>
<event>
 7    1  0.4966153E-006  0.7527743E+02  0.7561462E-02  0.1343014E+00
         -1   -1    0    0    0  501 -0.00000000000E+00  0.00000000000E+00  0.44763802811E+02  0.44763802811E+02  0.00000000000E+00 0.  1.
          1   -1    0    0  501    0  0.00000000000E+00 -0.00000000000E+00 -0.26507464990E+03  0.26507464990E+03  0.00000000000E+00 0. -1.
         23    2    1    2    0    0  0.49355199301E+01  0.11626195314E+02 -0.10587161884E+03  0.16436564840E+03  0.12509092262E+03 0.  0.
          5    1    3    3  502    0  0.47128205943E+00 -0.24555190478E+02 -0.12182998314E+03  0.12435110244E+03  0.41800000000E+01 0.  1.
         -5    1    3    3    0  502  0.44642378707E+01  0.36181385792E+02  0.15958364296E+02  0.40014545962E+02  0.41800000000E+01 0.  1.
        -11    1    1    2    0    0  0.31019716017E+02  0.23319691999E+02 -0.60051148393E+02  0.71499449229E+02  0.00000000000E+00 0.  1.
         11    1    1    2    0    0 -0.35955235947E+02 -0.34945887313E+02 -0.54388079859E+02  0.73973355087E+02  0.00000000000E+00 0. -1.
</event>
<event>
 7    1  0.4966153E-006  0.1125689E+03  0.7561462E-02  0.1255885E+00
         -2   -1    0    0    0  501 -0.00000000000E+00  0.00000000000E+00  0.59355104352E+02  0.59355104352E+02  0.00000000000E+00 0.  1.
          2   -1    0    0  501    0  0.00000000000E+00 -0.00000000000E+00 -0.25754860289E+03  0.25754860289E+03  0.00000000000E+00 0. -1.
         23    2    1    2    0    0 -0.62801016280E+02 -0.21484551080E+02 -0.10240930985E+03  0.17475810230E+03  0.12508866454E+03 0.  0.
          5    1    3    3  502    0  0.32422496112E+02 -0.99107434841E-01  0.73332147326E+00  0.32699208504E+02  0.41800000000E+01 0. -1.
         -5    1    3    3    0  502 -0.95223512392E+02 -0.21385443645E+02 -0.10314263132E+03  0.14205889380E+03  0.41800000000E+01 0. -1.
        -11    1    1    2    0    0  0.28935747306E+02 -0.24319426075E+02 -0.70138537528E+02  0.79675130394E+02  0.00000000000E+00 0. -1.
         11    1    1    2    0    0  0.33865268974E+02  0.45803977155E+02 -0.25645651162E+02  0.62470474541E+02  0.00000000000E+00 0.  1.
</event>
<event>
 7    1  0.4966153E-006  0.1152243E+03  0.7561462E-02  0.1251190E+00
          2   -1    0    0  501    0  0.00000000000E+00  0.00000000000E+00  0.22330060907E+03  0.22330060907E+03  0.00000000000E+00 0. -1.
         -2   -1    0    0    0  501 -0.00000000000E+00 -0.00000000000E+00 -0.94049797325E+02  0.94049797325E+02  0.00000000000E+00 0.  1.
         23    2    1    2    0    0 -0.75564729273E+02 -0.54440511401E+02  0.46097986821E+02  0.16261033080E+03  0.12507316939E+03 0.  0.
          5    1    3    3  502    0 -0.35078225097E+02 -0.47001957661E+02  0.86623830034E+02  0.10469396463E+03  0.41800000000E+01 0. -1.
         -5    1    3    3    0  502 -0.40486504176E+02 -0.74385537401E+01 -0.40525843213E+02  0.57916366169E+02  0.41800000000E+01 0. -1.
        -11    1    1    2    0    0  0.73686056844E+02  0.77616544480E+02  0.64743775888E+02  0.12508285041E+03  0.00000000000E+00 0.  1.
         11    1    1    2    0    0  0.18786724286E+01 -0.23176033080E+02  0.18409049032E+02  0.29657225185E+02  0.00000000000E+00 0. -1.
</event>
<event>
 7    1  0.4966153E-006  0.6038918E+02  0.7561462E-02  0.1396206E+00
         -3   -1    0    0    0  501 -0.00000000000E+00  0.00000000000E+00  0.22010413958E+03  0.22010413958E+03  0.00000000000E+00 0.  1.
          3   -1    0    0  501    0  0.00000000000E+00 -0.00000000000E+00 -0.56232126703E+02  0.56232126703E+02  0.00000000000E+00 0. -1.
         23    2    1    2    0    0  0.30977360046E+01 -0.22934814922E+02  0.93396946459E+02  0.15781645283E+03  0.12508973368E+03 0.  0.
          5    1    3    3  502    0  0.21140332533E+02  0.11160375138E+01 -0.26478348617E+02  0.34157496173E+02  0.41800000000E+01 0.  1.
         -5    1    3    3    0  502 -0.18042596528E+02 -0.24050852436E+02  0.11987529508E+03  0.12365895666E+03  0.41800000000E+01 0.  1.
        -11    1    1    2    0    0 -0.28734621405E+02 -0.68560196914E+01 -0.81272784810E+01  0.30638801034E+02  0.00000000000E+00 0. -1.
         11    1    1    2    0    0  0.25636885400E+02  0.29790834613E+02  0.78602344899E+02  0.87881012418E+02  0.00000000000E+00 0.  1.
</event>
<event>
 6    1  0.4966153E-006  0.2043814E+03  0.7561462E-02  0.1146094E+00
         -1   -1    0    0    0  501 -0.00000000000E+00  0.00000000000E+00  0.34419816448E+03  0.34419816448E+03  0.00000000000E+00 0.  1.
          1   -1    0    0  501    0  0.00000000000E+00 -0.00000000000E+00 -0.17839936219E+03  0.17839936219E+03  0.00000000000E+00 0. -1.
          5    1    1    2  502    0 -0.15762762287E+02 -0.12973731081E+03  0.11501109049E+03  0.17414148795E+03  0.41800000000E+01 0. -1.
         -5    1    1    2    0  502 -0.46521941309E+01  0.18086530515E+03  0.12316556833E+03  0.21890895628E+03  0.41800000000E+01 0.  1.
        -11    1    1    2    0    0  0.19777079507E+02  0.18689443559E+02  0.23071947706E+01  0.27308447815E+02  0.00000000000E+00 0.  1.
         11    1    1    2    0    0  0.63787691135E+00 -0.69817437903E+02 -0.74685051302E+02  0.10223863463E+03  0.00000000000E+00 0. -1.
</event>
<event>
 7    1  0.4966153E-006  0.1092641E+03  0.7561462E-02  0.1261939E+00
          1   -1    0    0  501    0  0.00000000000E+00  0.00000000000E+00  0.72094620619E+03  0.72094620619E+03  0.00000000000E+00 0. -1.
         -1   -1    0    0    0  501 -0.00000000000E+00 -0.00000000000E+00 -0.19641331488E+02  0.19641331488E+02  0.00000000000E+00 0.  1.
         23    2    1    2    0    0  0.78729624873E+01  0.17592869345E+02  0.25810973030E+03  0.28747168414E+03  0.12509134148E+03 0.  0.
          5    1    3    3  502    0  0.50743153769E+02 -0.31956899875E+02  0.13956002627E+03  0.15195586345E+03  0.41800000000E+01 0.  1.
         -5    1    3    3    0  502 -0.42870191282E+02  0.49549769220E+02  0.11854970403E+03  0.13551582069E+03  0.41800000000E+01 0.  1.
        -11    1    1    2    0    0 -0.91848268720E+01  0.37014717479E+02  0.14337586741E+03  0.14836134844E+03  0.00000000000E+00 0. -1.
         11    1    1    2    0    0  0.13118643847E+01 -0.54607586824E+02  0.29981927698E+03  0.30475450510E+03  0.00000000000E+00 0.  1.
</event>
<event>
 7    1  0.4966153E-006  0.1479839E+03  0.7561462E-02  0.1202972E+00
          2   -1    0    0  501    0  0.00000000000E+00  0.00000000000E+00  0.12697171009E+04  0.12697171009E+04  0.00000000000E+00 0. -1.
         -2   -1    0    0    0  501 -0.00000000000E+00 -0.00000000000E+00 -0.20483851391E+02  0.20483851391E+02  0.00000000000E+00 0.  1.
         23    2    1    2    0    0 -0.10467001727E+03  0.53347349804E+02  0.75841896166E+03  0.77758965707E+03  0.12507837995E+03 0.  0.
          5    1    3    3  502    0 -0.98908544756E+02 -0.97985366802E+01  0.57331525588E+03  0.58188208992E+03  0.41800000000E+01 0.  1.
         -5    1    3    3    0  502 -0.57614725117E+01  0.63145886484E+02  0.18510370578E+03  0.19570756715E+03  0.41800000000E+01 0.  1.
        -11    1    1    2    0    0  0.43775620097E+02 -0.57079121315E+02  0.14971637278E+03  0.16610034101E+03  0.00000000000E+00 0.  1.
         11    1    1    2    0    0  0.60894397171E+02  0.37317715110E+01  0.34109791507E+03  0.34651095422E+03  0.00000000000E+00 0. -1.
</event>
<event>
 7    1  0.4966153E-006  0.9967934E+02  0.7561462E-02  0.1280972E+00
         -1   -1    0    0    0  501 -0.00000000000E+00  0.00000000000E+00  0.41967743163E+02  0.41967743163E+02  0.00000000000E+00 0.  1.
          1   -1    0    0  501    0  0.00000000000E+00 -0.00000000000E+00 -0.35935297523E+03  0.35935297523E+03  0.00000000000E+00 0. -1.
         23    2    1    2    0    0  0.41597718915E+02  0.34911287722E+02 -0.17040587215E+03  0.21825506547E+03  0.12509174278E+03 0.  0.
          5    1    3    3  502    0 -0.20255561914E+02 -0.92012933659E+00  0.10846077732E+02  0.23371868317E+02  0.41800000000E+01 0. -1.
         -5    1    3    3    0  502  0.61853280829E+02  0.35831417059E+02 -0.18125194988E+03  0.19488319715E+03  0.41800000000E+01 0. -1.
        -11    1    1    2    0    0  0.29527967715E+02 -0.15377525752E+02 -0.30234031217E+02  0.44971833622E+02  0.00000000000E+00 0.  1.
         11    1    1    2    0    0 -0.71125686629E+02 -0.19533761970E+02 -0.11674532870E+03  0.13809381930E+03  0.00000000000E+00 0. -1.
</event>
<event>
 7    1  0.4966153E-006  0.1025093E+03  0.7561462E-02  0.1275106E+00
          2   -1    0    0  501    0  0.00000000000E+00  0.00000000000E+00  0.39834995827E+03  0.39834995827E+03  0.00000000000E+00 0. -1.
         -2   -1    0    0    0  501 -0.00000000000E+00 -0.00000000000E+00 -0.35336569136E+02  0.35336569136E+02  0.00000000000E+00 0.  1.
         23    2    1    2    0    0 -0.21299542948E+02 -0.28991654528E+01  0.12567597192E+03  0.17861566034E+03  0.12508808300E+03 0.  0.
          5    1    3    3  502    0 -0.52233437914E+02 -0.43913769542E+02  0.41694513522E+02  0.80079061242E+02  0.41800000000E+01 0.  1.
         -5    1    3    3    0  502  0.30933894965E+02  0.41014604089E+02  0.83981458401E+02  0.98536599096E+02  0.41800000000E+01 0.  1.
        -11    1    1    2    0    0  0.14423694291E+02  0.42517703074E+02  0.17668189866E+03  0.18229726094E+03  0.00000000000E+00 0. -1.
         11    1    1    2    0    0  0.68758486573E+01 -0.39618537622E+02  0.60655518552E+02  0.72773606128E+02  0.00000000000E+00 0.  1.
</event>
<event>
 6    1  0.4966153E-006  0.1657195E+03  0.7561462E-02  0.1182387E+00
          2   -1    0    0  501    0  0.00000000000E+00  0.00000000000E+00  0.19066847545E+04  0.19066847545E+04  0.00000000000E+00 0.  1.
         -2   -1    0    0    0  501 -0.00000000000E+00 -0.00000000000E+00 -0.19479478964E+02  0.19479478964E+02  0.00000000000E+00 0. -1.
          5    1    1    2  502    0 -0.82438781288E+01  0.20133349035E+02  0.16543774564E+02  0.27649270276E+02  0.41800000000E+01 0. -1.
         -5    1    1    2    0  502 -0.14029811822E+03  0.41318634519E+01  0.10314028350E+04  0.10409178233E+04  0.41800000000E+01 0.  1.
        -11    1    1    2    0    0 -0.74147980221E+01 -0.97275227078E+01  0.19574420872E+02  0.23081635128E+02  0.00000000000E+00 0.  1.
         11    1    1    2    0    0  0.15595679437E+03 -0.14537689779E+02  0.81968424508E+03  0.83451550481E+03  0.00000000000E+00 0. -1.
</event>
<event>
 7    1  0.4966153E-006  0.1100836E+03  0.7561462E-02  0.1260415E+00
         -2   -1    0    0    0  501 -0.00000000000E+00  0.00000000000E+00  0.34347758219E+02  0.34347758219E+02  0.00000000000E+00 0.  1.
          2   -1    0    0  501    0  0.00000000000E+00 -0.00000000000E+00 -0.60692444043E+03  0.60692444043E+03  0.00000000000E+00 0. -1.
         23    2    1    2    0    0  0.35195196700E+02  0.63112545728E+02 -0.17498549861E+03  0.22691476752E+03  0.12509393149E+03 0.  0.
          5    1    3    3  502    0  0.14104436285E+00  0.77523836910E+02 -0.41382526050E+02  0.87976991566E+02  0.41800000000E+01 0. -1.
         -5    1    3    3    0  502  0.35054152337E+02 -0.14411291182E+02 -0.13360297256E+03  0.13893777595E+03  0.41800000000E+01 0. -1.
        -11    1    1    2    0    0  0.23405416534E+02 -0.10524685270E+02 -0.35500413157E+02  0.43804815460E+02  0.00000000000E+00 0.  1.
         11    1    1    2    0    0 -0.58600613234E+02 -0.52587860458E+02 -0.36209077044E+03  0.37055261567E+03  0.00000000000E+00 0. -1.
</event>
<event>
 7    1  0.4966153E-006  0.1109341E+03  0.7561462E-02  0.1258850E+00
         -4   -1    0    0    0  501 -0.00000000000E+00  0.00000000000E+00  0.56869583253E+02  0.56869583253E+02  0.00000000000E+00 0.  1.
          4   -1    0    0  501    0  0.00000000000E+00 -0.00000000000E+00 -0.22122819504E+03  0.22122819504E+03  0.00000000000E+00 0. -1.
         23    2    1    2    0    0  0.30269344810E+02 -0.15288262324E+02 -0.92150546503E+02  0.15902471687E+03  0.12508866118E+03 0.  0.
          5    1    3    3  502    0 -0.31639890350E+02  0.35811057513E+02 -0.23985926879E+02  0.53631255717E+02  0.41800000000E+01 0.  1.
         -5    1    3    3    0  502  0.61909235160E+02 -0.51099319837E+02 -0.68164619624E+02  0.10539346116E+03  0.41800000000E+01 0.  1.
        -11    1    1    2    0    0 -0.15326941390E+02 -0.36515193275E+02 -0.21514518292E+02  0.45068270098E+02  0.00000000000E+00 0.  1.
         11    1    1    2    0    0 -0.14942403420E+02  0.51803455599E+02 -0.50693546987E+02  0.74004791319E+02  0.00000000000E+00 0. -1.
</event>
<event>
 7    1  0.4966153E-006  0.2202657E+03  0.7561462E-02  0.1133685E+00
          2   -1    0    0  501    0  0.00000000000E+00  0.00000000000E+00  0.16887382694E+03  0.16887382694E+03  0.00000000000E+00 0.  1.
         -2   -1    0    0    0  501 -0.00000000000E+00 -0.00000000000E+00 -0.46103426611E+03  0.46103426611E+03  0.00000000000E+00 0. -1.
         23    2    1    2    0    0  0.19629070831E+03  0.64328729281E+02 -0.32115848414E+03  0.40181786896E+03  0.12508637135E+03 0.  0.
          5    1    3    3  502    0 -0.11164138109E+02  0.89343991409E+01 -0.69031763092E+02  0.70620947199E+02  0.41800000000E+01 0. -1.
         -5    1    3    3    0  502  0.20745484642E+03  0.55394330140E+02 -0.25212672105E+03  0.33119692176E+03  0.41800000000E+01 0. -1.
        -11    1    1    2    0    0 -0.64776544305E+02 -0.71900717534E+00  0.48198707932E+02  0.80744245057E+02  0.00000000000E+00 0.  1.
         11    1    1    2    0    0 -0.13151416401E+03 -0.63609722106E+02 -0.19200662955E+02  0.14734597904E+03  0.00000000000E+00 0. -1.
</event>
<event>
 7    1  0.4966153E-006  0.1797271E+03  0.7561462E-02  0.1168067E+00
          1   -1    0    0  501    0  0.00000000000E+00  0.00000000000E+00  0.16420064852E+03  0.16420064852E+03  0.00000000000E+00 0. -1.
         -1   -1    0    0    0  501 -0.00000000000E+00 -0.00000000000E+00 -0.23541511416E+03  0.23541511416E+03  0.00000000000E+00 0.  1.
         23    2    1    2    0    0 -0.95828254297E+02  0.12446391654E+03  0.11884171302E+02  0.20115450149E+03  0.12509028379E+03 0.  0.
          5    1    3    3  502    0 -0.66105438091E+02  0.13990477095E+03 -0.18302979718E+02  0.15587092528E+03  0.41800000000E+01 0. -1.
         -5    1    3    3    0  502 -0.29722816206E+02 -0.15440854409E+02  0.30187151020E+02  0.45283576215E+02  0.41800000000E+01 0. -1.
        -11    1    1    2    0    0  0.19387853618E+02 -0.80339929219E+02 -0.71801459923E+02  0.10947987368E+03  0.00000000000E+00 0.  1.
         11    1    1    2    0    0  0.76440400679E+02 -0.44123987323E+02 -0.11297177014E+02  0.88981387502E+02  0.00000000000E+00 0. -1.
</event>
<event>
 7    1  0.4966153E-006  0.2074394E+03  0.7561462E-02  0.1143610E+00
          1   -1    0    0  501    0  0.00000000000E+00  0.00000000000E+00  0.57208286300E+03  0.57208286300E+03  0.00000000000E+00 0. -1.
         -1   -1    0    0    0  501 -0.00000000000E+00 -0.00000000000E+00 -0.79902430072E+02  0.79902430072E+02  0.00000000000E+00 0.  1.
         23    2    1    2    0    0 -0.45340461837E+02 -0.17237053160E+03  0.18843546051E+03  0.28796313284E+03  0.12508990947E+03 0.  0.
          5    1    3    3  502    0  0.37104918940E+02 -0.91579138483E+02  0.62081502953E+02  0.11676942675E+03  0.41800000000E+01 0. -1.
         -5    1    3    3    0  502 -0.82445380778E+02 -0.80791393120E+02  0.12635395756E+03  0.17119370609E+03  0.41800000000E+01 0. -1.
        -11    1    1    2    0    0  0.71036094414E+02  0.92871758950E+02  0.18415421938E+03  0.21813772447E+03  0.00000000000E+00 0.  1.
         11    1    1    2    0    0 -0.25695632577E+02  0.79498772654E+02  0.11959075304E+03  0.14588443577E+03  0.00000000000E+00 0. -1.
</event>
<event>
 7    1  0.4966153E-006  0.1212713E+03  0.7561462E-02  0.1241014E+00
         -1   -1    0    0    0  501 -0.00000000000E+00  0.00000000000E+00  0.51329893858E+02  0.51329893858E+02  0.00000000000E+00 0.  1.
          1   -1    0    0  501    0  0.00000000000E+00 -0.00000000000E+00 -0.36974021156E+03  0.36974021156E+03  0.00000000000E+00 0. -1.
         23    2    1    2    0    0  0.40881022380E+02  0.64361214204E+02 -0.11778622451E+03  0.18797612878E+03  0.12509119243E+03 0.  0.
          5    1    3    3  502    0 -0.28695900995E+02 -0.70585915034E+00 -0.80544575289E+02  0.85608726071E+02  0.41800000000E+01 0. -1.
         -5    1    3    3    0  502  0.69576923375E+02  0.65067073354E+02 -0.37241649224E+02  0.10236740271E+03  0.41800000000E+01 0. -1.
        -11    1    1    2    0    0 -0.66550774017E+02 -0.24796772489E+02 -0.11005032835E+03  0.13097694537E+03  0.00000000000E+00 0.  1.
         11    1    1    2    0    0  0.25669751638E+02 -0.39564441715E+02 -0.90573764838E+02  0.10211703126E+03  0.00000000000E+00 0. -1.
</event>
<event>
 7    1  0.4966153E-006  0.1011394E+03  0.7561462E-02  0.1277918E+00
          1   -1    0    0  501    0  0.00000000000E+00  0.00000000000E+00  0.54636036307E+02  0.54636036307E+02  0.00000000000E+00 0. -1.
         -1   -1    0    0    0  501 -0.00000000000E+00 -0.00000000000E+00 -0.52772597878E+03  0.52772597878E+03  0.00000000000E+00 0.  1.
         23    2    1    2    0    0 -0.88436310459E+01 -0.29250048224E+02 -0.46839237920E+03  0.48577257452E+03  0.12509915321E+03 0.  0.
          5    1    3    3  502    0  0.53228595818E+02 -0.38367651886E+02 -0.22763210947E+03  0.23693714311E+03  0.41800000000E+01 0.  1.
         -5    1    3    3    0  502 -0.62072226864E+02  0.91176036621E+01 -0.24076026973E+03  0.24883543141E+03  0.41800000000E+01 0.  1.
        -11    1    1    2    0    0  0.38039043777E+02  0.12756392449E+02  0.28648295227E+02  0.49299282137E+02  0.00000000000E+00 0. -1.
         11    1    1    2    0    0 -0.29195412731E+02  0.16493655775E+02 -0.33345858507E+02  0.47290158436E+02  0.00000000000E+00 0.  1.
</event>
<event>
 7    1  0.5054438E-006  0.1672590E+03  0.7561462E-02  0.1180737E+00
         -2   -1    0    0    0  501 -0.00000000000E+00  0.00000000000E+00  0.20538871864E+02  0.20538871864E+02  0.00000000000E+00 0.  1.
          2   -1    0    0  501    0  0.00000000000E+00 -0.00000000000E+00 -0.15876496107E+04  0.15876496107E+04  0.00000000000E+00 0. -1.
         23    2    1    2    0    0  0.11138758276E+03 -0.88564405056E+02 -0.89834050521E+03  0.91810349529E+03  0.12509003683E+03 0.  0.
          5    1    3    3  502    0 -0.11700018770E+02  0.70131181739E+01 -0.13522896328E+02  0.19657451280E+02  0.41800000000E+01 0.  1.
         -5    1    3    3    0  502  0.12308760153E+03 -0.95577523230E+02 -0.88481760889E+03  0.89844604401E+03  0.41800000000E+01 0.  1.
        -11    1    1    2    0    0 -0.24240139297E+02  0.71575219035E+02 -0.39857347665E+03  0.40567402261E+03  0.00000000000E+00 0. -1.
         11    1    1    2    0    0 -0.87147443462E+02  0.16989186021E+02 -0.27019675695E+03  0.28441096465E+03  0.00000000000E+00 0.  1.
</event>
<event>
 6    1  0.4966153E-006  0.1077001E+03  0.7561462E-02  0.1264889E+00
         -2   -1    0    0    0  501 -0.00000000000E+00  0.00000000000E+00  0.30276746308E+03  0.30276746308E+03  0.00000000000E+00 0.  1.
          2   -1    0    0  501    0  0.00000000000E+00 -0.00000000000E+00 -0.35191409002E+03  0.35191409002E+03  0.00000000000E+00 0. -1.
          5    1    1    2  502    0 -0.13126577530E+02 -0.44022807496E+02  0.55373796485E+01  0.46459117413E+02  0.41800000000E+01 0. -1.
         -5    1    1    2    0  502 -0.32618830825E+02  0.58021309067E+02  0.26458692133E+03  0.27286291754E+03  0.41800000000E+01 0.  1.
        -11    1    1    2    0    0  0.29177558366E+02 -0.52835273850E+02 -0.19279365289E+03  0.20202051547E+03  0.00000000000E+00 0. -1.
         11    1    1    2    0    0  0.16567849990E+02  0.38836772279E+02 -0.12647727503E+03  0.13333900267E+03  0.00000000000E+00 0.  1.
</event>
<event>
 7    1  0.4966153E-006  0.1180792E+03  0.7561462E-02  0.1246300E+00
         -2   -1    0    0    0  501 -0.00000000000E+00  0.00000000000E+00  0.79842731736E+02  0.79842731736E+02  0.00000000000E+00 0.  1.
          2   -1    0    0  501    0  0.00000000000E+00 -0.00000000000E+00 -0.24465027794E+03  0.24465027794E+03  0.00000000000E+00 0. -1.
         23    2    1    2    0    0  0.74499134153E+02  0.16757668610E+02 -0.32084142451E+02  0.15003010110E+03  0.12509475846E+03 0.  0.
          5    1    3    3  502    0 -0.54666429486E+01 -0.42614007778E+02  0.54597168841E+01  0.43509984515E+02  0.41800000000E+01 0. -1.
         -5    1    3    3    0  502  0.79965777101E+02  0.59371676388E+02 -0.37543859335E+02  0.10652011659E+03  0.41800000000E+01 0. -1.
        -11    1    1    2    0    0 -0.23333827633E+02  0.19654695701E+02 -0.98135880751E+02  0.10276879714E+03  0.00000000000E+00 0. -1.
         11    1    1    2    0    0 -0.51165306520E+02 -0.36412364311E+02 -0.34587522998E+02  0.71694111426E+02  0.00000000000E+00 0.  1.
</event>
<event>
 7    1  0.4966153E-006  0.5607801E+02  0.7561462E-02  0.1415069E+00
          2   -1    0    0  501    0  0.00000000000E+00  0.00000000000E+00  0.38716319113E+03  0.38716319113E+03  0.00000000000E+00 0. -1.
         -2   -1    0    0    0  501 -0.00000000000E+00 -0.00000000000E+00 -0.32784355577E+02  0.32784355577E+02  0.00000000000E+00 0.  1.
         23    2    1    2    0    0  0.24623805862E+02  0.61306544369E+01  0.11099339072E+03  0.16938110016E+03  0.12540537296E+03 0.  0.
          5    1    3    3  502    0  0.13044993087E+02  0.26681715939E+02  0.13330918418E+03  0.13664149002E+03  0.41800000000E+01 0. -1.
         -5    1    3    3    0  502  0.11578812775E+02 -0.20551061502E+02 -0.22315793454E+02  0.32739610132E+02  0.41800000000E+01 0.  1.
        -11    1    1    2    0    0  0.10222438158E+02  0.14477985832E+02  0.10074805426E+03  0.10229506710E+03  0.00000000000E+00 0. -1.
         11    1    1    2    0    0 -0.34846244020E+02 -0.20608640269E+02  0.14263739056E+03  0.14827137945E+03  0.00000000000E+00 0.  1.
</event>
<event>
 7    1  0.4966153E-006  0.9868879E+02  0.7561462E-02  0.1283078E+00
          2   -1    0    0  501    0  0.00000000000E+00  0.00000000000E+00  0.95699781330E+03  0.95699781330E+03  0.00000000000E+00 0. -1.
         -2   -1    0    0    0  501 -0.00000000000E+00 -0.00000000000E+00 -0.13773870916E+02  0.13773870916E+02  0.00000000000E+00 0.  1.
         23    2    1    2    0    0  0.86020735071E+01 -0.36771203691E+02  0.51796025453E+03  0.53418759875E+03  0.12508976098E+03 0.  0.
          5    1    3    3  502    0 -0.29914655114E+02  0.22660138980E+02  0.60916688241E+02  0.71670662027E+02  0.41800000000E+01 0.  1.
         -5    1    3    3    0  502  0.38516728621E+02 -0.59431342670E+02  0.45704356629E+03  0.46251693673E+03  0.41800000000E+01 0.  1.
        -11    1    1    2    0    0 -0.20102563619E+02  0.59715174937E+02  0.37382945264E+03  0.37910219577E+03  0.00000000000E+00 0. -1.
         11    1    1    2    0    0  0.11500490112E+02 -0.22943971247E+02  0.51434235218E+02  0.57481889686E+02  0.00000000000E+00 0.  1.
</event>
<event>
 6    1  0.4966153E-006  0.1027300E+03  0.7561462E-02  0.1274658E+00
          2   -1    0    0  501    0  0.00000000000E+00  0.00000000000E+00  0.87378258593E+03  0.87378258593E+03  0.00000000000E+00 0. -1.
         -2   -1    0    0    0  501 -0.00000000000E+00 -0.00000000000E+00 -0.25890667508E+02  0.25890667508E+02  0.00000000000E+00 0.  1.
          5    1    1    2  502    0  0.59947489210E+02 -0.41861020484E+02  0.57896857228E+03  0.58358215067E+03  0.41800000000E+01 0. -1.
         -5    1    1    2    0  502  0.89932269324E+01 -0.65594912202E+01 -0.68062650657E+01  0.13700463491E+02  0.41800000000E+01 0.  1.
        -11    1    1    2    0    0 -0.23213201705E+01 -0.22738631849E+02  0.27817963602E+02  0.36003791532E+02  0.00000000000E+00 0. -1.
         11    1    1    2    0    0 -0.66619395972E+02  0.71159143553E+02  0.24791164761E+03  0.26638684775E+03  0.00000000000E+00 0.  1.
</event>
<event>
 7    1  0.4966153E-006  0.1142274E+03  0.7561462E-02  0.1252936E+00
          1   -1    0    0  501    0  0.00000000000E+00  0.00000000000E+00  0.19071583028E+03  0.19071583028E+03  0.00000000000E+00 0. -1.
         -1   -1    0    0    0  501 -0.00000000000E+00 -0.00000000000E+00 -0.99130120051E+02  0.99130120051E+02  0.00000000000E+00 0.  1.
         23    2    1    2    0    0 -0.35870095298E+02 -0.68289363468E+02  0.15745166265E+02  0.14780307508E+03  0.12509091830E+03 0.  0.
          5    1    3    3  502    0  0.32799903616E+02  0.72642520759E+01  0.29239460844E+02  0.44732778875E+02  0.41800000000E+01 0. -1.
         -5    1    3    3    0  502 -0.68669998915E+02 -0.75553615544E+02 -0.13494294579E+02  0.10307029620E+03  0.41800000000E+01 0. -1.
        -11    1    1    2    0    0  0.17148193504E+02 -0.41126689200E+01  0.63929161773E+02  0.66316757393E+02  0.00000000000E+00 0. -1.
         11    1    1    2    0    0  0.18721901795E+02  0.72402032388E+02  0.11911382191E+02  0.75726117862E+02  0.00000000000E+00 0.  1.
</event>
<event>
 7    1  0.4966153E-006  0.9949097E+02  0.7561462E-02  0.1281370E+00
          2   -1    0    0  501    0  0.00000000000E+00  0.00000000000E+00  0.23690563622E+03  0.23690563622E+03  0.00000000000E+00 0. -1.
         -2   -1    0    0    0  501 -0.00000000000E+00 -0.00000000000E+00 -0.87332212385E+02  0.87332212385E+02  0.00000000000E+00 0.  1.
         23    2    1    2    0    0 -0.53408287926E+02 -0.16742778031E+01 -0.61267877951E+01  0.13616405743E+03  0.12509142490E+03 0.  0.
          5    1    3    3  502    0 -0.92176320483E+02  0.22146989462E+01 -0.20281653885E+02  0.94499718695E+02  0.41800000000E+01 0. -1.
         -5    1    3    3    0  502  0.38768032557E+02 -0.38889767493E+01  0.14154866090E+02  0.41664338738E+02  0.41800000000E+01 0. -1.
        -11    1    1    2    0    0  0.11282062535E+02  0.18879678844E+02 -0.37024934487E+01  0.22303265815E+02  0.00000000000E+00 0.  1.
         11    1    1    2    0    0  0.42126225391E+02 -0.17205401041E+02  0.15940270508E+03  0.16577052536E+03  0.00000000000E+00 0. -1.
</event>
<event>
 7    1  0.4966153E-006  0.1742950E+03  0.7561462E-02  0.1173441E+00
          2   -1    0    0  501    0  0.00000000000E+00  0.00000000000E+00  0.24609548923E+03  0.24609548923E+03  0.00000000000E+00 0. -1.
         -2   -1    0    0    0  501 -0.00000000000E+00 -0.00000000000E+00 -0.18536428622E+03  0.18536428622E+03  0.00000000000E+00 0.  1.
         23    2    1    2    0    0  0.13565075604E+03  0.95356457636E+02 -0.50680173608E+02  0.21341341439E+03  0.12442999565E+03 0.  0.
          5    1    3    3  502    0  0.88442093742E+02  0.69043897159E+02  0.29996455701E+02  0.11621670893E+03  0.41800000000E+01 0. -1.
         -5    1    3    3    0  502  0.47208662300E+02  0.26312560477E+02 -0.80676629309E+02  0.97196705457E+02  0.41800000000E+01 0.  1.
        -11    1    1    2    0    0 -0.12031716794E+03 -0.10841947215E+03  0.11353561301E+03  0.19779114809E+03  0.00000000000E+00 0. -1.
         11    1    1    2    0    0 -0.15333588098E+02  0.13063014516E+02 -0.21242363811E+01  0.20255212969E+02  0.00000000000E+00 0.  1.
</event>
<event>
 7    1  0.4966153E-006  0.1065655E+03  0.7561462E-02  0.1267066E+00
          1   -1    0    0  501    0  0.00000000000E+00  0.00000000000E+00  0.12096163688E+03  0.12096163688E+03  0.00000000000E+00 0.  1.
         -1   -1    0    0    0  501 -0.00000000000E+00 -0.00000000000E+00 -0.18654128218E+03  0.18654128218E+03  0.00000000000E+00 0. -1.
         23    2    1    2    0    0 -0.87799619016E+01 -0.81910306919E+01 -0.14154721694E+03  0.18927597084E+03  0.12508236406E+03 0.  0.
          5    1    3    3  502    0  0.57208152171E+02 -0.95273315116E+01 -0.80268077299E+02  0.99115989395E+02  0.41800000000E+01 0. -1.
         -5    1    3    3    0  502 -0.65988114073E+02  0.13363008197E+01 -0.61279139636E+02  0.90159981440E+02  0.41800000000E+01 0. -1.
        -11    1    1    2    0    0 -0.39800940866E+02  0.56873350798E+01  0.23034832319E+02  0.46336423838E+02  0.00000000000E+00 0. -1.
         11    1    1    2    0    0  0.48580902767E+02  0.25036956121E+01  0.52932739311E+02  0.71890524385E+02  0.00000000000E+00 0.  1.
</event>
<event>
 7    1  0.4966153E-006  0.1199164E+03  0.7561462E-02  0.1243235E+00
         -4   -1    0    0    0  501 -0.00000000000E+00  0.00000000000E+00  0.21362075422E+02  0.21362075422E+02  0.00000000000E+00 0.  1.
          4   -1    0    0  501    0  0.00000000000E+00 -0.00000000000E+00 -0.71112694180E+03  0.71112694180E+03  0.00000000000E+00 0. -1.
         23    2    1    2    0    0  0.46934183573E+02  0.50612388217E+02 -0.32633893575E+03  0.35147841842E+03  0.11079506398E+03 0.  0.
          5    1    3    3  502    0  0.11478624690E+02  0.81957466557E+02 -0.21582438832E+03  0.23118482680E+03  0.41800000000E+01 0. -1.
         -5    1    3    3    0  502  0.35455558883E+02 -0.31345078340E+02 -0.11051454743E+03  0.12029359162E+03  0.41800000000E+01 0.  1.
        -11    1    1    2    0    0  0.82363421935E+01  0.18958276844E+02 -0.12275473512E+03  0.12448284456E+03  0.00000000000E+00 0. -1.
         11    1    1    2    0    0 -0.55170525767E+02 -0.69570665061E+02 -0.24067119551E+03  0.25652775425E+03  0.00000000000E+00 0.  1.
</event>
<event>
 6    1  0.4966153E-006  0.1064728E+03  0.7561462E-02  0.1267245E+00
          3   -1    0    0  501    0  0.00000000000E+00  0.00000000000E+00  0.14712980662E+03  0.14712980662E+03  0.00000000000E+00 0. -1.
         -3   -1    0    0    0  501 -0.00000000000E+00 -0.00000000000E+00 -0.11222657624E+03  0.11222657624E+03  0.00000000000E+00 0.  1.
          5    1    1    2  502    0  0.22882560536E+02 -0.35549771508E+02  0.47950480430E+02  0.64063396760E+02  0.41800000000E+01 0. -1.
         -5    1    1    2    0  502 -0.78421559117E+02  0.31451495373E+02 -0.17172829674E+02  0.86322163866E+02  0.41800000000E+01 0.  1.
        -11    1    1    2    0    0  0.51904889094E+02  0.29837969613E+02 -0.29276988838E+02  0.66645059966E+02  0.00000000000E+00 0.  1.
         11    1    1    2    0    0  0.36341094876E+01 -0.25739693478E+02  0.33402568455E+02  0.42325762267E+02  0.00000000000E+00 0. -1.
</event>
<event>
 7    1  0.4966153E-006  0.1045672E+03  0.7561462E-02  0.1270975E+00
          4   -1    0    0  501    0  0.00000000000E+00  0.00000000000E+00  0.13463980073E+03  0.13463980073E+03  0.00000000000E+00 0. -1.
         -4   -1    0    0    0  501 -0.00000000000E+00 -0.00000000000E+00 -0.12322696535E+03  0.12322696535E+03  0.00000000000E+00 0.  1.
         23    2    1    2    0    0 -0.69223063982E+02 -0.44956913819E+01  0.20895508521E+01  0.14305872555E+03  0.12509751758E+03 0.  0.
          5    1    3    3  502    0 -0.17654236356E+02  0.30699570595E+02  0.51975978528E+02  0.63032614097E+02  0.41800000000E+01 0.  1.
         -5    1    3    3    0  502 -0.51568827626E+02 -0.35195261977E+02 -0.49886427676E+02  0.80026111455E+02  0.41800000000E+01 0.  1.
        -11    1    1    2    0    0  0.53307621680E+02  0.43481065321E+02  0.19469839541E+02  0.71493917381E+02  0.00000000000E+00 0. -1.
         11    1    1    2    0    0  0.15915442301E+02 -0.38985373939E+02 -0.10146555013E+02  0.43314123141E+02  0.00000000000E+00 0.  1.
</event>
<event>
 7    1  0.4966153E-006  0.1051347E+03  0.7561462E-02  0.1269854E+00
          2   -1    0    0  501    0  0.00000000000E+00  0.00000000000E+00  0.31384887407E+03  0.31384887407E+03  0.00000000000E+00 0. -1.
         -2   -1    0    0    0  501 -0.00000000000E+00 -0.00000000000E+00 -0.64002078936E+02  0.64002078936E+02  0.00000000000E+00 0.  1.
         23    2    1    2    0    0 -0.92466346503E+02 -0.32250087366E+02  0.87414451429E+02  0.18132676837E+03  0.12509203507E+03 0.  0.
          5    1    3    3  502    0 -0.57307017892E+02 -0.11451312841E+02 -0.23445297811E+02  0.63106111074E+02  0.41800000000E+01 0.  1.
         -5    1    3    3    0  502 -0.35159328611E+02 -0.20798774526E+02  0.11085974924E+03  0.11822065730E+03  0.41800000000E+01 0.  1.
        -11    1    1    2    0    0  0.74950027307E+02  0.11922003013E+01  0.11108653397E+03  0.13401173816E+03  0.00000000000E+00 0. -1.
         11    1    1    2    0    0  0.17516319196E+02  0.31057887065E+02  0.51345809729E+02  0.62512446472E+02  0.00000000000E+00 0.  1.
</event>
<event>
 7    1  0.4966153E-006  0.1382166E+03  0.7561462E-02  0.1215749E+00
          2   -1    0    0  501    0  0.00000000000E+00  0.00000000000E+00  0.43992100084E+03  0.43992100084E+03  0.00000000000E+00 0. -1.
         -2   -1    0    0    0  501 -0.00000000000E+00 -0.00000000000E+00 -0.86069997091E+02  0.86069997091E+02  0.00000000000E+00 0.  1.
         23    2    1    2    0    0 -0.50110594681E+02 -0.10984837278E+03  0.39531431512E+02  0.17829199868E+03  0.12509023149E+03 0.  0.
          5    1    3    3  502    0  0.41889284039E+01 -0.98869179209E+02 -0.15316183207E+02  0.10022334851E+03  0.41800000000E+01 0. -1.
         -5    1    3    3    0  502 -0.54299523085E+02 -0.10979193575E+02  0.54847614719E+02  0.78068650169E+02  0.41800000000E+01 0. -1.
        -11    1    1    2    0    0  0.87256214290E+01  0.77738139819E+01 -0.27818264614E+01  0.12012793664E+02  0.00000000000E+00 0.  1.
         11    1    1    2    0    0  0.41384973252E+02  0.10207455880E+03  0.31710139870E+03  0.33568620559E+03  0.00000000000E+00 0. -1.
</event>
<event>
 7    1  0.4966153E-006  0.1212643E+03  0.7561462E-02  0.1241026E+00
          2   -1    0    0  501    0  0.00000000000E+00  0.00000000000E+00  0.23681190326E+02  0.23681190326E+02  0.00000000000E+00 0. -1.
         -2   -1    0    0    0  501 -0.00000000000E+00 -0.00000000000E+00 -0.74165357746E+03  0.74165357746E+03  0.00000000000E+00 0.  1.
         23    2    1    2    0    0 -0.75704568203E+02 -0.14607016140E+02 -0.41180109638E+03  0.43723163262E+03  0.12508721364E+03 0.  0.
          5    1    3    3  502    0  0.55634226573E+01  0.44515499095E+02 -0.10192936123E+03  0.11144347631E+03  0.41800000000E+01 0.  1.
         -5    1    3    3    0  502 -0.81267990861E+02 -0.59122515234E+02 -0.30987173516E+03  0.32578815631E+03  0.41800000000E+01 0.  1.
        -11    1    1    2    0    0  0.12567548542E+02  0.29458166006E+02 -0.28224611006E+02  0.42689055825E+02  0.00000000000E+00 0. -1.
         11    1    1    2    0    0  0.63137019662E+02 -0.14851149867E+02 -0.27794667975E+03  0.28541407934E+03  0.00000000000E+00 0.  1.
</event>
<event>
 7    1  0.4966153E-006  0.1602033E+03  0.7561462E-02  0.1188467E+00
          2   -1    0    0  501    0  0.00000000000E+00  0.00000000000E+00  0.28324663040E+03  0.28324663040E+03  0.00000000000E+00 0. -1.
         -2   -1    0    0    0  501 -0.00000000000E+00 -0.00000000000E+00 -0.11774501915E+03  0.11774501915E+03  0.00000000000E+00 0.  1.
         23    2    1    2    0    0 -0.93520157493E+02 -0.11279416325E+03  0.91500842327E+02  0.21327972854E+03  0.12508914956E+03 0.  0.
          5    1    3    3  502    0  0.41084479401E+01  0.65259724077E+00  0.59978633270E+02  0.60267852763E+02  0.41800000000E+01 0.  1.
         -5    1    3    3    0  502 -0.97628605433E+02 -0.11344676049E+03  0.31522209056E+02  0.15301187578E+03  0.41800000000E+01 0.  1.
        -11    1    1    2    0    0  0.95326820966E+02  0.61477843974E+02  0.23800221860E+02  0.11590159039E+03  0.00000000000E+00 0.  1.
         11    1    1    2    0    0 -0.18066634728E+01  0.51316319280E+02  0.50200547065E+02  0.71810330614E+02  0.00000000000E+00 0. -1.
</event>
<event>
 6    1  0.4966153E-006  0.8534237E+02  0.7561462E-02  0.1314540E+00
         -2   -1    0    0    0  501 -0.00000000000E+00  0.00000000000E+00  0.30934318553E+02  0.30934318553E+02  0.00000000000E+00 0.  1.
          2   -1    0    0  501    0  0.00000000000E+00 -0.00000000000E+00 -0.48397156329E+03  0.48397156329E+03  0.00000000000E+00 0. -1.
          5    1    1    2  502    0  0.20380936879E+02 -0.32079997866E+02 -0.20728144589E+03  0.21077850711E+03  0.41800000000E+01 0. -1.
         -5    1    1    2    0  502 -0.22290337696E+02  0.34757567490E+02 -0.14186217150E+01  0.41526287337E+02  0.41800000000E+01 0.  1.
        -11    1    1    2    0    0  0.46310218202E+02 -0.43535109816E+01 -0.16753428721E+03  0.17387158122E+03  0.00000000000E+00 0. -1.
         11    1    1    2    0    0 -0.44400817385E+02  0.16759413584E+01 -0.76802889935E+02  0.88729506176E+02  0.00000000000E+00 0.  1.
</event>
<event>
 7    1  0.4966153E-006  0.9907614E+02  0.7561462E-02  0.1282251E+00
          1   -1    0    0  501    0  0.00000000000E+00  0.00000000000E+00  0.18615939057E+03  0.18615939057E+03  0.00000000000E+00 0. -1.
         -1   -1    0    0    0  501 -0.00000000000E+00 -0.00000000000E+00 -0.71058688821E+02  0.71058688821E+02  0.00000000000E+00 0.  1.
         23    2    1    2    0    0 -0.19968270053E+02 -0.39456851797E+02  0.52061666295E+02  0.14252895010E+03  0.12509400288E+03 0.  0.
          5    1    3    3  502    0 -0.69222228559E+02 -0.30040909175E+02  0.86459704738E+01  0.76068379476E+02  0.41800000000E+01 0. -1.
         -5    1    3    3    0  502  0.49253958505E+02 -0.94159426212E+01  0.43415695821E+02  0.66460570623E+02  0.41800000000E+01 0. -1.
        -11    1    1    2    0    0  0.22443944117E+02  0.53489641336E+02  0.88755518716E+01  0.58682602011E+02  0.00000000000E+00 0.  1.
         11    1    1    2    0    0 -0.24756740639E+01 -0.14032789539E+02  0.54163483585E+02  0.56006527284E+02  0.00000000000E+00 0. -1.
</event>
<event>
 7    1  0.4966153E-006  0.1036316E+03  0.7561462E-02  0.1272839E+00
         -2   -1    0    0    0  501 -0.00000000000E+00  0.00000000000E+00  0.16245089662E+02  0.16245089662E+02  0.00000000000E+00 0.  1.
          2   -1    0    0  501    0  0.00000000000E+00 -0.00000000000E+00 -0.92195832546E+03  0.92195832546E+03  0.00000000000E+00 0. -1.
         23    2    1    2    0    0 -0.18933899151E+02 -0.49755288146E+02 -0.44285621296E+03  0.46325324820E+03  0.12509142809E+03 0.  0.
          5    1    3    3  502    0 -0.50276877227E+02 -0.10620273165E+02 -0.37632314110E+03  0.37983829917E+03  0.41800000000E+01 0. -1.
         -5    1    3    3    0  502  0.31342978076E+02 -0.39135014980E+02 -0.66533071853E+02  0.83414949034E+02  0.41800000000E+01 0. -1.
        -11    1    1    2    0    0  0.42830701746E+01 -0.26957086381E+02 -0.92241743959E+02  0.96195470397E+02  0.00000000000E+00 0.  1.
         11    1    1    2    0    0  0.14650828977E+02  0.76712374527E+02 -0.37061527888E+03  0.37875469652E+03  0.00000000000E+00 0. -1.
</event>
<event>
 7    1  0.4966153E-006  0.1027745E+03  0.7561462E-02  0.1274567E+00
         -2   -1    0    0    0  501 -0.00000000000E+00  0.00000000000E+00  0.22532687299E+02  0.22532687299E+02  0.00000000000E+00 0.  1.
          2   -1    0    0  501    0  0.00000000000E+00 -0.00000000000E+00 -0.58433935335E+03  0.58433935335E+03  0.00000000000E+00 0. -1.
         23    2    1    2    0    0  0.14688698107E+02  0.35337521628E+02 -0.34716434087E+03  0.37099277438E+03  0.12509220912E+03 0.  0.
          5    1    3    3  502    0 -0.40632052429E+02 -0.25757116430E+02 -0.12857763375E+03  0.13734654358E+03  0.41800000000E+01 0.  1.
         -5    1    3    3    0  502  0.55320750536E+02  0.61094638058E+02 -0.21858670712E+03  0.23364623081E+03  0.41800000000E+01 0.  1.
        -11    1    1    2    0    0 -0.36265153520E+02 -0.38542115350E+02 -0.20553925067E+03  0.21224287876E+03  0.00000000000E+00 0. -1.
         11    1    1    2    0    0  0.21576455413E+02  0.32045937217E+01 -0.91030745035E+01  0.23636387510E+02  0.00000000000E+00 0.  1.
</event>
<event>
 7    1  0.4966153E-006  0.7702842E+02  0.7561462E-02  0.1337702E+00
         -1   -1    0    0    0  501 -0.00000000000E+00  0.00000000000E+00  0.66680804270E+02  0.66680804270E+02  0.00000000000E+00 0.  1.
          1   -1    0    0  501    0  0.00000000000E+00 -0.00000000000E+00 -0.20031985686E+03  0.20031985686E+03  0.00000000000E+00 0. -1.
         23    2    1    2    0    0  0.20690297090E+02 -0.28467172753E+02 -0.49164194794E+02  0.13893128803E+03  0.12508523664E+03 0.  0.
          5    1    3    3  502    0  0.25140670206E+02 -0.62036358572E+02  0.12721254518E+02  0.68263209709E+02  0.41800000000E+01 0. -1.
         -5    1    3    3    0  502 -0.44503731160E+01  0.33569185819E+02 -0.61885449311E+02  0.70668078323E+02  0.41800000000E+01 0. -1.
        -11    1    1    2    0    0 -0.14194200661E+02 -0.76831329250E+01 -0.89548360468E+02  0.90991289289E+02  0.00000000000E+00 0. -1.
         11    1    1    2    0    0 -0.64960964293E+01  0.36150305678E+02  0.50735026730E+01  0.37078083807E+02  0.00000000000E+00 0.  1.
</event>
<event>
 7    1  0.4966153E-006  0.1591275E+03  0.7561462E-02  0.1189685E+00
          2   -1    0    0  501    0  0.00000000000E+00  0.00000000000E+00  0.48904146994E+03  0.48904146994E+03  0.00000000000E+00 0. -1.
         -2   -1    0    0    0  501 -0.00000000000E+00 -0.00000000000E+00 -0.73975630971E+02  0.73975630971E+02  0.00000000000E+00 0.  1.
         23    2    1    2    0    0 -0.12212400200E+03  0.83303972105E+02  0.14855094621E+03  0.24406891668E+03  0.12509368024E+03 0.  0.
          5    1    3    3  502    0 -0.84861712431E+02  0.88736167953E+02  0.16248368366E+03  0.20370085320E+03  0.41800000000E+01 0.  1.
         -5    1    3    3    0  502 -0.37262289574E+02 -0.54321958480E+01 -0.13932737450E+02  0.40368063477E+02  0.41800000000E+01 0.  1.
        -11    1    1    2    0    0  0.88501230390E+02 -0.86483224651E+02  0.25470142491E+03  0.28316891033E+03  0.00000000000E+00 0.  1.
         11    1    1    2    0    0  0.33622771615E+02  0.31792525460E+01  0.11813467840E+02  0.35779273892E+02  0.00000000000E+00 0. -1.
</event>
<event>
 7    1  0.5446925E-006  0.2537013E+03  0.7561462E-02  0.1110988E+00
         -2   -1    0    0    0  501 -0.00000000000E+00  0.00000000000E+00  0.18443027357E+03  0.18443027357E+03  0.00000000000E+00 0.  1.
          2   -1    0    0  501    0  0.00000000000E+00 -0.00000000000E+00 -0.39397489175E+03  0.39397489175E+03  0.00000000000E+00 0. -1.
         23    2    1    2    0    0 -0.16513458763E+03  0.17713068923E+03 -0.60309994929E+02  0.27915811523E+03  0.12508894720E+03 0.  0.
          5    1    3    3  502    0 -0.51646595682E+02  0.10424894640E+03 -0.82122416666E+02  0.14246675890E+03  0.41800000000E+01 0.  1.
         -5    1    3    3    0  502 -0.11348799195E+03  0.72881742831E+02  0.21812421738E+02  0.13669135634E+03  0.41800000000E+01 0.  1.
        -11    1    1    2    0    0  0.96675795593E+02 -0.43731296082E+02 -0.38604352074E+02  0.11291116734E+03  0.00000000000E+00 0.  1.
         11    1    1    2    0    0  0.68458792039E+02 -0.13339939315E+03 -0.11063027118E+03  0.18633588275E+03  0.00000000000E+00 0. -1.
</event>
<event>
 7    1  0.4966153E-006  0.1059058E+03  0.7561462E-02  0.1268345E+00
         -2   -1    0    0    0  501 -0.00000000000E+00  0.00000000000E+00  0.94635248602E+02  0.94635248602E+02  0.00000000000E+00 0. -1.
          2   -1    0    0  501    0  0.00000000000E+00 -0.00000000000E+00 -0.17049759209E+03  0.17049759209E+03  0.00000000000E+00 0.  1.
         23    2    1    2    0    0 -0.53992936338E+02 -0.34455951379E+02 -0.21251737786E+02  0.14213937205E+03  0.12509802144E+03 0.  0.
          5    1    3    3  502    0 -0.40204907488E+02 -0.81623743313E+02 -0.10771521292E+02  0.91718962758E+02  0.41800000000E+01 0. -1.
         -5    1    3    3    0  502 -0.13788028851E+02  0.47167791934E+02 -0.10480216493E+02  0.50420409293E+02  0.41800000000E+01 0. -1.
        -11    1    1    2    0    0  0.28560899894E+02  0.35971155754E+02 -0.76615787909E+02  0.89328763598E+02  0.00000000000E+00 0.  1.
         11    1    1    2    0    0  0.25432036445E+02 -0.15152043753E+01  0.22005182203E+02  0.33664705046E+02  0.00000000000E+00 0. -1.
</event>
<event>
 7    1  0.4966153E-006  0.1060378E+03  0.7561462E-02  0.1268088E+00
         -2   -1    0    0    0  501 -0.00000000000E+00  0.00000000000E+00  0.59805740710E+02  0.59805740710E+02  0.00000000000E+00 0.  1.
          2   -1    0    0  501    0  0.00000000000E+00 -0.00000000000E+00 -0.22558499151E+03  0.22558499151E+03  0.00000000000E+00 0. -1.
         23    2    1    2    0    0  0.22179649635E+02  0.15272591004E+02 -0.53678030954E+02  0.13873973816E+03  0.12506876126E+03 0.  0.
          5    1    3    3  502    0  0.46601141694E+02 -0.41554758342E+02 -0.42760926761E+02  0.75792041835E+02  0.41800000000E+01 0. -1.
         -5    1    3    3    0  502 -0.24421492059E+02  0.56827349346E+02 -0.10917104193E+02  0.62947696321E+02  0.41800000000E+01 0. -1.
        -11    1    1    2    0    0  0.30858044175E+02 -0.15353504183E+02 -0.18626817315E+02  0.39177893056E+02  0.00000000000E+00 0. -1.
         11    1    1    2    0    0 -0.53037693811E+02  0.80913178960E-01 -0.93474402534E+02  0.10747310101E+03  0.00000000000E+00 0.  1.
</event>
<event>
 6    1  0.4966153E-006  0.1261047E+03  0.7561462E-02  0.1233353E+00
          2   -1    0    0  501    0  0.00000000000E+00  0.00000000000E+00  0.33386899007E+03  0.33386899007E+03  0.00000000000E+00 0. -1.
         -2   -1    0    0    0  501 -0.00000000000E+00 -0.00000000000E+00 -0.55862835419E+02  0.55862835419E+02  0.00000000000E+00 0.  1.
          5    1    1    2  502    0 -0.21321058970E+02  0.56536194577E+02  0.80204100350E+02  0.10050422362E+03  0.41800000000E+01 0. -1.
         -5    1    1    2    0  502 -0.23659047820E+02 -0.87025767761E+02  0.37161760608E+02  0.97630444276E+02  0.41800000000E+01 0.  1.
        -11    1    1    2    0    0  0.31866376136E+00 -0.27870601039E+02  0.25546322797E+02  0.37808551378E+02  0.00000000000E+00 0.  1.
         11    1    1    2    0    0  0.44661443028E+02  0.58360174222E+02  0.13509397089E+03  0.15378860621E+03  0.00000000000E+00 0. -1.
</event>
<event>
 7    1  0.4966153E-006  0.1265213E+03  0.7561462E-02  0.1232711E+00
         -2   -1    0    0    0  501 -0.00000000000E+00  0.00000000000E+00  0.51521369045E+02  0.51521369045E+02  0.00000000000E+00 0.  1.
          2   -1    0    0  501    0  0.00000000000E+00 -0.00000000000E+00 -0.34765312712E+03  0.34765312712E+03  0.00000000000E+00 0. -1.
         23    2    1    2    0    0 -0.35943275795E+02  0.69097702542E+02 -0.14360318817E+03  0.20574472939E+03  0.12507040596E+03 0.  0.
          5    1    3    3  502    0 -0.80021312178E+02  0.25619870574E+02 -0.95209109892E+02  0.12705130923E+03  0.41800000000E+01 0.  1.
         -5    1    3    3    0  502  0.44078036383E+02  0.43477831968E+02 -0.48394078282E+02  0.78693420162E+02  0.41800000000E+01 0.  1.
        -11    1    1    2    0    0 -0.20429869823E+02 -0.36268731885E+02 -0.10430683720E+03  0.11230635236E+03  0.00000000000E+00 0. -1.
         11    1    1    2    0    0  0.56373145619E+02 -0.32828970656E+02 -0.48221732700E+02  0.81123414413E+02  0.00000000000E+00 0.  1.
</event>
<event>
 7    1  0.1650317E-005  0.2194177E+03  0.7561462E-02  0.1134318E+00
         -2   -1    0    0    0  501 -0.00000000000E+00  0.00000000000E+00  0.21042075635E+02  0.21042075635E+02  0.00000000000E+00 0.  1.
          2   -1    0    0  501    0  0.00000000000E+00 -0.00000000000E+00 -0.24204169386E+04  0.24204169386E+04  0.00000000000E+00 0. -1.
         23    2    1    2    0    0 -0.42041052295E+02  0.19301749252E+03 -0.12673771503E+04  0.12887651581E+04  0.12509032389E+03 0.  0.
          5    1    3    3  502    0 -0.55978296324E+02  0.20068631795E+03 -0.10328949592E+04  0.10537068079E+04  0.41800000000E+01 0.  1.
         -5    1    3    3    0  502  0.13937244029E+02 -0.76688254396E+01 -0.23448219114E+03  0.23505835023E+03  0.41800000000E+01 0.  1.
        -11    1    1    2    0    0 -0.25117087498E+02 -0.47522260709E+02 -0.20403286835E+03  0.21099441868E+03  0.00000000000E+00 0.  1.
         11    1    1    2    0    0  0.67158139793E+02 -0.14549523181E+03 -0.92796484426E+03  0.94169943741E+03  0.00000000000E+00 0. -1.
</event>
<event>
 6    1  0.4966153E-006  0.1666332E+03  0.7561462E-02  0.1181405E+00
          2   -1    0    0  501    0  0.00000000000E+00  0.00000000000E+00  0.75501175567E+03  0.75501175567E+03  0.00000000000E+00 0. -1.
         -2   -1    0    0    0  501 -0.00000000000E+00 -0.00000000000E+00 -0.54545035640E+02  0.54545035640E+02  0.00000000000E+00 0.  1.
          5    1    1    2  502    0  0.45195170613E+01 -0.11916632168E+03  0.29644989773E+03  0.31956384733E+03  0.41800000000E+01 0. -1.
         -5    1    1    2    0  502 -0.65469971297E+02  0.76316003894E+02  0.39980364193E+02  0.10828827967E+03  0.41800000000E+01 0.  1.
        -11    1    1    2    0    0 -0.10032570324E+01  0.50828380332E+02  0.19423942331E+03  0.20078218133E+03  0.00000000000E+00 0.  1.
         11    1    1    2    0    0  0.61953711269E+02 -0.79780625442E+01  0.16979703480E+03  0.18092248299E+03  0.00000000000E+00 0. -1.
</event>
<event>
 7    1  0.4966153E-006  0.1364299E+03  0.7561462E-02  0.1218215E+00
          3   -1    0    0  501    0  0.00000000000E+00  0.00000000000E+00  0.21082748209E+03  0.21082748209E+03  0.00000000000E+00 0. -1.
         -3   -1    0    0    0  501 -0.00000000000E+00 -0.00000000000E+00 -0.15449993124E+03  0.15449993124E+03  0.00000000000E+00 0.  1.
         23    2    1    2    0    0 -0.10929624401E+03 -0.79116466095E+02 -0.19841486138E+02  0.18502055242E+03  0.12503533935E+03 0.  0.
          5    1    3    3  502    0 -0.23395941865E+02 -0.22633251004E+02 -0.64876038940E+02  0.72704930888E+02  0.41800000000E+01 0. -1.
         -5    1    3    3    0  502 -0.85900302143E+02 -0.56483215090E+02  0.45034552802E+02  0.11231562154E+03  0.41800000000E+01 0. -1.
        -11    1    1    2    0    0  0.76612403248E+02  0.40844416458E+02  0.93010784023E+02  0.12723495051E+03  0.00000000000E+00 0. -1.
         11    1    1    2    0    0  0.32683840760E+02  0.38272049636E+02 -0.16841747031E+02  0.53071910398E+02  0.00000000000E+00 0.  1.
</event>
<event>
 7    1  0.4966153E-006  0.1090241E+03  0.7561462E-02  0.1262388E+00
          1   -1    0    0  501    0  0.00000000000E+00  0.00000000000E+00  0.89653175269E+02  0.89653175269E+02  0.00000000000E+00 0. -1.
         -1   -1    0    0    0  501 -0.00000000000E+00 -0.00000000000E+00 -0.14172628858E+03  0.14172628858E+03  0.00000000000E+00 0.  1.
         23    2    1    2    0    0 -0.14593908616E+02  0.16155070855E+02 -0.54718808587E+02  0.13824195712E+03  0.12507086876E+03 0.  0.
          5    1    3    3  502    0 -0.68198736698E+02  0.19825841186E+02 -0.42867367388E+02  0.83061514871E+02  0.41800000000E+01 0.  1.
         -5    1    3    3    0  502  0.53604828082E+02 -0.36707703310E+01 -0.11851441198E+02  0.55180442251E+02  0.41800000000E+01 0.  1.
        -11    1    1    2    0    0  0.41807987294E+01 -0.53794770108E+02 -0.47943836680E+00  0.53959116284E+02  0.00000000000E+00 0.  1.
         11    1    1    2    0    0  0.10413109887E+02  0.37639699253E+02  0.31251336429E+01  0.39178390442E+02  0.00000000000E+00 0. -1.
</event>
<event>
 7    1  0.4966153E-006  0.1196523E+03  0.7561462E-02  0.1243672E+00
         -2   -1    0    0    0  501 -0.00000000000E+00  0.00000000000E+00  0.61946413779E+02  0.61946413779E+02  0.00000000000E+00 0. -1.
          2   -1    0    0  501    0  0.00000000000E+00 -0.00000000000E+00 -0.30707716633E+03  0.30707716633E+03  0.00000000000E+00 0.  1.
         23    2    1    2    0    0  0.67968276473E+02 -0.24016473375E+02 -0.72885943203E+02  0.16173226975E+03  0.12509391977E+03 0.  0.
          5    1    3    3  502    0  0.81403142479E+02 -0.55675192778E+02 -0.23606515164E+02  0.10149353996E+03  0.41800000000E+01 0.  1.
         -5    1    3    3    0  502 -0.13434866007E+02  0.31658719403E+02 -0.49279428039E+02  0.60238729790E+02  0.41800000000E+01 0.  1.
        -11    1    1    2    0    0 -0.39680987579E+02  0.52498468190E+02 -0.14364857772E+03  0.15800501200E+03  0.00000000000E+00 0.  1.
         11    1    1    2    0    0 -0.28287288893E+02 -0.28481994815E+02 -0.28596231627E+02  0.49286298348E+02  0.00000000000E+00 0. -1.
</event>
<event>
 7    1  0.4966153E-006  0.1202815E+03  0.7561462E-02  0.1242633E+00
          1   -1    0    0  501    0  0.00000000000E+00  0.00000000000E+00  0.45007829589E+03  0.45007829589E+03  0.00000000000E+00 0. -1.
         -1   -1    0    0    0  501 -0.00000000000E+00 -0.00000000000E+00 -0.46665469063E+02  0.46665469063E+02  0.00000000000E+00 0.  1.
         23    2    1    2    0    0  0.28977263701E+02 -0.55818690032E+02  0.10682558508E+03  0.17610882282E+03  0.12508878399E+03 0.  0.
          5    1    3    3  502    0  0.61257463176E+02 -0.59036710212E+01  0.98103060687E+02  0.11588361853E+03  0.41800000000E+01 0.  1.
         -5    1    3    3    0  502 -0.32280199475E+02 -0.49915019011E+02  0.87225243946E+01  0.60225204299E+02  0.41800000000E+01 0.  1.
        -11    1    1    2    0    0 -0.51624917690E+02 -0.73854743713E+01  0.98104517135E+02  0.11110433673E+03  0.00000000000E+00 0. -1.
         11    1    1    2    0    0  0.22647653989E+02  0.63204164404E+02  0.19848272461E+03  0.20953060540E+03  0.00000000000E+00 0.  1.
</event>
<event>
 7    1  0.4966153E-006  0.1178828E+03  0.7561462E-02  0.1246631E+00
         -1   -1    0    0    0  501 -0.00000000000E+00  0.00000000000E+00  0.72419234896E+03  0.72419234896E+03  0.00000000000E+00 0.  1.
          1   -1    0    0  501    0  0.00000000000E+00 -0.00000000000E+00 -0.32814033539E+02  0.32814033539E+02  0.00000000000E+00 0. -1.
         23    2    1    2    0    0  0.97463889288E+02 -0.32679450111E+02  0.46189602057E+03  0.48945183845E+03  0.12509201480E+03 0.  0.
          5    1    3    3  502    0  0.87737019241E+02 -0.85971665295E+01  0.45324723608E+03  0.46175992164E+03  0.41800000000E+01 0. -1.
         -5    1    3    3    0  502  0.97268700468E+01 -0.24082283581E+02  0.86487844891E+01  0.27691916809E+02  0.41800000000E+01 0. -1.
        -11    1    1    2    0    0  0.59175303108E+01  0.15255776847E+02  0.12695369985E+01  0.16412422624E+02  0.00000000000E+00 0. -1.
         11    1    1    2    0    0 -0.10338141960E+03  0.17423673263E+02  0.22821275785E+03  0.25114212142E+03  0.00000000000E+00 0.  1.
</event>
<event>
 6    1  0.4966153E-006  0.1063133E+03  0.7561462E-02  0.1267554E+00
          1   -1    0    0  501    0  0.00000000000E+00  0.00000000000E+00  0.77018702416E+03  0.77018702416E+03  0.00000000000E+00 0. -1.
         -1   -1    0    0    0  501 -0.00000000000E+00 -0.00000000000E+00 -0.18127889545E+02  0.18127889545E+02  0.00000000000E+00 0.  1.
          5    1    1    2  502    0 -0.23352642459E+02 -0.39725238578E+02  0.26467832186E+03  0.26869225324E+03  0.41800000000E+01 0. -1.
         -5    1    1    2    0  502  0.11915615468E+02  0.63486378973E+02  0.10010904953E+03  0.11921323922E+03  0.41800000000E+01 0.  1.
        -11    1    1    2    0    0  0.42351518767E+02 -0.46765136640E+02  0.23172201404E+03  0.24015770014E+03  0.00000000000E+00 0. -1.
         11    1    1    2    0    0 -0.30914491777E+02  0.23003996245E+02  0.15554974918E+03  0.16025172110E+03  0.00000000000E+00 0.  1.
</event>
<event>
 7    1  0.4966153E-006  0.1836878E+03  0.7561462E-02  0.1164281E+00
          1   -1    0    0  501    0  0.00000000000E+00  0.00000000000E+00  0.51399915422E+03  0.51399915422E+03  0.00000000000E+00 0. -1.
         -1   -1    0    0    0  501 -0.00000000000E+00 -0.00000000000E+00 -0.10428578163E+03  0.10428578163E+03  0.00000000000E+00 0.  1.
         23    2    1    2    0    0 -0.15212199740E+03  0.58881410255E+02  0.47562041048E+02  0.21098826359E+03  0.12508308063E+03 0.  0.
          5    1    3    3  502    0 -0.25941537467E+02 -0.36455109910E+02 -0.26294433919E+01  0.45014717341E+02  0.41800000000E+01 0. -1.
         -5    1    3    3    0  502 -0.12618045993E+03  0.95336520166E+02  0.50191484440E+02  0.16597354625E+03  0.41800000000E+01 0. -1.
        -11    1    1    2    0    0  0.49547824126E+02 -0.28940576479E+02  0.45897428576E+02  0.73478689377E+02  0.00000000000E+00 0.  1.
         11    1    1    2    0    0  0.10257417327E+03 -0.29940833776E+02  0.31625390297E+03  0.33381798287E+03  0.00000000000E+00 0. -1.
</event>
<event>
 6    1  0.4966153E-006  0.9997781E+02  0.7561462E-02  0.1280343E+00
          2   -1    0    0  501    0  0.00000000000E+00  0.00000000000E+00  0.37059721475E+03  0.37059721475E+03  0.00000000000E+00 0. -1.
         -2   -1    0    0    0  501 -0.00000000000E+00 -0.00000000000E+00 -0.90514224816E+02  0.90514224816E+02  0.00000000000E+00 0.  1.
          5    1    1    2  502    0 -0.14713600478E+01  0.55736438134E+02  0.16457519797E+03  0.17381364625E+03  0.41800000000E+01 0. -1.
         -5    1    1    2    0  502 -0.15973203044E+02 -0.53076518136E+02 -0.64206621262E+02  0.84924805603E+02  0.41800000000E+01 0.  1.
        -11    1    1    2    0    0 -0.14473204427E+02 -0.38104332266E+02  0.52193460405E+02  0.66223644515E+02  0.00000000000E+00 0.  1.
         11    1    1    2    0    0  0.31917767519E+02  0.35444412268E+02  0.12752095282E+03  0.13614934320E+03  0.00000000000E+00 0. -1.
</event>
<event>
 7    1  0.4966153E-006  0.1371241E+03  0.7561462E-02  0.1217252E+00
          2   -1    0    0  501    0  0.00000000000E+00  0.00000000000E+00  0.68370595895E+03  0.68370595895E+03  0.00000000000E+00 0. -1.
         -2   -1    0    0    0  501 -0.00000000000E+00 -0.00000000000E+00 -0.38941127597E+02  0.38941127597E+02  0.00000000000E+00 0.  1.
         23    2    1    2    0    0  0.10653085410E+03 -0.56147376633E+02  0.37908512286E+03  0.41695875256E+03  0.12509084770E+03 0.  0.
          5    1    3    3  502    0  0.31814718776E+02 -0.53701930048E+02  0.30599913256E+03  0.31232837711E+03  0.41800000000E+01 0. -1.
         -5    1    3    3    0  502  0.74716135325E+02 -0.24454465848E+01  0.73085990301E+02  0.10463037544E+03  0.41800000000E+01 0. -1.
        -11    1    1    2    0    0 -0.78940817449E+02  0.54875641622E+01  0.21428394242E+03  0.22842804994E+03  0.00000000000E+00 0.  1.
         11    1    1    2    0    0 -0.27590036653E+02  0.50659812471E+02  0.51395766073E+02  0.77260284055E+02  0.00000000000E+00 0. -1.
</event>
<event>
 7    1  0.4966153E-006  0.1080979E+03  0.7561462E-02  0.1264133E+00
         -1   -1    0    0    0  501 -0.00000000000E+00  0.00000000000E+00  0.98597395135E+03  0.98597395135E+03  0.00000000000E+00 0.  1.
          1   -1    0    0  501    0  0.00000000000E+00 -0.00000000000E+00 -0.15754335319E+02  0.15754335319E+02  0.00000000000E+00 0. -1.
         23    2    1    2    0    0 -0.13890615663E+02 -0.22665342284E+02  0.73090030184E+03  0.74200404147E+03  0.12509228350E+03 0.  0.
          5    1    3    3  502    0 -0.64159572025E+02  0.19284828308E+01  0.26307383233E+03  0.27082371275E+03  0.41800000000E+01 0. -1.
         -5    1    3    3    0  502  0.50268956363E+02 -0.24593825115E+02  0.46782646950E+03  0.47118032872E+03  0.41800000000E+01 0. -1.
        -11    1    1    2    0    0  0.38183586669E+02  0.47545264413E+02  0.10956717982E+03  0.12539340235E+03  0.00000000000E+00 0. -1.
         11    1    1    2    0    0 -0.24292971006E+02 -0.24879922129E+02  0.12975213438E+03  0.13433084285E+03  0.00000000000E+00 0.  1.
</event>
<event>
 7    1  0.4966153E-006  0.8717092E+02  0.7561462E-02  0.1309851E+00
          2   -1    0    0  501    0  0.00000000000E+00  0.00000000000E+00  0.11551859450E+03  0.11551859450E+03  0.00000000000E+00 0. -1.
         -2   -1    0    0    0  501 -0.00000000000E+00 -0.00000000000E+00 -0.14304770960E+03  0.14304770960E+03  0.00000000000E+00 0.  1.
         23    2    1    2    0    0  0.53696975498E+01  0.36057299799E+02 -0.75694662055E+02  0.14823412304E+03  0.12212579928E+03 0.  0.
          5    1    3    3  502    0 -0.22717296683E+02 -0.64989725333E+01  0.25393410564E+02  0.34937228176E+02  0.41800000000E+01 0. -1.
         -5    1    3    3    0  502  0.28086994232E+02  0.42556272332E+02 -0.10108807262E+03  0.11329689486E+03  0.41800000000E+01 0.  1.
        -11    1    1    2    0    0  0.41461585666E+02 -0.24312490322E+01  0.18021069341E+02  0.45273977051E+02  0.00000000000E+00 0.  1.
         11    1    1    2    0    0 -0.46831283216E+02 -0.33626050766E+02  0.30144477620E+02  0.65058204008E+02  0.00000000000E+00 0. -1.
</event>
<event>
 7    1  0.4966153E-006  0.9737522E+02  0.7561462E-02  0.1285914E+00
         -2   -1    0    0    0  501 -0.00000000000E+00  0.00000000000E+00  0.28115213260E+02  0.28115213260E+02  0.00000000000E+00 0. -1.
          2   -1    0    0  501    0  0.00000000000E+00 -0.00000000000E+00 -0.52592765187E+03  0.52592765187E+03  0.00000000000E+00 0.  1.
         23    2    1    2    0    0  0.48238408810E+02  0.24828160031E+02 -0.26617546591E+03  0.29906682813E+03  0.12509279523E+03 0.  0.
          5    1    3    3  502    0  0.69373626052E+01  0.48567772615E+02 -0.29053927986E+02  0.57171309833E+02  0.41800000000E+01 0. -1.
         -5    1    3    3    0  502  0.41301046205E+02 -0.23739612584E+02 -0.23712153793E+03  0.24189551830E+03  0.41800000000E+01 0. -1.
        -11    1    1    2    0    0 -0.43053779993E+02 -0.53433172931E+02 -0.10791284923E+03  0.12788242635E+03  0.00000000000E+00 0.  1.
         11    1    1    2    0    0 -0.51846288171E+01  0.28605012901E+02 -0.12372412346E+03  0.12709361064E+03  0.00000000000E+00 0. -1.
</event>
<event>
 7    1  0.4966153E-006  0.6771578E+02  0.7561462E-02  0.1368038E+00
         -2   -1    0    0    0  501 -0.00000000000E+00  0.00000000000E+00  0.42507569573E+03  0.42507569573E+03  0.00000000000E+00 0.  1.
          2   -1    0    0  501    0  0.00000000000E+00 -0.00000000000E+00 -0.29275367407E+02  0.29275367407E+02  0.00000000000E+00 0. -1.
         23    2    1    2    0    0  0.25845083520E+02  0.11568326065E+02  0.19851452293E+03  0.23634362256E+03  0.12509395509E+03 0.  0.
          5    1    3    3  502    0  0.35240592066E+02  0.16118157375E+02  0.14967649311E+01  0.39005218005E+02  0.41800000000E+01 0.  1.
         -5    1    3    3    0  502 -0.93955085464E+01 -0.45498313098E+01  0.19701775800E+03  0.19733840456E+03  0.41800000000E+01 0.  1.
        -11    1    1    2    0    0  0.29056219464E+02  0.22205490808E+00  0.30966085335E+02  0.42464239530E+02  0.00000000000E+00 0. -1.
         11    1    1    2    0    0 -0.54901302984E+02 -0.11790380974E+02  0.16631972005E+03  0.17554320104E+03  0.00000000000E+00 0.  1.
</event>
<event>
 7    1  0.4966153E-006  0.9167809E+02  0.7561462E-02  0.1298838E+00
          2   -1    0    0  501    0  0.00000000000E+00  0.00000000000E+00  0.74226896566E+02  0.74226896566E+02  0.00000000000E+00 0. -1.
         -2   -1    0    0    0  501 -0.00000000000E+00 -0.00000000000E+00 -0.26043866578E+03  0.26043866578E+03  0.00000000000E+00 0.  1.
         23    2    1    2    0    0 -0.61984120662E+01  0.44506567821E+02 -0.19155599741E+03  0.23315359518E+03  0.12509054285E+03 0.  0.
          5    1    3    3  502    0  0.34531649405E+02  0.33434903542E+02 -0.18381119572E+03  0.19003777429E+03  0.41800000000E+01 0. -1.
         -5    1    3    3    0  502 -0.40730061471E+02  0.11071664280E+02 -0.77448016872E+01  0.43115820884E+02  0.41800000000E+01 0. -1.
        -11    1    1    2    0    0 -0.20660837546E+02 -0.58760688427E+02 -0.16063001584E+02  0.64325024154E+02  0.00000000000E+00 0.  1.
         11    1    1    2    0    0  0.26859249612E+02  0.14254120606E+02  0.21407229779E+02  0.37186943015E+02  0.00000000000E+00 0. -1.
</event>
<event>
 7    1  0.4966153E-006  0.1099894E+03  0.7561462E-02  0.1260590E+00
         -2   -1    0    0    0  501 -0.00000000000E+00  0.00000000000E+00  0.43811123092E+03  0.43811123092E+03  0.00000000000E+00 0.  1.
          2   -1    0    0  501    0  0.00000000000E+00 -0.00000000000E+00 -0.39873747720E+02  0.39873747720E+02  0.00000000000E+00 0. -1.
         23    2    1    2    0    0  0.75489823830E+02  0.44692659917E+01  0.21432419875E+03  0.25942340487E+03  0.12508778112E+03 0.  0.
          5    1    3    3  502    0  0.25521910050E+02 -0.54105970346E+02  0.50650679144E+02  0.78497054832E+02  0.41800000000E+01 0. -1.
         -5    1    3    3    0  502  0.49967913779E+02  0.58575236337E+02  0.16367351960E+03  0.18092635004E+03  0.41800000000E+01 0. -1.
        -11    1    1    2    0    0 -0.34003408975E+02  0.14892378838E+02  0.96090254144E+01  0.38345118839E+02  0.00000000000E+00 0. -1.
         11    1    1    2    0    0 -0.41486414855E+02 -0.19361644830E+02  0.17430425904E+03  0.18021645493E+03  0.00000000000E+00 0.  1.
</event>
<event>
 7    1  0.4966153E-006  0.1418945E+03  0.7561462E-02  0.1210802E+00
         -1   -1    0    0    0  501 -0.00000000000E+00  0.00000000000E+00  0.40831637008E+03  0.40831637008E+03  0.00000000000E+00 0.  1.
          1   -1    0    0  501    0  0.00000000000E+00 -0.00000000000E+00 -0.71767651462E+02  0.71767651462E+02  0.00000000000E+00 0. -1.
         23    2    1    2    0    0  0.86036603036E+02  0.64466035858E+02  0.28818432362E+03  0.33204716637E+03  0.12508776709E+03 0.  0.
          5    1    3    3  502    0  0.10984721736E+03  0.74646251031E+02  0.20057817274E+03  0.24059831614E+03  0.41800000000E+01 0. -1.
         -5    1    3    3    0  502 -0.23810614320E+02 -0.10180215174E+02  0.87606150884E+02  0.91448850228E+02  0.41800000000E+01 0. -1.
        -11    1    1    2    0    0 -0.83496616648E+02 -0.75979755728E+02  0.62969686151E+02  0.12926635156E+03  0.00000000000E+00 0.  1.
         11    1    1    2    0    0 -0.25399863880E+01  0.11513719870E+02 -0.14605291152E+02  0.18770503608E+02  0.00000000000E+00 0. -1.
</event>
<event>
 7    1  0.4966153E-006  0.9953559E+02  0.7561462E-02  0.1281276E+00
         -1   -1    0    0    0  501 -0.00000000000E+00  0.00000000000E+00  0.48486872860E+03  0.48486872860E+03  0.00000000000E+00 0.  1.
          1   -1    0    0  501    0  0.00000000000E+00 -0.00000000000E+00 -0.48053560907E+02  0.48053560907E+02  0.00000000000E+00 0. -1.
         23    2    1    2    0    0 -0.51982673220E+02  0.54661818205E+02  0.37074431462E+03  0.39848326034E+03  0.12508976482E+03 0.  0.
          5    1    3    3  502    0 -0.64612534110E+02 -0.12891093262E+01  0.30194876196E+03  0.30881542807E+03  0.41800000000E+01 0.  1.
         -5    1    3    3    0  502  0.12629860890E+02  0.55950927532E+02  0.68795552664E+02  0.89667832270E+02  0.41800000000E+01 0.  1.
        -11    1    1    2    0    0  0.41590582862E+02 -0.34183706364E+02  0.87691540503E+02  0.10289853565E+03  0.00000000000E+00 0.  1.
         11    1    1    2    0    0  0.10392090359E+02 -0.20478111841E+02 -0.21620687426E+02  0.31540493518E+02  0.00000000000E+00 0. -1.
</event>
<event>
 7    1  0.4966153E-006  0.1470766E+03  0.7561462E-02  0.1204112E+00
          1   -1    0    0  501    0  0.00000000000E+00  0.00000000000E+00  0.44648924868E+03  0.44648924868E+03  0.00000000000E+00 0. -1.
         -1   -1    0    0    0  501 -0.00000000000E+00 -0.00000000000E+00 -0.62116981725E+02  0.62116981725E+02  0.00000000000E+00 0.  1.
         23    2    1    2    0    0  0.10773651876E+03  0.78823705183E+01  0.10181979053E+03  0.19412525193E+03  0.12509218382E+03 0.  0.
          5    1    3    3  502    0  0.41973865894E+02 -0.56621606058E+02  0.60900278368E+02  0.93242307972E+02  0.41800000000E+01 0.  1.
         -5    1    3    3    0  502  0.65762652865E+02  0.64503976577E+02  0.40919512164E+02  0.10088294396E+03  0.41800000000E+01 0.  1.
        -11    1    1    2    0    0  0.72685784197E+00  0.19463960985E+02  0.15314293778E+02  0.24777039643E+02  0.00000000000E+00 0.  1.
         11    1    1    2    0    0 -0.10846337660E+03 -0.27346331503E+02  0.26723818264E+03  0.28970393883E+03  0.00000000000E+00 0. -1.
</event>
<event>
 7    1  0.4966153E-006  0.1980076E+03  0.7561462E-02  0.1151431E+00
          2   -1    0    0  501    0  0.00000000000E+00  0.00000000000E+00  0.81379838292E+03  0.81379838292E+03  0.00000000000E+00 0.  1.
         -2   -1    0    0    0  501 -0.00000000000E+00 -0.00000000000E+00 -0.57060850719E+02  0.57060850719E+02  0.00000000000E+00 0. -1.
         23    2    1    2    0    0  0.77717110313E+02  0.12728543114E+03  0.20658283652E+03  0.28384129324E+03  0.12509149128E+03 0.  0.
          5    1    3    3  502    0  0.10231281978E+03  0.51058782043E+02  0.12366528553E+03  0.16847993222E+03  0.41800000000E+01 0.  1.
         -5    1    3    3    0  502 -0.24595709463E+02  0.76226649099E+02  0.82917550985E+02  0.11536136103E+03  0.41800000000E+01 0.  1.
        -11    1    1    2    0    0  0.33403335455E+02 -0.13410634378E+01  0.57404581906E+02  0.66429415882E+02  0.00000000000E+00 0.  1.
         11    1    1    2    0    0 -0.11112044577E+03 -0.12594436770E+03  0.49275011378E+03  0.52058852452E+03  0.00000000000E+00 0. -1.
</event>
<event>
 7    1  0.4966153E-006  0.1413093E+03  0.7561462E-02  0.1211578E+00
          1   -1    0    0  501    0  0.00000000000E+00  0.00000000000E+00  0.63342586480E+02  0.63342586480E+02  0.00000000000E+00 0. -1.
         -1   -1    0    0    0  501 -0.00000000000E+00 -0.00000000000E+00 -0.40570035124E+03  0.40570035124E+03  0.00000000000E+00 0.  1.
         23    2    1    2    0    0  0.83894403587E+02  0.83285398948E+02 -0.16698078807E+03  0.23980115199E+03  0.12508908937E+03 0.  0.
          5    1    3    3  502    0  0.71819335711E+02  0.93977388874E+02 -0.18218029529E+03  0.21724847293E+03  0.41800000000E+01 0.  1.
         -5    1    3    3    0  502  0.12075067875E+02 -0.10691989926E+02  0.15199507220E+02  0.22552679054E+02  0.41800000000E+01 0.  1.
        -11    1    1    2    0    0 -0.44296846409E+02 -0.96237856251E+02 -0.12395970952E+03  0.16306423630E+03  0.00000000000E+00 0. -1.
         11    1    1    2    0    0 -0.39597557178E+02  0.12952457303E+02 -0.51417267182E+02  0.66177549434E+02  0.00000000000E+00 0.  1.
</event>
<event>
 7    1  0.4966153E-006  0.1351474E+03  0.7561462E-02  0.1220012E+00
         -2   -1    0    0    0  501 -0.00000000000E+00  0.00000000000E+00  0.61577948745E+02  0.61577948745E+02  0.00000000000E+00 0. -1.
          2   -1    0    0  501    0  0.00000000000E+00 -0.00000000000E+00 -0.36306854975E+03  0.36306854975E+03  0.00000000000E+00 0.  1.
         23    2    1    2    0    0 -0.55798541910E+02 -0.66480151153E+02 -0.84863942681E+02  0.17430244393E+03  0.12508543247E+03 0.  0.
          5    1    3    3  502    0 -0.69355756786E+02 -0.92772997661E+02 -0.44661281986E+02  0.12421414011E+03  0.41800000000E+01 0. -1.
         -5    1    3    3    0  502  0.13557214876E+02  0.26292846507E+02 -0.40202660695E+02  0.50088303820E+02  0.41800000000E+01 0. -1.
        -11    1    1    2    0    0  0.58305545539E+02  0.32288138727E+00 -0.11703559227E+03  0.13075538517E+03  0.00000000000E+00 0.  1.
         11    1    1    2    0    0 -0.25070036282E+01  0.66157269766E+02 -0.99591066053E+02  0.11958866939E+03  0.00000000000E+00 0. -1.
</event>
<event>
 7    1  0.4966153E-006  0.1154447E+03  0.7561462E-02  0.1250807E+00
         -1   -1    0    0    0  501 -0.00000000000E+00  0.00000000000E+00  0.95629149527E+02  0.95629149527E+02  0.00000000000E+00 0.  1.
          1   -1    0    0  501    0  0.00000000000E+00 -0.00000000000E+00 -0.21463236716E+03  0.21463236716E+03  0.00000000000E+00 0. -1.
         23    2    1    2    0    0 -0.39159638667E+02 -0.83378552732E+02 -0.74506222272E+02  0.17229168264E+03  0.12509111237E+03 0.  0.
          5    1    3    3  502    0  0.20062366627E+02 -0.22174449653E+02  0.26452792239E+02  0.40142588224E+02  0.41800000000E+01 0. -1.
         -5    1    3    3    0  502 -0.59222005293E+02 -0.61204103079E+02 -0.10095901451E+03  0.13214909442E+03  0.41800000000E+01 0. -1.
        -11    1    1    2    0    0  0.34524138861E+02  0.95979918542E+02 -0.11870714754E+02  0.10268872770E+03  0.00000000000E+00 0.  1.
         11    1    1    2    0    0  0.46354998054E+01 -0.12601365811E+02 -0.32626280610E+02  0.35281106349E+02  0.00000000000E+00 0. -1.
</event>
<event>
 7    1  0.4966153E-006  0.8969963E+02  0.7561462E-02  0.1303581E+00
          1   -1    0    0  501    0  0.00000000000E+00  0.00000000000E+00  0.35172578514E+03  0.35172578514E+03  0.00000000000E+00 0. -1.
         -1   -1    0    0    0  501 -0.00000000000E+00 -0.00000000000E+00 -0.41356591950E+02  0.41356591950E+02  0.00000000000E+00 0.  1.
         23    2    1    2    0    0  0.24019949882E+02  0.11801849333E+02  0.10031934348E+03  0.16256546830E+03  0.12508924482E+03 0.  0.
          5    1    3    3  502    0 -0.90718071004E+01 -0.36455937072E+02  0.96660415132E+02  0.10378844485E+03  0.41800000000E+01 0.  1.
         -5    1    3    3    0  502  0.33091756983E+02  0.48257786405E+02  0.36589283444E+01  0.58777023449E+02  0.41800000000E+01 0.  1.
        -11    1    1    2    0    0 -0.26859363742E+02 -0.43493229360E+02  0.68708811149E+02  0.85638701242E+02  0.00000000000E+00 0.  1.
         11    1    1    2    0    0  0.28394138603E+01  0.31691380027E+02  0.14134103856E+03  0.14487820754E+03  0.00000000000E+00 0. -1.
</event>
<event>
 7    1  0.4966153E-006  0.1199560E+03  0.7561462E-02  0.1243170E+00
          2   -1    0    0  501    0  0.00000000000E+00  0.00000000000E+00  0.12772303487E+03  0.12772303487E+03  0.00000000000E+00 0. -1.
         -2   -1    0    0    0  501 -0.00000000000E+00 -0.00000000000E+00 -0.15294383060E+03  0.15294383060E+03  0.00000000000E+00 0.  1.
         23    2    1    2    0    0 -0.56754332923E+02 -0.63084489946E+02 -0.12420910829E+02  0.15166306383E+03  0.12508676480E+03 0.  0.
          5    1    3    3  502    0 -0.46898272287E+00 -0.76249470618E+02  0.27635510557E+02  0.81212040721E+02  0.41800000000E+01 0. -1.
         -5    1    3    3    0  502 -0.56285350200E+02  0.13164980672E+02 -0.40056421387E+02  0.70451023112E+02  0.41800000000E+01 0. -1.
        -11    1    1    2    0    0  0.32596058284E+02 -0.53368622768E+01 -0.39676032096E+02  0.51625310047E+02  0.00000000000E+00 0.  1.
         11    1    1    2    0    0  0.24158274640E+02  0.68421352223E+02  0.26876147193E+02  0.77378491595E+02  0.00000000000E+00 0. -1.
</event>
<event>
 7    1  0.4966153E-006  0.2652864E+03  0.7561462E-02  0.1104008E+00
         -2   -1    0    0    0  501 -0.00000000000E+00  0.00000000000E+00  0.15756397788E+03  0.15756397788E+03  0.00000000000E+00 0.  1.
          2   -1    0    0  501    0  0.00000000000E+00 -0.00000000000E+00 -0.53323754952E+03  0.53323754952E+03  0.00000000000E+00 0. -1.
         23    2    1    2    0    0 -0.18568528801E+02 -0.24653750110E+03 -0.67865085222E+02  0.28527160616E+03  0.12509472321E+03 0.  0.
          5    1    3    3  502    0  0.52814578348E+02 -0.11776755184E+03 -0.41491800064E+02  0.13563781856E+03  0.41800000000E+01 0. -1.
         -5    1    3    3    0  502 -0.71383107149E+02 -0.12876994927E+03 -0.26373285158E+02  0.14963378759E+03  0.41800000000E+01 0. -1.
        -11    1    1    2    0    0  0.28037749300E+02  0.49563928023E+02 -0.28655164163E+02  0.63748072756E+02  0.00000000000E+00 0.  1.
         11    1    1    2    0    0 -0.94692204988E+01  0.19697357308E+03 -0.27915332226E+03  0.34178184849E+03  0.00000000000E+00 0. -1.
</event>
<event>
 7    1  0.4966153E-006  0.1745511E+03  0.7561462E-02  0.1173183E+00
         -2   -1    0    0    0  501 -0.00000000000E+00  0.00000000000E+00  0.75298169977E+02  0.75298169977E+02  0.00000000000E+00 0.  1.
          2   -1    0    0  501    0  0.00000000000E+00 -0.00000000000E+00 -0.51701685253E+03  0.51701685253E+03  0.00000000000E+00 0. -1.
         23    2    1    2    0    0 -0.11264997947E+02 -0.16065782621E+03 -0.19226032641E+03  0.28026571720E+03  0.12508797635E+03 0.  0.
          5    1    3    3  502    0  0.37649224796E+00 -0.17075876652E+03 -0.12638866923E+03  0.21248592000E+03  0.41800000000E+01 0. -1.
         -5    1    3    3    0  502 -0.11641490195E+02  0.10100940308E+02 -0.65871657178E+02  0.67779797200E+02  0.41800000000E+01 0. -1.
        -11    1    1    2    0    0 -0.59387247949E+01  0.45702606087E+02 -0.15670648497E+03  0.16334294931E+03  0.00000000000E+00 0. -1.
         11    1    1    2    0    0  0.17203722742E+02  0.11495522012E+03 -0.92751871174E+02  0.14870635600E+03  0.00000000000E+00 0.  1.
</event>
<event>
 7    1  0.4966153E-006  0.1298190E+03  0.7561462E-02  0.1227725E+00
         -2   -1    0    0    0  501 -0.00000000000E+00  0.00000000000E+00  0.21350315182E+02  0.21350315182E+02  0.00000000000E+00 0.  1.
          2   -1    0    0  501    0  0.00000000000E+00 -0.00000000000E+00 -0.12046532275E+04  0.12046532275E+04  0.00000000000E+00 0. -1.
         23    2    1    2    0    0  0.87388801352E+02  0.72263972008E+02 -0.51533288301E+03  0.54229048799E+03  0.12510838824E+03 0.  0.
          5    1    3    3  502    0  0.25752244113E+02  0.23308048647E+02 -0.19144495882E+02  0.39880162126E+02  0.41800000000E+01 0.  1.
         -5    1    3    3    0  502  0.61636557239E+02  0.48955923361E+02 -0.49618838712E+03  0.50241032587E+03  0.41800000000E+01 0.  1.
        -11    1    1    2    0    0 -0.49838086894E+02 -0.91083341423E+02 -0.48324036259E+03  0.49426840687E+03  0.00000000000E+00 0. -1.
         11    1    1    2    0    0 -0.37550714458E+02  0.18819369416E+02 -0.18472966669E+03  0.18944464779E+03  0.00000000000E+00 0.  1.
</event>
<event>
 7    1  0.4966153E-006  0.2476955E+03  0.7561462E-02  0.1114770E+00
          1   -1    0    0  501    0  0.00000000000E+00  0.00000000000E+00  0.78517813476E+03  0.78517813476E+03  0.00000000000E+00 0. -1.
         -1   -1    0    0    0  501 -0.00000000000E+00 -0.00000000000E+00 -0.84870717661E+02  0.84870717661E+02  0.00000000000E+00 0.  1.
         23    2    1    2    0    0  0.82343541493E+02  0.21385842121E+03  0.44010803285E+03  0.51172292611E+03  0.12509751947E+03 0.  0.
          5    1    3    3  502    0 -0.28384012043E+02  0.91968966217E+02  0.16526371383E+03  0.19129430309E+03  0.41800000000E+01 0.  1.
         -5    1    3    3    0  502  0.11072755354E+03  0.12188945500E+03  0.27484431903E+03  0.32042862302E+03  0.41800000000E+01 0.  1.
        -11    1    1    2    0    0 -0.66347340220E+02 -0.10437316756E+03  0.19188513612E+03  0.22828848662E+03  0.00000000000E+00 0. -1.
         11    1    1    2    0    0 -0.15996201273E+02 -0.10948525365E+03  0.68314248125E+02  0.13003743968E+03  0.00000000000E+00 0.  1.
</event>
<event>
 7    1  0.4966153E-006  0.1134132E+03  0.7561462E-02  0.1254377E+00
         -2   -1    0    0    0  501 -0.00000000000E+00  0.00000000000E+00  0.19200537555E+03  0.19200537555E+03  0.00000000000E+00 0.  1.
          2   -1    0    0  501    0  0.00000000000E+00 -0.00000000000E+00 -0.96533335296E+02  0.96533335296E+02  0.00000000000E+00 0. -1.
         23    2    1    2    0    0  0.47444566585E+02  0.35520415434E+02  0.11162206451E+03  0.17781948858E+03  0.12509036103E+03 0.  0.
          5    1    3    3  502    0  0.22126920463E+02 -0.46413099998E+02  0.31881182125E+02  0.60643702347E+02  0.41800000000E+01 0. -1.
         -5    1    3    3    0  502  0.25317646122E+02  0.81933515432E+02  0.79740882383E+02  0.11717578623E+03  0.41800000000E+01 0. -1.
        -11    1    1    2    0    0 -0.61524737262E+02 -0.41363746326E+02 -0.38599236881E+02  0.83583215379E+02  0.00000000000E+00 0. -1.
         11    1    1    2    0    0  0.14080170678E+02  0.58433308913E+01  0.22449212629E+02  0.27136006889E+02  0.00000000000E+00 0.  1.
</event>
<event>
 7    1  0.4966153E-006  0.1196010E+03  0.7561462E-02  0.1243757E+00
         -2   -1    0    0    0  501 -0.00000000000E+00  0.00000000000E+00  0.28020573735E+02  0.28020573735E+02  0.00000000000E+00 0.  1.
          2   -1    0    0  501    0  0.00000000000E+00 -0.00000000000E+00 -0.53204608431E+03  0.53204608431E+03  0.00000000000E+00 0. -1.
         23    2    1    2    0    0 -0.53217155648E+02 -0.22024729563E+02 -0.26010256190E+03  0.29430955291E+03  0.12509043073E+03 0.  0.
          5    1    3    3  502    0 -0.92980758617E+02 -0.27048990350E+02 -0.19464497561E+03  0.21744242521E+03  0.41800000000E+01 0.  1.
         -5    1    3    3    0  502  0.39763602970E+02  0.50242607872E+01 -0.65457586288E+02  0.76867127696E+02  0.41800000000E+01 0.  1.
        -11    1    1    2    0    0 -0.20539361972E+02 -0.84045946282E+01 -0.29105200164E+02  0.36600755152E+02  0.00000000000E+00 0.  1.
         11    1    1    2    0    0  0.73756517619E+02  0.30429324191E+02 -0.21481774851E+03  0.22915634998E+03  0.00000000000E+00 0. -1.
</event>
<event>
 7    1  0.4966153E-006  0.9907458E+02  0.7561462E-02  0.1282254E+00
         -2   -1    0    0    0  501 -0.00000000000E+00  0.00000000000E+00  0.26250090009E+02  0.26250090009E+02  0.00000000000E+00 0.  1.
          2   -1    0    0  501    0  0.00000000000E+00 -0.00000000000E+00 -0.46006957026E+03  0.46006957026E+03  0.00000000000E+00 0. -1.
         23    2    1    2    0    0  0.10150645798E+02  0.90710849195E+01 -0.23282181601E+03  0.26464975311E+03  0.12509266013E+03 0.  0.
          5    1    3    3  502    0 -0.39488419459E+02 -0.36610488465E+02 -0.70442991983E+02  0.88765706534E+02  0.41800000000E+01 0.  1.
         -5    1    3    3    0  502  0.49639065257E+02  0.45681573385E+02 -0.16237882403E+03  0.17588404658E+03  0.41800000000E+01 0.  1.
        -11    1    1    2    0    0 -0.14742972402E+02 -0.41373676785E+02 -0.17358437778E+03  0.17905494290E+03  0.00000000000E+00 0.  1.
         11    1    1    2    0    0  0.45923266039E+01  0.32302591865E+02 -0.27413286460E+02  0.42614964266E+02  0.00000000000E+00 0. -1.
</event>
<event>
 7    1  0.4966153E-006  0.1146780E+03  0.7561462E-02  0.1252144E+00
          1   -1    0    0  501    0  0.00000000000E+00  0.00000000000E+00  0.42426435384E+03  0.42426435384E+03  0.00000000000E+00 0. -1.
         -1   -1    0    0    0  501 -0.00000000000E+00 -0.00000000000E+00 -0.37839342664E+02  0.37839342664E+02  0.00000000000E+00 0.  1.
         23    2    1    2    0    0  0.52819707541E+02  0.34366340074E+02  0.18641471022E+03  0.23317071924E+03  0.12508866172E+03 0.  0.
          5    1    3    3  502    0 -0.17145002221E+01  0.70554791647E+02  0.12341549487E+03  0.14223141323E+03  0.41800000000E+01 0.  1.
         -5    1    3    3    0  502  0.54534207763E+02 -0.36188451573E+02  0.62999215349E+02  0.90939306014E+02  0.41800000000E+01 0.  1.
        -11    1    1    2    0    0 -0.24458982181E+02  0.20105306151E+02  0.13827675949E+03  0.14185530430E+03  0.00000000000E+00 0. -1.
         11    1    1    2    0    0 -0.28360725359E+02 -0.54471646225E+02  0.61733541471E+02  0.87077672959E+02  0.00000000000E+00 0.  1.
</event>
<event>
 6    1  0.4966153E-006  0.5487257E+03  0.7561462E-02  0.1001789E+00
          1   -1    0    0  501    0  0.00000000000E+00  0.00000000000E+00  0.48705013046E+03  0.48705013046E+03  0.00000000000E+00 0. -1.
         -1   -1    0    0    0  501 -0.00000000000E+00 -0.00000000000E+00 -0.66827557312E+03  0.66827557312E+03  0.00000000000E+00 0.  1.
          5    1    1    2  502    0 -0.52731867723E+03  0.31241545371E+02 -0.86425279851E+01  0.52833056622E+03  0.41800000000E+01 0. -1.
         -5    1    1    2    0  502  0.53441412876E+02 -0.74270786982E+02 -0.10232915498E+03  0.13733485635E+03  0.41800000000E+01 0.  1.
        -11    1    1    2    0    0  0.44471076180E+03  0.30204872868E+02 -0.86258483331E+02  0.45400498010E+03  0.00000000000E+00 0. -1.
         11    1    1    2    0    0  0.29166502548E+02  0.12824368744E+02  0.16004723642E+02  0.35655300916E+02  0.00000000000E+00 0.  1.
</event>
<event>
 7    1  0.4966153E-006  0.8411868E+02  0.7561462E-02  0.1317753E+00
         -2   -1    0    0    0  501 -0.00000000000E+00  0.00000000000E+00  0.10102090512E+03  0.10102090512E+03  0.00000000000E+00 0.  1.
          2   -1    0    0  501    0  0.00000000000E+00 -0.00000000000E+00 -0.14787305994E+03  0.14787305994E+03  0.00000000000E+00 0. -1.
         23    2    1    2    0    0  0.40256697867E+02  0.37187859333E+02 -0.83981531800E+01  0.13682584492E+03  0.12508894538E+03 0.  0.
          5    1    3    3  502    0  0.45477776467E+02  0.10285076628E+01  0.50056046251E+02  0.67766998950E+02  0.41800000000E+01 0. -1.
         -5    1    3    3    0  502 -0.52210785999E+01  0.36159351670E+02 -0.58454199431E+02  0.69058845966E+02  0.41800000000E+01 0. -1.
        -11    1    1    2    0    0 -0.25292605219E+02  0.16400938090E+02 -0.46939903443E+02  0.55785851111E+02  0.00000000000E+00 0. -1.
         11    1    1    2    0    0 -0.14964092647E+02 -0.53588797423E+02  0.84859018003E+01  0.56282269032E+02  0.00000000000E+00 0.  1.
</event>
<event>
 7    1  0.4966153E-006  0.1240080E+03  0.7561462E-02  0.1236628E+00
          1   -1    0    0  501    0  0.00000000000E+00  0.00000000000E+00  0.63186406762E+02  0.63186406762E+02  0.00000000000E+00 0. -1.
         -1   -1    0    0    0  501 -0.00000000000E+00 -0.00000000000E+00 -0.53684439049E+03  0.53684439049E+03  0.00000000000E+00 0.  1.
         23    2    1    2    0    0 -0.69083944376E+02  0.20781423475E+02 -0.46106935296E+03  0.48315351300E+03  0.12509160623E+03 0.  0.
          5    1    3    3  502    0 -0.12634898680E+02 -0.51069404298E+02 -0.15788014708E+03  0.16646722789E+03  0.41800000000E+01 0. -1.
         -5    1    3    3    0  502 -0.56449045697E+02  0.71850827773E+02 -0.30318920588E+03  0.31668628511E+03  0.41800000000E+01 0. -1.
        -11    1    1    2    0    0  0.80667698986E+02 -0.79493525961E+00  0.13759199517E+02  0.81836575888E+02  0.00000000000E+00 0. -1.
         11    1    1    2    0    0 -0.11583754610E+02 -0.19986488215E+02 -0.26347830279E+02  0.35040708361E+02  0.00000000000E+00 0.  1.
</event>
<event>
 7    1  0.4966153E-006  0.5005825E+02  0.7561462E-02  0.1445028E+00
         -1   -1    0    0    0  501 -0.00000000000E+00  0.00000000000E+00  0.51678915372E+03  0.51678915372E+03  0.00000000000E+00 0.  1.
          1   -1    0    0  501    0  0.00000000000E+00 -0.00000000000E+00 -0.25632916600E+02  0.25632916600E+02  0.00000000000E+00 0. -1.
         23    2    1    2    0    0 -0.65090286064E+01  0.23158352930E+02  0.34828969258E+03  0.37085146853E+03  0.12508567060E+03 0.  0.
          5    1    3    3  502    0  0.18642420586E+02 -0.63786472112E+01 -0.24098265951E+00  0.20143422206E+02  0.41800000000E+01 0.  1.
         -5    1    3    3    0  502 -0.25151449192E+02  0.29537000141E+02  0.34853067524E+03  0.35070804633E+03  0.41800000000E+01 0.  1.
        -11    1    1    2    0    0 -0.13261847707E+02 -0.51966791645E+01 -0.93433296339E+01  0.17034667229E+02  0.00000000000E+00 0. -1.
         11    1    1    2    0    0  0.19770876313E+02 -0.17961673765E+02  0.15220987417E+03  0.15453593456E+03  0.00000000000E+00 0.  1.
</event>
<event>
 7    1  0.4966153E-006  0.1704691E+03  0.7561462E-02  0.1177360E+00
          1   -1    0    0  501    0  0.00000000000E+00  0.00000000000E+00  0.53485021786E+03  0.53485021786E+03  0.00000000000E+00 0. -1.
         -1   -1    0    0    0  501 -0.00000000000E+00 -0.00000000000E+00 -0.90147635555E+02  0.90147635555E+02  0.00000000000E+00 0.  1.
         23    2    1    2    0    0 -0.80706420184E+02  0.14328497812E+03  0.94408661315E+02  0.22717051606E+03  0.12509730941E+03 0.  0.
          5    1    3    3  502    0 -0.39491310666E+02  0.11561780170E+03  0.11988173613E+03  0.17121957465E+03  0.41800000000E+01 0.  1.
         -5    1    3    3    0  502 -0.41215109518E+02  0.27667176417E+02 -0.25473074810E+02  0.55950941402E+02  0.41800000000E+01 0.  1.
        -11    1    1    2    0    0  0.51438910097E+00 -0.30403779777E+02  0.15781308179E+03  0.16071597060E+03  0.00000000000E+00 0. -1.
         11    1    1    2    0    0  0.80192031083E+02 -0.11288119834E+03  0.19248083920E+03  0.23711136676E+03  0.00000000000E+00 0.  1.
</event>
<event>
 7    1  0.4966153E-006  0.9572879E+02  0.7561462E-02  0.1289543E+00
          2   -1    0    0  501    0  0.00000000000E+00  0.00000000000E+00  0.40658596784E+03  0.40658596784E+03  0.00000000000E+00 0.  1.
         -2   -1    0    0    0  501 -0.00000000000E+00 -0.00000000000E+00 -0.33861964730E+02  0.33861964730E+02  0.00000000000E+00 0. -1.
         23    2    1    2    0    0  0.64978333107E+01 -0.31223837508E+02  0.16502637158E+03  0.20952016856E+03  0.12509135802E+03 0.  0.
          5    1    3    3  502    0  0.70945524251E+01 -0.79750336480E+02  0.10836847094E+03  0.13480225049E+03  0.41800000000E+01 0.  1.
         -5    1    3    3    0  502 -0.59671911444E+00  0.48526498972E+02  0.56657900642E+02  0.74717918075E+02  0.41800000000E+01 0.  1.
        -11    1    1    2    0    0  0.84471541665E+01  0.42827488070E+02  0.20746271629E+03  0.21200548766E+03  0.00000000000E+00 0.  1.
         11    1    1    2    0    0 -0.14944987477E+02 -0.11603650563E+02  0.23491524110E+00  0.18922276349E+02  0.00000000000E+00 0. -1.
</event>
<event>
 7    1  0.4966153E-006  0.9131500E+02  0.7561462E-02  0.1299698E+00
          4   -1    0    0  501    0  0.00000000000E+00  0.00000000000E+00  0.39531141719E+02  0.39531141719E+02  0.00000000000E+00 0. -1.
         -4   -1    0    0    0  501 -0.00000000000E+00 -0.00000000000E+00 -0.34441734812E+03  0.34441734812E+03  0.00000000000E+00 0.  1.
         23    2    1    2    0    0 -0.36862162704E+02 -0.16048610794E+02 -0.19486972560E+03  0.23502693476E+03  0.12508826148E+03 0.  0.
          5    1    3    3  502    0 -0.68205849201E+02 -0.39392110184E+02 -0.74856751123E+02  0.10874181256E+03  0.41800000000E+01 0. -1.
         -5    1    3    3    0  502  0.31343686497E+02  0.23343499390E+02 -0.12001297447E+03  0.12628512220E+03  0.41800000000E+01 0. -1.
        -11    1    1    2    0    0 -0.12466954439E+02 -0.33728205310E+00  0.11368489558E+02  0.16875463460E+02  0.00000000000E+00 0. -1.
         11    1    1    2    0    0  0.49329117143E+02  0.16385892847E+02 -0.12138497037E+03  0.13204609162E+03  0.00000000000E+00 0.  1.
</event>
<event>
 7    1  0.4966153E-006  0.1664949E+03  0.7561462E-02  0.1181553E+00
          2   -1    0    0  501    0  0.00000000000E+00  0.00000000000E+00  0.82665214566E+02  0.82665214566E+02  0.00000000000E+00 0. -1.
         -2   -1    0    0    0  501 -0.00000000000E+00 -0.00000000000E+00 -0.36232188818E+03  0.36232188818E+03  0.00000000000E+00 0.  1.
         23    2    1    2    0    0  0.18095247576E+02  0.13196699662E+03 -0.17264520217E+03  0.25134553383E+03  0.12500194143E+03 0.  0.
          5    1    3    3  502    0  0.71026709052E+02  0.86306939090E+02 -0.11734887052E+03  0.16211696687E+03  0.41800000000E+01 0.  1.
         -5    1    3    3    0  502 -0.52931461476E+02  0.45660057528E+02 -0.55296331656E+02  0.89228566962E+02  0.41800000000E+01 0.  1.
        -11    1    1    2    0    0 -0.20994028838E+02 -0.19787650447E+01 -0.44777605384E+02  0.49494431019E+02  0.00000000000E+00 0.  1.
         11    1    1    2    0    0  0.28987812621E+01 -0.12998823157E+03 -0.62233866057E+02  0.14414713790E+03  0.00000000000E+00 0. -1.
</event>
<event>
 7    1  0.4966153E-006  0.1539010E+03  0.7561462E-02  0.1195760E+00
         -1   -1    0    0    0  501 -0.00000000000E+00  0.00000000000E+00  0.22776830369E+03  0.22776830369E+03  0.00000000000E+00 0.  1.
          1   -1    0    0  501    0  0.00000000000E+00 -0.00000000000E+00 -0.12647756638E+03  0.12647756638E+03  0.00000000000E+00 0. -1.
         23    2    1    2    0    0 -0.74127837229E+01 -0.13003836868E+03  0.67635591842E+02  0.19283899955E+03  0.12508948706E+03 0.  0.
          5    1    3    3  502    0  0.45654608204E+02 -0.11479796581E+02  0.21448281937E+01  0.47309636099E+02  0.41800000000E+01 0. -1.
         -5    1    3    3    0  502 -0.53067391927E+02 -0.11855857210E+03  0.65490763648E+02  0.14552936345E+03  0.41800000000E+01 0. -1.
        -11    1    1    2    0    0 -0.14422735821E+01  0.55362114453E+02  0.60069650454E+02  0.81703162579E+02  0.00000000000E+00 0.  1.
         11    1    1    2    0    0  0.88550573050E+01  0.74676254229E+02 -0.26414504981E+02  0.79703707937E+02  0.00000000000E+00 0. -1.
</event>
<event>
 7    1  0.4966153E-006  0.1037145E+03  0.7561462E-02  0.1272673E+00
         -2   -1    0    0    0  501 -0.00000000000E+00  0.00000000000E+00  0.48045219135E+02  0.48045219135E+02  0.00000000000E+00 0.  1.
          2   -1    0    0  501    0  0.00000000000E+00 -0.00000000000E+00 -0.49800384197E+03  0.49800384197E+03  0.00000000000E+00 0. -1.
         23    2    1    2    0    0  0.60366433554E+01  0.29454478329E+02 -0.14590181824E+03  0.19451458989E+03  0.12507828652E+03 0.  0.
          5    1    3    3  502    0  0.40349518477E+01  0.21073109185E+02  0.19224765953E+02  0.29110492834E+02  0.41800000000E+01 0. -1.
         -5    1    3    3    0  502  0.20016915076E+01  0.83813691438E+01 -0.16512658419E+03  0.16540409706E+03  0.41800000000E+01 0. -1.
        -11    1    1    2    0    0 -0.29570297582E+02  0.68838759475E+02 -0.11737751639E+03  0.13925034527E+03  0.00000000000E+00 0. -1.
         11    1    1    2    0    0  0.23533654226E+02 -0.98293237804E+02 -0.18667928821E+03  0.21228412594E+03  0.00000000000E+00 0.  1.
</event>
<event>
 7    1  0.4966153E-006  0.1191350E+03  0.7561462E-02  0.1244531E+00
         -2   -1    0    0    0  501 -0.00000000000E+00  0.00000000000E+00  0.84547567131E+02  0.84547567131E+02  0.00000000000E+00 0.  1.
          2   -1    0    0  501    0  0.00000000000E+00 -0.00000000000E+00 -0.26910217914E+03  0.26910217914E+03  0.00000000000E+00 0. -1.
         23    2    1    2    0    0  0.89187079342E+02  0.52556078613E+02 -0.91058837310E+02  0.18616136677E+03  0.12509143099E+03 0.  0.
          5    1    3    3  502    0  0.13243186618E+02  0.55459488733E+02  0.11627062384E+02  0.58342076258E+02  0.41800000000E+01 0.  1.
         -5    1    3    3    0  502  0.75943892724E+02 -0.29034101204E+01 -0.10268589969E+03  0.12781929052E+03  0.41800000000E+01 0.  1.
        -11    1    1    2    0    0 -0.39859974043E+02 -0.13556483759E+02 -0.95716873518E+02  0.10456727815E+03  0.00000000000E+00 0. -1.
         11    1    1    2    0    0 -0.49327105298E+02 -0.38999594854E+02  0.22210988152E+01  0.62921101356E+02  0.00000000000E+00 0.  1.
</event>
<event>
 7    1  0.4966153E-006  0.1441686E+03  0.7561462E-02  0.1207827E+00
         -3   -1    0    0    0  501 -0.00000000000E+00  0.00000000000E+00  0.90449134002E+03  0.90449134002E+03  0.00000000000E+00 0.  1.
          3   -1    0    0  501    0  0.00000000000E+00 -0.00000000000E+00 -0.55869461363E+02  0.55869461363E+02  0.00000000000E+00 0. -1.
         23    2    1    2    0    0 -0.46943506536E+02 -0.90650115942E+02  0.79702821340E+03  0.81322813608E+03  0.12515946641E+03 0.  0.
          5    1    3    3  502    0 -0.74565126380E+02 -0.99058464267E+02  0.72463550458E+03  0.73517795418E+03  0.41800000000E+01 0.  1.
         -5    1    3    3    0  502  0.27621619845E+02  0.84083483245E+01  0.72392708824E+02  0.78050181904E+02  0.41800000000E+01 0.  1.
        -11    1    1    2    0    0 -0.23241260004E+02  0.47062097060E+02  0.34364288592E+02  0.62736763359E+02  0.00000000000E+00 0.  1.
         11    1    1    2    0    0  0.70184766540E+02  0.43588018882E+02  0.17229376664E+02  0.84395901942E+02  0.00000000000E+00 0. -1.
</event>
<event>
 7    1  0.4966153E-006  0.1573535E+03  0.7561462E-02  0.1191717E+00
         -2   -1    0    0    0  501 -0.00000000000E+00  0.00000000000E+00  0.57865015593E+02  0.57865015593E+02  0.00000000000E+00 0.  1.
          2   -1    0    0  501    0  0.00000000000E+00 -0.00000000000E+00 -0.49751508098E+03  0.49751508098E+03  0.00000000000E+00 0. -1.
         23    2    1    2    0    0  0.52590544977E+02 -0.11950056201E+03 -0.22134170138E+03  0.28580800405E+03  0.12509163307E+03 0.  0.
          5    1    3    3  502    0 -0.21226977552E+02  0.13350048452E+02 -0.15051644482E+02  0.29543743352E+02  0.41800000000E+01 0.  1.
         -5    1    3    3    0  502  0.73817522528E+02 -0.13285061046E+03 -0.20629005690E+03  0.25626426069E+03  0.41800000000E+01 0.  1.
        -11    1    1    2    0    0 -0.25909967463E+01  0.57674156539E+02 -0.16243721282E+03  0.17239161727E+03  0.00000000000E+00 0. -1.
         11    1    1    2    0    0 -0.49999548230E+02  0.61826405470E+02 -0.55871151187E+02  0.97180475259E+02  0.00000000000E+00 0.  1.
</event>
<event>
 7    1  0.1138702E-005  0.2510781E+03  0.7561462E-02  0.1112625E+00
         -2   -1    0    0    0  501 -0.00000000000E+00  0.00000000000E+00  0.42785140827E+02  0.42785140827E+02  0.00000000000E+00 0.  1.
          2   -1    0    0  501    0  0.00000000000E+00 -0.00000000000E+00 -0.15649988094E+04  0.15649988094E+04  0.00000000000E+00 0. -1.
         23    2    1    2    0    0  0.14175390346E+03  0.18404564429E+03 -0.69392556178E+03  0.74239303773E+03  0.12509104226E+03 0.  0.
          5    1    3    3  502    0  0.59186845888E+02  0.11894826927E+02 -0.28103161062E+03  0.28747314344E+03  0.41800000000E+01 0. -1.
         -5    1    3    3    0  502  0.82567057569E+02  0.17215081737E+03 -0.41289395116E+03  0.45491989429E+03  0.41800000000E+01 0. -1.
        -11    1    1    2    0    0 -0.27477942185E+02 -0.11258227271E+03 -0.38700701556E+03  0.40398543975E+03  0.00000000000E+00 0. -1.
         11    1    1    2    0    0 -0.11427596127E+03 -0.71463371588E+02 -0.44128109125E+03  0.46140547276E+03  0.00000000000E+00 0.  1.
</event>
<event>
 7    1  0.5885066E-006  0.2431666E+03  0.7561462E-02  0.1117701E+00
         -1   -1    0    0    0  501 -0.00000000000E+00  0.00000000000E+00  0.33242973555E+02  0.33242973555E+02  0.00000000000E+00 0.  1.
          1   -1    0    0  501    0  0.00000000000E+00 -0.00000000000E+00 -0.18976493140E+04  0.18976493140E+04  0.00000000000E+00 0. -1.
         23    2    1    2    0    0 -0.13846062370E+03  0.17819152817E+03 -0.93044057545E+03  0.96555242499E+03  0.12509298912E+03 0.  0.
          5    1    3    3  502    0 -0.15596225711E+03  0.15673995685E+03 -0.71836264354E+03  0.75163421938E+03  0.41800000000E+01 0.  1.
         -5    1    3    3    0  502  0.17501633413E+02  0.21451571320E+02 -0.21207793191E+03  0.21391820561E+03  0.41800000000E+01 0.  1.
        -11    1    1    2    0    0  0.53216773936E+02 -0.12711566275E+03 -0.65117213282E+03  0.66559414309E+03  0.00000000000E+00 0. -1.
         11    1    1    2    0    0  0.85243849761E+02 -0.51075865422E+02 -0.28279363214E+03  0.29974571945E+03  0.00000000000E+00 0.  1.
</event>
<event>
 7    1  0.4966153E-006  0.1096820E+03  0.7561462E-02  0.1261160E+00
         -1   -1    0    0    0  501 -0.00000000000E+00  0.00000000000E+00  0.21276538875E+03  0.21276538875E+03  0.00000000000E+00 0.  1.
          1   -1    0    0  501    0  0.00000000000E+00 -0.00000000000E+00 -0.81667102933E+02  0.81667102933E+02  0.00000000000E+00 0. -1.
         23    2    1    2    0    0 -0.10950943262E+02  0.74563446368E+02  0.77179088806E+02  0.16518178170E+03  0.12509507809E+03 0.  0.
          5    1    3    3  502    0 -0.43187621195E+02  0.90013847557E+02  0.27144376535E+02  0.10354686356E+03  0.41800000000E+01 0. -1.
         -5    1    3    3    0  502  0.32236677933E+02 -0.15450401189E+02  0.50034712271E+02  0.61634918132E+02  0.41800000000E+01 0. -1.
        -11    1    1    2    0    0  0.23212856924E+02 -0.60433396256E+02 -0.73824679615E+01  0.65157754280E+02  0.00000000000E+00 0. -1.
         11    1    1    2    0    0 -0.12261913662E+02 -0.14130050112E+02  0.61301664975E+02  0.64092955709E+02  0.00000000000E+00 0.  1.
</event>
<event>
 6    1  0.4966153E-006  0.1212388E+03  0.7561462E-02  0.1241067E+00
         -1   -1    0    0    0  501 -0.00000000000E+00  0.00000000000E+00  0.14893259514E+03  0.14893259514E+03  0.00000000000E+00 0.  1.
          1   -1    0    0  501    0  0.00000000000E+00 -0.00000000000E+00 -0.33197107123E+03  0.33197107123E+03  0.00000000000E+00 0. -1.
          5    1    1    2  502    0  0.32488244718E+02 -0.35731530928E+02 -0.65602701605E+02  0.81568469430E+02  0.41800000000E+01 0. -1.
         -5    1    1    2    0  502  0.61349133912E+02  0.15988513106E+02  0.11536384751E+03  0.13170284164E+03  0.41800000000E+01 0.  1.
        -11    1    1    2    0    0 -0.10638859058E+03  0.33794544914E+02 -0.21182788554E+03  0.23944029853E+03  0.00000000000E+00 0. -1.
         11    1    1    2    0    0  0.12551211947E+02 -0.14051527092E+02 -0.20971736460E+02  0.28192056773E+02  0.00000000000E+00 0.  1.
</event>
<event>
 7    1  0.4966153E-006  0.9574969E+02  0.7561462E-02  0.1289496E+00
         -3   -1    0    0    0  501 -0.00000000000E+00  0.00000000000E+00  0.21095382184E+02  0.21095382184E+02  0.00000000000E+00 0.  1.
          3   -1    0    0  501    0  0.00000000000E+00 -0.00000000000E+00 -0.68792791585E+03  0.68792791585E+03  0.00000000000E+00 0. -1.
         23    2    1    2    0    0 -0.33427180260E+02  0.38485178013E+02 -0.32485743437E+03  0.35182047763E+03  0.12508721160E+03 0.  0.
          5    1    3    3  502    0 -0.33652380733E+02  0.59134897072E+02 -0.32361217280E+03  0.33071396942E+03  0.41800000000E+01 0. -1.
         -5    1    3    3    0  502  0.22520047344E+00 -0.20649719059E+02 -0.12452615642E+01  0.21106508210E+02  0.41800000000E+01 0. -1.
        -11    1    1    2    0    0  0.63928490947E+02 -0.22119897858E+02 -0.20266608061E+03  0.21365786217E+03  0.00000000000E+00 0.  1.
         11    1    1    2    0    0 -0.30501310687E+02 -0.16365280155E+02 -0.13930901869E+03  0.14354495824E+03  0.00000000000E+00 0. -1.
</event>
<event>
 7    1  0.4966153E-006  0.1096411E+03  0.7561462E-02  0.1261236E+00
          4   -1    0    0  501    0  0.00000000000E+00  0.00000000000E+00  0.58873298624E+02  0.58873298624E+02  0.00000000000E+00 0. -1.
         -4   -1    0    0    0  501 -0.00000000000E+00 -0.00000000000E+00 -0.36725639519E+03  0.36725639519E+03  0.00000000000E+00 0.  1.
         23    2    1    2    0    0 -0.32121419282E+02  0.88230760284E+02 -0.21625156571E+03  0.26688728970E+03  0.12509049962E+03 0.  0.
          5    1    3    3  502    0 -0.54207042371E+00  0.12260391396E+02 -0.17367189298E+03  0.17415513156E+03  0.41800000000E+01 0. -1.
         -5    1    3    3    0  502 -0.31579348858E+02  0.75970368888E+02 -0.42579672728E+02  0.92732158138E+02  0.41800000000E+01 0. -1.
        -11    1    1    2    0    0  0.55463753201E+02 -0.34400703959E+02 -0.72079705527E+02  0.97237442895E+02  0.00000000000E+00 0. -1.
         11    1    1    2    0    0 -0.23342333919E+02 -0.53830056325E+02 -0.20051825329E+02  0.62004961219E+02  0.00000000000E+00 0.  1.
</event>
<event>
 7    1  0.4966153E-006  0.1053838E+03  0.7561462E-02  0.1269365E+00
          1   -1    0    0  501    0  0.00000000000E+00  0.00000000000E+00  0.98562724842E+02  0.98562724842E+02  0.00000000000E+00 0. -1.
         -1   -1    0    0    0  501 -0.00000000000E+00 -0.00000000000E+00 -0.15393394295E+03  0.15393394295E+03  0.00000000000E+00 0.  1.
         23    2    1    2    0    0 -0.38556665215E+02 -0.55145449551E+02 -0.56297523753E+02  0.15278479157E+03  0.12508454867E+03 0.  0.
          5    1    3    3  502    0 -0.38578721868E+02  0.19761596597E+02 -0.63953502843E+02  0.77371580098E+02  0.41800000000E+01 0.  1.
         -5    1    3    3    0  502  0.22056653218E-01 -0.74907046148E+02  0.76559790895E+01  0.75413211475E+02  0.41800000000E+01 0.  1.
        -11    1    1    2    0    0  0.39478979618E+01  0.57380892465E+02 -0.17916822264E+02  0.60242553385E+02  0.00000000000E+00 0.  1.
         11    1    1    2    0    0  0.34608767253E+02 -0.22354429135E+01  0.18843127908E+02  0.39469322836E+02  0.00000000000E+00 0. -1.
</event>
<event>
 7    1  0.4966153E-006  0.9500512E+02  0.7561462E-02  0.1291165E+00
         -1   -1    0    0    0  501 -0.00000000000E+00  0.00000000000E+00  0.19288313687E+03  0.19288313687E+03  0.00000000000E+00 0.  1.
          1   -1    0    0  501    0  0.00000000000E+00 -0.00000000000E+00 -0.74092344932E+02  0.74092344932E+02  0.00000000000E+00 0. -1.
         23    2    1    2    0    0  0.44712252680E+02  0.24794801886E+02  0.74609168660E+02  0.15436357441E+03  0.12509043655E+03 0.  0.
          5    1    3    3  502    0  0.23941232467E+02 -0.35676044141E+02  0.79119826179E+02  0.90129806569E+02  0.41800000000E+01 0.  1.
         -5    1    3    3    0  502  0.20771020213E+02  0.60470846027E+02 -0.45106575187E+01  0.64233767842E+02  0.41800000000E+01 0.  1.
        -11    1    1    2    0    0  0.78851152764E+01  0.14909863821E+02 -0.16086620576E+02  0.23307905175E+02  0.00000000000E+00 0.  1.
         11    1    1    2    0    0 -0.52597367956E+02 -0.39704665707E+02  0.60268243854E+02  0.89304002217E+02  0.00000000000E+00 0. -1.
</event>
<event>
 7    1  0.4966153E-006  0.1397044E+03  0.7561462E-02  0.1213727E+00
         -2   -1    0    0    0  501 -0.00000000000E+00  0.00000000000E+00  0.47092063396E+03  0.47092063396E+03  0.00000000000E+00 0.  1.
          2   -1    0    0  501    0  0.00000000000E+00 -0.00000000000E+00 -0.49061675353E+02  0.49061675353E+02  0.00000000000E+00 0. -1.
         23    2    1    2    0    0 -0.86557157011E+02  0.19253843786E+02  0.32843232219E+03  0.36246073085E+03  0.12508852553E+03 0.  0.
          5    1    3    3  502    0 -0.68027810227E+01 -0.47760860054E+02  0.89141975204E+02  0.10144526468E+03  0.41800000000E+01 0. -1.
         -5    1    3    3    0  502 -0.79754375988E+02  0.67014703840E+02  0.23929034699E+03  0.26101546617E+03  0.41800000000E+01 0. -1.
        -11    1    1    2    0    0  0.37665589498E+02  0.36586869808E+02  0.35719653826E+02  0.63507395979E+02  0.00000000000E+00 0.  1.
         11    1    1    2    0    0  0.48891567513E+02 -0.55840713594E+02  0.57706982595E+02  0.94014182487E+02  0.00000000000E+00 0. -1.
</event>
<event>
 7    1  0.4966153E-006  0.1120840E+03  0.7561462E-02  0.1256759E+00
          1   -1    0    0  501    0  0.00000000000E+00  0.00000000000E+00  0.50060755704E+02  0.50060755704E+02  0.00000000000E+00 0. -1.
         -1   -1    0    0    0  501 -0.00000000000E+00 -0.00000000000E+00 -0.44907396483E+03  0.44907396483E+03  0.00000000000E+00 0.  1.
         23    2    1    2    0    0  0.59510193203E+02 -0.12199189569E+02 -0.35514438530E+03  0.38139963062E+03  0.12509140862E+03 0.  0.
          5    1    3    3  502    0  0.85937425633E+02 -0.67305896137E+00 -0.14024965919E+03  0.16453915472E+03  0.41800000000E+01 0. -1.
         -5    1    3    3    0  502 -0.26427232430E+02 -0.11526130607E+02 -0.21489472611E+03  0.21686047591E+03  0.41800000000E+01 0. -1.
        -11    1    1    2    0    0 -0.74330309753E+02  0.34715485990E+02 -0.29437205790E+02  0.87159101648E+02  0.00000000000E+00 0. -1.
         11    1    1    2    0    0  0.14820116550E+02 -0.22516296421E+02 -0.14431618040E+02  0.30575988264E+02  0.00000000000E+00 0.  1.
</event>
<event>
 7    1  0.4966153E-006  0.9725718E+02  0.7561462E-02  0.1286172E+00
          3   -1    0    0  501    0  0.00000000000E+00  0.00000000000E+00  0.81246963619E+02  0.81246963619E+02  0.00000000000E+00 0. -1.
         -3   -1    0    0    0  501 -0.00000000000E+00 -0.00000000000E+00 -0.21527422884E+03  0.21527422884E+03  0.00000000000E+00 0.  1.
         23    2    1    2    0    0  0.15204601138E+02 -0.30595573659E+02 -0.14845656606E+03  0.19708268842E+03  0.12503985383E+03 0.  0.
          5    1    3    3  502    0  0.19754472770E+02 -0.69875229496E+02 -0.43270949610E+02  0.84632348259E+02  0.41800000000E+01 0.  1.
         -5    1    3    3    0  502 -0.45498716318E+01  0.39279655837E+02 -0.10518561645E+03  0.11245034016E+03  0.41800000000E+01 0.  1.
        -11    1    1    2    0    0 -0.38285254797E+02  0.41524264043E+02 -0.16961364709E+02  0.58972138607E+02  0.00000000000E+00 0.  1.
         11    1    1    2    0    0  0.23080653659E+02 -0.10928690383E+02  0.31390665554E+02  0.40466365425E+02  0.00000000000E+00 0. -1.
</event>
<event>
 7    1  0.4966153E-006  0.9208362E+02  0.7561462E-02  0.1297883E+00
          1   -1    0    0  501    0  0.00000000000E+00  0.00000000000E+00  0.20111603467E+03  0.20111603467E+03  0.00000000000E+00 0. -1.
         -1   -1    0    0    0  501 -0.00000000000E+00 -0.00000000000E+00 -0.66246608668E+02  0.66246608668E+02  0.00000000000E+00 0.  1.
         23    2    1    2    0    0  0.20259727197E+02 -0.35726770793E+02  0.71869501552E+02  0.14999652099E+03  0.12508745883E+03 0.  0.
          5    1    3    3  502    0  0.44880928703E+02  0.34132180949E+02  0.39965106756E+02  0.69238614195E+02  0.41800000000E+01 0.  1.
         -5    1    3    3    0  502 -0.24621201506E+02 -0.69858951742E+02  0.31904394795E+02  0.80757906792E+02  0.41800000000E+01 0.  1.
        -11    1    1    2    0    0 -0.10583545472E+02 -0.49090388212E+01 -0.20734142259E+02  0.23791064544E+02  0.00000000000E+00 0.  1.
         11    1    1    2    0    0 -0.96761817247E+01  0.40635809614E+02  0.83734066713E+02  0.93575057810E+02  0.00000000000E+00 0. -1.
</event>
<event>
 7    1  0.4966153E-006  0.1229687E+03  0.7561462E-02  0.1238278E+00
          1   -1    0    0  501    0  0.00000000000E+00  0.00000000000E+00  0.63961717282E+03  0.63961717282E+03  0.00000000000E+00 0. -1.
         -1   -1    0    0    0  501 -0.00000000000E+00 -0.00000000000E+00 -0.23862263804E+02  0.23862263804E+02  0.00000000000E+00 0.  1.
         23    2    1    2    0    0  0.58445396768E+02 -0.16591535682E+02  0.31655613448E+03  0.34575435956E+03  0.12508855830E+03 0.  0.
          5    1    3    3  502    0  0.68476848384E+02  0.41345857988E+02  0.18479631372E+03  0.20140930640E+03  0.41800000000E+01 0. -1.
         -5    1    3    3    0  502 -0.10031451617E+02 -0.57937393670E+02  0.13175982076E+03  0.14434505317E+03  0.41800000000E+01 0. -1.
        -11    1    1    2    0    0  0.23257517144E+02  0.86001299629E+01  0.66940603531E+02  0.71385704032E+02  0.00000000000E+00 0.  1.
         11    1    1    2    0    0 -0.81702913911E+02  0.79914057192E+01  0.23225817100E+03  0.24633937303E+03  0.00000000000E+00 0. -1.
</event>
<event>
 7    1  0.4966153E-006  0.6744749E+02  0.7561462E-02  0.1368995E+00
         -2   -1    0    0    0  501 -0.00000000000E+00  0.00000000000E+00  0.52411870902E+02  0.52411870902E+02  0.00000000000E+00 0.  1.
          2   -1    0    0  501    0  0.00000000000E+00 -0.00000000000E+00 -0.26360844870E+03  0.26360844870E+03  0.00000000000E+00 0. -1.
         23    2    1    2    0    0 -0.30882044877E+02  0.14971850870E+02 -0.77041501492E+02  0.15086381447E+03  0.12508653225E+03 0.  0.
          5    1    3    3  502    0 -0.47076822573E+02  0.22671029077E+02 -0.10501730798E+03  0.11737252727E+03  0.41800000000E+01 0. -1.
         -5    1    3    3    0  502  0.16194777696E+02 -0.76991782075E+01  0.27975806487E+02  0.33491287200E+02  0.41800000000E+01 0. -1.
        -11    1    1    2    0    0  0.39894047643E+02  0.68287824419E+01 -0.14183230213E+02  0.42887426202E+02  0.00000000000E+00 0.  1.
         11    1    1    2    0    0 -0.90120027660E+01 -0.21800633312E+02 -0.11997184610E+03  0.12226907893E+03  0.00000000000E+00 0. -1.
</event>
<event>
 7    1  0.4966153E-006  0.1263162E+03  0.7561462E-02  0.1233026E+00
         -2   -1    0    0    0  501 -0.00000000000E+00  0.00000000000E+00  0.99899088567E+03  0.99899088567E+03  0.00000000000E+00 0. -1.
          2   -1    0    0  501    0  0.00000000000E+00 -0.00000000000E+00 -0.27380582862E+02  0.27380582862E+02  0.00000000000E+00 0.  1.
         23    2    1    2    0    0 -0.11254972511E+03  0.50595907699E+02  0.55790484914E+03  0.58492485512E+03  0.12510746957E+03 0.  0.
          5    1    3    3  502    0 -0.70216005022E+01  0.13348717864E+02 -0.24316584043E+00  0.15653200052E+02  0.41800000000E+01 0. -1.
         -5    1    3    3    0  502 -0.10552812461E+03  0.37247189835E+02  0.55814801498E+03  0.56927165507E+03  0.41800000000E+01 0. -1.
        -11    1    1    2    0    0  0.60231632845E+02 -0.16164581144E+02  0.77590572842E+02  0.99546171562E+02  0.00000000000E+00 0.  1.
         11    1    1    2    0    0  0.52318092266E+02 -0.34431326555E+02  0.33611488083E+03  0.34190044185E+03  0.00000000000E+00 0. -1.
</event>
<event>
 7    1  0.4966153E-006  0.1413572E+03  0.7561462E-02  0.1211514E+00
          1   -1    0    0  501    0  0.00000000000E+00  0.00000000000E+00  0.26339533562E+03  0.26339533562E+03  0.00000000000E+00 0. -1.
         -1   -1    0    0    0  501 -0.00000000000E+00 -0.00000000000E+00 -0.14101480718E+03  0.14101480718E+03  0.00000000000E+00 0.  1.
         23    2    1    2    0    0  0.88624325982E+02 -0.80063046367E+02 -0.46062653955E+02  0.17898051225E+03  0.12509153899E+03 0.  0.
          5    1    3    3  502    0 -0.49779666560E+01  0.38171010298E+01  0.30723329058E+02  0.31634565916E+02  0.41800000000E+01 0. -1.
         -5    1    3    3    0  502  0.93602292638E+02 -0.83880147397E+02 -0.76785983013E+02  0.14734594634E+03  0.41800000000E+01 0. -1.
        -11    1    1    2    0    0 -0.23985843485E+02 -0.19365189207E+02  0.41671608270E+02  0.51834874135E+02  0.00000000000E+00 0. -1.
         11    1    1    2    0    0 -0.64638482497E+02  0.99428235574E+02  0.12677157413E+03  0.17359475642E+03  0.00000000000E+00 0.  1.
</event>
<event>
 7    1  0.4966153E-006  0.8132690E+02  0.7561462E-02  0.1325328E+00
          1   -1    0    0  501    0  0.00000000000E+00  0.00000000000E+00  0.41358009970E+02  0.41358009970E+02  0.00000000000E+00 0.  1.
         -1   -1    0    0    0  501 -0.00000000000E+00 -0.00000000000E+00 -0.34632680674E+03  0.34632680674E+03  0.00000000000E+00 0. -1.
         23    2    1    2    0    0  0.25048106824E+01  0.65623538555E+01 -0.23879313517E+03  0.26966661951E+03  0.12509430725E+03 0.  0.
          5    1    3    3  502    0 -0.37524725357E+02  0.17385180584E+02 -0.18556139104E+02  0.45520898668E+02  0.41800000000E+01 0. -1.
         -5    1    3    3    0  502  0.40029536040E+02 -0.10822826728E+02 -0.22023699607E+03  0.22414572084E+03  0.41800000000E+01 0. -1.
        -11    1    1    2    0    0  0.32971597070E+02  0.16727053439E+02 -0.65919266515E+02  0.75579562237E+02  0.00000000000E+00 0. -1.
         11    1    1    2    0    0 -0.35476407752E+02 -0.23289407295E+02 -0.25639508156E+00  0.42438634963E+02  0.00000000000E+00 0.  1.
</event>
<event>
 7    1  0.4966153E-006  0.1143173E+03  0.7561462E-02  0.1252778E+00
          2   -1    0    0  501    0  0.00000000000E+00  0.00000000000E+00  0.62520318118E+03  0.62520318118E+03  0.00000000000E+00 0. -1.
         -2   -1    0    0    0  501 -0.00000000000E+00 -0.00000000000E+00 -0.28546336837E+02  0.28546336837E+02  0.00000000000E+00 0.  1.
         23    2    1    2    0    0 -0.78560686468E+02  0.18598234335E+02  0.27855250244E+03  0.31312285796E+03  0.11805402060E+03 0.  0.
          5    1    3    3  502    0 -0.41658720967E+02 -0.25644131218E+02  0.23683371390E+03  0.24186928482E+03  0.41800000000E+01 0. -1.
         -5    1    3    3    0  502 -0.36901965500E+02  0.44242365553E+02  0.41718788540E+02  0.71253573137E+02  0.41800000000E+01 0.  1.
        -11    1    1    2    0    0  0.97708427757E+02 -0.41677392698E+01  0.25842575752E+03  0.27631174252E+03  0.00000000000E+00 0.  1.
         11    1    1    2    0    0 -0.19147741289E+02 -0.14430495065E+02  0.59678584376E+02  0.64314917534E+02  0.00000000000E+00 0. -1.
</event>
<event>
 7    1  0.4966153E-006  0.1928526E+03  0.7561462E-02  0.1155913E+00
          1   -1    0    0  501    0  0.00000000000E+00  0.00000000000E+00  0.72793208676E+03  0.72793208676E+03  0.00000000000E+00 0. -1.
         -1   -1    0    0    0  501 -0.00000000000E+00 -0.00000000000E+00 -0.14568271222E+03  0.14568271222E+03  0.00000000000E+00 0.  1.
         23    2    1    2    0    0 -0.18430229945E+03  0.32947553191E+02 -0.29880358836E+02  0.22714639298E+03  0.12509903738E+03 0.  0.
          5    1    3    3  502    0 -0.17917837054E+02  0.20929520165E+02 -0.51822242560E+02  0.58839705327E+02  0.41800000000E+01 0. -1.
         -5    1    3    3    0  502 -0.16638446240E+03  0.12018033026E+02  0.21941883723E+02  0.16830668765E+03  0.41800000000E+01 0. -1.
        -11    1    1    2    0    0  0.11363891666E+03 -0.15658047815E+01  0.22942495791E+03  0.25603137784E+03  0.00000000000E+00 0.  1.
         11    1    1    2    0    0  0.70663382795E+02 -0.31381748409E+02  0.38270477547E+03  0.39043702817E+03  0.00000000000E+00 0. -1.
</event>
<event>
 7    1  0.4966153E-006  0.1346858E+03  0.7561462E-02  0.1220664E+00
          1   -1    0    0  501    0  0.00000000000E+00  0.00000000000E+00  0.54523792662E+03  0.54523792662E+03  0.00000000000E+00 0. -1.
         -1   -1    0    0    0  501 -0.00000000000E+00 -0.00000000000E+00 -0.12294836965E+03  0.12294836965E+03  0.00000000000E+00 0.  1.
         23    2    1    2    0    0 -0.82668052513E+00 -0.13255627618E+03 -0.31528785733E+02  0.18497210958E+03  0.12509503282E+03 0.  0.
          5    1    3    3  502    0  0.86238132246E+01 -0.94209076443E+02 -0.78827303409E+02  0.12321094270E+03  0.41800000000E+01 0. -1.
         -5    1    3    3    0  502 -0.94504937498E+01 -0.38347199740E+02  0.47298517677E+02  0.61761166880E+02  0.41800000000E+01 0. -1.
        -11    1    1    2    0    0 -0.10954160211E+02  0.34437322072E+02  0.27014708083E+02  0.45118923194E+02  0.00000000000E+00 0.  1.
         11    1    1    2    0    0  0.11780840736E+02  0.98118954111E+02  0.42680363463E+03  0.43809526349E+03  0.00000000000E+00 0. -1.
</event>
<event>
 7    1  0.4966153E-006  0.1038589E+03  0.7561462E-02  0.1272384E+00
          2   -1    0    0  501    0  0.00000000000E+00  0.00000000000E+00  0.35025325731E+03  0.35025325731E+03  0.00000000000E+00 0. -1.
         -2   -1    0    0    0  501 -0.00000000000E+00 -0.00000000000E+00 -0.39973236672E+02  0.39973236672E+02  0.00000000000E+00 0.  1.
         23    2    1    2    0    0  0.15835358526E+02 -0.44062828439E+02  0.16445193197E+03  0.21185955236E+03  0.12509092919E+03 0.  0.
          5    1    3    3  502    0  0.25541343564E+02 -0.84831797386E+02  0.13037880226E+03  0.15768607598E+03  0.41800000000E+01 0.  1.
         -5    1    3    3    0  502 -0.97059850377E+01  0.40768968947E+02  0.34073129714E+02  0.54173476380E+02  0.41800000000E+01 0.  1.
        -11    1    1    2    0    0  0.96875394259E+01  0.49813515534E+02  0.14337336104E+03  0.15208930076E+03  0.00000000000E+00 0. -1.
         11    1    1    2    0    0 -0.25522897952E+02 -0.57506870951E+01  0.24547276307E+01  0.26277640870E+02  0.00000000000E+00 0.  1.
</event>
<event>
 7    1  0.4966153E-006  0.9112911E+02  0.7561462E-02  0.1300140E+00
          4   -1    0    0  501    0  0.00000000000E+00  0.00000000000E+00  0.49982217528E+02  0.49982217528E+02  0.00000000000E+00 0. -1.
         -4   -1    0    0    0  501 -0.00000000000E+00 -0.00000000000E+00 -0.39119592531E+03  0.39119592531E+03  0.00000000000E+00 0.  1.
         23    2    1    2    0    0 -0.40504142654E+02 -0.27789026898E+02 -0.30026110163E+03  0.32896332149E+03  0.12508925673E+03 0.  0.
          5    1    3    3  502    0  0.18478676063E+02 -0.14828821580E+02 -0.14720529924E+01  0.24103832860E+02  0.41800000000E+01 0. -1.
         -5    1    3    3    0  502 -0.58982818717E+02 -0.12960205318E+02 -0.29878904863E+03  0.30485948863E+03  0.41800000000E+01 0. -1.
        -11    1    1    2    0    0  0.36519485708E+02  0.57266190762E+02 -0.89226940380E+01  0.68503313129E+02  0.00000000000E+00 0. -1.
         11    1    1    2    0    0  0.39846569456E+01 -0.29477163864E+02 -0.32029912122E+02  0.43711508221E+02  0.00000000000E+00 0.  1.
</event>
<event>
 6    1  0.4966153E-006  0.1276819E+03  0.7561462E-02  0.1230937E+00
         -2   -1    0    0    0  501 -0.00000000000E+00  0.00000000000E+00  0.20791896813E+03  0.20791896813E+03  0.00000000000E+00 0.  1.
          2   -1    0    0  501    0  0.00000000000E+00 -0.00000000000E+00 -0.32200054978E+03  0.32200054978E+03  0.00000000000E+00 0. -1.
          5    1    1    2  502    0 -0.55732891529E+02  0.43366642435E+02  0.33744926857E+02  0.78377377877E+02  0.41800000000E+01 0. -1.
         -5    1    1    2    0  502  0.79570192844E+02 -0.38468188568E+02  0.13009499314E+03  0.15733212247E+03  0.41800000000E+01 0.  1.
        -11    1    1    2    0    0 -0.43960081092E+02 -0.37532866444E+02 -0.17985224646E+03  0.18891277181E+03  0.00000000000E+00 0. -1.
         11    1    1    2    0    0  0.20122779776E+02  0.32634412578E+02 -0.98069255187E+02  0.10529724575E+03  0.00000000000E+00 0.  1.
</event>
<event>
 7    1  0.4966153E-006  0.1230169E+03  0.7561462E-02  0.1238201E+00
         -2   -1    0    0    0  501 -0.00000000000E+00  0.00000000000E+00  0.18563099199E+02  0.18563099199E+02  0.00000000000E+00 0.  1.
          2   -1    0    0  501    0  0.00000000000E+00 -0.00000000000E+00 -0.83479036647E+03  0.83479036647E+03  0.00000000000E+00 0. -1.
         23    2    1    2    0    0 -0.36494615821E+02 -0.48647665733E+02 -0.43695254101E+03  0.45855625794E+03  0.12509143150E+03 0.  0.
          5    1    3    3  502    0 -0.16430060290E+02 -0.89858044902E+02 -0.25598386278E+03  0.27182646214E+03  0.41800000000E+01 0. -1.
         -5    1    3    3    0  502 -0.20064555530E+02  0.41210379168E+02 -0.18096867824E+03  0.18672979581E+03  0.41800000000E+01 0. -1.
        -11    1    1    2    0    0 -0.29317896284E+02  0.25326929569E+02 -0.16252792018E+03  0.16708176813E+03  0.00000000000E+00 0. -1.
         11    1    1    2    0    0  0.65812512105E+02  0.23320736165E+02 -0.21674680608E+03  0.22771543959E+03  0.00000000000E+00 0.  1.
</event>
<event>
 7    1  0.4966153E-006  0.1255599E+03  0.7561462E-02  0.1234197E+00
         -4   -1    0    0    0  501 -0.00000000000E+00  0.00000000000E+00  0.27321217247E+03  0.27321217247E+03  0.00000000000E+00 0.  1.
          4   -1    0    0  501    0  0.00000000000E+00 -0.00000000000E+00 -0.67199427242E+02  0.67199427242E+02  0.00000000000E+00 0. -1.
         23    2    1    2    0    0  0.25730411504E+02 -0.69220039396E+02  0.15488539314E+03  0.21234766233E+03  0.12509427149E+03 0.  0.
          5    1    3    3  502    0  0.55980118886E+02  0.20441183152E+01  0.10801949528E+03  0.12175235476E+03  0.41800000000E+01 0.  1.
         -5    1    3    3    0  502 -0.30249707383E+02 -0.71264157711E+02  0.46865897858E+02  0.90595307566E+02  0.41800000000E+01 0.  1.
        -11    1    1    2    0    0  0.76138621381E+01  0.81519965268E+02  0.35583809075E+02  0.89273081622E+02  0.00000000000E+00 0.  1.
         11    1    1    2    0    0 -0.33344273642E+02 -0.12299925872E+02  0.15543543016E+02  0.38790855761E+02  0.00000000000E+00 0. -1.
</event>
<event>
 7    1  0.4966153E-006  0.8790700E+02  0.7561462E-02  0.1308001E+00
         -2   -1    0    0    0  501 -0.00000000000E+00  0.00000000000E+00  0.22037952789E+03  0.22037952789E+03  0.00000000000E+00 0. -1.
          2   -1    0    0  501    0  0.00000000000E+00 -0.00000000000E+00 -0.65675403564E+02  0.65675403564E+02  0.00000000000E+00 0.  1.
         23    2    1    2    0    0  0.46340598280E+02 -0.98704472747E+01  0.10710892719E+03  0.17135912427E+03  0.12508697138E+03 0.  0.
          5    1    3    3  502    0  0.81290827983E+01  0.20652444089E+02 -0.23039282247E+02  0.32262770502E+02  0.41800000000E+01 0.  1.
         -5    1    3    3    0  502  0.38211515482E+02 -0.30522891364E+02  0.13014820944E+03  0.13909635377E+03  0.41800000000E+01 0.  1.
        -11    1    1    2    0    0 -0.29566952986E+02 -0.41017918577E+02  0.19482613673E+02  0.54187144129E+02  0.00000000000E+00 0.  1.
         11    1    1    2    0    0 -0.16773645294E+02  0.50888365852E+02  0.28112583465E+02  0.60508663055E+02  0.00000000000E+00 0. -1.
</event>
<event>
 7    1  0.4966153E-006  0.1354824E+03  0.7561462E-02  0.1219540E+00
          2   -1    0    0  501    0  0.00000000000E+00  0.00000000000E+00  0.79348229824E+02  0.79348229824E+02  0.00000000000E+00 0. -1.
         -2   -1    0    0    0  501 -0.00000000000E+00 -0.00000000000E+00 -0.45690096414E+03  0.45690096414E+03  0.00000000000E+00 0.  1.
         23    2    1    2    0    0  0.11713730736E+03  0.35229836127E+02 -0.33664157104E+03  0.37939041133E+03  0.12508895524E+03 0.  0.
          5    1    3    3  502    0  0.91793245634E+02  0.49510242178E+02 -0.33394576509E+03  0.34987785075E+03  0.41800000000E+01 0. -1.
         -5    1    3    3    0  502  0.25344061730E+02 -0.14280406051E+02 -0.26958059493E+01  0.29512560575E+02  0.41800000000E+01 0. -1.
        -11    1    1    2    0    0 -0.30308906595E+02 -0.40061569280E+02 -0.48164112993E+02  0.69594115646E+02  0.00000000000E+00 0.  1.
         11    1    1    2    0    0 -0.86828400770E+02  0.48317331528E+01  0.72529497162E+01  0.87264666991E+02  0.00000000000E+00 0. -1.
</event>
<event>
 7    1  0.4966153E-006  0.2584768E+03  0.7561462E-02  0.1108062E+00
          1   -1    0    0  501    0  0.00000000000E+00  0.00000000000E+00  0.37499476769E+03  0.37499476769E+03  0.00000000000E+00 0. -1.
         -1   -1    0    0    0  501 -0.00000000000E+00 -0.00000000000E+00 -0.19077952371E+03  0.19077952371E+03  0.00000000000E+00 0.  1.
         23    2    1    2    0    0 -0.24266012618E+03 -0.17940744926E+02  0.11196282620E+03  0.29561647618E+03  0.12509044476E+03 0.  0.
          5    1    3    3  502    0 -0.24041510356E+03 -0.44018173819E+02  0.11252967639E+03  0.26910485338E+03  0.41800000000E+01 0.  1.
         -5    1    3    3    0  502 -0.22450226239E+01  0.26077428893E+02 -0.56685018726E+00  0.26511622798E+02  0.41800000000E+01 0.  1.
        -11    1    1    2    0    0  0.28171791887E+02 -0.95751771768E+01 -0.19154071301E+02  0.35386612207E+02  0.00000000000E+00 0.  1.
         11    1    1    2    0    0  0.21448833430E+03  0.27515922103E+02  0.91406489086E+02  0.23477120301E+03  0.00000000000E+00 0. -1.
</event>
<event>
 7    1  0.4966153E-006  0.9565433E+02  0.7561462E-02  0.1289709E+00
         -1   -1    0    0    0  501 -0.00000000000E+00  0.00000000000E+00  0.31143857832E+03  0.31143857832E+03  0.00000000000E+00 0.  1.
          1   -1    0    0  501    0  0.00000000000E+00 -0.00000000000E+00 -0.42309269308E+02  0.42309269308E+02  0.00000000000E+00 0. -1.
         23    2    1    2    0    0 -0.72294857694E+01 -0.27502437311E+02  0.19143761156E+03  0.23044301354E+03  0.12508786450E+03 0.  0.
          5    1    3    3  502    0  0.36128783425E+02  0.20522560769E+02  0.14446308798E+03  0.15037792618E+03  0.41800000000E+01 0.  1.
         -5    1    3    3    0  502 -0.43358269194E+02 -0.48024998080E+02  0.46974523581E+02  0.80065087358E+02  0.41800000000E+01 0.  1.
        -11    1    1    2    0    0  0.26209816279E+02  0.49284262979E+02  0.76089857454E+02  0.94369271769E+02  0.00000000000E+00 0.  1.
         11    1    1    2    0    0 -0.18980330510E+02 -0.21781825668E+02  0.16018399964E+01  0.28935562325E+02  0.00000000000E+00 0. -1.
</event>
<event>
 6    1  0.4966153E-006  0.1469284E+03  0.7561462E-02  0.1204299E+00
          3   -1    0    0  501    0  0.00000000000E+00  0.00000000000E+00  0.26744963329E+03  0.26744963329E+03  0.00000000000E+00 0. -1.
         -3   -1    0    0    0  501 -0.00000000000E+00 -0.00000000000E+00 -0.89721281453E+02  0.89721281453E+02  0.00000000000E+00 0.  1.
          5    1    1    2  502    0  0.11994954875E+02 -0.56944464610E+02 -0.30281349969E+01  0.58422538406E+02  0.41800000000E+01 0. -1.
         -5    1    1    2    0  502 -0.10097287915E+03  0.27654845441E+02  0.85094907160E+02  0.13497751081E+03  0.41800000000E+01 0.  1.
        -11    1    1    2    0    0 -0.10843174008E+01 -0.25365735825E+02  0.31357406925E+02  0.40347035421E+02  0.00000000000E+00 0.  1.
         11    1    1    2    0    0  0.90062241673E+02  0.54655354994E+02  0.64304172745E+02  0.12342383010E+03  0.00000000000E+00 0. -1.
</event>
<event>
 7    1  0.4966153E-006  0.1008033E+03  0.7561462E-02  0.1278616E+00
         -2   -1    0    0    0  501 -0.00000000000E+00  0.00000000000E+00  0.15933636314E+02  0.15933636314E+02  0.00000000000E+00 0.  1.
          2   -1    0    0  501    0  0.00000000000E+00 -0.00000000000E+00 -0.81397707837E+03  0.81397707837E+03  0.00000000000E+00 0. -1.
         23    2    1    2    0    0  0.69666036453E+01 -0.26303866920E+02 -0.36183074907E+03  0.38380909529E+03  0.12508998232E+03 0.  0.
          5    1    3    3  502    0  0.20551230420E+02 -0.64594351232E+02 -0.11447811992E+03  0.13310708330E+03  0.41800000000E+01 0. -1.
         -5    1    3    3    0  502 -0.13584626774E+02  0.38290484312E+02 -0.24735262914E+03  0.25070201199E+03  0.41800000000E+01 0. -1.
        -11    1    1    2    0    0 -0.38002110878E+02  0.43181212660E+02 -0.29328261794E+03  0.29887032564E+03  0.00000000000E+00 0.  1.
         11    1    1    2    0    0  0.31035507233E+02 -0.16877345740E+02 -0.14293007504E+03  0.14723129375E+03  0.00000000000E+00 0. -1.
</event>
<event>
 7    1  0.4966153E-006  0.1341715E+03  0.7561462E-02  0.1221394E+00
         -1   -1    0    0    0  501 -0.00000000000E+00  0.00000000000E+00  0.85957810300E+02  0.85957810300E+02  0.00000000000E+00 0.  1.
          1   -1    0    0  501    0  0.00000000000E+00 -0.00000000000E+00 -0.30103711688E+03  0.30103711688E+03  0.00000000000E+00 0. -1.
         23    2    1    2    0    0  0.10634316423E+03 -0.44167426759E+02 -0.81538469810E+02  0.18855663985E+03  0.12508179006E+03 0.  0.
          5    1    3    3  502    0  0.28193077923E+02  0.88371816358E+01  0.30027592343E+02  0.42332896475E+02  0.41800000000E+01 0.  1.
         -5    1    3    3    0  502  0.78150086307E+02 -0.53004608395E+02 -0.11156606215E+03  0.14622374337E+03  0.41800000000E+01 0.  1.
        -11    1    1    2    0    0 -0.10162260104E+03  0.20943543248E+01 -0.11087603831E+03  0.15041620668E+03  0.00000000000E+00 0. -1.
         11    1    1    2    0    0 -0.47205631897E+01  0.42073072435E+02 -0.22664798464E+02  0.48022080654E+02  0.00000000000E+00 0.  1.
</event>
<event>
 6    1  0.4966153E-006  0.8187228E+02  0.7561462E-02  0.1323821E+00
          1   -1    0    0  501    0  0.00000000000E+00  0.00000000000E+00  0.31296794096E+02  0.31296794096E+02  0.00000000000E+00 0. -1.
         -1   -1    0    0    0  501 -0.00000000000E+00 -0.00000000000E+00 -0.50872768255E+03  0.50872768255E+03  0.00000000000E+00 0.  1.
          5    1    1    2  502    0 -0.25583935468E+02  0.28913879065E+01 -0.76345950660E+01  0.27178250861E+02  0.41800000000E+01 0. -1.
         -5    1    1    2    0  502  0.40808773851E+02  0.18567123182E+02 -0.38363424314E+03  0.38626778147E+03  0.41800000000E+01 0.  1.
        -11    1    1    2    0    0 -0.55089316123E+01 -0.56245081449E+02 -0.55332027622E+02  0.79091660720E+02  0.00000000000E+00 0.  1.
         11    1    1    2    0    0 -0.97159067704E+01  0.34786570360E+02 -0.30830022623E+02  0.47486783601E+02  0.00000000000E+00 0. -1.
</event>
<event>
 7    1  0.4966153E-006  0.1132473E+03  0.7561462E-02  0.1254672E+00
          2   -1    0    0  501    0  0.00000000000E+00  0.00000000000E+00  0.10024797392E+04  0.10024797392E+04  0.00000000000E+00 0.  1.
         -2   -1    0    0    0  501 -0.00000000000E+00 -0.00000000000E+00 -0.13726443633E+02  0.13726443633E+02  0.00000000000E+00 0. -1.
         23    2    1    2    0    0 -0.33266520690E+02  0.29566679732E+02  0.60217808168E+03  0.61664173915E+03  0.12509093672E+03 0.  0.
          5    1    3    3  502    0 -0.36458838298E+02 -0.43615641495E+02  0.20670930917E+03  0.21442430359E+03  0.41800000000E+01 0.  1.
         -5    1    3    3    0  502  0.31923176076E+01  0.73182321228E+02  0.39546877251E+03  0.40221743555E+03  0.41800000000E+01 0.  1.
        -11    1    1    2    0    0  0.17743050683E+02 -0.59670467216E+02  0.18578075590E+03  0.19593332991E+03  0.00000000000E+00 0. -1.
         11    1    1    2    0    0  0.15523470008E+02  0.30103787484E+02  0.20079445794E+03  0.20363111374E+03  0.00000000000E+00 0.  1.
</event>
<event>
 7    1  0.4966153E-006  0.7078737E+02  0.7561462E-02  0.1357436E+00
          2   -1    0    0  501    0  0.00000000000E+00  0.00000000000E+00  0.13693518106E+03  0.13693518106E+03  0.00000000000E+00 0. -1.
         -2   -1    0    0    0  501 -0.00000000000E+00 -0.00000000000E+00 -0.84223012631E+02  0.84223012631E+02  0.00000000000E+00 0.  1.
         23    2    1    2    0    0  0.25183402641E+02 -0.54842524389E+01  0.61216273428E+01  0.11581021515E+03  0.11273974817E+03 0.  0.
          5    1    3    3  502    0  0.96984992996E+01 -0.22444256146E+02  0.55720836275E+02  0.60992536575E+02  0.41800000000E+01 0. -1.
         -5    1    3    3    0  502  0.15484903341E+02  0.16960003707E+02 -0.49599208932E+02  0.54817678571E+02  0.41800000000E+01 0.  1.
        -11    1    1    2    0    0  0.16486681889E+01 -0.40313823713E+02  0.27982498865E+02  0.49101351630E+02  0.00000000000E+00 0. -1.
         11    1    1    2    0    0 -0.26832070830E+02  0.45798076152E+02  0.18608042224E+02  0.56246626917E+02  0.00000000000E+00 0.  1.
</event>
<event>
 7    1  0.4966153E-006  0.1885021E+03  0.7561462E-02  0.1159819E+00
          1   -1    0    0  501    0  0.00000000000E+00  0.00000000000E+00  0.68275595911E+02  0.68275595911E+02  0.00000000000E+00 0. -1.
         -1   -1    0    0    0  501 -0.00000000000E+00 -0.00000000000E+00 -0.54988176471E+03  0.54988176471E+03  0.00000000000E+00 0.  1.
         23    2    1    2    0    0 -0.13119099582E+03 -0.82673191510E+02 -0.31502752132E+03  0.37274320027E+03  0.12509684319E+03 0.  0.
          5    1    3    3  502    0 -0.57047090512E+02  0.29736916119E+02 -0.10562175740E+03  0.12374200076E+03  0.41800000000E+01 0.  1.
         -5    1    3    3    0  502 -0.74143905312E+02 -0.11241010763E+03 -0.20940576392E+03  0.24900119950E+03  0.41800000000E+01 0.  1.
        -11    1    1    2    0    0  0.89181125032E+02  0.98540889906E+02 -0.10595961458E+03  0.16997358609E+03  0.00000000000E+00 0. -1.
         11    1    1    2    0    0  0.42009870792E+02 -0.15867698397E+02 -0.60619032906E+02  0.75440574274E+02  0.00000000000E+00 0.  1.
</event>
<event>
 7    1  0.4966153E-006  0.1227455E+03  0.7561462E-02  0.1238635E+00
          1   -1    0    0  501    0  0.00000000000E+00  0.00000000000E+00  0.49554571643E+03  0.49554571643E+03  0.00000000000E+00 0. -1.
         -1   -1    0    0    0  501 -0.00000000000E+00 -0.00000000000E+00 -0.40053376341E+02  0.40053376341E+02  0.00000000000E+00 0.  1.
         23    2    1    2    0    0 -0.45925359927E+02  0.76445529895E+02  0.26839774173E+03  0.30925428037E+03  0.12509118449E+03 0.  0.
          5    1    3    3  502    0 -0.67197492045E+02  0.10291184143E+02  0.20152276024E+03  0.21272119477E+03  0.41800000000E+01 0.  1.
         -5    1    3    3    0  502  0.21272132118E+02  0.66154345752E+02  0.66874981482E+02  0.96533085598E+02  0.41800000000E+01 0.  1.
        -11    1    1    2    0    0  0.60616471849E+02 -0.55532384856E+02  0.74689469594E+02  0.11107078507E+03  0.00000000000E+00 0.  1.
         11    1    1    2    0    0 -0.14691111922E+02 -0.20913145038E+02  0.11240512877E+03  0.11527402734E+03  0.00000000000E+00 0. -1.
</event>
<event>
 7    1  0.4966153E-006  0.8458170E+02  0.7561462E-02  0.1316530E+00
         -1   -1    0    0    0  501 -0.00000000000E+00  0.00000000000E+00  0.92262942157E+02  0.92262942157E+02  0.00000000000E+00 0.  1.
          1   -1    0    0  501    0  0.00000000000E+00 -0.00000000000E+00 -0.15837123671E+03  0.15837123671E+03  0.00000000000E+00 0. -1.
         23    2    1    2    0    0 -0.52419525569E+02 -0.19494344600E+01 -0.26900905814E+02  0.13828332086E+03  0.12508801357E+03 0.  0.
          5    1    3    3  502    0 -0.13533559327E+02  0.43607460665E+02 -0.55323824659E+02  0.71853780893E+02  0.41800000000E+01 0.  1.
         -5    1    3    3    0  502 -0.38885966242E+02 -0.45556895125E+02  0.28422918845E+02  0.66429539963E+02  0.41800000000E+01 0.  1.
        -11    1    1    2    0    0  0.26452125760E+02 -0.16716383657E+02  0.25373157840E+02  0.40285848366E+02  0.00000000000E+00 0.  1.
         11    1    1    2    0    0  0.25967399809E+02  0.18665818117E+02 -0.64580546583E+02  0.72065009649E+02  0.00000000000E+00 0. -1.
</event>
<event>
 7    1  0.4966153E-006  0.1630456E+03  0.7561462E-02  0.1185301E+00
         -1   -1    0    0    0  501 -0.00000000000E+00  0.00000000000E+00  0.17141694212E+03  0.17141694212E+03  0.00000000000E+00 0.  1.
          1   -1    0    0  501    0  0.00000000000E+00 -0.00000000000E+00 -0.18401164335E+03  0.18401164335E+03  0.00000000000E+00 0. -1.
         23    2    1    2    0    0  0.65107221012E+02  0.12385728634E+03  0.69632926546E+01  0.18782875940E+03  0.12510626605E+03 0.  0.
          5    1    3    3  502    0  0.22649012582E+02  0.11498577845E+03 -0.39866387143E+02  0.12386084224E+03  0.41800000000E+01 0. -1.
         -5    1    3    3    0  502  0.42458208430E+02  0.88715078879E+01  0.46829679797E+02  0.63967917155E+02  0.41800000000E+01 0. -1.
        -11    1    1    2    0    0  0.13718096944E+02 -0.66141755286E+02  0.18956510498E+01  0.67575968132E+02  0.00000000000E+00 0. -1.
         11    1    1    2    0    0 -0.78825317956E+02 -0.57715531053E+02 -0.21453644934E+02  0.10002385794E+03  0.00000000000E+00 0.  1.
</event>
<event>
 7    1  0.4966153E-006  0.9785813E+02  0.7561462E-02  0.1284866E+00
          1   -1    0    0  501    0  0.00000000000E+00  0.00000000000E+00  0.22144408264E+03  0.22144408264E+03  0.00000000000E+00 0.  1.
         -1   -1    0    0    0  501 -0.00000000000E+00 -0.00000000000E+00 -0.67264583373E+02  0.67264583373E+02  0.00000000000E+00 0. -1.
         23    2    1    2    0    0  0.20739960198E+02  0.46586004696E+02  0.57540170095E+02  0.14682801363E+03  0.12508873902E+03 0.  0.
          5    1    3    3  502    0 -0.27759487300E+02  0.61919245129E+02  0.66395445573E+02  0.95028467553E+02  0.41800000000E+01 0.  1.
         -5    1    3    3    0  502  0.48499447499E+02 -0.15333240433E+02 -0.88552754779E+01  0.51799546076E+02  0.41800000000E+01 0.  1.
        -11    1    1    2    0    0  0.16344474468E+02  0.98673254438E+00  0.76583610845E+02  0.78314525707E+02  0.00000000000E+00 0.  1.
         11    1    1    2    0    0 -0.37084434667E+02 -0.47572737241E+02  0.20055718328E+02  0.63566126677E+02  0.00000000000E+00 0. -1.
</event>
<event>
 7    1  0.4966153E-006  0.1028651E+03  0.7561462E-02  0.1274384E+00
         -2   -1    0    0    0  501 -0.00000000000E+00  0.00000000000E+00  0.26244375964E+02  0.26244375964E+02  0.00000000000E+00 0.  1.
          2   -1    0    0  501    0  0.00000000000E+00 -0.00000000000E+00 -0.50064767181E+03  0.50064767181E+03  0.00000000000E+00 0. -1.
         23    2    1    2    0    0 -0.53425247187E+02 -0.50367334687E+01 -0.26719290470E+03  0.29986503979E+03  0.12508944017E+03 0.  0.
          5    1    3    3  502    0 -0.36934083742E+02  0.58197393941E+02 -0.15980790550E+03  0.17408935138E+03  0.41800000000E+01 0.  1.
         -5    1    3    3    0  502 -0.16491163446E+02 -0.63234127409E+02 -0.10738499920E+03  0.12577568841E+03  0.41800000000E+01 0.  1.
        -11    1    1    2    0    0  0.68189577841E+00  0.17078695631E+02 -0.51528218006E+01  0.17852125890E+02  0.00000000000E+00 0. -1.
         11    1    1    2    0    0  0.52743351409E+02 -0.12041962162E+02 -0.20205756934E+03  0.20917488210E+03  0.00000000000E+00 0.  1.
</event>
<event>
 7    1  0.4966153E-006  0.1948540E+03  0.7561462E-02  0.1154155E+00
         -1   -1    0    0    0  501 -0.00000000000E+00  0.00000000000E+00  0.13717663762E+03  0.13717663762E+03  0.00000000000E+00 0.  1.
          1   -1    0    0  501    0  0.00000000000E+00 -0.00000000000E+00 -0.31779760925E+03  0.31779760925E+03  0.00000000000E+00 0. -1.
         23    2    1    2    0    0 -0.16825864037E+03  0.26979813402E+02 -0.40176066382E+02  0.21517609041E+03  0.12509097962E+03 0.  0.
          5    1    3    3  502    0 -0.15793228389E+03  0.62889362063E+02 -0.16727321915E+02  0.17086530910E+03  0.41800000000E+01 0. -1.
         -5    1    3    3    0  502 -0.10326356484E+02 -0.35909548661E+02 -0.23448744468E+02  0.44310781311E+02  0.41800000000E+01 0. -1.
        -11    1    1    2    0    0  0.15406552774E+03 -0.28748250571E+01 -0.14484423962E+03  0.21148121715E+03  0.00000000000E+00 0.  1.
         11    1    1    2    0    0  0.14193112630E+02 -0.24104988345E+02  0.43993343631E+01  0.28316939314E+02  0.00000000000E+00 0. -1.
</event>
<event>
 7    1  0.4966153E-006  0.2080626E+03  0.7561462E-02  0.1143109E+00
         -3   -1    0    0    0  501 -0.00000000000E+00  0.00000000000E+00  0.61926364296E+03  0.61926364296E+03  0.00000000000E+00 0.  1.
          3   -1    0    0  501    0  0.00000000000E+00 -0.00000000000E+00 -0.86165009111E+02  0.86165009111E+02  0.00000000000E+00 0. -1.
         23    2    1    2    0    0  0.69953129317E+02  0.18210916761E+03  0.36122400400E+03  0.42917113203E+03  0.12509152759E+03 0.  0.
          5    1    3    3  502    0 -0.25359541889E+02  0.32290207121E+02  0.23253550699E+02  0.47370495679E+02  0.41800000000E+01 0. -1.
         -5    1    3    3    0  502  0.95312671207E+02  0.14981896049E+03  0.33797045330E+03  0.38180063635E+03  0.41800000000E+01 0. -1.
        -11    1    1    2    0    0 -0.58002150306E+02 -0.11210373026E+03  0.51144262845E+02  0.13618822049E+03  0.00000000000E+00 0. -1.
         11    1    1    2    0    0 -0.11950979011E+02 -0.70005437349E+02  0.12073036700E+03  0.14006929954E+03  0.00000000000E+00 0.  1.
</event>
<event>
 7    1  0.4966153E-006  0.1080533E+03  0.7561462E-02  0.1264218E+00
          3   -1    0    0  501    0  0.00000000000E+00  0.00000000000E+00  0.81396596469E+02  0.81396596469E+02  0.00000000000E+00 0. -1.
         -3   -1    0    0    0  501 -0.00000000000E+00 -0.00000000000E+00 -0.21504030827E+03  0.21504030827E+03  0.00000000000E+00 0.  1.
         23    2    1    2    0    0 -0.17491244035E+02  0.39510868383E+02 -0.14194460396E+03  0.19406770624E+03  0.12508777589E+03 0.  0.
          5    1    3    3  502    0 -0.65435031081E+01 -0.43177666654E+02 -0.75604023420E+02  0.87410348861E+02  0.41800000000E+01 0. -1.
         -5    1    3    3    0  502 -0.10947740927E+02  0.82688535037E+02 -0.66340580536E+02  0.10665735738E+03  0.41800000000E+01 0. -1.
        -11    1    1    2    0    0 -0.28884436506E+02 -0.17857698403E+01 -0.21035599161E+02  0.35777032831E+02  0.00000000000E+00 0.  1.
         11    1    1    2    0    0  0.46375680541E+02 -0.37725098543E+02  0.29336491313E+02  0.66592165667E+02  0.00000000000E+00 0. -1.
</event>
<event>
 7    1  0.4966153E-006  0.7324616E+02  0.7561462E-02  0.1349390E+00
         -1   -1    0    0    0  501 -0.00000000000E+00  0.00000000000E+00  0.12740965312E+03  0.12740965312E+03  0.00000000000E+00 0.  1.
          1   -1    0    0  501    0  0.00000000000E+00 -0.00000000000E+00 -0.17777619244E+03  0.17777619244E+03  0.00000000000E+00 0. -1.
         23    2    1    2    0    0 -0.66840672618E+01  0.14631268256E+02  0.83529628448E+02  0.14985451072E+03  0.12337108571E+03 0.  0.
          5    1    3    3  502    0  0.87063063459E+01 -0.37122322746E+02  0.87515861095E+02  0.95552943228E+02  0.41800000000E+01 0. -1.
         -5    1    3    3    0  502 -0.15390373608E+02  0.51753591002E+02 -0.39862326467E+01  0.54301567492E+02  0.41800000000E+01 0.  1.
        -11    1    1    2    0    0  0.12657874082E+02  0.17332255006E+02 -0.45221936316E+01  0.21933514883E+02  0.00000000000E+00 0.  1.
         11    1    1    2    0    0 -0.59738068201E+01 -0.31963523263E+02 -0.12937397413E+03  0.13339781996E+03  0.00000000000E+00 0. -1.
</event>
<event>
 7    1  0.4966153E-006  0.2375542E+03  0.7561462E-02  0.1121433E+00
          1   -1    0    0  501    0  0.00000000000E+00  0.00000000000E+00  0.11040361019E+04  0.11040361019E+04  0.00000000000E+00 0. -1.
         -1   -1    0    0    0  501 -0.00000000000E+00 -0.00000000000E+00 -0.62151854184E+02  0.62151854184E+02  0.00000000000E+00 0.  1.
         23    2    1    2    0    0 -0.17743094240E+03  0.14330979741E+03  0.38680020478E+03  0.46613497172E+03  0.12509187057E+03 0.  0.
          5    1    3    3  502    0 -0.18022656753E+03  0.13853511190E+03  0.39477695506E+03  0.45556548324E+03  0.41800000000E+01 0. -1.
         -5    1    3    3    0  502  0.27956251303E+01  0.47746855135E+01 -0.79767502795E+01  0.10569488476E+02  0.41800000000E+01 0. -1.
        -11    1    1    2    0    0  0.65969752045E+02 -0.10295177614E+03  0.40932601483E+03  0.42719885628E+03  0.00000000000E+00 0. -1.
         11    1    1    2    0    0  0.11146119035E+03 -0.40358021277E+02  0.24575802812E+03  0.27285412810E+03  0.00000000000E+00 0.  1.
</event>
<event>
 7    1  0.4966153E-006  0.9200747E+02  0.7561462E-02  0.1298062E+00
         -1   -1    0    0    0  501 -0.00000000000E+00  0.00000000000E+00  0.27958365684E+03  0.27958365684E+03  0.00000000000E+00 0.  1.
          1   -1    0    0  501    0  0.00000000000E+00 -0.00000000000E+00 -0.49266525062E+02  0.49266525062E+02  0.00000000000E+00 0. -1.
         23    2    1    2    0    0  0.39130897018E+02  0.17182705484E+02  0.15227329964E+03  0.20164095977E+03  0.12508175888E+03 0.  0.
          5    1    3    3  502    0  0.59541022446E+02 -0.56817511297E+01  0.16215830495E+02  0.62111522349E+02  0.41800000000E+01 0.  1.
         -5    1    3    3    0  502 -0.20410125428E+02  0.22864456613E+02  0.13605746915E+03  0.13952943742E+03  0.41800000000E+01 0.  1.
        -11    1    1    2    0    0 -0.34812895622E+02  0.29872072798E+02  0.14675438648E+02  0.48162713112E+02  0.00000000000E+00 0. -1.
         11    1    1    2    0    0 -0.43180013967E+01 -0.47054778281E+02  0.63368393483E+02  0.79046509017E+02  0.00000000000E+00 0.  1.
</event>
<event>
 6    1  0.4966153E-006  0.1939254E+03  0.7561462E-02  0.1154968E+00
          2   -1    0    0  501    0  0.00000000000E+00  0.00000000000E+00  0.69283897012E+03  0.69283897012E+03  0.00000000000E+00 0. -1.
         -2   -1    0    0    0  501 -0.00000000000E+00 -0.00000000000E+00 -0.10925326446E+03  0.10925326446E+03  0.00000000000E+00 0.  1.
          5    1    1    2  502    0 -0.11651123401E+03  0.14157094944E+03  0.38028207102E+03  0.42219560314E+03  0.41800000000E+01 0. -1.
         -5    1    1    2    0  502  0.87393359442E+01 -0.56542696251E+01 -0.55168889633E+02  0.56297651293E+02  0.41800000000E+01 0.  1.
        -11    1    1    2    0    0  0.12159601188E+03 -0.11050351380E+03  0.20418523181E+03  0.26208438633E+03  0.00000000000E+00 0.  1.
         11    1    1    2    0    0 -0.13824113807E+02 -0.25413166010E+02  0.54287292464E+02  0.61514593816E+02  0.00000000000E+00 0. -1.
</event>
<event>
 7    1  0.4966153E-006  0.1007684E+03  0.7561462E-02  0.1278688E+00
         -1   -1    0    0    0  501 -0.00000000000E+00  0.00000000000E+00  0.15916310465E+03  0.15916310465E+03  0.00000000000E+00 0.  1.
          1   -1    0    0  501    0  0.00000000000E+00 -0.00000000000E+00 -0.10554872450E+03  0.10554872450E+03  0.00000000000E+00 0. -1.
         23    2    1    2    0    0 -0.50137746021E+02 -0.37471699995E+02  0.19172622280E+02  0.14412711099E+03  0.12840215263E+03 0.  0.
          5    1    3    3  502    0 -0.83104128711E+02  0.66684264169E+01  0.28269450562E+02  0.88132844926E+02  0.41800000000E+01 0. -1.
         -5    1    3    3    0  502  0.32966382690E+02 -0.44140126412E+02 -0.90968282822E+01  0.55994266064E+02  0.41800000000E+01 0.  1.
        -11    1    1    2    0    0  0.14139326509E+02  0.13584220549E+02 -0.34233089073E+02  0.39450677935E+02  0.00000000000E+00 0. -1.
         11    1    1    2    0    0  0.35998419513E+02  0.23887479445E+02  0.68674846936E+02  0.81134040226E+02  0.00000000000E+00 0.  1.
</event>
<event>
 7    1  0.4966153E-006  0.2262530E+03  0.7561462E-02  0.1129305E+00
          2   -1    0    0  501    0  0.00000000000E+00  0.00000000000E+00  0.46591071583E+03  0.46591071583E+03  0.00000000000E+00 0. -1.
         -2   -1    0    0    0  501 -0.00000000000E+00 -0.00000000000E+00 -0.15267359300E+03  0.15267359300E+03  0.00000000000E+00 0.  1.
         23    2    1    2    0    0 -0.21196931620E+03  0.76540183985E+01  0.22111876895E+02  0.24723478490E+03  0.12508608538E+03 0.  0.
          5    1    3    3  502    0 -0.66601115007E+02 -0.32446788124E+02 -0.39760675760E+02  0.84183646373E+02  0.41800000000E+01 0. -1.
         -5    1    3    3    0  502 -0.14536820119E+03  0.40100806523E+02  0.61872552655E+02  0.16305113852E+03  0.41800000000E+01 0. -1.
        -11    1    1    2    0    0  0.75881708388E+02  0.36732355496E+02  0.79626590554E+02  0.11596419073E+03  0.00000000000E+00 0.  1.
         11    1    1    2    0    0  0.13608760781E+03 -0.44386373894E+02  0.21149865538E+03  0.25538533320E+03  0.00000000000E+00 0. -1.
</event>
<event>
 7    1  0.4966153E-006  0.9052436E+02  0.7561462E-02  0.1301587E+00
          3   -1    0    0  501    0  0.00000000000E+00  0.00000000000E+00  0.35607034348E+02  0.35607034348E+02  0.00000000000E+00 0. -1.
         -3   -1    0    0    0  501 -0.00000000000E+00 -0.00000000000E+00 -0.46972863507E+03  0.46972863507E+03  0.00000000000E+00 0.  1.
         23    2    1    2    0    0  0.31730735803E+02 -0.26926726476E+02 -0.35009429899E+03  0.37409289059E+03  0.12509030505E+03 0.  0.
          5    1    3    3  502    0 -0.21321393210E+02 -0.12966837936E+02 -0.29551394023E+03  0.29659518196E+03  0.41800000000E+01 0.  1.
         -5    1    3    3    0  502  0.53052129014E+02 -0.13959888540E+02 -0.54580358758E+02  0.77497708631E+02  0.41800000000E+01 0.  1.
        -11    1    1    2    0    0  0.28805898424E+02  0.28015648364E+02 -0.30852525311E+02  0.50660977639E+02  0.00000000000E+00 0.  1.
         11    1    1    2    0    0 -0.60536634227E+02 -0.10889218881E+01 -0.53174776427E+02  0.80581801186E+02  0.00000000000E+00 0. -1.
</event>
<event>
 7    1  0.4966153E-006  0.1431879E+03  0.7561462E-02  0.1209103E+00
          2   -1    0    0  501    0  0.00000000000E+00  0.00000000000E+00  0.14911244704E+03  0.14911244704E+03  0.00000000000E+00 0. -1.
         -2   -1    0    0    0  501 -0.00000000000E+00 -0.00000000000E+00 -0.27940391892E+03  0.27940391892E+03  0.00000000000E+00 0.  1.
         23    2    1    2    0    0 -0.93683870188E+02 -0.76090209594E+02 -0.19757012114E+03  0.26314462346E+03  0.12507898528E+03 0.  0.
          5    1    3    3  502    0  0.16006317254E+02  0.13335522120E+02 -0.15051528531E+01  0.21302024020E+02  0.41800000000E+01 0. -1.
         -5    1    3    3    0  502 -0.10969018744E+03 -0.89425731714E+02 -0.19606496828E+03  0.24184259944E+03  0.41800000000E+01 0. -1.
        -11    1    1    2    0    0  0.60389806549E+02  0.32155862294E+02  0.83462191615E+02  0.10792064512E+03  0.00000000000E+00 0. -1.
         11    1    1    2    0    0  0.33294063639E+02  0.43934347301E+02 -0.16183542363E+02  0.57451097376E+02  0.00000000000E+00 0.  1.
</event>
<event>
 7    1  0.4966153E-006  0.1238278E+03  0.7561462E-02  0.1236913E+00
          1   -1    0    0  501    0  0.00000000000E+00  0.00000000000E+00  0.16906212274E+03  0.16906212274E+03  0.00000000000E+00 0. -1.
         -1   -1    0    0    0  501 -0.00000000000E+00 -0.00000000000E+00 -0.62662241252E+03  0.62662241252E+03  0.00000000000E+00 0.  1.
         23    2    1    2    0    0  0.10521779243E+03 -0.37246868731E+02 -0.58215256525E+03  0.60581124004E+03  0.12509011258E+03 0.  0.
          5    1    3    3  502    0  0.39701664795E+02  0.11042446593E+02 -0.44007163996E+03  0.44201660434E+03  0.41800000000E+01 0. -1.
         -5    1    3    3    0  502  0.65516127638E+02 -0.48289315324E+02 -0.14208092528E+03  0.16379463570E+03  0.41800000000E+01 0. -1.
        -11    1    1    2    0    0 -0.57281477020E+01  0.23638728406E+02 -0.60832222976E+01  0.25072031235E+02  0.00000000000E+00 0.  1.
         11    1    1    2    0    0 -0.99489644731E+02  0.13608140325E+02  0.13067549777E+03  0.16480126398E+03  0.00000000000E+00 0. -1.
</event>
<event>
 7    1  0.4966153E-006  0.5836025E+02  0.7561462E-02  0.1404845E+00
          2   -1    0    0  501    0  0.00000000000E+00  0.00000000000E+00  0.20260916546E+03  0.20260916546E+03  0.00000000000E+00 0.  1.
         -2   -1    0    0    0  501 -0.00000000000E+00 -0.00000000000E+00 -0.53176100714E+02  0.53176100714E+02  0.00000000000E+00 0. -1.
         23    2    1    2    0    0  0.17576331140E+02 -0.81717444595E+01  0.62936995899E+02  0.12856638626E+03  0.11041985962E+03 0.  0.
          5    1    3    3  502    0  0.17331494696E+02 -0.49027794581E+01 -0.30128223257E+02  0.35349684460E+02  0.41800000000E+01 0. -1.
         -5    1    3    3    0  502  0.24483644414E+00 -0.32689650014E+01  0.93065219157E+02  0.93216701796E+02  0.41800000000E+01 0.  1.
        -11    1    1    2    0    0  0.29271865523E+02  0.29397652338E+02  0.44298918143E+02  0.60691500417E+02  0.00000000000E+00 0.  1.
         11    1    1    2    0    0 -0.46848196663E+02 -0.21225907879E+02  0.42197150709E+02  0.66527379505E+02  0.00000000000E+00 0. -1.
</event>
<event>
 7    1  0.4966153E-006  0.1149587E+03  0.7561462E-02  0.1251653E+00
          2   -1    0    0  501    0  0.00000000000E+00  0.00000000000E+00  0.60133860358E+02  0.60133860358E+02  0.00000000000E+00 0. -1.
         -2   -1    0    0    0  501 -0.00000000000E+00 -0.00000000000E+00 -0.27118057767E+03  0.27118057767E+03  0.00000000000E+00 0.  1.
         23    2    1    2    0    0  0.52066219096E+02  0.10073112804E+02 -0.17227855623E+03  0.21940879149E+03  0.12509179859E+03 0.  0.
          5    1    3    3  502    0  0.17676404776E+02  0.63656519043E+02 -0.55711134061E+02  0.86520578828E+02  0.41800000000E+01 0.  1.
         -5    1    3    3    0  502  0.34389814321E+02 -0.53583406238E+02 -0.11656742217E+03  0.13288821266E+03  0.41800000000E+01 0.  1.
        -11    1    1    2    0    0 -0.20075486004E+02  0.37528500489E+02 -0.33779267211E+02  0.54336473759E+02  0.00000000000E+00 0.  1.
         11    1    1    2    0    0 -0.31990733092E+02 -0.47601613293E+02 -0.49888938662E+01  0.57569172774E+02  0.00000000000E+00 0. -1.
</event>
<event>
 7    1  0.4966153E-006  0.9583039E+02  0.7561462E-02  0.1289317E+00
         -1   -1    0    0    0  501 -0.00000000000E+00  0.00000000000E+00  0.74996248232E+02  0.74996248232E+02  0.00000000000E+00 0.  1.
          1   -1    0    0  501    0  0.00000000000E+00 -0.00000000000E+00 -0.18169607742E+03  0.18169607742E+03  0.00000000000E+00 0. -1.
         23    2    1    2    0    0 -0.34187457679E+02 -0.21925083840E+02 -0.42255701126E+02  0.13814201878E+03  0.12509269167E+03 0.  0.
          5    1    3    3  502    0  0.10624229140E+02  0.29206140556E+02 -0.60044887976E+02  0.67740193852E+02  0.41800000000E+01 0.  1.
         -5    1    3    3    0  502 -0.44811686819E+02 -0.51131224396E+02  0.17789186850E+02  0.70401824924E+02  0.41800000000E+01 0.  1.
        -11    1    1    2    0    0  0.49056054072E+02  0.43780719457E+02 -0.64515050954E+02  0.92116446071E+02  0.00000000000E+00 0. -1.
         11    1    1    2    0    0 -0.14868596393E+02 -0.21855635617E+02  0.70922892777E-01  0.26433860804E+02  0.00000000000E+00 0.  1.
</event>
<event>
 7    1  0.4966153E-006  0.8230784E+02  0.7561462E-02  0.1322627E+00
         -1   -1    0    0    0  501 -0.00000000000E+00  0.00000000000E+00  0.56882840044E+02  0.56882840044E+02  0.00000000000E+00 0.  1.
          1   -1    0    0  501    0  0.00000000000E+00 -0.00000000000E+00 -0.22356108057E+03  0.22356108057E+03  0.00000000000E+00 0. -1.
         23    2    1    2    0    0 -0.10308598114E+01 -0.21688315460E+02 -0.71354352095E+02  0.14563597078E+03  0.12508775609E+03 0.  0.
          5    1    3    3  502    0  0.33827827631E+02  0.15647760051E+02 -0.84738043651E+02  0.92667053253E+02  0.41800000000E+01 0. -1.
         -5    1    3    3    0  502 -0.34858687443E+02 -0.37336075511E+02  0.13383691556E+02  0.52968917531E+02  0.41800000000E+01 0. -1.
        -11    1    1    2    0    0  0.17327224162E+02 -0.22710147572E+02 -0.18953350741E+00  0.28566053680E+02  0.00000000000E+00 0.  1.
         11    1    1    2    0    0 -0.16296364351E+02  0.44398463032E+02 -0.95134354919E+02  0.10624189614E+03  0.00000000000E+00 0. -1.
</event>
<event>
 7    1  0.4966153E-006  0.1297180E+03  0.7561462E-02  0.1227875E+00
          4   -1    0    0  501    0  0.00000000000E+00  0.00000000000E+00  0.17438693464E+03  0.17438693464E+03  0.00000000000E+00 0. -1.
         -4   -1    0    0    0  501 -0.00000000000E+00 -0.00000000000E+00 -0.16058371594E+03  0.16058371594E+03  0.00000000000E+00 0.  1.
         23    2    1    2    0    0 -0.14645125079E+02  0.10755555708E+03 -0.58736941870E+02  0.17572767091E+03  0.12509000134E+03 0.  0.
          5    1    3    3  502    0 -0.41251062143E+02  0.68514755814E+01  0.18572354090E+02  0.45945593717E+02  0.41800000000E+01 0.  1.
         -5    1    3    3    0  502  0.26605937064E+02  0.10070408150E+03 -0.77309295960E+02  0.12978207719E+03  0.41800000000E+01 0.  1.
        -11    1    1    2    0    0  0.18904959635E+02 -0.29766109387E+02  0.73291855524E+02  0.81333356336E+02  0.00000000000E+00 0. -1.
         11    1    1    2    0    0 -0.42598345556E+01 -0.77789447696E+02 -0.75169495737E+00  0.77909623337E+02  0.00000000000E+00 0.  1.
</event>
<event>
 7    1  0.4966153E-006  0.1059421E+03  0.7561462E-02  0.1268275E+00
          4   -1    0    0  501    0  0.00000000000E+00  0.00000000000E+00  0.78901050408E+02  0.78901050408E+02  0.00000000000E+00 0. -1.
         -4   -1    0    0    0  501 -0.00000000000E+00 -0.00000000000E+00 -0.19776432759E+03  0.19776432759E+03  0.00000000000E+00 0.  1.
         23    2    1    2    0    0  0.38435554713E+02  0.18634130729E+02 -0.95458757531E+02  0.16304157957E+03  0.12508261105E+03 0.  0.
          5    1    3    3  502    0  0.74925167477E+02  0.20283003614E+02 -0.99264694480E+02  0.12607986726E+03  0.41800000000E+01 0.  1.
         -5    1    3    3    0  502 -0.36489612763E+02 -0.16488728845E+01  0.38059369493E+01  0.36961712318E+02  0.41800000000E+01 0.  1.
        -11    1    1    2    0    0 -0.30999861721E+02 -0.53446861865E+02 -0.40760579472E+02  0.74020154748E+02  0.00000000000E+00 0.  1.
         11    1    1    2    0    0 -0.74356929919E+01  0.34812731136E+02  0.17356059825E+02  0.39603643671E+02  0.00000000000E+00 0. -1.
</event>
<event>
 7    1  0.4966153E-006  0.7124451E+02  0.7561462E-02  0.1355911E+00
          2   -1    0    0  501    0  0.00000000000E+00  0.00000000000E+00  0.22689949526E+03  0.22689949526E+03  0.00000000000E+00 0. -1.
         -2   -1    0    0    0  501 -0.00000000000E+00 -0.00000000000E+00 -0.11969406096E+03  0.11969406096E+03  0.00000000000E+00 0.  1.
         23    2    1    2    0    0 -0.31430915376E+02 -0.19262536231E+02 -0.66571733270E+02  0.14641918022E+03  0.12509129835E+03 0.  0.
          5    1    3    3  502    0 -0.17110437978E+02 -0.45084507998E+02  0.21848326153E+02  0.53105571317E+02  0.41800000000E+01 0.  1.
         -5    1    3    3    0  502 -0.14320477398E+02  0.25821971767E+02 -0.88420059423E+02  0.93313608907E+02  0.41800000000E+01 0.  1.
        -11    1    1    2    0    0 -0.14807466238E+02  0.72716659757E+01 -0.32517616643E+01  0.16814045807E+02  0.00000000000E+00 0.  1.
         11    1    1    2    0    0  0.46238381614E+02  0.11990870255E+02  0.17702892923E+03  0.18336033019E+03  0.00000000000E+00 0. -1.
</event>
<event>
 7    1  0.4966153E-006  0.1235711E+03  0.7561462E-02  0.1237320E+00
         -1   -1    0    0    0  501 -0.00000000000E+00  0.00000000000E+00  0.37526918524E+02  0.37526918524E+02  0.00000000000E+00 0.  1.
          1   -1    0    0  501    0  0.00000000000E+00 -0.00000000000E+00 -0.43388560827E+03  0.43388560827E+03  0.00000000000E+00 0. -1.
         23    2    1    2    0    0  0.64367680667E+02 -0.42879266086E+01 -0.24972716340E+03  0.28665744784E+03  0.12508897486E+03 0.  0.
          5    1    3    3  502    0 -0.35755123966E+02 -0.10176447119E+01 -0.37797374931E+02  0.52207072723E+02  0.41800000000E+01 0. -1.
         -5    1    3    3    0  502  0.10012280463E+03 -0.32702818967E+01 -0.21192978847E+03  0.23445037511E+03  0.41800000000E+01 0. -1.
        -11    1    1    2    0    0  0.18992960896E+02  0.18254578964E+02 -0.22871822355E+02  0.34886709140E+02  0.00000000000E+00 0.  1.
         11    1    1    2    0    0 -0.83360641563E+02 -0.13966652356E+02 -0.12375970399E+03  0.14986836982E+03  0.00000000000E+00 0. -1.
</event>
<event>
 7    1  0.4966153E-006  0.1565027E+03  0.7561462E-02  0.1192703E+00
          4   -1    0    0  501    0  0.00000000000E+00  0.00000000000E+00  0.16067789238E+03  0.16067789238E+03  0.00000000000E+00 0. -1.
         -4   -1    0    0    0  501 -0.00000000000E+00 -0.00000000000E+00 -0.19073991993E+03  0.19073991993E+03  0.00000000000E+00 0.  1.
         23    2    1    2    0    0 -0.11629868079E+03  0.64909453669E+02 -0.45454119527E+02  0.18828671831E+03  0.12508873242E+03 0.  0.
          5    1    3    3  502    0 -0.11500782183E+03  0.76686201398E+02  0.29035277863E+01  0.13832380649E+03  0.41800000000E+01 0.  1.
         -5    1    3    3    0  502 -0.12908589620E+01 -0.11776747728E+02 -0.48357647314E+02  0.49962911821E+02  0.41800000000E+01 0.  1.
        -11    1    1    2    0    0  0.87679754596E+02  0.37539259755E+01  0.12876655475E+02  0.88699715797E+02  0.00000000000E+00 0. -1.
         11    1    1    2    0    0  0.28618926197E+02 -0.68663379645E+02  0.25154364929E+01  0.74431378206E+02  0.00000000000E+00 0.  1.
</event>
<event>
 7    1  0.4966153E-006  0.9518506E+02  0.7561462E-02  0.1290760E+00
          1   -1    0    0  501    0  0.00000000000E+00  0.00000000000E+00  0.23780986246E+02  0.23780986246E+02  0.00000000000E+00 0. -1.
         -1   -1    0    0    0  501 -0.00000000000E+00 -0.00000000000E+00 -0.91556716579E+03  0.91556716579E+03  0.00000000000E+00 0.  1.
         23    2    1    2    0    0  0.58846555274E+02 -0.58388212586E+01 -0.74356578173E+03  0.75632634961E+03  0.12506984634E+03 0.  0.
          5    1    3    3  502    0  0.17483321890E+02 -0.30749870427E+02 -0.51797418792E+02  0.62862278587E+02  0.41800000000E+01 0.  1.
         -5    1    3    3    0  502  0.41363233383E+02  0.24911049169E+02 -0.69176836293E+03  0.69346407103E+03  0.41800000000E+01 0.  1.
        -11    1    1    2    0    0 -0.52799446747E+02 -0.36069133682E+02 -0.76178425830E+02  0.99458114517E+02  0.00000000000E+00 0. -1.
         11    1    1    2    0    0 -0.60471085274E+01  0.41907954940E+02 -0.72041971988E+02  0.83563687908E+02  0.00000000000E+00 0.  1.
</event>
<event>
 7    1  0.4966153E-006  0.9955594E+02  0.7561462E-02  0.1281233E+00
          1   -1    0    0  501    0  0.00000000000E+00  0.00000000000E+00  0.28210579926E+03  0.28210579926E+03  0.00000000000E+00 0. -1.
         -1   -1    0    0    0  501 -0.00000000000E+00 -0.00000000000E+00 -0.83283872262E+02  0.83283872262E+02  0.00000000000E+00 0.  1.
         23    2    1    2    0    0 -0.65662814463E+02 -0.54204104032E+02  0.28392345489E+02  0.15395532638E+03  0.12508567920E+03 0.  0.
          5    1    3    3  502    0 -0.32220826281E+02 -0.27848127182E+02 -0.49287856236E+02  0.65272237637E+02  0.41800000000E+01 0. -1.
         -5    1    3    3    0  502 -0.33441988182E+02 -0.26355976850E+02  0.77680201725E+02  0.88683088745E+02  0.41800000000E+01 0. -1.
        -11    1    1    2    0    0  0.51160316158E+02 -0.60903561231E+01  0.34440483516E+02  0.61972714091E+02  0.00000000000E+00 0.  1.
         11    1    1    2    0    0  0.14502498306E+02  0.60294460155E+02  0.13598909799E+03  0.14946163105E+03  0.00000000000E+00 0. -1.
</event>
<event>
 7    1  0.4966153E-006  0.1379703E+03  0.7561462E-02  0.1216086E+00
         -2   -1    0    0    0  501 -0.00000000000E+00  0.00000000000E+00  0.29729699888E+02  0.29729699888E+02  0.00000000000E+00 0.  1.
          2   -1    0    0  501    0  0.00000000000E+00 -0.00000000000E+00 -0.94634930198E+03  0.94634930198E+03  0.00000000000E+00 0. -1.
         23    2    1    2    0    0 -0.68137188377E+02  0.76261238886E+02 -0.26536143368E+03  0.31068581289E+03  0.12510208171E+03 0.  0.
          5    1    3    3  502    0 -0.58065382625E+02  0.98910711033E+02 -0.13174759774E+03  0.17472784359E+03  0.41800000000E+01 0.  1.
         -5    1    3    3    0  502 -0.10071805752E+02 -0.22649472146E+02 -0.13361383595E+03  0.13595796930E+03  0.41800000000E+01 0.  1.
        -11    1    1    2    0    0 -0.21539916014E+02 -0.67621463282E+01 -0.12807702747E+03  0.13005160349E+03  0.00000000000E+00 0. -1.
         11    1    1    2    0    0  0.89677104392E+02 -0.69499092558E+02 -0.52318114094E+03  0.53534158549E+03  0.00000000000E+00 0.  1.
</event>
<event>
 6    1  0.4966153E-006  0.1360251E+03  0.7561462E-02  0.1218780E+00
          1   -1    0    0  501    0  0.00000000000E+00  0.00000000000E+00  0.15700106797E+03  0.15700106797E+03  0.00000000000E+00 0. -1.
         -1   -1    0    0    0  501 -0.00000000000E+00 -0.00000000000E+00 -0.13314587032E+03  0.13314587032E+03  0.00000000000E+00 0.  1.
          5    1    1    2  502    0  0.30500198690E+01  0.36871058850E+02  0.15986860885E+02  0.40519498058E+02  0.41800000000E+01 0. -1.
         -5    1    1    2    0  502  0.19766650103E+02 -0.11372029192E+03 -0.36828190670E+02  0.12123041400E+03  0.41800000000E+01 0.  1.
        -11    1    1    2    0    0 -0.56938138337E+02  0.51952539553E+02  0.36856909266E+02  0.85436817145E+02  0.00000000000E+00 0. -1.
         11    1    1    2    0    0  0.34121468365E+02  0.24896693520E+02  0.78396181655E+01  0.42960209084E+02  0.00000000000E+00 0.  1.
</event>
<event>
 7    1  0.4966153E-006  0.8307530E+02  0.7561462E-02  0.1320544E+00
          1   -1    0    0  501    0  0.00000000000E+00  0.00000000000E+00  0.30473861937E+03  0.30473861937E+03  0.00000000000E+00 0. -1.
         -1   -1    0    0    0  501 -0.00000000000E+00 -0.00000000000E+00 -0.44471986767E+02  0.44471986767E+02  0.00000000000E+00 0.  1.
         23    2    1    2    0    0 -0.28441685169E+02 -0.31943302293E+02  0.13729340775E+03  0.19058890351E+03  0.12508135877E+03 0.  0.
          5    1    3    3  502    0  0.13290881649E+02 -0.15840008182E+02 -0.18739493657E+02  0.28216917208E+02  0.41800000000E+01 0. -1.
         -5    1    3    3    0  502 -0.41732566818E+02 -0.16103294111E+02  0.15603290140E+03  0.16237198630E+03  0.41800000000E+01 0. -1.
        -11    1    1    2    0    0  0.57701126419E+02  0.39478791993E+02  0.88427956292E+02  0.11272754083E+03  0.00000000000E+00 0.  1.
         11    1    1    2    0    0 -0.29259441249E+02 -0.75354896997E+01  0.34545268564E+02  0.45894161800E+02  0.00000000000E+00 0. -1.
</event>
<event>
 7    1  0.4966153E-006  0.6040730E+02  0.7561462E-02  0.1396130E+00
         -1   -1    0    0    0  501 -0.00000000000E+00  0.00000000000E+00  0.21700377559E+02  0.21700377559E+02  0.00000000000E+00 0.  1.
          1   -1    0    0  501    0  0.00000000000E+00 -0.00000000000E+00 -0.55404734028E+03  0.55404734028E+03  0.00000000000E+00 0. -1.
         23    2    1    2    0    0  0.19681696035E+01  0.53273572390E+01 -0.25320425485E+03  0.28247803217E+03  0.12509672079E+03 0.  0.
          5    1    3    3  502    0  0.73852048032E+01 -0.10862907006E+02 -0.26231735741E+03  0.26267929572E+03  0.41800000000E+01 0.  1.
         -5    1    3    3    0  502 -0.54170351997E+01  0.16190264245E+02  0.91131025588E+01  0.19798736448E+02  0.41800000000E+01 0.  1.
        -11    1    1    2    0    0 -0.29717941170E+02  0.31523202120E+02 -0.12024772338E+03  0.12781386184E+03  0.00000000000E+00 0. -1.
         11    1    1    2    0    0  0.27749771566E+02 -0.36850559359E+02 -0.15889498449E+03  0.16545582384E+03  0.00000000000E+00 0.  1.
</event>
<event>
 6    1  0.4966153E-006  0.1617274E+03  0.7561462E-02  0.1186760E+00
         -2   -1    0    0    0  501 -0.00000000000E+00  0.00000000000E+00  0.43199459764E+03  0.43199459764E+03  0.00000000000E+00 0.  1.
          2   -1    0    0  501    0  0.00000000000E+00 -0.00000000000E+00 -0.14412756059E+03  0.14412756059E+03  0.00000000000E+00 0. -1.
          5    1    1    2  502    0 -0.20837535926E+02 -0.95206899525E+01  0.10725216822E+02  0.25638820498E+02  0.41800000000E+01 0. -1.
         -5    1    1    2    0  502  0.14716442693E+03 -0.35619994149E+02  0.34078595559E+03  0.37293255753E+03  0.41800000000E+01 0.  1.
        -11    1    1    2    0    0 -0.17747508967E+02  0.35499973637E+02 -0.55512733703E+02  0.68241378986E+02  0.00000000000E+00 0.  1.
         11    1    1    2    0    0 -0.10857938204E+03  0.96407104654E+01 -0.81314016590E+01  0.10930940122E+03  0.00000000000E+00 0. -1.
</event>
<event>
 7    1  0.4966153E-006  0.1019593E+03  0.7561462E-02  0.1276229E+00
          1   -1    0    0  501    0  0.00000000000E+00  0.00000000000E+00  0.13710348061E+02  0.13710348061E+02  0.00000000000E+00 0. -1.
         -1   -1    0    0    0  501 -0.00000000000E+00 -0.00000000000E+00 -0.12953078268E+04  0.12953078268E+04  0.00000000000E+00 0.  1.
         23    2    1    2    0    0  0.12562070312E+02 -0.64836420507E+01 -0.10845107892E+04  0.10917926147E+04  0.12509044141E+03 0.  0.
          5    1    3    3  502    0 -0.13376987907E+01  0.58183886324E+02 -0.58537386592E+03  0.58827475670E+03  0.41800000000E+01 0.  1.
         -5    1    3    3    0  502  0.13899769102E+02 -0.64667528375E+02 -0.49913692325E+03  0.50351785804E+03  0.41800000000E+01 0.  1.
        -11    1    1    2    0    0 -0.45540758026E+02 -0.67732890824E+00 -0.56123756772E+02  0.72279288114E+02  0.00000000000E+00 0. -1.
         11    1    1    2    0    0  0.32978687715E+02  0.71609709589E+01 -0.14096293282E+03  0.14494627204E+03  0.00000000000E+00 0.  1.
</event>
<event>
 7    1  0.4966153E-006  0.6691037E+02  0.7561462E-02  0.1370926E+00
         -2   -1    0    0    0  501 -0.00000000000E+00  0.00000000000E+00  0.12299552076E+04  0.12299552076E+04  0.00000000000E+00 0.  1.
          2   -1    0    0  501    0  0.00000000000E+00 -0.00000000000E+00 -0.20283199417E+02  0.20283199417E+02  0.00000000000E+00 0. -1.
         23    2    1    2    0    0 -0.72180297959E+01 -0.44512643546E+02  0.10661703328E+04  0.10744299666E+04  0.12508836556E+03 0.  0.
          5    1    3    3  502    0 -0.15822793579E+02 -0.39653774828E+02  0.10620818885E+04  0.10629478787E+04  0.41800000000E+01 0.  1.
         -5    1    3    3    0  502  0.86047637831E+01 -0.48588687176E+01  0.40884443209E+01  0.11482087874E+02  0.41800000000E+01 0.  1.
        -11    1    1    2    0    0  0.23233165156E+00  0.61668745003E+02  0.46980487044E+02  0.77525829574E+02  0.00000000000E+00 0. -1.
         11    1    1    2    0    0  0.69856981443E+01 -0.17156101457E+02  0.96521188333E+02  0.98282610837E+02  0.00000000000E+00 0.  1.
</event>
<event>
 7    1  0.4966153E-006  0.1210912E+03  0.7561462E-02  0.1241308E+00
          2   -1    0    0  501    0  0.00000000000E+00  0.00000000000E+00  0.16426490434E+02  0.16426490434E+02  0.00000000000E+00 0. -1.
         -2   -1    0    0    0  501 -0.00000000000E+00 -0.00000000000E+00 -0.10111848221E+04  0.10111848221E+04  0.00000000000E+00 0.  1.
         23    2    1    2    0    0  0.16622142166E+01  0.61684476829E+02 -0.67258634348E+03  0.68689736211E+03  0.12509140261E+03 0.  0.
          5    1    3    3  502    0  0.50877446118E+02  0.68251908572E+02 -0.50195761081E+03  0.50914217366E+03  0.41800000000E+01 0.  1.
         -5    1    3    3    0  502 -0.49215231902E+02 -0.65674317428E+01 -0.17062873267E+03  0.17775518845E+03  0.41800000000E+01 0.  1.
        -11    1    1    2    0    0  0.42251764836E+02 -0.20673541209E+02 -0.18634528989E+03  0.19219046283E+03  0.00000000000E+00 0.  1.
         11    1    1    2    0    0 -0.43913979053E+02 -0.41010935620E+02 -0.13582669831E+03  0.14852348760E+03  0.00000000000E+00 0. -1.
</event>
<event>
 7    1  0.4966153E-006  0.9629048E+02  0.7561462E-02  0.1288296E+00
          1   -1    0    0  501    0  0.00000000000E+00  0.00000000000E+00  0.87102264145E+02  0.87102264145E+02  0.00000000000E+00 0. -1.
         -1   -1    0    0    0  501 -0.00000000000E+00 -0.00000000000E+00 -0.24422587686E+03  0.24422587686E+03  0.00000000000E+00 0.  1.
         23    2    1    2    0    0  0.17574339611E+02 -0.39486490642E+00 -0.19837228742E+03  0.23063043042E+03  0.11631774451E+03 0.  0.
          5    1    3    3  502    0 -0.85982862778E+01  0.49551780859E+02 -0.46687628697E+02  0.68749666083E+02  0.41800000000E+01 0. -1.
         -5    1    3    3    0  502  0.26172625889E+02 -0.49946645765E+02 -0.15168465873E+03  0.16188076434E+03  0.41800000000E+01 0.  1.
        -11    1    1    2    0    0 -0.47061941217E+02  0.18948122554E+02  0.59146798017E+01  0.51076815646E+02  0.00000000000E+00 0. -1.
         11    1    1    2    0    0  0.29487601606E+02 -0.18553257648E+02  0.35333994911E+02  0.49620894935E+02  0.00000000000E+00 0.  1.
</event>
<event>
 7    1  0.4966153E-006  0.1080527E+03  0.7561462E-02  0.1264219E+00
          1   -1    0    0  501    0  0.00000000000E+00  0.00000000000E+00  0.45276057291E+02  0.45276057291E+02  0.00000000000E+00 0. -1.
         -1   -1    0    0    0  501 -0.00000000000E+00 -0.00000000000E+00 -0.38588815156E+03  0.38588815156E+03  0.00000000000E+00 0.  1.
         23    2    1    2    0    0 -0.40076179160E+02 -0.16615759100E+02 -0.29564686347E+03  0.32274564018E+03  0.12196514580E+03 0.  0.
          5    1    3    3  502    0 -0.77402174693E+02 -0.32155571856E+02 -0.15398901369E+03  0.17537150905E+03  0.41800000000E+01 0. -1.
         -5    1    3    3    0  502  0.37325995533E+02  0.15539812756E+02 -0.14165784978E+03  0.14737413113E+03  0.41800000000E+01 0.  1.
        -11    1    1    2    0    0 -0.22066653141E+02 -0.96351464689E+01 -0.31465180443E+02  0.39621090452E+02  0.00000000000E+00 0. -1.
         11    1    1    2    0    0  0.62142832301E+02  0.26250905569E+02 -0.13500050359E+02  0.68797478219E+02  0.00000000000E+00 0.  1.
</event>
<event>
 7    1  0.4966153E-006  0.9529569E+02  0.7561462E-02  0.1290512E+00
          1   -1    0    0  501    0  0.00000000000E+00  0.00000000000E+00  0.67920733568E+02  0.67920733568E+02  0.00000000000E+00 0. -1.
         -1   -1    0    0    0  501 -0.00000000000E+00 -0.00000000000E+00 -0.23092384847E+03  0.23092384847E+03  0.00000000000E+00 0.  1.
         23    2    1    2    0    0 -0.21813835813E+02 -0.46457784436E+02 -0.11972810939E+03  0.18059973285E+03  0.12508906490E+03 0.  0.
          5    1    3    3  502    0  0.42721367812E+02  0.15442608124E+02 -0.43178645582E+02  0.62812874856E+02  0.41800000000E+01 0. -1.
         -5    1    3    3    0  502 -0.64535203625E+02 -0.61900392559E+02 -0.76549463809E+02  0.11778685799E+03  0.41800000000E+01 0. -1.
        -11    1    1    2    0    0  0.25143910936E+02  0.32435728260E+02  0.25273323379E+02  0.48197858869E+02  0.00000000000E+00 0. -1.
         11    1    1    2    0    0 -0.33300751225E+01  0.14022056175E+02 -0.68548328892E+02  0.70046990325E+02  0.00000000000E+00 0.  1.
</event>
<event>
 7    1  0.4966153E-006  0.1289755E+03  0.7561462E-02  0.1228984E+00
         -1   -1    0    0    0  501 -0.00000000000E+00  0.00000000000E+00  0.24379092016E+03  0.24379092016E+03  0.00000000000E+00 0.  1.
          1   -1    0    0  501    0  0.00000000000E+00 -0.00000000000E+00 -0.95652685102E+02  0.95652685102E+02  0.00000000000E+00 0. -1.
         23    2    1    2    0    0 -0.37195812794E+02  0.84728876212E+02  0.13911609414E+03  0.20870916566E+03  0.12507484651E+03 0.  0.
          5    1    3    3  502    0 -0.65462339700E+02  0.10122927046E+03  0.94584012752E+02  0.15328499922E+03  0.41800000000E+01 0. -1.
         -5    1    3    3    0  502  0.28266526906E+02 -0.16500394247E+02  0.44532081384E+02  0.55424166444E+02  0.41800000000E+01 0. -1.
        -11    1    1    2    0    0  0.48242883116E+02 -0.76941405040E+02 -0.24943628968E+02  0.94178236376E+02  0.00000000000E+00 0. -1.
         11    1    1    2    0    0 -0.11047070322E+02 -0.77874711716E+01  0.33965769891E+02  0.36556203225E+02  0.00000000000E+00 0.  1.
</event>
<event>
 6    1  0.4966153E-006  0.1204750E+03  0.7561462E-02  0.1242316E+00
          2   -1    0    0  501    0  0.00000000000E+00  0.00000000000E+00  0.21424720095E+03  0.21424720095E+03  0.00000000000E+00 0. -1.
         -2   -1    0    0    0  501 -0.00000000000E+00 -0.00000000000E+00 -0.74867097440E+02  0.74867097440E+02  0.00000000000E+00 0.  1.
          5    1    1    2  502    0 -0.37893499108E+02  0.62659241962E+02  0.59633299583E+02  0.94528835268E+02  0.41800000000E+01 0. -1.
         -5    1    1    2    0  502  0.62601590326E+02 -0.55567207896E+02  0.14122050491E+02  0.84991637322E+02  0.41800000000E+01 0.  1.
        -11    1    1    2    0    0  0.43846145030E+01  0.33537425268E+02  0.11015350581E+02  0.35571360480E+02  0.00000000000E+00 0. -1.
         11    1    1    2    0    0 -0.29092705720E+02 -0.40629459334E+02  0.54609402855E+02  0.74022465320E+02  0.00000000000E+00 0.  1.
</event>
<event>
 7    1  0.4966153E-006  0.1773312E+03  0.7561462E-02  0.1170411E+00
         -1   -1    0    0    0  501 -0.00000000000E+00  0.00000000000E+00  0.47556853221E+02  0.47556853221E+02  0.00000000000E+00 0.  1.
          1   -1    0    0  501    0  0.00000000000E+00 -0.00000000000E+00 -0.87690444673E+03  0.87690444673E+03  0.00000000000E+00 0. -1.
         23    2    1    2    0    0  0.73534278724E+02  0.14056176810E+03 -0.27159234096E+03  0.33848813908E+03  0.12508764860E+03 0.  0.
          5    1    3    3  502    0  0.42263688058E+02  0.14435123248E+03 -0.26686576043E+03  0.30636302672E+03  0.41800000000E+01 0. -1.
         -5    1    3    3    0  502  0.31270590666E+02 -0.37894643819E+01 -0.47265805253E+01  0.32125112363E+02  0.41800000000E+01 0. -1.
        -11    1    1    2    0    0 -0.66765159666E+01  0.74514466983E+01 -0.82464562363E+01  0.12965491267E+02  0.00000000000E+00 0.  1.
         11    1    1    2    0    0 -0.66857762757E+02 -0.14801321480E+03 -0.54950879632E+03  0.57300766961E+03  0.00000000000E+00 0. -1.
</event>
<event>
 7    1  0.4966153E-006  0.2453661E+03  0.7561462E-02  0.1116269E+00
          1   -1    0    0  501    0  0.00000000000E+00  0.00000000000E+00  0.10327632947E+04  0.10327632947E+04  0.00000000000E+00 0. -1.
         -1   -1    0    0    0  501 -0.00000000000E+00 -0.00000000000E+00 -0.66910581742E+02  0.66910581742E+02  0.00000000000E+00 0.  1.
         23    2    1    2    0    0 -0.11764034784E+03  0.20450049413E+03  0.57812105020E+03  0.63680382423E+03  0.12504182632E+03 0.  0.
          5    1    3    3  502    0  0.13354085802E+01  0.50320348913E-01  0.12991437587E+03  0.12998847375E+03  0.41800000000E+01 0. -1.
         -5    1    3    3    0  502 -0.11897575642E+03  0.20445017378E+03  0.44820667433E+03  0.50681535049E+03  0.41800000000E+01 0. -1.
        -11    1    1    2    0    0  0.12498897747E+02 -0.10253677986E+03  0.12583990124E+03  0.16280569527E+03  0.00000000000E+00 0.  1.
         11    1    1    2    0    0  0.10514145010E+03 -0.10196371427E+03  0.26189176155E+03  0.30006435697E+03  0.00000000000E+00 0. -1.
</event>
<event>
 7    1  0.4966153E-006  0.3540340E+03  0.7561462E-02  0.1060971E+00
         -1   -1    0    0    0  501 -0.00000000000E+00  0.00000000000E+00  0.26252438392E+03  0.26252438392E+03  0.00000000000E+00 0.  1.
          1   -1    0    0  501    0  0.00000000000E+00 -0.00000000000E+00 -0.63588964654E+03  0.63588964654E+03  0.00000000000E+00 0. -1.
         23    2    1    2    0    0 -0.15942270125E+03  0.30834638175E+03  0.15522733372E+02  0.36929884640E+03  0.12509034290E+03 0.  0.
          5    1    3    3  502    0 -0.57303736304E+00  0.41185262388E+02  0.39899324641E+02  0.57497675750E+02  0.41800000000E+01 0.  1.
         -5    1    3    3    0  502 -0.15884966389E+03  0.26716111936E+03 -0.24376591269E+02  0.31180117065E+03  0.41800000000E+01 0.  1.
        -11    1    1    2    0    0  0.10694580311E+03 -0.12206034621E+03 -0.21147533214E+03  0.26656696911E+03  0.00000000000E+00 0. -1.
         11    1    1    2    0    0  0.52476898146E+02 -0.18628603554E+03 -0.17741266386E+03  0.26254821495E+03  0.00000000000E+00 0.  1.
</event>
<event>
 7    1  0.4966153E-006  0.1741878E+03  0.7561462E-02  0.1173550E+00
          2   -1    0    0  501    0  0.00000000000E+00  0.00000000000E+00  0.43103691095E+03  0.43103691095E+03  0.00000000000E+00 0. -1.
         -2   -1    0    0    0  501 -0.00000000000E+00 -0.00000000000E+00 -0.96461771345E+02  0.96461771345E+02  0.00000000000E+00 0.  1.
         23    2    1    2    0    0 -0.13328632690E+03 -0.10696000090E+03  0.11060742475E+03  0.23892892385E+03  0.12508933414E+03 0.  0.
          5    1    3    3  502    0 -0.73252651443E+02 -0.75538642448E+02 -0.43785040199E+01  0.10539772836E+03  0.41800000000E+01 0.  1.
         -5    1    3    3    0  502 -0.60033675454E+02 -0.31421358449E+02  0.11498592877E+03  0.13353119549E+03  0.41800000000E+01 0.  1.
        -11    1    1    2    0    0  0.12297653503E+03  0.81019664882E+02  0.15323633897E+03  0.21252950347E+03  0.00000000000E+00 0.  1.
         11    1    1    2    0    0  0.10309791871E+02  0.25940336016E+02  0.70731375888E+02  0.76040254971E+02  0.00000000000E+00 0. -1.
</event>
<event>
 7    1  0.4966153E-006  0.1107566E+03  0.7561462E-02  0.1259175E+00
          2   -1    0    0  501    0  0.00000000000E+00  0.00000000000E+00  0.63435796324E+03  0.63435796324E+03  0.00000000000E+00 0. -1.
         -2   -1    0    0    0  501 -0.00000000000E+00 -0.00000000000E+00 -0.31741594466E+02  0.31741594466E+02  0.00000000000E+00 0.  1.
         23    2    1    2    0    0 -0.27180836928E+02  0.95762498728E+02  0.35420200225E+03  0.38860746178E+03  0.12508975536E+03 0.  0.
          5    1    3    3  502    0 -0.16272610579E+02  0.66141318330E+02  0.54811635230E+02  0.87528621616E+02  0.41800000000E+01 0. -1.
         -5    1    3    3    0  502 -0.10908226349E+02  0.29621180398E+02  0.29939036702E+03  0.30107884017E+03  0.41800000000E+01 0. -1.
        -11    1    1    2    0    0 -0.66790411031E+01 -0.85905106738E+02  0.19832184515E+03  0.21623101355E+03  0.00000000000E+00 0.  1.
         11    1    1    2    0    0  0.33859878031E+02 -0.98573919897E+01  0.50092521362E+02  0.61261082373E+02  0.00000000000E+00 0. -1.
</event>
<event>
 7    1  0.4966153E-006  0.1942227E+03  0.7561462E-02  0.1154707E+00
          1   -1    0    0  501    0  0.00000000000E+00  0.00000000000E+00  0.81337084043E+03  0.81337084043E+03  0.00000000000E+00 0. -1.
         -1   -1    0    0    0  501 -0.00000000000E+00 -0.00000000000E+00 -0.54887092401E+02  0.54887092401E+02  0.00000000000E+00 0.  1.
         23    2    1    2    0    0  0.15058338078E+03 -0.97251003896E+02  0.34325515105E+03  0.40697793330E+03  0.12519515624E+03 0.  0.
          5    1    3    3  502    0  0.16172199932E+03 -0.89411838448E+02  0.24093333645E+03  0.30366894298E+03  0.41800000000E+01 0.  1.
         -5    1    3    3    0  502 -0.11138618538E+02 -0.78391654480E+01  0.10232181460E+03  0.10330899032E+03  0.41800000000E+01 0.  1.
        -11    1    1    2    0    0 -0.11060293918E+03  0.36192203484E+02  0.17461486853E+03  0.20984098279E+03  0.00000000000E+00 0. -1.
         11    1    1    2    0    0 -0.39980441608E+02  0.61058800412E+02  0.24061372846E+03  0.25143901674E+03  0.00000000000E+00 0.  1.
</event>
<event>
 7    1  0.4966153E-006  0.1333459E+03  0.7561462E-02  0.1222574E+00
         -1   -1    0    0    0  501 -0.00000000000E+00  0.00000000000E+00  0.65262659461E+02  0.65262659461E+02  0.00000000000E+00 0.  1.
          1   -1    0    0  501    0  0.00000000000E+00 -0.00000000000E+00 -0.39479607616E+03  0.39479607616E+03  0.00000000000E+00 0. -1.
         23    2    1    2    0    0 -0.48134894165E+02 -0.62798078551E+02 -0.50280694981E+02  0.15632199720E+03  0.12509137387E+03 0.  0.
          5    1    3    3  502    0 -0.71228867338E+01 -0.95049851353E+02 -0.36918475859E+02  0.10230178893E+03  0.41800000000E+01 0. -1.
         -5    1    3    3    0  502 -0.41012007431E+02  0.32251772803E+02 -0.13362219121E+02  0.54020208277E+02  0.41800000000E+01 0. -1.
        -11    1    1    2    0    0  0.95380614142E+01  0.77169459576E+02 -0.16855680070E+03  0.18562730179E+03  0.00000000000E+00 0.  1.
         11    1    1    2    0    0  0.38596832751E+02 -0.14371381025E+02 -0.11069592101E+03  0.11810943662E+03  0.00000000000E+00 0. -1.
</event>
<event>
 7    1  0.4966153E-006  0.1284005E+03  0.7561462E-02  0.1229849E+00
         -1   -1    0    0    0  501 -0.00000000000E+00  0.00000000000E+00  0.55096726215E+02  0.55096726215E+02  0.00000000000E+00 0.  1.
          1   -1    0    0  501    0  0.00000000000E+00 -0.00000000000E+00 -0.34812525212E+03  0.34812525212E+03  0.00000000000E+00 0. -1.
         23    2    1    2    0    0 -0.66300741837E+02  0.54362338808E+02 -0.16201705178E+03  0.22192301857E+03  0.12509695783E+03 0.  0.
          5    1    3    3  502    0 -0.86710831563E+02 -0.34256301531E+01 -0.71435801565E+02  0.11247688384E+03  0.41800000000E+01 0.  1.
         -5    1    3    3    0  502  0.20410089725E+02  0.57787968961E+02 -0.90581250211E+02  0.10944613474E+03  0.41800000000E+01 0.  1.
        -11    1    1    2    0    0  0.12546582166E+00 -0.40977527853E+02 -0.91536985344E+01  0.41987661610E+02  0.00000000000E+00 0.  1.
         11    1    1    2    0    0  0.66175276016E+02 -0.13384810955E+02 -0.12185777559E+03  0.13931129815E+03  0.00000000000E+00 0. -1.
</event>
<event>
 7    1  0.4966153E-006  0.1188326E+03  0.7561462E-02  0.1245035E+00
         -1   -1    0    0    0  501 -0.00000000000E+00  0.00000000000E+00  0.92650007886E+02  0.92650007886E+02  0.00000000000E+00 0.  1.
          1   -1    0    0  501    0  0.00000000000E+00 -0.00000000000E+00 -0.32236396303E+03  0.32236396303E+03  0.00000000000E+00 0. -1.
         23    2    1    2    0    0 -0.37717794176E+02  0.63606114760E+02  0.13940245922E+02  0.14597981088E+03  0.12508958748E+03 0.  0.
          5    1    3    3  502    0 -0.69240559188E+02  0.64090750636E+02 -0.23033391879E+02  0.97210539013E+02  0.41800000000E+01 0. -1.
         -5    1    3    3    0  502  0.31522765012E+02 -0.48463587635E+00  0.36973637801E+02  0.48769271864E+02  0.41800000000E+01 0. -1.
        -11    1    1    2    0    0 -0.21550994586E+02  0.35603159483E+01 -0.27974331360E+02  0.35492033364E+02  0.00000000000E+00 0.  1.
         11    1    1    2    0    0  0.59268788761E+02 -0.67166430708E+02 -0.21567986971E+03  0.23354212668E+03  0.00000000000E+00 0. -1.
</event>
<event>
 7    1  0.4966153E-006  0.4353078E+03  0.7561462E-02  0.1032196E+00
          2   -1    0    0  501    0  0.00000000000E+00  0.00000000000E+00  0.20571028207E+04  0.20571028207E+04  0.00000000000E+00 0. -1.
         -2   -1    0    0    0  501 -0.00000000000E+00 -0.00000000000E+00 -0.10433245213E+03  0.10433245213E+03  0.00000000000E+00 0.  1.
         23    2    1    2    0    0  0.20491338441E+03 -0.37105273775E+03  0.63124137861E+03  0.77057340237E+03  0.12509221031E+03 0.  0.
          5    1    3    3  502    0  0.73057025722E+02 -0.38108167404E+02  0.96152483921E+02  0.12669780580E+03  0.41800000000E+01 0.  1.
         -5    1    3    3    0  502  0.13185635868E+03 -0.33294457035E+03  0.53508889468E+03  0.64387559657E+03  0.41800000000E+01 0.  1.
        -11    1    1    2    0    0 -0.74465289692E+02  0.71390464508E+02  0.24546541041E+03  0.26626104766E+03  0.00000000000E+00 0. -1.
         11    1    1    2    0    0 -0.13044809471E+03  0.29966227324E+03  0.10760635796E+04  0.11246008228E+04  0.00000000000E+00 0.  1.
</event>
<event>
 7    1  0.4966153E-006  0.1252458E+03  0.7561462E-02  0.1234686E+00
          1   -1    0    0  501    0  0.00000000000E+00  0.00000000000E+00  0.49791515373E+03  0.49791515373E+03  0.00000000000E+00 0. -1.
         -1   -1    0    0    0  501 -0.00000000000E+00 -0.00000000000E+00 -0.40443060719E+02  0.40443060719E+02  0.00000000000E+00 0.  1.
         23    2    1    2    0    0 -0.21344997582E+02  0.67541414999E+02  0.13674974121E+03  0.19841684445E+03  0.12510515888E+03 0.  0.
          5    1    3    3  502    0  0.39280051315E+02  0.71850173226E+02  0.89004216165E+02  0.12101484504E+03  0.41800000000E+01 0.  1.
         -5    1    3    3    0  502 -0.60625048897E+02 -0.43087582266E+01  0.47745525043E+02  0.77401999411E+02  0.41800000000E+01 0.  1.
        -11    1    1    2    0    0  0.27962759649E+02 -0.84694798239E+02  0.29590957250E+03  0.30905921742E+03  0.00000000000E+00 0. -1.
         11    1    1    2    0    0 -0.66177620673E+01  0.17153383240E+02  0.24812779304E+02  0.30882152582E+02  0.00000000000E+00 0.  1.
</event>
<event>
 7    1  0.4966153E-006  0.1977773E+03  0.7561462E-02  0.1151628E+00
          2   -1    0    0  501    0  0.00000000000E+00  0.00000000000E+00  0.54660726003E+03  0.54660726003E+03  0.00000000000E+00 0. -1.
         -2   -1    0    0    0  501 -0.00000000000E+00 -0.00000000000E+00 -0.11309269239E+03  0.11309269239E+03  0.00000000000E+00 0.  1.
         23    2    1    2    0    0  0.18801286015E+03 -0.13626207704E+02  0.64142192128E+02  0.23515087780E+03  0.12508879006E+03 0.  0.
          5    1    3    3  502    0  0.86715157335E+02  0.20555714141E+02 -0.28465436848E+02  0.93647260454E+02  0.41800000000E+01 0.  1.
         -5    1    3    3    0  502  0.10129770281E+03 -0.34181921845E+02  0.92607628976E+02  0.14150361734E+03  0.41800000000E+01 0.  1.
        -11    1    1    2    0    0 -0.86711366827E+02 -0.26070133092E+02  0.23377332086E+03  0.25069598824E+03  0.00000000000E+00 0.  1.
         11    1    1    2    0    0 -0.10130149332E+03  0.39696340796E+02  0.13559905465E+03  0.17385308638E+03  0.00000000000E+00 0. -1.
</event>
<event>
 7    1  0.4966153E-006  0.1052244E+03  0.7561462E-02  0.1269678E+00
          1   -1    0    0  501    0  0.00000000000E+00  0.00000000000E+00  0.15344063776E+03  0.15344063776E+03  0.00000000000E+00 0. -1.
         -1   -1    0    0    0  501 -0.00000000000E+00 -0.00000000000E+00 -0.97935946295E+02  0.97935946295E+02  0.00000000000E+00 0.  1.
         23    2    1    2    0    0  0.21330433403E+02 -0.59306525586E+01 -0.22298185948E+02  0.12897791567E+03  0.12509170079E+03 0.  0.
          5    1    3    3  502    0 -0.36320335033E+02 -0.41409682697E+02 -0.26004920622E+02  0.61054539999E+02  0.41800000000E+01 0. -1.
         -5    1    3    3    0  502  0.57650768436E+02  0.35479030138E+02  0.37067346746E+01  0.67923375672E+02  0.41800000000E+01 0. -1.
        -11    1    1    2    0    0 -0.11887655598E+02  0.45334776609E+02  0.64543157579E+02  0.79764512887E+02  0.00000000000E+00 0. -1.
         11    1    1    2    0    0 -0.94427778053E+01 -0.39404124051E+02  0.13259719833E+02  0.42634155497E+02  0.00000000000E+00 0.  1.
</event>
<event>
 7    1  0.4966153E-006  0.1127367E+03  0.7561462E-02  0.1255584E+00
         -1   -1    0    0    0  501 -0.00000000000E+00  0.00000000000E+00  0.22221971342E+03  0.22221971342E+03  0.00000000000E+00 0.  1.
          1   -1    0    0  501    0  0.00000000000E+00 -0.00000000000E+00 -0.60035501804E+02  0.60035501804E+02  0.00000000000E+00 0. -1.
         23    2    1    2    0    0 -0.28052124350E+02 -0.33113342842E+02  0.91591017825E+02  0.16100364700E+03  0.12509933912E+03 0.  0.
          5    1    3    3  502    0 -0.76921647358E+02 -0.31273755229E+02  0.53396833771E+02  0.98811344769E+02  0.41800000000E+01 0.  1.
         -5    1    3    3    0  502  0.48869523007E+02 -0.18395876136E+01  0.38194184055E+02  0.62192302234E+02  0.41800000000E+01 0.  1.
        -11    1    1    2    0    0  0.32059082020E+01  0.57996892749E+02  0.62190211744E+02  0.85097237632E+02  0.00000000000E+00 0.  1.
         11    1    1    2    0    0  0.24846216148E+02 -0.24883549907E+02  0.84029820443E+01  0.36154330586E+02  0.00000000000E+00 0. -1.
</event>
<event>
 6    1  0.4966153E-006  0.1560619E+03  0.7561462E-02  0.1193216E+00
         -2   -1    0    0    0  501 -0.00000000000E+00  0.00000000000E+00  0.62257770387E+02  0.62257770387E+02  0.00000000000E+00 0.  1.
          2   -1    0    0  501    0  0.00000000000E+00 -0.00000000000E+00 -0.46970435594E+03  0.46970435594E+03  0.00000000000E+00 0. -1.
          5    1    1    2  502    0 -0.50022769781E+02  0.11886664743E+03 -0.19196084016E+03  0.23129633357E+03  0.41800000000E+01 0. -1.
         -5    1    1    2    0  502  0.43505722883E+00 -0.10481856656E+03 -0.11896421019E+03  0.15860982592E+03  0.41800000000E+01 0.  1.
        -11    1    1    2    0    0 -0.34357737385E+01 -0.23996524526E+02 -0.82959560780E+02  0.86428736282E+02  0.00000000000E+00 0. -1.
         11    1    1    2    0    0  0.53023486291E+02  0.99484436560E+01 -0.13561974423E+02  0.55627230561E+02  0.00000000000E+00 0.  1.
</event>
<event>
 7    1  0.4966153E-006  0.1178351E+03  0.7561462E-02  0.1246712E+00
          3   -1    0    0  501    0  0.00000000000E+00  0.00000000000E+00  0.12351596082E+03  0.12351596082E+03  0.00000000000E+00 0. -1.
         -3   -1    0    0    0  501 -0.00000000000E+00 -0.00000000000E+00 -0.20611112392E+03  0.20611112392E+03  0.00000000000E+00 0.  1.
         23    2    1    2    0    0 -0.34625272752E+02 -0.99101197435E+02 -0.88797705200E+02  0.18588250643E+03  0.12508923576E+03 0.  0.
          5    1    3    3  502    0 -0.34624953436E+02 -0.74530710548E+02 -0.12027665883E+03  0.14573146974E+03  0.41800000000E+01 0.  1.
         -5    1    3    3    0  502 -0.31931611021E-03 -0.24570486888E+02  0.31478953625E+02  0.40151036691E+02  0.41800000000E+01 0.  1.
        -11    1    1    2    0    0  0.43935699888E+02  0.19082295975E+02 -0.28819818846E+02  0.55902251320E+02  0.00000000000E+00 0.  1.
         11    1    1    2    0    0 -0.93104271366E+01  0.80018901460E+02  0.35022360943E+02  0.87842326987E+02  0.00000000000E+00 0. -1.
</event>
<event>
 6    1  0.4966153E-006  0.1362017E+03  0.7561462E-02  0.1218533E+00
         -1   -1    0    0    0  501 -0.00000000000E+00  0.00000000000E+00  0.55552116091E+02  0.55552116091E+02  0.00000000000E+00 0.  1.
          1   -1    0    0  501    0  0.00000000000E+00 -0.00000000000E+00 -0.69800254879E+03  0.69800254879E+03  0.00000000000E+00 0. -1.
          5    1    1    2  502    0 -0.17267247804E+02 -0.60136821604E+02 -0.26923460766E+03  0.27644048459E+03  0.41800000000E+01 0. -1.
         -5    1    1    2    0  502  0.53430676490E+02  0.93307882199E+02 -0.20352670976E+02  0.10951210749E+03  0.41800000000E+01 0.  1.
        -11    1    1    2    0    0  0.19213399679E+02 -0.41841012120E+02 -0.18429903244E+03  0.18996304477E+03  0.00000000000E+00 0. -1.
         11    1    1    2    0    0 -0.55376828364E+02  0.86699515244E+01 -0.16856412163E+03  0.17763902803E+03  0.00000000000E+00 0.  1.
</event>
<event>
 7    1  0.4966153E-006  0.1239833E+03  0.7561462E-02  0.1236667E+00
          1   -1    0    0  501    0  0.00000000000E+00  0.00000000000E+00  0.20927626293E+03  0.20927626293E+03  0.00000000000E+00 0. -1.
         -1   -1    0    0    0  501 -0.00000000000E+00 -0.00000000000E+00 -0.85301965751E+02  0.85301965751E+02  0.00000000000E+00 0.  1.
         23    2    1    2    0    0  0.24513390151E+02  0.75892536909E+02  0.28576292946E+02  0.14057365363E+03  0.11217737794E+03 0.  0.
          5    1    3    3  502    0 -0.44989975018E+02  0.28914145249E+02  0.11014114602E+02  0.54762293305E+02  0.41800000000E+01 0. -1.
         -5    1    3    3    0  502  0.69503365169E+02  0.46978391660E+02  0.17562178345E+02  0.85811360326E+02  0.41800000000E+01 0.  1.
        -11    1    1    2    0    0 -0.50428903352E+02 -0.64871294336E+02  0.95315468062E+02  0.12584274939E+03  0.00000000000E+00 0. -1.
         11    1    1    2    0    0  0.25915513201E+02 -0.11021242573E+02  0.82536170545E-01  0.28161825660E+02  0.00000000000E+00 0.  1.
</event>
<event>
 7    1  0.4966153E-006  0.1667618E+03  0.7561462E-02  0.1181267E+00
         -2   -1    0    0    0  501 -0.00000000000E+00  0.00000000000E+00  0.93342840017E+03  0.93342840017E+03  0.00000000000E+00 0.  1.
          2   -1    0    0  501    0  0.00000000000E+00 -0.00000000000E+00 -0.36667946150E+02  0.36667946150E+02  0.00000000000E+00 0. -1.
         23    2    1    2    0    0  0.34555338360E+02 -0.14461294819E+03  0.43297147259E+03  0.47457307213E+03  0.12509327930E+03 0.  0.
          5    1    3    3  502    0 -0.39169957377E+02 -0.63918897336E+02  0.10681366509E+03  0.13056240825E+03  0.41800000000E+01 0. -1.
         -5    1    3    3    0  502  0.73725295737E+02 -0.80694050852E+02  0.32615780750E+03  0.34401066389E+03  0.41800000000E+01 0. -1.
        -11    1    1    2    0    0 -0.27983576218E+02  0.95723007455E+02  0.16583105567E+03  0.19350946674E+03  0.00000000000E+00 0. -1.
         11    1    1    2    0    0 -0.65717621418E+01  0.48889940733E+02  0.29795792577E+03  0.30201380745E+03  0.00000000000E+00 0.  1.
</event>
<event>
 7    1  0.4966153E-006  0.1216814E+03  0.7561462E-02  0.1240349E+00
          2   -1    0    0  501    0  0.00000000000E+00  0.00000000000E+00  0.51051790370E+02  0.51051790370E+02  0.00000000000E+00 0. -1.
         -2   -1    0    0    0  501 -0.00000000000E+00 -0.00000000000E+00 -0.49398054034E+03  0.49398054034E+03  0.00000000000E+00 0.  1.
         23    2    1    2    0    0 -0.97414124083E+01  0.76630513706E+02 -0.38846065953E+03  0.41535319572E+03  0.12509781151E+03 0.  0.
          5    1    3    3  502    0 -0.63889914478E+02  0.64119414801E+02 -0.25949072488E+03  0.27485656118E+03  0.41800000000E+01 0.  1.
         -5    1    3    3    0  502  0.54148502070E+02  0.12511098905E+02 -0.12896993465E+03  0.14049663454E+03  0.41800000000E+01 0.  1.
        -11    1    1    2    0    0 -0.22591919521E+02 -0.14123475552E+02  0.15182128955E+02  0.30665362038E+02  0.00000000000E+00 0. -1.
         11    1    1    2    0    0  0.32333331930E+02 -0.62507038154E+02 -0.69650219388E+02  0.99013772947E+02  0.00000000000E+00 0.  1.
</event>
<event>
 7    1  0.4966153E-006  0.1000200E+03  0.7561462E-02  0.1280254E+00
         -4   -1    0    0    0  501 -0.00000000000E+00  0.00000000000E+00  0.94649509144E+02  0.94649509144E+02  0.00000000000E+00 0.  1.
          4   -1    0    0  501    0  0.00000000000E+00 -0.00000000000E+00 -0.20622924418E+03  0.20622924418E+03  0.00000000000E+00 0. -1.
         23    2    1    2    0    0 -0.86790916718E+01 -0.66854318333E+02 -0.15049314934E+01  0.14211534436E+03  0.12509868013E+03 0.  0.
          5    1    3    3  502    0 -0.59258636591E+02 -0.51335604691E+02 -0.27277117819E+02  0.83117049251E+02  0.41800000000E+01 0.  1.
         -5    1    3    3    0  502  0.50579544919E+02 -0.15518713642E+02  0.25772186326E+02  0.58998295105E+02  0.41800000000E+01 0.  1.
        -11    1    1    2    0    0 -0.90398067698E+00  0.38767501583E+02  0.57456303065E+01  0.39201385532E+02  0.00000000000E+00 0.  1.
         11    1    1    2    0    0  0.95830723487E+01  0.28086816750E+02 -0.11582043385E+03  0.11956202343E+03  0.00000000000E+00 0. -1.
</event>
<event>
 7    1  0.4966153E-006  0.1456218E+03  0.7561462E-02  0.1205958E+00
          2   -1    0    0  501    0  0.00000000000E+00  0.00000000000E+00  0.29102723605E+03  0.29102723605E+03  0.00000000000E+00 0. -1.
         -2   -1    0    0    0  501 -0.00000000000E+00 -0.00000000000E+00 -0.13868805466E+03  0.13868805466E+03  0.00000000000E+00 0.  1.
         23    2    1    2    0    0  0.12450682024E+03 -0.60876262457E+01 -0.27150566596E+02  0.17867142616E+03  0.12508923926E+03 0.  0.
          5    1    3    3  502    0  0.70549964692E+02 -0.21667951227E+02  0.45460243215E+02  0.86780779794E+02  0.41800000000E+01 0. -1.
         -5    1    3    3    0  502  0.53956855552E+02  0.15580324982E+02 -0.72610809811E+02  0.91890646363E+02  0.41800000000E+01 0. -1.
        -11    1    1    2    0    0 -0.10948071226E+03 -0.36849464646E+02  0.76763349853E+02  0.13869578683E+03  0.00000000000E+00 0.  1.
         11    1    1    2    0    0 -0.15026107981E+02  0.42937090892E+02  0.10272639814E+03  0.11234807773E+03  0.00000000000E+00 0. -1.
</event>
<event>
 7    1  0.4966153E-006  0.1829827E+03  0.7561462E-02  0.1164947E+00
          2   -1    0    0  501    0  0.00000000000E+00  0.00000000000E+00  0.19137833798E+04  0.19137833798E+04  0.00000000000E+00 0. -1.
         -2   -1    0    0    0  501 -0.00000000000E+00 -0.00000000000E+00 -0.19504588366E+02  0.19504588366E+02  0.00000000000E+00 0.  1.
         23    2    1    2    0    0  0.55628991557E+02 -0.14813776255E+03  0.11364017629E+04  0.11541642221E+04  0.12508678439E+03 0.  0.
          5    1    3    3  502    0 -0.85575204965E+01 -0.11364978330E+03  0.88702158549E+03  0.89432335870E+03  0.41800000000E+01 0.  1.
         -5    1    3    3    0  502  0.64186512054E+02 -0.34487979258E+02  0.24938017738E+03  0.25984086344E+03  0.41800000000E+01 0.  1.
        -11    1    1    2    0    0 -0.11512169357E+02  0.13115563710E+03  0.60235570251E+03  0.61657661610E+03  0.00000000000E+00 0.  1.
         11    1    1    2    0    0 -0.44116822200E+02  0.16982125459E+02  0.15552132610E+03  0.16254712996E+03  0.00000000000E+00 0. -1.
</event>
<event>
 7    1  0.4966153E-006  0.1289680E+03  0.7561462E-02  0.1228995E+00
          2   -1    0    0  501    0  0.00000000000E+00  0.00000000000E+00  0.41830308670E+03  0.41830308670E+03  0.00000000000E+00 0.  1.
         -2   -1    0    0    0  501 -0.00000000000E+00 -0.00000000000E+00 -0.44178700935E+02  0.44178700935E+02  0.00000000000E+00 0. -1.
         23    2    1    2    0    0 -0.80745298925E+02  0.20807716856E+02  0.21764723378E+03  0.26451772246E+03  0.12508614130E+03 0.  0.
          5    1    3    3  502    0 -0.55305310024E+02 -0.43229465129E+02  0.15930054639E+03  0.17413098648E+03  0.41800000000E+01 0. -1.
         -5    1    3    3    0  502 -0.25439988900E+02  0.64037181985E+02  0.58346687389E+02  0.90386735980E+02  0.41800000000E+01 0. -1.
        -11    1    1    2    0    0  0.23804756019E+02 -0.49423108528E+02  0.93278706078E+02  0.10821380260E+03  0.00000000000E+00 0. -1.
         11    1    1    2    0    0  0.56940542905E+02  0.28615391673E+02  0.63198445905E+02  0.89750262572E+02  0.00000000000E+00 0.  1.
</event>
<event>
 7    1  0.4966153E-006  0.1960490E+03  0.7561462E-02  0.1153116E+00
          2   -1    0    0  501    0  0.00000000000E+00  0.00000000000E+00  0.41071684518E+03  0.41071684518E+03  0.00000000000E+00 0. -1.
         -2   -1    0    0    0  501 -0.00000000000E+00 -0.00000000000E+00 -0.20476807876E+03  0.20476807876E+03  0.00000000000E+00 0.  1.
         23    2    1    2    0    0  0.19302281772E+03 -0.12231577492E+02 -0.92088598897E+02  0.24806266796E+03  0.12508939818E+03 0.  0.
          5    1    3    3  502    0  0.17755037053E+03 -0.17203532892E+02 -0.12032890271E+03  0.21521294768E+03  0.41800000000E+01 0. -1.
         -5    1    3    3    0  502  0.15472447190E+02  0.49719554000E+01  0.28240303817E+02  0.32849720277E+02  0.41800000000E+01 0. -1.
        -11    1    1    2    0    0 -0.40512166841E+02 -0.12470960715E+02  0.14055892035E+03  0.14681134361E+03  0.00000000000E+00 0. -1.
         11    1    1    2    0    0 -0.15251065088E+03  0.24702538207E+02  0.15747844498E+03  0.22061091238E+03  0.00000000000E+00 0.  1.
</event>
<event>
 7    1  0.4966153E-006  0.9743074E+02  0.7561462E-02  0.1285793E+00
          1   -1    0    0  501    0  0.00000000000E+00  0.00000000000E+00  0.41104349819E+03  0.41104349819E+03  0.00000000000E+00 0. -1.
         -1   -1    0    0    0  501 -0.00000000000E+00 -0.00000000000E+00 -0.32366443378E+02  0.32366443378E+02  0.00000000000E+00 0.  1.
         23    2    1    2    0    0 -0.28361290962E+02  0.49332921224E+01  0.16510086001E+03  0.20912312388E+03  0.12508192023E+03 0.  0.
          5    1    3    3  502    0  0.12921099638E+02 -0.48339032951E+02  0.31077152915E+02  0.59049798948E+02  0.41800000000E+01 0. -1.
         -5    1    3    3    0  502 -0.41282390600E+02  0.53272325073E+02  0.13402370710E+03  0.15007332494E+03  0.41800000000E+01 0. -1.
        -11    1    1    2    0    0 -0.30936745553E+01 -0.34093605418E+02  0.29224991442E+02  0.45011608252E+02  0.00000000000E+00 0.  1.
         11    1    1    2    0    0  0.31454965517E+02  0.29160313295E+02  0.18435120335E+03  0.18927520943E+03  0.00000000000E+00 0. -1.
</event>
<event>
 7    1  0.4966153E-006  0.8951891E+02  0.7561462E-02  0.1304021E+00
          1   -1    0    0  501    0  0.00000000000E+00  0.00000000000E+00  0.14732612034E+03  0.14732612034E+03  0.00000000000E+00 0. -1.
         -1   -1    0    0    0  501 -0.00000000000E+00 -0.00000000000E+00 -0.84535453972E+02  0.84535453972E+02  0.00000000000E+00 0.  1.
         23    2    1    2    0    0  0.17217016841E+02 -0.17346822412E+02  0.27446080046E+02  0.13037644700E+03  0.12508953875E+03 0.  0.
          5    1    3    3  502    0 -0.53410314469E+02 -0.62394845084E+01  0.22957722183E+02  0.58618446469E+02  0.41800000000E+01 0. -1.
         -5    1    3    3    0  502  0.70627331310E+02 -0.11107337904E+02  0.44883578628E+01  0.71758000527E+02  0.41800000000E+01 0. -1.
        -11    1    1    2    0    0 -0.24477872290E+02 -0.90576793792E+01 -0.24421607926E+02  0.35743848719E+02  0.00000000000E+00 0.  1.
         11    1    1    2    0    0  0.72608554483E+01  0.26404501792E+02  0.59766194247E+02  0.65741278597E+02  0.00000000000E+00 0. -1.
</event>
<event>
 7    1  0.4966153E-006  0.9815011E+02  0.7561462E-02  0.1284235E+00
         -2   -1    0    0    0  501 -0.00000000000E+00  0.00000000000E+00  0.73922363332E+02  0.73922363332E+02  0.00000000000E+00 0.  1.
          2   -1    0    0  501    0  0.00000000000E+00 -0.00000000000E+00 -0.20204726459E+03  0.20204726459E+03  0.00000000000E+00 0. -1.
         23    2    1    2    0    0 -0.29376765359E+02  0.81107526043E+00 -0.18111839685E+02  0.12977335523E+03  0.12509769305E+03 0.  0.
          5    1    3    3  502    0 -0.50472302743E+02 -0.41137204549E+02  0.20975983210E+02  0.68536028583E+02  0.41800000000E+01 0. -1.
         -5    1    3    3    0  502  0.21095537384E+02  0.41948279810E+02 -0.39087822896E+02  0.61237326650E+02  0.41800000000E+01 0. -1.
        -11    1    1    2    0    0  0.96357791664E+01  0.38626823952E+02 -0.17061319234E+02  0.43312450667E+02  0.00000000000E+00 0. -1.
         11    1    1    2    0    0  0.19740986192E+02 -0.39437899212E+02 -0.92951742338E+02  0.10288382202E+03  0.00000000000E+00 0.  1.
</event>
<event>
 7    1  0.4966153E-006  0.1246725E+03  0.7561462E-02  0.1235582E+00
          2   -1    0    0  501    0  0.00000000000E+00  0.00000000000E+00  0.91293979497E+02  0.91293979497E+02  0.00000000000E+00 0. -1.
         -2   -1    0    0    0  501 -0.00000000000E+00 -0.00000000000E+00 -0.19064898517E+03  0.19064898517E+03  0.00000000000E+00 0.  1.
         23    2    1    2    0    0  0.40334248434E+02  0.56133041887E+02 -0.78556150560E+02  0.16309421171E+03  0.12510348962E+03 0.  0.
          5    1    3    3  502    0  0.81287787369E+02  0.44080172406E+02 -0.27818825481E+02  0.96654670999E+02  0.41800000000E+01 0. -1.
         -5    1    3    3    0  502 -0.40953538935E+02  0.12052869481E+02 -0.50737325079E+02  0.66439540714E+02  0.41800000000E+01 0. -1.
        -11    1    1    2    0    0  0.15060369661E+02 -0.56517544719E+02  0.29784089071E+01  0.58565506187E+02  0.00000000000E+00 0. -1.
         11    1    1    2    0    0 -0.55394618095E+02  0.38450283180E+00 -0.23777264016E+02  0.60283246764E+02  0.00000000000E+00 0.  1.
</event>
<event>
 7    1  0.4966153E-006  0.7462766E+02  0.7561462E-02  0.1345028E+00
          1   -1    0    0  501    0  0.00000000000E+00  0.00000000000E+00  0.57662261955E+02  0.57662261955E+02  0.00000000000E+00 0. -1.
         -1   -1    0    0    0  501 -0.00000000000E+00 -0.00000000000E+00 -0.19122027675E+03  0.19122027675E+03  0.00000000000E+00 0.  1.
         23    2    1    2    0    0  0.29778406232E+02  0.88174543615E+01 -0.10054144272E+03  0.16347875597E+03  0.12510883650E+03 0.  0.
          5    1    3    3  502    0  0.69482493139E+02 -0.13521542953E+02 -0.25043733161E+02  0.75201794841E+02  0.41800000000E+01 0. -1.
         -5    1    3    3    0  502 -0.39704086907E+02  0.22338997315E+02 -0.75497709559E+02  0.88276961133E+02  0.41800000000E+01 0. -1.
        -11    1    1    2    0    0 -0.20181903459E+02 -0.97706161330E+00  0.21495336719E+02  0.29501074172E+02  0.00000000000E+00 0. -1.
         11    1    1    2    0    0 -0.95965027724E+01 -0.78403927482E+01 -0.54511908795E+02  0.55902708561E+02  0.00000000000E+00 0.  1.
</event>
<event>
 7    1  0.4966153E-006  0.7153998E+02  0.7561462E-02  0.1354933E+00
         -4   -1    0    0    0  501 -0.00000000000E+00  0.00000000000E+00  0.62913422502E+03  0.62913422502E+03  0.00000000000E+00 0.  1.
          4   -1    0    0  501    0  0.00000000000E+00 -0.00000000000E+00 -0.28440092201E+02  0.28440092201E+02  0.00000000000E+00 0. -1.
         23    2    1    2    0    0  0.44048709730E+02 -0.43557268454E+02  0.45680785117E+03  0.47765838721E+03  0.12508636024E+03 0.  0.
          5    1    3    3  502    0 -0.18046833611E+01  0.95762719874E+01 -0.41372939612E+01  0.11382067850E+02  0.41800000000E+01 0. -1.
         -5    1    3    3    0  502  0.45853393091E+02 -0.53133540441E+02  0.46094514513E+03  0.46627631936E+03  0.41800000000E+01 0. -1.
        -11    1    1    2    0    0 -0.20805383677E+02  0.24254174647E+02  0.14616426029E+03  0.14961657650E+03  0.00000000000E+00 0.  1.
         11    1    1    2    0    0 -0.23243326053E+02  0.19303093807E+02 -0.22779786386E+01  0.30299353511E+02  0.00000000000E+00 0. -1.
</event>
<event>
 6    1  0.4966153E-006  0.3424824E+03  0.7561462E-02  0.1065744E+00
         -2   -1    0    0    0  501 -0.00000000000E+00  0.00000000000E+00  0.25116105785E+03  0.25116105785E+03  0.00000000000E+00 0.  1.
          2   -1    0    0  501    0  0.00000000000E+00 -0.00000000000E+00 -0.66056810378E+03  0.66056810378E+03  0.00000000000E+00 0. -1.
          5    1    1    2  502    0 -0.39671915786E+02 -0.75231394808E+02 -0.85441910528E+02  0.12062925077E+03  0.41800000000E+01 0. -1.
         -5    1    1    2    0  502 -0.25213840689E+03 -0.82288097773E+02  0.63581748773E+02  0.27277319964E+03  0.41800000000E+01 0.  1.
        -11    1    1    2    0    0  0.32139540055E+02  0.27511181208E+01 -0.82362710792E+01  0.33291963702E+02  0.00000000000E+00 0.  1.
         11    1    1    2    0    0  0.25967078263E+03  0.15476837446E+03 -0.37931061310E+03  0.48503474751E+03  0.00000000000E+00 0. -1.
</event>
<event>
 7    1  0.4966153E-006  0.1520808E+03  0.7561462E-02  0.1197939E+00
          2   -1    0    0  501    0  0.00000000000E+00  0.00000000000E+00  0.49681155586E+03  0.49681155586E+03  0.00000000000E+00 0. -1.
         -2   -1    0    0    0  501 -0.00000000000E+00 -0.00000000000E+00 -0.58865800352E+02  0.58865800352E+02  0.00000000000E+00 0.  1.
         23    2    1    2    0    0  0.79479182224E+02  0.10025293448E+03  0.18198395347E+03  0.25521041182E+03  0.12508638495E+03 0.  0.
          5    1    3    3  502    0  0.50232991192E+02  0.64039804085E+01  0.29194014378E+01  0.50895576173E+02  0.41800000000E+01 0. -1.
         -5    1    3    3    0  502  0.29246191032E+02  0.93848954069E+02  0.17906455204E+03  0.20431483565E+03  0.41800000000E+01 0. -1.
        -11    1    1    2    0    0  0.34306967184E+01 -0.64631314180E+02  0.13336548935E+03  0.14824078455E+03  0.00000000000E+00 0. -1.
         11    1    1    2    0    0 -0.82909878942E+02 -0.35621620297E+02  0.12259631269E+03  0.15222615985E+03  0.00000000000E+00 0.  1.
</event>
<event>
 7    1  0.4966153E-006  0.1132792E+03  0.7561462E-02  0.1254615E+00
         -1   -1    0    0    0  501 -0.00000000000E+00  0.00000000000E+00  0.16714656168E+02  0.16714656168E+02  0.00000000000E+00 0.  1.
          1   -1    0    0  501    0  0.00000000000E+00 -0.00000000000E+00 -0.81689092042E+03  0.81689092042E+03  0.00000000000E+00 0. -1.
         23    2    1    2    0    0 -0.30084860101E+02 -0.16582865493E+02 -0.36527332131E+03  0.38762415916E+03  0.12509116384E+03 0.  0.
          5    1    3    3  502    0 -0.76733261731E+02 -0.26188876773E+02 -0.20959024775E+03  0.22476519987E+03  0.41800000000E+01 0. -1.
         -5    1    3    3    0  502  0.46648401630E+02  0.96060112804E+01 -0.15568307357E+03  0.16285895930E+03  0.41800000000E+01 0. -1.
        -11    1    1    2    0    0 -0.30681267781E+02  0.20123782712E+02 -0.19884515419E+03  0.20220213196E+03  0.00000000000E+00 0.  1.
         11    1    1    2    0    0  0.60766127882E+02 -0.35409172193E+01 -0.23605778875E+03  0.24377928546E+03  0.00000000000E+00 0. -1.
</event>
<event>
 7    1  0.4966153E-006  0.1214902E+03  0.7561462E-02  0.1240659E+00
          1   -1    0    0  501    0  0.00000000000E+00  0.00000000000E+00  0.47794880887E+02  0.47794880887E+02  0.00000000000E+00 0. -1.
         -1   -1    0    0    0  501 -0.00000000000E+00 -0.00000000000E+00 -0.33426334657E+03  0.33426334657E+03  0.00000000000E+00 0.  1.
         23    2    1    2    0    0  0.59642213061E+01  0.63729772526E+02 -0.17359135698E+03  0.22333778774E+03  0.12509497341E+03 0.  0.
          5    1    3    3  502    0  0.65448496249E+02  0.33726767673E+02 -0.93008072482E+02  0.11869698592E+03  0.41800000000E+01 0.  1.
         -5    1    3    3    0  502 -0.59484274942E+02  0.30003004853E+02 -0.80583284500E+02  0.10464080182E+03  0.41800000000E+01 0.  1.
        -11    1    1    2    0    0  0.37087649970E+02 -0.26760302798E+02 -0.82564607633E+02  0.94384967128E+02  0.00000000000E+00 0.  1.
         11    1    1    2    0    0 -0.43051871276E+02 -0.36969469729E+02 -0.30312501072E+02  0.64335472592E+02  0.00000000000E+00 0. -1.
</event>
<event>
 7    1  0.4966153E-006  0.1264799E+03  0.7561462E-02  0.1232774E+00
          1   -1    0    0  501    0  0.00000000000E+00  0.00000000000E+00  0.17207552113E+03  0.17207552113E+03  0.00000000000E+00 0. -1.
         -1   -1    0    0    0  501 -0.00000000000E+00 -0.00000000000E+00 -0.11133949137E+03  0.11133949137E+03  0.00000000000E+00 0.  1.
         23    2    1    2    0    0 -0.29279255133E+02 -0.80224700082E+02  0.47953385529E+02  0.15887039018E+03  0.12508795469E+03 0.  0.
          5    1    3    3  502    0 -0.71761553863E+02 -0.81042206695E+02  0.39769960953E+02  0.11539792924E+03  0.41800000000E+01 0.  1.
         -5    1    3    3    0  502  0.42482298730E+02  0.81750661348E+00  0.81834245754E+01  0.43472460941E+02  0.41800000000E+01 0.  1.
        -11    1    1    2    0    0 -0.14885568170E+02  0.70598318168E+01  0.32858178169E+02  0.36757056976E+02  0.00000000000E+00 0. -1.
         11    1    1    2    0    0  0.44164823302E+02  0.73164868265E+02 -0.20075533938E+02  0.87787565341E+02  0.00000000000E+00 0.  1.
</event>
<event>
 7    1  0.4966153E-006  0.1247783E+03  0.7561462E-02  0.1235416E+00
         -1   -1    0    0    0  501 -0.00000000000E+00  0.00000000000E+00  0.63222630641E+02  0.63222630641E+02  0.00000000000E+00 0.  1.
          1   -1    0    0  501    0  0.00000000000E+00 -0.00000000000E+00 -0.36994035825E+03  0.36994035825E+03  0.00000000000E+00 0. -1.
         23    2    1    2    0    0  0.74115293404E+02 -0.43577279405E+02 -0.73685937681E+02  0.16872667275E+03  0.12508803575E+03 0.  0.
          5    1    3    3  502    0  0.74634402183E+01 -0.59914389071E+02 -0.79287559292E+02  0.99746811558E+02  0.41800000000E+01 0.  1.
         -5    1    3    3    0  502  0.66651853185E+02  0.16337109665E+02  0.56016216107E+01  0.68979861191E+02  0.41800000000E+01 0.  1.
        -11    1    1    2    0    0 -0.82489083900E+02  0.70298975317E+01 -0.12364287530E+03  0.14879996315E+03  0.00000000000E+00 0. -1.
         11    1    1    2    0    0  0.83737904967E+01  0.36547381874E+02 -0.10938891463E+03  0.11563635299E+03  0.00000000000E+00 0.  1.
</event>
<event>
 7    1  0.4966153E-006  0.1039389E+03  0.7561462E-02  0.1272224E+00
         -1   -1    0    0    0  501 -0.00000000000E+00  0.00000000000E+00  0.19624410152E+03  0.19624410152E+03  0.00000000000E+00 0.  1.
          1   -1    0    0  501    0  0.00000000000E+00 -0.00000000000E+00 -0.60440442233E+02  0.60440442233E+02  0.00000000000E+00 0. -1.
         23    2    1    2    0    0 -0.19648761346E+02 -0.26292069005E+02  0.74895977125E+02  0.14374885989E+03  0.11822428099E+03 0.  0.
          5    1    3    3  502    0  0.33517050486E+02  0.26746968419E+02  0.95891030099E+01  0.44138603166E+02  0.41800000000E+01 0. -1.
         -5    1    3    3    0  502 -0.53165811832E+02 -0.53039037425E+02  0.65306874115E+02  0.99610256728E+02  0.41800000000E+01 0.  1.
        -11    1    1    2    0    0  0.47545383007E+02 -0.48229867538E+01  0.51191657458E+02  0.70031496056E+02  0.00000000000E+00 0. -1.
         11    1    1    2    0    0 -0.27896621661E+02  0.31115055759E+02  0.97160247045E+01  0.42904187803E+02  0.00000000000E+00 0.  1.
</event>
<event>
 6    1  0.4966153E-006  0.1060943E+03  0.7561462E-02  0.1267978E+00
          1   -1    0    0  501    0  0.00000000000E+00  0.00000000000E+00  0.41774353459E+02  0.41774353459E+02  0.00000000000E+00 0. -1.
         -1   -1    0    0    0  501 -0.00000000000E+00 -0.00000000000E+00 -0.47596198875E+03  0.47596198875E+03  0.00000000000E+00 0.  1.
          5    1    1    2  502    0 -0.64917184789E+02  0.45190425564E+02 -0.20075188941E+03  0.21581290264E+03  0.41800000000E+01 0. -1.
         -5    1    1    2    0  502  0.85590225450E+02 -0.37648965207E+01 -0.83671836165E+02  0.11982616453E+03  0.41800000000E+01 0.  1.
        -11    1    1    2    0    0 -0.75247277827E+01 -0.25322281244E+02 -0.15766089590E+03  0.15985867993E+03  0.00000000000E+00 0.  1.
         11    1    1    2    0    0 -0.13148312879E+02 -0.16103247799E+02  0.78969861861E+01  0.22238595101E+02  0.00000000000E+00 0. -1.
</event>
<event>
 6    1  0.4966153E-006  0.1396004E+03  0.7561462E-02  0.1213868E+00
          1   -1    0    0  501    0  0.00000000000E+00  0.00000000000E+00  0.37045169447E+03  0.37045169447E+03  0.00000000000E+00 0. -1.
         -1   -1    0    0    0  501 -0.00000000000E+00 -0.00000000000E+00 -0.63968977226E+02  0.63968977226E+02  0.00000000000E+00 0.  1.
          5    1    1    2  502    0  0.66618284100E+02 -0.10107355089E+03  0.14955636618E+03  0.19245372829E+03  0.41800000000E+01 0. -1.
         -5    1    1    2    0  502 -0.26983222061E+02  0.38334369584E+02  0.11152315536E+01  0.47077959871E+02  0.41800000000E+01 0.  1.
        -11    1    1    2    0    0 -0.40435096199E+02  0.82161296772E+02  0.99060998680E+02  0.13490202797E+03  0.00000000000E+00 0.  1.
         11    1    1    2    0    0  0.80003415985E+00 -0.19422115464E+02  0.56750120832E+02  0.59986955567E+02  0.00000000000E+00 0. -1.
</event>
<event>
 7    1  0.4966153E-006  0.8761637E+02  0.7561462E-02  0.1308729E+00
         -1   -1    0    0    0  501 -0.00000000000E+00  0.00000000000E+00  0.11132599737E+03  0.11132599737E+03  0.00000000000E+00 0.  1.
          1   -1    0    0  501    0  0.00000000000E+00 -0.00000000000E+00 -0.10965707171E+03  0.10965707171E+03  0.00000000000E+00 0. -1.
         23    2    1    2    0    0 -0.17713525096E+02  0.53070195116E+01  0.16893732224E+02  0.12758417614E+03  0.12510152031E+03 0.  0.
          5    1    3    3  502    0 -0.71424190461E+02  0.70695947980E+01  0.16104672922E+02  0.73676502655E+02  0.41800000000E+01 0.  1.
         -5    1    3    3    0  502  0.53710665365E+02 -0.17625752863E+01  0.78905930183E+00  0.53907673481E+02  0.41800000000E+01 0.  1.
        -11    1    1    2    0    0 -0.11906621592E+02 -0.14179513483E+02 -0.46114332465E+02  0.49692634254E+02  0.00000000000E+00 0. -1.
         11    1    1    2    0    0  0.29620146688E+02  0.88724939717E+01  0.30889525902E+02  0.43706258700E+02  0.00000000000E+00 0.  1.
</event>
<event>
 7    1  0.4966153E-006  0.9709386E+02  0.7561462E-02  0.1286529E+00
         -1   -1    0    0    0  501 -0.00000000000E+00  0.00000000000E+00  0.91722065583E+02  0.91722065583E+02  0.00000000000E+00 0.  1.
          1   -1    0    0  501    0  0.00000000000E+00 -0.00000000000E+00 -0.22311415366E+03  0.22311415366E+03  0.00000000000E+00 0. -1.
         23    2    1    2    0    0 -0.18752579958E+02 -0.16797898944E+02  0.33423534405E+02  0.12537300993E+03  0.11818388343E+03 0.  0.
          5    1    3    3  502    0  0.40970428337E+02 -0.38520165366E+02  0.87136842938E+01  0.57059441216E+02  0.41800000000E+01 0. -1.
         -5    1    3    3    0  502 -0.59723008295E+02  0.21722266422E+02  0.24709850111E+02  0.68313568717E+02  0.41800000000E+01 0.  1.
        -11    1    1    2    0    0 -0.16453322335E+02 -0.18153672634E+02 -0.92656064823E+01  0.26193875418E+02  0.00000000000E+00 0.  1.
         11    1    1    2    0    0  0.35205902292E+02  0.34951571578E+02 -0.15555001600E+03  0.16326933389E+03  0.00000000000E+00 0. -1.
</event>
<event>
 7    1  0.4966153E-006  0.1204810E+03  0.7561462E-02  0.1242306E+00
         -2   -1    0    0    0  501 -0.00000000000E+00  0.00000000000E+00  0.63577429208E+03  0.63577429208E+03  0.00000000000E+00 0.  1.
          2   -1    0    0  501    0  0.00000000000E+00 -0.00000000000E+00 -0.29486495281E+02  0.29486495281E+02  0.00000000000E+00 0. -1.
         23    2    1    2    0    0 -0.70633796168E+02 -0.33476286512E+02  0.40126338712E+03  0.42751153727E+03  0.12507603181E+03 0.  0.
          5    1    3    3  502    0  0.97183465153E+00  0.41179942413E+02  0.81630207846E+02  0.91529751189E+02  0.41800000000E+01 0.  1.
         -5    1    3    3    0  502 -0.71605630819E+02 -0.74656228925E+02  0.31963317928E+03  0.33598178608E+03  0.41800000000E+01 0.  1.
        -11    1    1    2    0    0  0.36036852481E+02  0.46703181393E+02  0.18790151688E+03  0.19694370245E+03  0.00000000000E+00 0.  1.
         11    1    1    2    0    0  0.34596943687E+02 -0.13226894882E+02  0.17122892795E+02  0.40805547642E+02  0.00000000000E+00 0. -1.
</event>
<event>
 7    1  0.4966153E-006  0.1239631E+03  0.7561462E-02  0.1236699E+00
         -2   -1    0    0    0  501 -0.00000000000E+00  0.00000000000E+00  0.66317988279E+02  0.66317988279E+02  0.00000000000E+00 0.  1.
          2   -1    0    0  501    0  0.00000000000E+00 -0.00000000000E+00 -0.25566142749E+03  0.25566142749E+03  0.00000000000E+00 0. -1.
         23    2    1    2    0    0 -0.12870343401E+02  0.70009991854E+02 -0.10158405936E+03  0.17616430350E+03  0.12508995169E+03 0.  0.
          5    1    3    3  502    0 -0.59822235067E+02  0.15699693005E+02 -0.79751453819E+02  0.10100963793E+03  0.41800000000E+01 0. -1.
         -5    1    3    3    0  502  0.46951891666E+02  0.54310298849E+02 -0.21832605537E+02  0.75154665568E+02  0.41800000000E+01 0. -1.
        -11    1    1    2    0    0  0.51435050122E+02 -0.39976875014E+02 -0.64538032022E+02  0.91699904549E+02  0.00000000000E+00 0.  1.
         11    1    1    2    0    0 -0.38564706721E+02 -0.30033116840E+02 -0.23221347834E+02  0.54115207723E+02  0.00000000000E+00 0. -1.
</event>
<event>
 7    1  0.4966153E-006  0.1085504E+03  0.7561462E-02  0.1263278E+00
          1   -1    0    0  501    0  0.00000000000E+00  0.00000000000E+00  0.15021040296E+03  0.15021040296E+03  0.00000000000E+00 0. -1.
         -1   -1    0    0    0  501 -0.00000000000E+00 -0.00000000000E+00 -0.80763537873E+02  0.80763537873E+02  0.00000000000E+00 0.  1.
         23    2    1    2    0    0  0.43340894019E+01  0.22742236970E+02  0.54635518300E+02  0.13843910473E+03  0.12507738479E+03 0.  0.
          5    1    3    3  502    0  0.17528413390E+02 -0.49805612524E+02  0.28121572376E+02  0.59967820935E+02  0.41800000000E+01 0.  1.
         -5    1    3    3    0  502 -0.13194323988E+02  0.72547849494E+02  0.26513945925E+02  0.78471283793E+02  0.41800000000E+01 0.  1.
        -11    1    1    2    0    0  0.28603415260E+01  0.33478299853E+02 -0.12518777530E+01  0.33623582686E+02  0.00000000000E+00 0.  1.
         11    1    1    2    0    0 -0.71944309279E+01 -0.56220536823E+02  0.16063224545E+02  0.58911253423E+02  0.00000000000E+00 0. -1.
</event>
<event>
 7    1  0.4966153E-006  0.1183529E+03  0.7561462E-02  0.1245839E+00
          2   -1    0    0  501    0  0.00000000000E+00  0.00000000000E+00  0.12570196971E+03  0.12570196971E+03  0.00000000000E+00 0. -1.
         -2   -1    0    0    0  501 -0.00000000000E+00 -0.00000000000E+00 -0.14808170041E+03  0.14808170041E+03  0.00000000000E+00 0.  1.
         23    2    1    2    0    0  0.81040601933E+02  0.26293663466E+01 -0.28546064464E+02  0.15177809390E+03  0.12508884548E+03 0.  0.
          5    1    3    3  502    0  0.45747623723E+01  0.46562383363E+02 -0.41334108107E+02  0.62569680262E+02  0.41800000000E+01 0. -1.
         -5    1    3    3    0  502  0.76465839561E+02 -0.43933017016E+02  0.12788043643E+02  0.89208413639E+02  0.41800000000E+01 0. -1.
        -11    1    1    2    0    0 -0.80092570504E+02  0.16930944680E+02 -0.24649970233E+02  0.85493261548E+02  0.00000000000E+00 0.  1.
         11    1    1    2    0    0 -0.94803142906E+00 -0.19560311027E+02  0.30816303988E+02  0.36512314670E+02  0.00000000000E+00 0. -1.
</event>
<event>
 7    1  0.4966153E-006  0.4353901E+02  0.7561462E-02  0.1483674E+00
          3   -1    0    0  501    0  0.00000000000E+00  0.00000000000E+00  0.12537983297E+03  0.12537983297E+03  0.00000000000E+00 0. -1.
         -3   -1    0    0    0  501 -0.00000000000E+00 -0.00000000000E+00 -0.10862994833E+03  0.10862994833E+03  0.00000000000E+00 0.  1.
         23    2    1    2    0    0 -0.51781776941E+01  0.67671280797E+01 -0.33137370511E+02  0.12968660529E+03  0.12509165728E+03 0.  0.
          5    1    3    3  502    0  0.19138561286E+02 -0.12145002994E+02 -0.74477107704E+02  0.77962154907E+02  0.41800000000E+01 0. -1.
         -5    1    3    3    0  502 -0.24316738981E+02  0.18912131073E+02  0.41339737193E+02  0.51724450384E+02  0.41800000000E+01 0. -1.
        -11    1    1    2    0    0  0.12402587465E+02  0.91824457545E+01  0.73401381556E+02  0.75006028426E+02  0.00000000000E+00 0. -1.
         11    1    1    2    0    0 -0.72244097704E+01 -0.15949573834E+02 -0.23514126398E+02  0.29317147581E+02  0.00000000000E+00 0.  1.
</event>
<event>
 7    1  0.4966153E-006  0.1457172E+03  0.7561462E-02  0.1205837E+00
          1   -1    0    0  501    0  0.00000000000E+00  0.00000000000E+00  0.44456670596E+03  0.44456670596E+03  0.00000000000E+00 0. -1.
         -1   -1    0    0    0  501 -0.00000000000E+00 -0.00000000000E+00 -0.65021281603E+02  0.65021281603E+02  0.00000000000E+00 0.  1.
         23    2    1    2    0    0 -0.12396937969E+03  0.10490903955E+02  0.13242406011E+03  0.22060062833E+03  0.12510011733E+03 0.  0.
          5    1    3    3  502    0 -0.79298411464E+02 -0.27743807946E+02  0.13776157244E+03  0.16141152431E+03  0.41800000000E+01 0. -1.
         -5    1    3    3    0  502 -0.44670968225E+02  0.38234711902E+02 -0.53375123240E+01  0.59189104016E+02  0.41800000000E+01 0. -1.
        -11    1    1    2    0    0  0.72940238679E+02 -0.45971867410E+02  0.16297713642E+03  0.18437797593E+03  0.00000000000E+00 0. -1.
         11    1    1    2    0    0  0.51029141010E+02  0.35480963455E+02  0.84144227818E+02  0.10460938330E+03  0.00000000000E+00 0.  1.
</event>
<event>
 7    1  0.4966153E-006  0.1243794E+03  0.7561462E-02  0.1236042E+00
          1   -1    0    0  501    0  0.00000000000E+00  0.00000000000E+00  0.24075883747E+03  0.24075883747E+03  0.00000000000E+00 0. -1.
         -1   -1    0    0    0  501 -0.00000000000E+00 -0.00000000000E+00 -0.82959845993E+02  0.82959845993E+02  0.00000000000E+00 0.  1.
         23    2    1    2    0    0  0.26510579442E+02 -0.83901356697E+02  0.61581907992E+02  0.16487208427E+03  0.12509286271E+03 0.  0.
          5    1    3    3  502    0 -0.33506915598E+02 -0.46159954273E+02  0.73214472851E+02  0.92904715737E+02  0.41800000000E+01 0. -1.
         -5    1    3    3    0  502  0.60017495040E+02 -0.37741402424E+02 -0.11632564859E+02  0.71967368529E+02  0.41800000000E+01 0. -1.
        -11    1    1    2    0    0 -0.56266151921E+02  0.61081305188E+02  0.42375258611E+02  0.93233407305E+02  0.00000000000E+00 0.  1.
         11    1    1    2    0    0  0.29755572479E+02  0.22820051510E+02  0.53841824872E+02  0.65613191890E+02  0.00000000000E+00 0. -1.
</event>
<event>
 7    1  0.4966153E-006  0.9436345E+02  0.7561462E-02  0.1292616E+00
         -3   -1    0    0    0  501 -0.00000000000E+00  0.00000000000E+00  0.15970818008E+03  0.15970818008E+03  0.00000000000E+00 0.  1.
          3   -1    0    0  501    0  0.00000000000E+00 -0.00000000000E+00 -0.15354374654E+03  0.15354374654E+03  0.00000000000E+00 0. -1.
         23    2    1    2    0    0  0.13767797177E+02 -0.77598732946E+02  0.83751819070E+02  0.16991952379E+03  0.12508861568E+03 0.  0.
          5    1    3    3  502    0  0.28490709379E+02 -0.43149815738E+02 -0.22971652681E+02  0.56734437039E+02  0.41800000000E+01 0.  1.
         -5    1    3    3    0  502 -0.14722912203E+02 -0.34448917208E+02  0.10672347175E+03  0.11318508675E+03  0.41800000000E+01 0.  1.
        -11    1    1    2    0    0 -0.37544627812E+02  0.52927648018E+02 -0.86303085970E+02  0.10797757939E+03  0.00000000000E+00 0. -1.
         11    1    1    2    0    0  0.23776830635E+02  0.24671084928E+02  0.87157004449E+01  0.35354823445E+02  0.00000000000E+00 0.  1.
</event>
<event>
 7    1  0.4966153E-006  0.1320480E+03  0.7561462E-02  0.1224448E+00
          2   -1    0    0  501    0  0.00000000000E+00  0.00000000000E+00  0.10248277950E+03  0.10248277950E+03  0.00000000000E+00 0.  1.
         -2   -1    0    0    0  501 -0.00000000000E+00 -0.00000000000E+00 -0.18385479096E+03  0.18385479096E+03  0.00000000000E+00 0. -1.
         23    2    1    2    0    0  0.79584814708E+02 -0.28552443908E+02 -0.44474587094E+02  0.15740064459E+03  0.12509192314E+03 0.  0.
          5    1    3    3  502    0  0.20664314322E+02  0.43025712139E+02  0.11163201416E+02  0.49196699659E+02  0.41800000000E+01 0. -1.
         -5    1    3    3    0  502  0.58920500386E+02 -0.71578156047E+02 -0.55637788511E+02  0.10820394493E+03  0.41800000000E+01 0. -1.
        -11    1    1    2    0    0 -0.92858341081E+02  0.10765000298E+01 -0.24862409376E+02  0.96135164017E+02  0.00000000000E+00 0.  1.
         11    1    1    2    0    0  0.13273526372E+02  0.27475943879E+02 -0.12035014987E+02  0.32801761845E+02  0.00000000000E+00 0. -1.
</event>
<event>
 7    1  0.4966153E-006  0.1832780E+03  0.7561462E-02  0.1164668E+00
          2   -1    0    0  501    0  0.00000000000E+00  0.00000000000E+00  0.57784120068E+03  0.57784120068E+03  0.00000000000E+00 0. -1.
         -2   -1    0    0    0  501 -0.00000000000E+00 -0.00000000000E+00 -0.97628805778E+02  0.97628805778E+02  0.00000000000E+00 0.  1.
         23    2    1    2    0    0  0.69047509785E+02  0.14675420978E+03  0.55853370491E+02  0.21230205936E+03  0.12509280043E+03 0.  0.
          5    1    3    3  502    0 -0.33298896885E+02  0.63225095003E+02  0.30066684549E+02  0.77638309433E+02  0.41800000000E+01 0.  1.
         -5    1    3    3    0  502  0.10234640667E+03  0.83529114776E+02  0.25786685942E+02  0.13466374993E+03  0.41800000000E+01 0.  1.
        -11    1    1    2    0    0 -0.22663166562E+02 -0.33774925601E+02  0.23038639702E+03  0.23394926084E+03  0.00000000000E+00 0. -1.
         11    1    1    2    0    0 -0.46384343224E+02 -0.11297928418E+03  0.19397262739E+03  0.22921868625E+03  0.00000000000E+00 0.  1.
</event>
<event>
 7    1  0.4966153E-006  0.8940288E+02  0.7561462E-02  0.1304304E+00
          2   -1    0    0  501    0  0.00000000000E+00  0.00000000000E+00  0.42566835483E+02  0.42566835483E+02  0.00000000000E+00 0. -1.
         -2   -1    0    0    0  501 -0.00000000000E+00 -0.00000000000E+00 -0.35491609932E+03  0.35491609932E+03  0.00000000000E+00 0.  1.
         23    2    1    2    0    0 -0.36963662307E+02 -0.29962942422E+02 -0.21568995098E+03  0.25385831890E+03  0.12513113469E+03 0.  0.
          5    1    3    3  502    0  0.41864997053E+02 -0.86775172152E+00 -0.35731968358E+02  0.55205769029E+02  0.41800000000E+01 0. -1.
         -5    1    3    3    0  502 -0.78828659360E+02 -0.29095190700E+02 -0.17995798263E+03  0.19865254987E+03  0.41800000000E+01 0. -1.
        -11    1    1    2    0    0  0.24979838742E+02  0.58340277645E+01  0.14349907491E+02  0.29392993528E+02  0.00000000000E+00 0. -1.
         11    1    1    2    0    0  0.11983823564E+02  0.24128914657E+02 -0.11100922035E+03  0.11423162238E+03  0.00000000000E+00 0.  1.
</event>
<event>
 6    1  0.4966153E-006  0.9151889E+02  0.7561462E-02  0.1299215E+00
          4   -1    0    0  501    0  0.00000000000E+00  0.00000000000E+00  0.50940729448E+02  0.50940729448E+02  0.00000000000E+00 0. -1.
         -4   -1    0    0    0  501 -0.00000000000E+00 -0.00000000000E+00 -0.21832859205E+03  0.21832859205E+03  0.00000000000E+00 0.  1.
          5    1    1    2  502    0  0.28597699961E+02 -0.54787571151E+02 -0.69647175652E+01  0.62333667360E+02  0.41800000000E+01 0. -1.
         -5    1    1    2    0  502  0.22166423436E+02  0.46392859041E+02 -0.10852317083E+03  0.12015988808E+03  0.41800000000E+01 0.  1.
        -11    1    1    2    0    0 -0.17343893919E+02  0.26368712799E+02 -0.22177819643E+02  0.38574283598E+02  0.00000000000E+00 0. -1.
         11    1    1    2    0    0 -0.33420229478E+02 -0.17974000689E+02 -0.29722154570E+02  0.48201482461E+02  0.00000000000E+00 0.  1.
</event>
<event>
 7    1  0.4966153E-006  0.9077829E+02  0.7561462E-02  0.1300978E+00
         -2   -1    0    0    0  501 -0.00000000000E+00  0.00000000000E+00  0.67249645890E+02  0.67249645890E+02  0.00000000000E+00 0.  1.
          2   -1    0    0  501    0  0.00000000000E+00 -0.00000000000E+00 -0.22769022401E+03  0.22769022401E+03  0.00000000000E+00 0. -1.
         23    2    1    2    0    0  0.42364483091E+02  0.29030562117E+02 -0.26480240236E+02  0.12489796020E+03  0.11072838107E+03 0.  0.
          5    1    3    3  502    0 -0.15536646710E+02  0.24476530601E+02 -0.53276902006E+02  0.60797932766E+02  0.41800000000E+01 0. -1.
         -5    1    3    3    0  502  0.57901129801E+02  0.45540315161E+01  0.26796661770E+02  0.64100027436E+02  0.41800000000E+01 0.  1.
        -11    1    1    2    0    0 -0.63606496095E+02 -0.79374921494E+01 -0.51212982315E+02  0.82046082690E+02  0.00000000000E+00 0. -1.
         11    1    1    2    0    0  0.21242013004E+02 -0.21093069968E+02 -0.82747355565E+02  0.87995827004E+02  0.00000000000E+00 0.  1.
</event>
<event>
 7    1  0.4966153E-006  0.1564441E+03  0.7561462E-02  0.1192771E+00
          3   -1    0    0  501    0  0.00000000000E+00  0.00000000000E+00  0.13616071898E+03  0.13616071898E+03  0.00000000000E+00 0. -1.
         -3   -1    0    0    0  501 -0.00000000000E+00 -0.00000000000E+00 -0.30730490554E+03  0.30730490554E+03  0.00000000000E+00 0.  1.
         23    2    1    2    0    0  0.11898139768E+03 -0.41142304219E+02 -0.20956852503E+03  0.27461937800E+03  0.12509026300E+03 0.  0.
          5    1    3    3  502    0  0.12219786293E+03 -0.62766835429E+00 -0.19702356056E+03  0.23188028697E+03  0.41800000000E+01 0.  1.
         -5    1    3    3    0  502 -0.32164652424E+01 -0.40514635865E+02 -0.12544964468E+02  0.42739091023E+02  0.41800000000E+01 0.  1.
        -11    1    1    2    0    0 -0.11745269731E+03  0.92331670475E+01  0.58064133946E+02  0.13134622617E+03  0.00000000000E+00 0. -1.
         11    1    1    2    0    0 -0.15287003785E+01  0.31909137172E+02 -0.19639795477E+02  0.37500020350E+02  0.00000000000E+00 0.  1.
</event>
<event>
 7    1  0.4966153E-006  0.2193859E+03  0.7561462E-02  0.1134342E+00
          2   -1    0    0  501    0  0.00000000000E+00  0.00000000000E+00  0.22658267865E+03  0.22658267865E+03  0.00000000000E+00 0. -1.
         -2   -1    0    0    0  501 -0.00000000000E+00 -0.00000000000E+00 -0.26981055013E+03  0.26981055013E+03  0.00000000000E+00 0.  1.
         23    2    1    2    0    0 -0.15434785781E+03 -0.11314032928E+03  0.91609388742E+02  0.24630017455E+03  0.12508996985E+03 0.  0.
          5    1    3    3  502    0 -0.12239448935E+03 -0.13033931049E+02  0.43048356357E+02  0.13046427774E+03  0.41800000000E+01 0.  1.
         -5    1    3    3    0  502 -0.31953368462E+02 -0.10010639823E+03  0.48561032385E+02  0.11583589681E+03  0.41800000000E+01 0.  1.
        -11    1    1    2    0    0  0.14102326172E+03  0.12802762019E+03 -0.11888842588E+03  0.22452859436E+03  0.00000000000E+00 0.  1.
         11    1    1    2    0    0  0.13324596090E+02 -0.14887290907E+02 -0.15948834348E+02  0.25564459873E+02  0.00000000000E+00 0. -1.
</event>
<event>
 7    1  0.4966153E-006  0.1358902E+03  0.7561462E-02  0.1218968E+00
          1   -1    0    0  501    0  0.00000000000E+00  0.00000000000E+00  0.30130932532E+02  0.30130932532E+02  0.00000000000E+00 0. -1.
         -1   -1    0    0    0  501 -0.00000000000E+00 -0.00000000000E+00 -0.83217061001E+03  0.83217061001E+03  0.00000000000E+00 0.  1.
         23    2    1    2    0    0  0.74953595173E+02  0.64657863167E+02 -0.58719481960E+03  0.60847685457E+03  0.12509054992E+03 0.  0.
          5    1    3    3  502    0  0.13356144206E+02  0.82083468851E+02 -0.44150574704E+03  0.44928930492E+03  0.41800000000E+01 0.  1.
         -5    1    3    3    0  502  0.61597450967E+02 -0.17425605685E+02 -0.14568907256E+03  0.15918754965E+03  0.41800000000E+01 0.  1.
        -11    1    1    2    0    0 -0.34479560643E+01 -0.51548808647E+02 -0.14114727468E+03  0.15030542646E+03  0.00000000000E+00 0. -1.
         11    1    1    2    0    0 -0.71505639108E+02 -0.13109054520E+02 -0.73697583191E+02  0.10351926151E+03  0.00000000000E+00 0.  1.
</event>
<event>
 7    1  0.4966153E-006  0.1076735E+03  0.7561462E-02  0.1264940E+00
          1   -1    0    0  501    0  0.00000000000E+00  0.00000000000E+00  0.68017911875E+03  0.68017911875E+03  0.00000000000E+00 0. -1.
         -1   -1    0    0    0  501 -0.00000000000E+00 -0.00000000000E+00 -0.29774490507E+02  0.29774490507E+02  0.00000000000E+00 0.  1.
         23    2    1    2    0    0  0.28862722480E+02 -0.72642333230E+02  0.23155452949E+03  0.27454643841E+03  0.12509309089E+03 0.  0.
          5    1    3    3  502    0 -0.17109581161E+02 -0.23074560381E+02 -0.41310821502E+01  0.29320834641E+02  0.41800000000E+01 0.  1.
         -5    1    3    3    0  502  0.45972303641E+02 -0.49567772849E+02  0.23568561164E+03  0.24522560377E+03  0.41800000000E+01 0.  1.
        -11    1    1    2    0    0 -0.15542123063E+02 -0.19809135043E+02  0.76078898591E+02  0.80137121431E+02  0.00000000000E+00 0.  1.
         11    1    1    2    0    0 -0.13320599416E+02  0.92451468274E+02  0.34277120016E+03  0.35527004942E+03  0.00000000000E+00 0. -1.
</event>
<event>
 7    1  0.4966153E-006  0.1338587E+03  0.7561462E-02  0.1221840E+00
          2   -1    0    0  501    0  0.00000000000E+00  0.00000000000E+00  0.13506866514E+03  0.13506866514E+03  0.00000000000E+00 0. -1.
         -2   -1    0    0    0  501 -0.00000000000E+00 -0.00000000000E+00 -0.29509450515E+03  0.29509450515E+03  0.00000000000E+00 0.  1.
         23    2    1    2    0    0 -0.29828195395E+02  0.10217879743E+03 -0.22416881335E+03  0.27210751427E+03  0.11162712286E+03 0.  0.
          5    1    3    3  502    0  0.17389090581E+02  0.70524324697E+02 -0.48544088373E+02  0.87464631487E+02  0.41800000000E+01 0. -1.
         -5    1    3    3    0  502 -0.47217285977E+02  0.31654472737E+02 -0.17562472498E+03  0.18464288278E+03  0.41800000000E+01 0.  1.
        -11    1    1    2    0    0 -0.22672747658E+02  0.45662007412E+00 -0.55452651706E+01  0.23345491087E+02  0.00000000000E+00 0.  1.
         11    1    1    2    0    0  0.52500943054E+02 -0.10263541751E+03  0.69688238514E+02  0.13471016493E+03  0.00000000000E+00 0. -1.
</event>
<event>
 7    1  0.4966153E-006  0.9606765E+02  0.7561462E-02  0.1288789E+00
         -1   -1    0    0    0  501 -0.00000000000E+00  0.00000000000E+00  0.31880051051E+02  0.31880051051E+02  0.00000000000E+00 0.  1.
          1   -1    0    0  501    0  0.00000000000E+00 -0.00000000000E+00 -0.59671450887E+03  0.59671450887E+03  0.00000000000E+00 0. -1.
         23    2    1    2    0    0  0.42620923653E+02 -0.67538104692E+02 -0.24315851101E+03  0.28487110914E+03  0.12509016198E+03 0.  0.
          5    1    3    3  502    0  0.24261969875E+02 -0.14107242685E+02  0.62957924394E+01  0.29064873660E+02  0.41800000000E+01 0. -1.
         -5    1    3    3    0  502  0.18358953778E+02 -0.53430862006E+02 -0.24945430345E+03  0.25580623548E+03  0.41800000000E+01 0. -1.
        -11    1    1    2    0    0  0.19187935500E+02  0.27255489304E+02 -0.37708544021E+02  0.50328648483E+02  0.00000000000E+00 0. -1.
         11    1    1    2    0    0 -0.61808859153E+02  0.40282615387E+02 -0.28396740279E+03  0.29339480230E+03  0.00000000000E+00 0.  1.
</event>
<event>
 7    1  0.4966153E-006  0.2146993E+03  0.7561462E-02  0.1137898E+00
         -1   -1    0    0    0  501 -0.00000000000E+00  0.00000000000E+00  0.97449031383E+02  0.97449031383E+02  0.00000000000E+00 0.  1.
          1   -1    0    0  501    0  0.00000000000E+00 -0.00000000000E+00 -0.52524804603E+03  0.52524804603E+03  0.00000000000E+00 0. -1.
         23    2    1    2    0    0 -0.24471099958E+02  0.19463834713E+03 -0.18138614226E+03  0.29501035750E+03  0.12508899839E+03 0.  0.
          5    1    3    3  502    0  0.29805852287E+02  0.16643086567E+03 -0.11432062585E+03  0.20414284159E+03  0.41800000000E+01 0. -1.
         -5    1    3    3    0  502 -0.54276952245E+02  0.28207481463E+02 -0.67065516416E+02  0.90867515910E+02  0.41800000000E+01 0. -1.
        -11    1    1    2    0    0  0.28140961439E+01 -0.14212374063E+03 -0.10943232513E+03  0.17939484544E+03  0.00000000000E+00 0.  1.
         11    1    1    2    0    0  0.21657003814E+02 -0.52514606498E+02 -0.13698054725E+03  0.14829187448E+03  0.00000000000E+00 0. -1.
</event>
<event>
 7    1  0.4966153E-006  0.1388475E+03  0.7561462E-02  0.1214888E+00
         -1   -1    0    0    0  501 -0.00000000000E+00  0.00000000000E+00  0.17018926694E+03  0.17018926694E+03  0.00000000000E+00 0.  1.
          1   -1    0    0  501    0  0.00000000000E+00 -0.00000000000E+00 -0.14003004705E+03  0.14003004705E+03  0.00000000000E+00 0. -1.
         23    2    1    2    0    0  0.21476515281E+02 -0.93133267477E+02  0.70331582961E+02  0.17241761265E+03  0.12508499259E+03 0.  0.
          5    1    3    3  502    0 -0.68729712203E+01 -0.11872139850E+03  0.53977179618E+02  0.13066375363E+03  0.41800000000E+01 0.  1.
         -5    1    3    3    0  502  0.28349486501E+02  0.25588131020E+02  0.16354403342E+02  0.41753859015E+02  0.41800000000E+01 0.  1.
        -11    1    1    2    0    0 -0.43356313789E+02  0.28094128656E+02 -0.45678045328E+02  0.68960378735E+02  0.00000000000E+00 0. -1.
         11    1    1    2    0    0  0.21879798508E+02  0.65039138821E+02  0.55056822587E+01  0.68841322608E+02  0.00000000000E+00 0.  1.
</event>
<event>
 7    1  0.4966153E-006  0.1583926E+03  0.7561462E-02  0.1190523E+00
          2   -1    0    0  501    0  0.00000000000E+00  0.00000000000E+00  0.20749928728E+03  0.20749928728E+03  0.00000000000E+00 0. -1.
         -2   -1    0    0    0  501 -0.00000000000E+00 -0.00000000000E+00 -0.16462074347E+03  0.16462074347E+03  0.00000000000E+00 0.  1.
         23    2    1    2    0    0 -0.44766107217E+02  0.11528203851E+03 -0.61353559445E+02  0.18628724771E+03  0.12507888169E+03 0.  0.
          5    1    3    3  502    0 -0.17491145463E+02  0.13169129665E+03 -0.20747293101E+02  0.13452308484E+03  0.41800000000E+01 0. -1.
         -5    1    3    3    0  502 -0.27274961754E+02 -0.16409258140E+02 -0.40606266344E+02  0.51764162871E+02  0.41800000000E+01 0. -1.
        -11    1    1    2    0    0  0.50079930385E+02 -0.16332763739E+02  0.51126859934E+02  0.73407863376E+02  0.00000000000E+00 0. -1.
         11    1    1    2    0    0 -0.53138231675E+01 -0.98949274773E+02  0.53105243319E+02  0.11242491967E+03  0.00000000000E+00 0.  1.
</event>
<event>
 7    1  0.4966153E-006  0.1238010E+03  0.7561462E-02  0.1236955E+00
         -1   -1    0    0    0  501 -0.00000000000E+00  0.00000000000E+00  0.80067451992E+02  0.80067451992E+02  0.00000000000E+00 0.  1.
          1   -1    0    0  501    0  0.00000000000E+00 -0.00000000000E+00 -0.22351548552E+03  0.22351548552E+03  0.00000000000E+00 0. -1.
         23    2    1    2    0    0 -0.68805151723E+02  0.29573665533E+02 -0.46574914783E+02  0.15305523231E+03  0.12509168979E+03 0.  0.
          5    1    3    3  502    0 -0.21625457530E+02  0.74589358053E+02 -0.39787511729E+02  0.87359894904E+02  0.41800000000E+01 0.  1.
         -5    1    3    3    0  502 -0.47179694194E+02 -0.45015692519E+02 -0.67874030537E+01  0.65695337410E+02  0.41800000000E+01 0.  1.
        -11    1    1    2    0    0  0.60834997793E+01 -0.40382828516E+02 -0.86528872757E+01  0.41745110693E+02  0.00000000000E+00 0.  1.
         11    1    1    2    0    0  0.62721651944E+02  0.10809162983E+02 -0.88220231473E+02  0.10878259451E+03  0.00000000000E+00 0. -1.
</event>
<event>
 6    1  0.4966153E-006  0.9097195E+02  0.7561462E-02  0.1300515E+00
          1   -1    0    0  501    0  0.00000000000E+00  0.00000000000E+00  0.13288501176E+03  0.13288501176E+03  0.00000000000E+00 0. -1.
         -1   -1    0    0    0  501 -0.00000000000E+00 -0.00000000000E+00 -0.81734419196E+02  0.81734419196E+02  0.00000000000E+00 0.  1.
          5    1    1    2  502    0 -0.53891491689E+02  0.70540944848E+01 -0.10457336501E+02  0.55505688107E+02  0.41800000000E+01 0. -1.
         -5    1    1    2    0  502  0.84798839799E+02  0.10240950274E+02  0.23490891303E+02  0.88684917928E+02  0.41800000000E+01 0.  1.
        -11    1    1    2    0    0 -0.92172399463E+01 -0.17989958304E+02  0.43589415853E+02  0.48048239160E+02  0.00000000000E+00 0. -1.
         11    1    1    2    0    0 -0.21690108163E+02  0.69491354571E+00 -0.54723780917E+01  0.22380585759E+02  0.00000000000E+00 0.  1.
</event>
<event>
 7    1  0.4966153E-006  0.1712442E+03  0.7561462E-02  0.1176557E+00
          2   -1    0    0  501    0  0.00000000000E+00  0.00000000000E+00  0.11781427700E+04  0.11781427700E+04  0.00000000000E+00 0. -1.
         -2   -1    0    0    0  501 -0.00000000000E+00 -0.00000000000E+00 -0.30792061827E+02  0.30792061827E+02  0.00000000000E+00 0.  1.
         23    2    1    2    0    0 -0.11256833278E+03  0.72864224062E+02  0.34706968377E+03  0.39253757568E+03  0.12509020038E+03 0.  0.
          5    1    3    3  502    0  0.98456339857E+01  0.57558204888E+02  0.13522364921E+03  0.14735260827E+03  0.41800000000E+01 0.  1.
         -5    1    3    3    0  502 -0.12241396677E+03  0.15306019173E+02  0.21184603456E+03  0.24518496741E+03  0.41800000000E+01 0.  1.
        -11    1    1    2    0    0  0.24513748797E+02  0.20655798885E+02  0.12784451497E+03  0.13180214686E+03  0.00000000000E+00 0.  1.
         11    1    1    2    0    0  0.88054583986E+02 -0.93520022946E+02  0.67243650947E+03  0.68459510933E+03  0.00000000000E+00 0. -1.
</event>
<event>
 7    1  0.4966153E-006  0.1162004E+03  0.7561462E-02  0.1249500E+00
          1   -1    0    0  501    0  0.00000000000E+00  0.00000000000E+00  0.43256305237E+03  0.43256305237E+03  0.00000000000E+00 0. -1.
         -1   -1    0    0    0  501 -0.00000000000E+00 -0.00000000000E+00 -0.39296932342E+02  0.39296932342E+02  0.00000000000E+00 0.  1.
         23    2    1    2    0    0  0.71663537940E+02  0.55341971545E+01  0.17565429378E+03  0.22730644717E+03  0.12508996761E+03 0.  0.
          5    1    3    3  502    0 -0.27913714378E+02 -0.23294512799E+02  0.24759228203E+02  0.44184856661E+02  0.41800000000E+01 0.  1.
         -5    1    3    3    0  502  0.99577252318E+02  0.28828709954E+02  0.15089506557E+03  0.18312159051E+03  0.41800000000E+01 0.  1.
        -11    1    1    2    0    0 -0.51130268742E+02 -0.30649871832E+02  0.19769322241E+03  0.20648566346E+03  0.00000000000E+00 0. -1.
         11    1    1    2    0    0 -0.20533269197E+02  0.25115674678E+02  0.19918603841E+02  0.38067874086E+02  0.00000000000E+00 0.  1.
</event>
<event>
 7    1  0.4966153E-006  0.9900954E+02  0.7561462E-02  0.1282393E+00
         -1   -1    0    0    0  501 -0.00000000000E+00  0.00000000000E+00  0.83775434688E+02  0.83775434688E+02  0.00000000000E+00 0.  1.
          1   -1    0    0  501    0  0.00000000000E+00 -0.00000000000E+00 -0.18160187817E+03  0.18160187817E+03  0.00000000000E+00 0. -1.
         23    2    1    2    0    0  0.38998250856E+02 -0.54751869589E+02 -0.21175668322E+02  0.13070871216E+03  0.11008055102E+03 0.  0.
          5    1    3    3  502    0  0.45606911352E+02  0.20896158341E+02  0.42522678532E+01  0.50519243644E+02  0.41800000000E+01 0. -1.
         -5    1    3    3    0  502 -0.66086604963E+01 -0.75648027929E+02 -0.25427936175E+02  0.80189468518E+02  0.41800000000E+01 0.  1.
        -11    1    1    2    0    0 -0.33176786974E+02  0.25612975504E+02  0.99785418109E+01  0.43084742134E+02  0.00000000000E+00 0.  1.
         11    1    1    2    0    0 -0.58214638819E+01  0.29138894084E+02 -0.86629316974E+02  0.91583858565E+02  0.00000000000E+00 0. -1.
</event>
<event>
 7    1  0.4966153E-006  0.1112735E+03  0.7561462E-02  0.1258230E+00
          2   -1    0    0  501    0  0.00000000000E+00  0.00000000000E+00  0.68536984317E+03  0.68536984317E+03  0.00000000000E+00 0. -1.
         -2   -1    0    0    0  501 -0.00000000000E+00 -0.00000000000E+00 -0.28643948799E+02  0.28643948799E+02  0.00000000000E+00 0.  1.
         23    2    1    2    0    0 -0.65936997284E+02  0.28429661285E+02  0.22831645031E+03  0.27005813604E+03  0.12508821731E+03 0.  0.
          5    1    3    3  502    0  0.20209502344E+02  0.15690819268E+02  0.15198806879E+03  0.15418323919E+03  0.41800000000E+01 0.  1.
         -5    1    3    3    0  502 -0.86146499627E+02  0.12738842017E+02  0.76328381522E+02  0.11587489685E+03  0.41800000000E+01 0.  1.
        -11    1    1    2    0    0 -0.18279399518E+02  0.48071043284E+01  0.30545494240E+02  0.35920355192E+02  0.00000000000E+00 0.  1.
         11    1    1    2    0    0  0.84216396801E+02 -0.33236765614E+02  0.39786394982E+03  0.40803530074E+03  0.00000000000E+00 0. -1.
</event>
<event>
 7    1  0.4966153E-006  0.1415454E+03  0.7561462E-02  0.1211265E+00
         -1   -1    0    0    0  501 -0.00000000000E+00  0.00000000000E+00  0.71445887102E+02  0.71445887102E+02  0.00000000000E+00 0.  1.
          1   -1    0    0  501    0  0.00000000000E+00 -0.00000000000E+00 -0.45353460987E+03  0.45353460987E+03  0.00000000000E+00 0. -1.
         23    2    1    2    0    0  0.10502000999E+03 -0.18041193078E+02 -0.62600393447E+02  0.17583925928E+03  0.12508376672E+03 0.  0.
          5    1    3    3  502    0 -0.87550090101E+01  0.33753772625E+02 -0.30963028963E+02  0.46820389915E+02  0.41800000000E+01 0.  1.
         -5    1    3    3    0  502  0.11377501900E+03 -0.51794965702E+02 -0.31637364484E+02  0.12901886936E+03  0.41800000000E+01 0.  1.
        -11    1    1    2    0    0 -0.82449886328E+02  0.39788198449E+02 -0.14232015455E+03  0.16922207564E+03  0.00000000000E+00 0.  1.
         11    1    1    2    0    0 -0.22570123660E+02 -0.21747005372E+02 -0.17716817477E+03  0.17991916206E+03  0.00000000000E+00 0. -1.
</event>
<event>
 7    1  0.4966153E-006  0.1219544E+03  0.7561462E-02  0.1239907E+00
         -2   -1    0    0    0  501 -0.00000000000E+00  0.00000000000E+00  0.10072368920E+03  0.10072368920E+03  0.00000000000E+00 0.  1.
          2   -1    0    0  501    0  0.00000000000E+00 -0.00000000000E+00 -0.20975813093E+03  0.20975813093E+03  0.00000000000E+00 0. -1.
         23    2    1    2    0    0  0.73131946350E+02 -0.33767114140E+01  0.59807492512E+01  0.14506333524E+03  0.12509163886E+03 0.  0.
          5    1    3    3  502    0  0.74986455565E+02  0.43112689230E+02 -0.23619552152E+02  0.89760949943E+02  0.41800000000E+01 0. -1.
         -5    1    3    3    0  502 -0.18545092145E+01 -0.46489400644E+02  0.29600301403E+02  0.55302385300E+02  0.41800000000E+01 0. -1.
        -11    1    1    2    0    0  0.38573365362E+00  0.31781034723E+02 -0.64217701380E+02  0.71652607273E+02  0.00000000000E+00 0. -1.
         11    1    1    2    0    0 -0.73517680004E+02 -0.28404323309E+02 -0.50797489591E+02  0.93765877613E+02  0.00000000000E+00 0.  1.
</event>
<event>
 7    1  0.4966153E-006  0.1175874E+03  0.7561462E-02  0.1247131E+00
          2   -1    0    0  501    0  0.00000000000E+00  0.00000000000E+00  0.10579390060E+03  0.10579390060E+03  0.00000000000E+00 0. -1.
         -2   -1    0    0    0  501 -0.00000000000E+00 -0.00000000000E+00 -0.18485717730E+03  0.18485717730E+03  0.00000000000E+00 0.  1.
         23    2    1    2    0    0  0.19419566890E+02 -0.84196719286E+02 -0.69797450492E+02  0.16728753237E+03  0.12508887750E+03 0.  0.
          5    1    3    3  502    0 -0.27543512122E+02 -0.95171731084E+02 -0.65158195794E+02  0.11865650567E+03  0.41800000000E+01 0.  1.
         -5    1    3    3    0  502  0.46963079013E+02  0.10975011798E+02 -0.46392546982E+01  0.48631026706E+02  0.41800000000E+01 0.  1.
        -11    1    1    2    0    0 -0.72974683912E+01  0.97791714092E+01 -0.40091486077E+02  0.41907189052E+02  0.00000000000E+00 0.  1.
         11    1    1    2    0    0 -0.12122098499E+02  0.74417547876E+02  0.30825659869E+02  0.81456356476E+02  0.00000000000E+00 0. -1.
</event>
<event>
 7    1  0.4966153E-006  0.1354256E+03  0.7561462E-02  0.1219620E+00
         -4   -1    0    0    0  501 -0.00000000000E+00  0.00000000000E+00  0.16081764044E+03  0.16081764044E+03  0.00000000000E+00 0.  1.
          4   -1    0    0  501    0  0.00000000000E+00 -0.00000000000E+00 -0.21221349212E+03  0.21221349212E+03  0.00000000000E+00 0. -1.
         23    2    1    2    0    0 -0.10357078790E+03 -0.22676712793E+00  0.82265435308E+02  0.18204904178E+03  0.12508913716E+03 0.  0.
          5    1    3    3  502    0 -0.32586095309E+02 -0.59129693215E+02  0.50453109204E+02  0.84386982738E+02  0.41800000000E+01 0. -1.
         -5    1    3    3    0  502 -0.70984692588E+02  0.58902926087E+02  0.31812326105E+02  0.97662059039E+02  0.41800000000E+01 0. -1.
        -11    1    1    2    0    0  0.77646365502E+02 -0.17336894593E+02 -0.13807800675E+03  0.15935828167E+03  0.00000000000E+00 0. -1.
         11    1    1    2    0    0  0.25924422395E+02  0.17563661720E+02  0.44167197626E+01  0.31623809116E+02  0.00000000000E+00 0.  1.
</event>
<event>
 7    1  0.4966153E-006  0.9966540E+02  0.7561462E-02  0.1281001E+00
         -4   -1    0    0    0  501 -0.00000000000E+00  0.00000000000E+00  0.59038609235E+03  0.59038609235E+03  0.00000000000E+00 0.  1.
          4   -1    0    0  501    0  0.00000000000E+00 -0.00000000000E+00 -0.25056550988E+02  0.25056550988E+02  0.00000000000E+00 0. -1.
         23    2    1    2    0    0  0.20601910434E+02 -0.23329215969E+02  0.43643249117E+03  0.45507769453E+03  0.12511473804E+03 0.  0.
          5    1    3    3  502    0  0.63085435968E+02 -0.10374905579E+02  0.36698856632E+03  0.37253924774E+03  0.41800000000E+01 0.  1.
         -5    1    3    3    0  502 -0.42483525534E+02 -0.12954310390E+02  0.69443924853E+02  0.82538446790E+02  0.41800000000E+01 0.  1.
        -11    1    1    2    0    0 -0.39959640895E+02  0.45938682807E+02  0.60790122093E+02  0.86038214896E+02  0.00000000000E+00 0. -1.
         11    1    1    2    0    0  0.19357730461E+02 -0.22609466838E+02  0.68106928094E+02  0.74326733910E+02  0.00000000000E+00 0.  1.
</event>
<event>
 7    1  0.4966153E-006  0.8913310E+02  0.7561462E-02  0.1304965E+00
         -1   -1    0    0    0  501 -0.00000000000E+00  0.00000000000E+00  0.15439337209E+03  0.15439337209E+03  0.00000000000E+00 0.  1.
          1   -1    0    0  501    0  0.00000000000E+00 -0.00000000000E+00 -0.14510514672E+03  0.14510514672E+03  0.00000000000E+00 0. -1.
         23    2    1    2    0    0 -0.40646304429E+02 -0.27015666552E+02  0.95617931149E+02  0.16484193203E+03  0.12509238784E+03 0.  0.
          5    1    3    3  502    0  0.60862589075E+01 -0.42332662440E+02 -0.13531658632E+02  0.45051914966E+02  0.41800000000E+01 0. -1.
         -5    1    3    3    0  502 -0.46732563336E+02  0.15316995889E+02  0.10914958978E+03  0.11979001707E+03  0.41800000000E+01 0. -1.
        -11    1    1    2    0    0 -0.67322054692E+00  0.41985415150E+02 -0.79871654909E+02  0.90236963430E+02  0.00000000000E+00 0. -1.
         11    1    1    2    0    0  0.41319524976E+02 -0.14969748598E+02 -0.64580508622E+01  0.44419623347E+02  0.00000000000E+00 0.  1.
</event>
<event>
 7    1  0.4966153E-006  0.1077410E+03  0.7561462E-02  0.1264811E+00
          1   -1    0    0  501    0  0.00000000000E+00  0.00000000000E+00  0.25589881320E+03  0.25589881320E+03  0.00000000000E+00 0. -1.
         -1   -1    0    0    0  501 -0.00000000000E+00 -0.00000000000E+00 -0.49719457433E+02  0.49719457433E+02  0.00000000000E+00 0.  1.
         23    2    1    2    0    0 -0.18215588795E+02  0.24548754246E+02  0.97122137913E+02  0.16128707480E+03  0.12508541807E+03 0.  0.
          5    1    3    3  502    0 -0.51702413516E+02 -0.33191875411E+02  0.52115969701E+02  0.80674573779E+02  0.41800000000E+01 0.  1.
         -5    1    3    3    0  502  0.33486824720E+02  0.57740629657E+02  0.45006168212E+02  0.80612501017E+02  0.41800000000E+01 0.  1.
        -11    1    1    2    0    0 -0.29806037049E+02 -0.25144939476E+02  0.77811287006E+02  0.87035993769E+02  0.00000000000E+00 0. -1.
         11    1    1    2    0    0  0.48021625844E+02  0.59618522935E+00  0.31245930851E+02  0.57295202071E+02  0.00000000000E+00 0.  1.
</event>
<event>
 7    1  0.4966153E-006  0.2032726E+03  0.7561462E-02  0.1147007E+00
         -2   -1    0    0    0  501 -0.00000000000E+00  0.00000000000E+00  0.50104166442E+02  0.50104166442E+02  0.00000000000E+00 0.  1.
          2   -1    0    0  501    0  0.00000000000E+00 -0.00000000000E+00 -0.92781136125E+03  0.92781136125E+03  0.00000000000E+00 0. -1.
         23    2    1    2    0    0 -0.44149385570E+02 -0.17873773389E+03 -0.39643763351E+03  0.45465317105E+03  0.12510141056E+03 0.  0.
          5    1    3    3  502    0 -0.71837023068E+02 -0.15283173608E+03 -0.23907407141E+03  0.29273192764E+03  0.41800000000E+01 0.  1.
         -5    1    3    3    0  502  0.27687637498E+02 -0.25905997806E+02 -0.15736356210E+03  0.16192124341E+03  0.41800000000E+01 0.  1.
        -11    1    1    2    0    0  0.30868598530E+02  0.13481109177E+02 -0.42593143588E+02  0.54302730692E+02  0.00000000000E+00 0.  1.
         11    1    1    2    0    0  0.13280787041E+02  0.16525662471E+03 -0.43867641771E+03  0.46895962595E+03  0.00000000000E+00 0. -1.
</event>
<event>
 7    1  0.4966153E-006  0.1405600E+03  0.7561462E-02  0.1212577E+00
          1   -1    0    0  501    0  0.00000000000E+00  0.00000000000E+00  0.88532779552E+02  0.88532779552E+02  0.00000000000E+00 0. -1.
         -1   -1    0    0    0  501 -0.00000000000E+00 -0.00000000000E+00 -0.29839659594E+03  0.29839659594E+03  0.00000000000E+00 0.  1.
         23    2    1    2    0    0 -0.10468501177E+03 -0.17257984713E+01 -0.18586652101E+03  0.24730198673E+03  0.12509987586E+03 0.  0.
          5    1    3    3  502    0 -0.12954395849E+03 -0.11613656571E+02 -0.17510395526E+03  0.21816365817E+03  0.41800000000E+01 0. -1.
         -5    1    3    3    0  502  0.24858946717E+02  0.98878580995E+01 -0.10762565745E+02  0.29138328557E+02  0.41800000000E+01 0. -1.
        -11    1    1    2    0    0  0.39776102255E+02 -0.31735873238E+02  0.19654415878E+02  0.54549060710E+02  0.00000000000E+00 0.  1.
         11    1    1    2    0    0  0.64908909516E+02  0.33461671710E+02 -0.43651711263E+02  0.85078328053E+02  0.00000000000E+00 0. -1.
</event>
<event>
 7    1  0.4966153E-006  0.9160881E+02  0.7561462E-02  0.1299002E+00
         -1   -1    0    0    0  501 -0.00000000000E+00  0.00000000000E+00  0.44051932101E+02  0.44051932101E+02  0.00000000000E+00 0.  1.
          1   -1    0    0  501    0  0.00000000000E+00 -0.00000000000E+00 -0.35776266893E+03  0.35776266893E+03  0.00000000000E+00 0. -1.
         23    2    1    2    0    0  0.16546017430E+02 -0.55744444853E+02 -0.14120558313E+03  0.19739481044E+03  0.12507789835E+03 0.  0.
          5    1    3    3  502    0  0.61398347485E+02 -0.18407008663E+02 -0.11819879677E+03  0.13452510175E+03  0.41800000000E+01 0.  1.
         -5    1    3    3    0  502 -0.44852330055E+02 -0.37337436190E+02 -0.23006786359E+02  0.62869708693E+02  0.41800000000E+01 0.  1.
        -11    1    1    2    0    0 -0.14883886074E+02  0.21272569072E+02  0.24642508721E+01  0.26079202287E+02  0.00000000000E+00 0.  1.
         11    1    1    2    0    0 -0.16621313562E+01  0.34471875781E+02 -0.17496940457E+03  0.17834058830E+03  0.00000000000E+00 0. -1.
</event>
<event>
 7    1  0.4966153E-006  0.2170844E+03  0.7561462E-02  0.1136076E+00
         -2   -1    0    0    0  501 -0.00000000000E+00  0.00000000000E+00  0.22572795675E+03  0.22572795675E+03  0.00000000000E+00 0.  1.
          2   -1    0    0  501    0  0.00000000000E+00 -0.00000000000E+00 -0.26053475456E+03  0.26053475456E+03  0.00000000000E+00 0. -1.
         23    2    1    2    0    0  0.19980906902E+02 -0.19890902136E+03  0.66055282599E+02  0.24489696916E+03  0.12508872741E+03 0.  0.
          5    1    3    3  502    0 -0.43278313396E+02 -0.13293681868E+03  0.16482438731E+02  0.14083448923E+03  0.41800000000E+01 0.  1.
         -5    1    3    3    0  502  0.63259220298E+02 -0.65972202687E+02  0.49572843869E+02  0.10406247993E+03  0.41800000000E+01 0.  1.
        -11    1    1    2    0    0 -0.21916705850E+02  0.59901880689E+02  0.86804885464E+01  0.64373349973E+02  0.00000000000E+00 0.  1.
         11    1    1    2    0    0  0.19357989475E+01  0.13900714067E+03 -0.10954256895E+03  0.17699239218E+03  0.00000000000E+00 0. -1.
</event>
<event>
 7    1  0.4966153E-006  0.1068866E+03  0.7561462E-02  0.1266446E+00
         -4   -1    0    0    0  501 -0.00000000000E+00  0.00000000000E+00  0.15853354427E+03  0.15853354427E+03  0.00000000000E+00 0.  1.
          4   -1    0    0  501    0  0.00000000000E+00 -0.00000000000E+00 -0.82858762631E+02  0.82858762631E+02  0.00000000000E+00 0. -1.
         23    2    1    2    0    0  0.31554230685E+02 -0.19019116239E+02  0.56394483905E+02  0.14208922483E+03  0.12510640968E+03 0.  0.
          5    1    3    3  502    0 -0.33728838435E+02  0.28986755507E+02  0.26190054254E+01  0.44745928602E+02  0.41800000000E+01 0.  1.
         -5    1    3    3    0  502  0.65283069120E+02 -0.48005871746E+02  0.53775478479E+02  0.97343296233E+02  0.41800000000E+01 0.  1.
        -11    1    1    2    0    0 -0.27882750574E+02 -0.28751545867E+02  0.30202165388E+02  0.50162435780E+02  0.00000000000E+00 0.  1.
         11    1    1    2    0    0 -0.36714801109E+01  0.47770662106E+02 -0.10921867655E+02  0.49140646285E+02  0.00000000000E+00 0. -1.
</event>
<event>
 6    1  0.4966153E-006  0.1060283E+03  0.7561462E-02  0.1268107E+00
          2   -1    0    0  501    0  0.00000000000E+00  0.00000000000E+00  0.13250814349E+04  0.13250814349E+04  0.00000000000E+00 0. -1.
         -2   -1    0    0    0  501 -0.00000000000E+00 -0.00000000000E+00 -0.20156663400E+02  0.20156663400E+02  0.00000000000E+00 0.  1.
          5    1    1    2  502    0 -0.14362605061E+02 -0.19131023715E+02  0.72282041594E+03  0.72322825346E+03  0.41800000000E+01 0. -1.
         -5    1    1    2    0  502  0.39228866817E+02  0.75552203239E+02  0.12456734697E+03  0.15093553504E+03  0.41800000000E+01 0.  1.
        -11    1    1    2    0    0 -0.48357620078E+02 -0.61769733815E+02  0.41351975367E+03  0.42089493476E+03  0.00000000000E+00 0. -1.
         11    1    1    2    0    0  0.23491358322E+02  0.53485542908E+01  0.44017254877E+02  0.50179375004E+02  0.00000000000E+00 0.  1.
</event>
<event>
 7    1  0.4966153E-006  0.3100493E+03  0.7561462E-02  0.1080322E+00
         -2   -1    0    0    0  501 -0.00000000000E+00  0.00000000000E+00  0.54007385865E+02  0.54007385865E+02  0.00000000000E+00 0.  1.
          2   -1    0    0  501    0  0.00000000000E+00 -0.00000000000E+00 -0.21681749361E+04  0.21681749361E+04  0.00000000000E+00 0. -1.
         23    2    1    2    0    0  0.29160084109E+03  0.34099201733E+02 -0.62698198182E+03  0.70352503304E+03  0.12508901033E+03 0.  0.
          5    1    3    3  502    0  0.14677808171E+03  0.72931246464E+02 -0.26393569170E+03  0.31071255806E+03  0.41800000000E+01 0. -1.
         -5    1    3    3    0  502  0.14482275937E+03 -0.38832044731E+02 -0.36304629012E+03  0.39281247498E+03  0.41800000000E+01 0. -1.
        -11    1    1    2    0    0 -0.22765574875E+03  0.10967224809E+02 -0.10401584550E+04  0.10648366219E+04  0.00000000000E+00 0. -1.
         11    1    1    2    0    0 -0.63945092344E+02 -0.45066426542E+02 -0.44702711343E+03  0.45382066698E+03  0.00000000000E+00 0.  1.
</event>
<event>
 7    1  0.4966153E-006  0.1049855E+03  0.7561462E-02  0.1270148E+00
         -1   -1    0    0    0  501 -0.00000000000E+00  0.00000000000E+00  0.16734547652E+03  0.16734547652E+03  0.00000000000E+00 0.  1.
          1   -1    0    0  501    0  0.00000000000E+00 -0.00000000000E+00 -0.80917534493E+02  0.80917534493E+02  0.00000000000E+00 0. -1.
         23    2    1    2    0    0  0.42107218957E+02  0.24655351563E+02  0.43825152516E+02  0.14124037687E+03  0.12508915147E+03 0.  0.
          5    1    3    3  502    0 -0.17506056141E+02 -0.29879011248E+02  0.49028821940E+02  0.60170716262E+02  0.41800000000E+01 0.  1.
         -5    1    3    3    0  502  0.59613275098E+02  0.54534362811E+02 -0.52036694241E+01  0.81069660605E+02  0.41800000000E+01 0.  1.
        -11    1    1    2    0    0 -0.15382263014E+02  0.29795417387E+02  0.30168368009E+02  0.45105557762E+02  0.00000000000E+00 0.  1.
         11    1    1    2    0    0 -0.26724955943E+02 -0.54450768950E+02  0.12434421498E+02  0.61917076379E+02  0.00000000000E+00 0. -1.
</event>
<event>
 7    1  0.4966153E-006  0.1196032E+03  0.7561462E-02  0.1243753E+00
          2   -1    0    0  501    0  0.00000000000E+00  0.00000000000E+00  0.14671382032E+03  0.14671382032E+03  0.00000000000E+00 0. -1.
         -2   -1    0    0    0  501 -0.00000000000E+00 -0.00000000000E+00 -0.12497228353E+03  0.12497228353E+03  0.00000000000E+00 0.  1.
         23    2    1    2    0    0 -0.49173464518E+02  0.60984165812E+02  0.13640146630E+02  0.14822588980E+03  0.12509101772E+03 0.  0.
          5    1    3    3  502    0 -0.39895798034E+02  0.85756620093E+02  0.46792992441E+02  0.10560742934E+03  0.41800000000E+01 0.  1.
         -5    1    3    3    0  502 -0.92776664845E+01 -0.24772454281E+02 -0.33152845811E+02  0.42618460459E+02  0.41800000000E+01 0.  1.
        -11    1    1    2    0    0 -0.21312317193E+02  0.42251257977E+01 -0.12759877237E+02  0.25196845423E+02  0.00000000000E+00 0.  1.
         11    1    1    2    0    0  0.70485781712E+02 -0.65209291610E+02  0.20861267405E+02  0.98263368625E+02  0.00000000000E+00 0. -1.
</event>
<event>
 7    1  0.4966153E-006  0.2489525E+03  0.7561462E-02  0.1113969E+00
         -2   -1    0    0    0  501 -0.00000000000E+00  0.00000000000E+00  0.66976314038E+02  0.66976314038E+02  0.00000000000E+00 0. -1.
          2   -1    0    0  501    0  0.00000000000E+00 -0.00000000000E+00 -0.11181506535E+04  0.11181506535E+04  0.00000000000E+00 0.  1.
         23    2    1    2    0    0  0.23863335859E+03 -0.20562290629E+02 -0.37671548913E+03  0.46360483672E+03  0.12508476025E+03 0.  0.
          5    1    3    3  502    0  0.10792054441E+03 -0.35162300831E+02 -0.79731212183E+02  0.13877236722E+03  0.41800000000E+01 0.  1.
         -5    1    3    3    0  502  0.13071281418E+03  0.14600010202E+02 -0.29698427695E+03  0.32483246950E+03  0.41800000000E+01 0.  1.
        -11    1    1    2    0    0 -0.12211360110E+03  0.50947068613E+02 -0.41274707964E+03  0.43343683176E+03  0.00000000000E+00 0. -1.
         11    1    1    2    0    0 -0.11651975749E+03 -0.30384777984E+02 -0.26171177074E+03  0.28808529911E+03  0.00000000000E+00 0.  1.
</event>
<event>
 7    1  0.4966153E-006  0.8113393E+02  0.7561462E-02  0.1325864E+00
          2   -1    0    0  501    0  0.00000000000E+00  0.00000000000E+00  0.11226972781E+04  0.11226972781E+04  0.00000000000E+00 0. -1.
         -2   -1    0    0    0  501 -0.00000000000E+00 -0.00000000000E+00 -0.12103298570E+02  0.12103298570E+02  0.00000000000E+00 0.  1.
         23    2    1    2    0    0  0.15227820690E+02  0.38474647433E+02  0.61868497649E+03  0.63255905160E+03  0.12509064157E+03 0.  0.
          5    1    3    3  502    0  0.31190041863E+02  0.17091617861E+02  0.41800627859E+02  0.55042774294E+02  0.41800000000E+01 0. -1.
         -5    1    3    3    0  502 -0.15962221173E+02  0.21383029572E+02  0.57688434863E+03  0.57751627731E+03  0.41800000000E+01 0. -1.
        -11    1    1    2    0    0  0.38144913720E+02 -0.19171216119E+02  0.16449237688E+03  0.16994208432E+03  0.00000000000E+00 0.  1.
         11    1    1    2    0    0 -0.53372734410E+02 -0.19303431314E+02  0.32741662612E+03  0.33229944072E+03  0.00000000000E+00 0. -1.
</event>
<event>
 7    1  0.4966153E-006  0.6534051E+02  0.7561462E-02  0.1376695E+00
         -4   -1    0    0    0  501 -0.00000000000E+00  0.00000000000E+00  0.24137348783E+03  0.24137348783E+03  0.00000000000E+00 0.  1.
          4   -1    0    0  501    0  0.00000000000E+00 -0.00000000000E+00 -0.64626609180E+02  0.64626609180E+02  0.00000000000E+00 0. -1.
         23    2    1    2    0    0  0.24576050320E+02  0.17560094368E+02  0.16505910632E+03  0.20929837750E+03  0.12509581560E+03 0.  0.
          5    1    3    3  502    0  0.34463160604E+02  0.17755094219E+02  0.18369677302E+03  0.18778958871E+03  0.41800000000E+01 0.  1.
         -5    1    3    3    0  502 -0.98871102837E+01 -0.19499985183E+00 -0.18637666707E+02  0.21508788785E+02  0.41800000000E+01 0.  1.
        -11    1    1    2    0    0 -0.40058456670E+02 -0.38064406274E+02  0.32083217210E+02  0.63897666642E+02  0.00000000000E+00 0.  1.
         11    1    1    2    0    0  0.15482406350E+02  0.20504311906E+02 -0.20395444876E+02  0.32804052872E+02  0.00000000000E+00 0. -1.
</event>
<event>
 7    1  0.4966153E-006  0.9552161E+02  0.7561462E-02  0.1290006E+00
          1   -1    0    0  501    0  0.00000000000E+00  0.00000000000E+00  0.22318299979E+02  0.22318299979E+02  0.00000000000E+00 0. -1.
         -1   -1    0    0    0  501 -0.00000000000E+00 -0.00000000000E+00 -0.78240382425E+03  0.78240382425E+03  0.00000000000E+00 0.  1.
         23    2    1    2    0    0  0.53284147906E+02 -0.12206272754E+00 -0.57828574190E+03  0.59410449912E+03  0.12532574066E+03 0.  0.
          5    1    3    3  502    0 -0.25391286064E+02  0.17737540301E+02 -0.45325871845E+02  0.55056741662E+02  0.41800000000E+01 0.  1.
         -5    1    3    3    0  502  0.78675433970E+02 -0.17859603028E+02 -0.53295987006E+03  0.53904775746E+03  0.41800000000E+01 0.  1.
        -11    1    1    2    0    0 -0.12031509327E+02  0.27142658969E+02 -0.91569905624E+01  0.31069786429E+02  0.00000000000E+00 0. -1.
         11    1    1    2    0    0 -0.41252638579E+02 -0.27020596242E+02 -0.17264279181E+03  0.17954783868E+03  0.00000000000E+00 0.  1.
</event>
<event>
 7    1  0.4966153E-006  0.1003683E+03  0.7561462E-02  0.1279523E+00
          2   -1    0    0  501    0  0.00000000000E+00  0.00000000000E+00  0.36497141815E+03  0.36497141815E+03  0.00000000000E+00 0. -1.
         -2   -1    0    0    0  501 -0.00000000000E+00 -0.00000000000E+00 -0.35484651776E+02  0.35484651776E+02  0.00000000000E+00 0.  1.
         23    2    1    2    0    0 -0.16536340364E+02 -0.99341274586E+01  0.15182709141E+03  0.19766556081E+03  0.12509224918E+03 0.  0.
          5    1    3    3  502    0 -0.25584333697E+02 -0.65141834304E+02  0.76887084286E+02  0.10405341339E+03  0.41800000000E+01 0. -1.
         -5    1    3    3    0  502  0.90479933329E+01  0.55207706846E+02  0.74940007121E+02  0.93612147426E+02  0.41800000000E+01 0. -1.
        -11    1    1    2    0    0  0.32662907815E+01  0.40798874122E+02  0.28451756040E+02  0.49846957850E+02  0.00000000000E+00 0.  1.
         11    1    1    2    0    0  0.13270049583E+02 -0.30864746664E+02  0.14920791893E+03  0.15294355126E+03  0.00000000000E+00 0. -1.
</event>
<event>
 7    1  0.4966153E-006  0.1294472E+03  0.7561462E-02  0.1228278E+00
          1   -1    0    0  501    0  0.00000000000E+00  0.00000000000E+00  0.68553399543E+02  0.68553399543E+02  0.00000000000E+00 0. -1.
         -1   -1    0    0    0  501 -0.00000000000E+00 -0.00000000000E+00 -0.29298051883E+03  0.29298051883E+03  0.00000000000E+00 0.  1.
         23    2    1    2    0    0 -0.39520008828E+02  0.59181322059E+02 -0.19423838364E+03  0.24174449130E+03  0.12509032503E+03 0.  0.
          5    1    3    3  502    0 -0.84774996363E+02  0.45506328086E+02 -0.12488695995E+03  0.15770811986E+03  0.41800000000E+01 0.  1.
         -5    1    3    3    0  502  0.45254987535E+02  0.13674993974E+02 -0.69351423694E+02  0.84036371443E+02  0.41800000000E+01 0.  1.
        -11    1    1    2    0    0  0.25964199669E+02  0.21255862234E+02 -0.15264216654E+02  0.36863907197E+02  0.00000000000E+00 0.  1.
         11    1    1    2    0    0  0.13555809159E+02 -0.80437184293E+02 -0.14924518990E+02  0.82925519872E+02  0.00000000000E+00 0. -1.
</event>
<event>
 7    1  0.4966153E-006  0.1317508E+03  0.7561462E-02  0.1224881E+00
          1   -1    0    0  501    0  0.00000000000E+00  0.00000000000E+00  0.39108090937E+02  0.39108090937E+02  0.00000000000E+00 0. -1.
         -1   -1    0    0    0  501 -0.00000000000E+00 -0.00000000000E+00 -0.55807218471E+03  0.55807218471E+03  0.00000000000E+00 0.  1.
         23    2    1    2    0    0  0.53118428514E+02 -0.89631287358E+02 -0.29379917188E+03  0.33114330630E+03  0.11172556014E+03 0.  0.
          5    1    3    3  502    0  0.17386121774E+02 -0.10546632269E+03 -0.16639536255E+03  0.19781383049E+03  0.41800000000E+01 0. -1.
         -5    1    3    3    0  502  0.35732306739E+02  0.15835035336E+02 -0.12740380933E+03  0.13332947581E+03  0.41800000000E+01 0.  1.
        -11    1    1    2    0    0  0.95013444126E+01  0.27146200719E+02 -0.14110208806E+03  0.14400344098E+03  0.00000000000E+00 0.  1.
         11    1    1    2    0    0 -0.62619772927E+02  0.62485086639E+02 -0.84062833823E+02  0.12203352836E+03  0.00000000000E+00 0. -1.
</event>
<event>
 7    1  0.4966153E-006  0.1242867E+03  0.7561462E-02  0.1236188E+00
          2   -1    0    0  501    0  0.00000000000E+00  0.00000000000E+00  0.40308562292E+03  0.40308562292E+03  0.00000000000E+00 0.  1.
         -2   -1    0    0    0  501 -0.00000000000E+00 -0.00000000000E+00 -0.59941615079E+02  0.59941615079E+02  0.00000000000E+00 0. -1.
         23    2    1    2    0    0  0.67222018401E+02 -0.88733257501E+02  0.18155083701E+03  0.24698231471E+03  0.12508863504E+03 0.  0.
          5    1    3    3  502    0  0.51279524557E+02 -0.68652699439E+02  0.19830682449E+03  0.21606909038E+03  0.41800000000E+01 0.  1.
         -5    1    3    3    0  502  0.15942493844E+02 -0.20080558062E+02 -0.16755987479E+02  0.30913224330E+02  0.41800000000E+01 0.  1.
        -11    1    1    2    0    0 -0.66320154885E+02  0.21723193267E+02  0.49909835986E+02  0.85797737720E+02  0.00000000000E+00 0. -1.
         11    1    1    2    0    0 -0.90186351633E+00  0.67010064233E+02  0.11168333484E+03  0.13024718556E+03  0.00000000000E+00 0.  1.
</event>
<event>
 7    1  0.4966153E-006  0.1265085E+03  0.7561462E-02  0.1232730E+00
          1   -1    0    0  501    0  0.00000000000E+00  0.00000000000E+00  0.26829060952E+02  0.26829060952E+02  0.00000000000E+00 0. -1.
         -1   -1    0    0    0  501 -0.00000000000E+00 -0.00000000000E+00 -0.10679351334E+04  0.10679351334E+04  0.00000000000E+00 0.  1.
         23    2    1    2    0    0 -0.49813567587E+02  0.76746676560E+02 -0.86281644156E+03  0.87662466725E+03  0.12508857473E+03 0.  0.
          5    1    3    3  502    0 -0.88126760472E+02  0.43930022579E+02 -0.67284098768E+03  0.68002105842E+03  0.41800000000E+01 0.  1.
         -5    1    3    3    0  502  0.38313192885E+02  0.32816653982E+02 -0.18997545388E+03  0.19660360883E+03  0.41800000000E+01 0.  1.
        -11    1    1    2    0    0  0.49173897772E+02 -0.31087768324E+02 -0.35329897179E+02  0.68064110926E+02  0.00000000000E+00 0. -1.
         11    1    1    2    0    0  0.63966981478E+00 -0.45658908237E+02 -0.14295973376E+03  0.15007541622E+03  0.00000000000E+00 0.  1.
</event>
<event>
 7    1  0.4966153E-006  0.1377438E+03  0.7561462E-02  0.1216398E+00
          2   -1    0    0  501    0  0.00000000000E+00  0.00000000000E+00  0.62744289961E+03  0.62744289961E+03  0.00000000000E+00 0. -1.
         -2   -1    0    0    0  501 -0.00000000000E+00 -0.00000000000E+00 -0.63138893482E+02  0.63138893482E+02  0.00000000000E+00 0.  1.
         23    2    1    2    0    0 -0.12230390329E+03 -0.38116147625E+02  0.10746849748E+03  0.20882182236E+03  0.12508393212E+03 0.  0.
          5    1    3    3  502    0 -0.81623663656E+02  0.53378042191E+01 -0.44118794031E+01  0.82023482628E+02  0.41800000000E+01 0. -1.
         -5    1    3    3    0  502 -0.40680239635E+02 -0.43453951844E+02  0.11188037688E+03  0.12679833973E+03  0.41800000000E+01 0. -1.
        -11    1    1    2    0    0  0.83931032952E+02  0.44521362049E+02  0.41004969008E+03  0.42091248295E+03  0.00000000000E+00 0. -1.
         11    1    1    2    0    0  0.38372870339E+02 -0.64052144243E+01  0.46785818571E+02  0.60847487781E+02  0.00000000000E+00 0.  1.
</event>
<event>
 7    1  0.4966153E-006  0.1056670E+03  0.7561462E-02  0.1268811E+00
          2   -1    0    0  501    0  0.00000000000E+00  0.00000000000E+00  0.30849144287E+03  0.30849144287E+03  0.00000000000E+00 0. -1.
         -2   -1    0    0    0  501 -0.00000000000E+00 -0.00000000000E+00 -0.62572432261E+02  0.62572432261E+02  0.00000000000E+00 0.  1.
         23    2    1    2    0    0  0.56483237653E+02 -0.14989169531E+02  0.68743656525E+02  0.15423541242E+03  0.12509132980E+03 0.  0.
          5    1    3    3  502    0  0.41510197216E+02 -0.54926469051E+02 -0.47727924931E+01  0.69139463576E+02  0.41800000000E+01 0.  1.
         -5    1    3    3    0  502  0.14973040437E+02  0.39937299520E+02  0.73516449018E+02  0.85095948841E+02  0.41800000000E+01 0.  1.
        -11    1    1    2    0    0 -0.36822361360E+02  0.48352986691E+02  0.16561344334E+03  0.17641346386E+03  0.00000000000E+00 0. -1.
         11    1    1    2    0    0 -0.19660876293E+02 -0.33363817159E+02  0.11561910745E+02  0.40414998851E+02  0.00000000000E+00 0.  1.
</event>
<event>
 7    1  0.4966153E-006  0.1536913E+03  0.7561462E-02  0.1196009E+00
          2   -1    0    0  501    0  0.00000000000E+00  0.00000000000E+00  0.13130076398E+04  0.13130076398E+04  0.00000000000E+00 0. -1.
         -2   -1    0    0    0  501 -0.00000000000E+00 -0.00000000000E+00 -0.21758354911E+02  0.21758354911E+02  0.00000000000E+00 0.  1.
         23    2    1    2    0    0 -0.79081858267E+02  0.92277600417E+02  0.86667099242E+03  0.88404524237E+03  0.12509310772E+03 0.  0.
          5    1    3    3  502    0 -0.89378825283E+02  0.22614292065E+02  0.64087095869E+03  0.64748207597E+03  0.41800000000E+01 0.  1.
         -5    1    3    3    0  502  0.10296967015E+02  0.69663308352E+02  0.22580003373E+03  0.23656316639E+03  0.41800000000E+01 0.  1.
        -11    1    1    2    0    0  0.22639657463E+01 -0.61901320009E+02  0.25038583241E+03  0.25793403039E+03  0.00000000000E+00 0. -1.
         11    1    1    2    0    0  0.76817892521E+02 -0.30376280408E+02  0.17419246005E+03  0.19278672196E+03  0.00000000000E+00 0.  1.
</event>
<event>
 7    1  0.4966153E-006  0.1194984E+03  0.7561462E-02  0.1243927E+00
          1   -1    0    0  501    0  0.00000000000E+00  0.00000000000E+00  0.24766373773E+03  0.24766373773E+03  0.00000000000E+00 0. -1.
         -1   -1    0    0    0  501 -0.00000000000E+00 -0.00000000000E+00 -0.66043636825E+02  0.66043636825E+02  0.00000000000E+00 0.  1.
         23    2    1    2    0    0  0.54671249550E+02  0.33414449677E+02  0.80994553829E+02  0.16212330908E+03  0.12497351169E+03 0.  0.
          5    1    3    3  502    0  0.74950098161E+02  0.61822419320E+02  0.81627633794E+02  0.12696484452E+03  0.41800000000E+01 0.  1.
         -5    1    3    3    0  502 -0.20278848612E+02 -0.28407969644E+02 -0.63307996546E+00  0.35158464564E+02  0.41800000000E+01 0.  1.
        -11    1    1    2    0    0 -0.65303192298E+02  0.61845898071E+01  0.35389537306E+02  0.74533049221E+02  0.00000000000E+00 0. -1.
         11    1    1    2    0    0  0.10631942749E+02 -0.39599039484E+02  0.65236009772E+02  0.77051016253E+02  0.00000000000E+00 0.  1.
</event>
<event>
 7    1  0.4966153E-006  0.7398804E+02  0.7561462E-02  0.1347034E+00
          2   -1    0    0  501    0  0.00000000000E+00  0.00000000000E+00  0.34935551394E+03  0.34935551394E+03  0.00000000000E+00 0. -1.
         -2   -1    0    0    0  501 -0.00000000000E+00 -0.00000000000E+00 -0.44839155920E+02  0.44839155920E+02  0.00000000000E+00 0.  1.
         23    2    1    2    0    0  0.17110423366E+02 -0.19758525700E+02  0.80132093389E+02  0.15083481650E+03  0.12508726374E+03 0.  0.
          5    1    3    3  502    0  0.36278218767E+02 -0.28043592176E+02  0.10703788686E+03  0.11652095881E+03  0.41800000000E+01 0. -1.
         -5    1    3    3    0  502 -0.19167795401E+02  0.82850664756E+01 -0.26905793469E+02  0.34313857685E+02  0.41800000000E+01 0. -1.
        -11    1    1    2    0    0 -0.30632595747E+02  0.43565590327E+02  0.78065616671E+02  0.94501624795E+02  0.00000000000E+00 0. -1.
         11    1    1    2    0    0  0.13522172381E+02 -0.23807064627E+02  0.14631864796E+03  0.14885822857E+03  0.00000000000E+00 0.  1.
</event>
<event>
 7    1  0.4966153E-006  0.8552155E+02  0.7561462E-02  0.1314074E+00
          4   -1    0    0  501    0  0.00000000000E+00  0.00000000000E+00  0.37203195245E+03  0.37203195245E+03  0.00000000000E+00 0. -1.
         -4   -1    0    0    0  501 -0.00000000000E+00 -0.00000000000E+00 -0.37466214124E+02  0.37466214124E+02  0.00000000000E+00 0.  1.
         23    2    1    2    0    0  0.19919820469E+02 -0.16325344979E+01  0.11723864782E+03  0.17260137736E+03  0.12508745144E+03 0.  0.
          5    1    3    3  502    0  0.27186513293E+02 -0.41071139904E+02  0.86243185922E+00  0.49438458984E+02  0.41800000000E+01 0. -1.
         -5    1    3    3    0  502 -0.72666928239E+01  0.39438605406E+02  0.11637621596E+03  0.12316291837E+03  0.41800000000E+01 0. -1.
        -11    1    1    2    0    0  0.45624294411E+01  0.37549190384E+02  0.16294568602E+03  0.16727837294E+03  0.00000000000E+00 0. -1.
         11    1    1    2    0    0 -0.24482249910E+02 -0.35916655886E+02  0.54381404486E+02  0.69618416274E+02  0.00000000000E+00 0.  1.
</event>
<event>
 7    1  0.4966153E-006  0.1045383E+03  0.7561462E-02  0.1271032E+00
          1   -1    0    0  501    0  0.00000000000E+00  0.00000000000E+00  0.31688935016E+02  0.31688935016E+02  0.00000000000E+00 0. -1.
         -1   -1    0    0    0  501 -0.00000000000E+00 -0.00000000000E+00 -0.39824809605E+03  0.39824809605E+03  0.00000000000E+00 0.  1.
         23    2    1    2    0    0 -0.25111840676E+02 -0.53937779463E+01 -0.23262131510E+03  0.26536591474E+03  0.12508675024E+03 0.  0.
          5    1    3    3  502    0 -0.10070258996E+02  0.54871322990E+02 -0.60837613986E+02  0.82649621163E+02  0.41800000000E+01 0.  1.
         -5    1    3    3    0  502 -0.15041581680E+02 -0.60265100936E+02 -0.17178370111E+03  0.18271629358E+03  0.41800000000E+01 0.  1.
        -11    1    1    2    0    0 -0.13967686802E+01 -0.39079212479E+02 -0.83916077683E+02  0.92579932515E+02  0.00000000000E+00 0.  1.
         11    1    1    2    0    0  0.26508609357E+02  0.44472990426E+02 -0.50021768251E+02  0.71991183810E+02  0.00000000000E+00 0. -1.
</event>
<event>
 7    1  0.4966153E-006  0.1055975E+03  0.7561462E-02  0.1268947E+00
          3   -1    0    0  501    0  0.00000000000E+00  0.00000000000E+00  0.39213045667E+03  0.39213045667E+03  0.00000000000E+00 0. -1.
         -3   -1    0    0    0  501 -0.00000000000E+00 -0.00000000000E+00 -0.11104188454E+03  0.11104188454E+03  0.00000000000E+00 0.  1.
         23    2    1    2    0    0  0.80268718423E+01  0.33126482013E+02 -0.71112575238E+02  0.13716678908E+03  0.11223161403E+03 0.  0.
          5    1    3    3  502    0  0.57034710141E+02  0.23678468485E+01 -0.48076704509E+02  0.74748958361E+02  0.41800000000E+01 0. -1.
         -5    1    3    3    0  502 -0.49007838299E+02  0.30758635165E+02 -0.23035870728E+02  0.62417830722E+02  0.41800000000E+01 0.  1.
        -11    1    1    2    0    0  0.39380442925E+02 -0.27878961329E+02  0.22596773405E+03  0.23106162079E+03  0.00000000000E+00 0.  1.
         11    1    1    2    0    0 -0.47407314767E+02 -0.52475206841E+01  0.12623341331E+03  0.13494393133E+03  0.00000000000E+00 0. -1.
</event>
<event>
 7    1  0.4966153E-006  0.8975847E+02  0.7561462E-02  0.1303438E+00
         -2   -1    0    0    0  501 -0.00000000000E+00  0.00000000000E+00  0.16433301996E+03  0.16433301996E+03  0.00000000000E+00 0.  1.
          2   -1    0    0  501    0  0.00000000000E+00 -0.00000000000E+00 -0.88735379796E+02  0.88735379796E+02  0.00000000000E+00 0. -1.
         23    2    1    2    0    0 -0.21758734197E+02 -0.79928091845E+01  0.94797073320E+02  0.15865539206E+03  0.12509085022E+03 0.  0.
          5    1    3    3  502    0 -0.55383939794E+02  0.24085628913E+02  0.92924367393E+01  0.61248021093E+02  0.41800000000E+01 0. -1.
         -5    1    3    3    0  502  0.33625205598E+02 -0.32078438097E+02  0.85504636580E+02  0.97407370969E+02  0.41800000000E+01 0. -1.
        -11    1    1    2    0    0  0.13440683403E+02 -0.30291997343E+02 -0.38450132677E+02  0.50760907953E+02  0.00000000000E+00 0. -1.
         11    1    1    2    0    0  0.83180507934E+01  0.38284806528E+02  0.19250699523E+02  0.43652099743E+02  0.00000000000E+00 0.  1.
</event>
<event>
 7    1  0.4966153E-006  0.9466688E+02  0.7561462E-02  0.1291928E+00
          1   -1    0    0  501    0  0.00000000000E+00  0.00000000000E+00  0.62549452699E+02  0.62549452699E+02  0.00000000000E+00 0. -1.
         -1   -1    0    0    0  501 -0.00000000000E+00 -0.00000000000E+00 -0.29737183384E+03  0.29737183384E+03  0.00000000000E+00 0.  1.
         23    2    1    2    0    0 -0.57044291343E+02  0.49690867519E+01 -0.20487613525E+03  0.24678859628E+03  0.12510650447E+03 0.  0.
          5    1    3    3  502    0 -0.21457721239E+02 -0.27864993390E+02 -0.19371170578E+03  0.19692279963E+03  0.41800000000E+01 0.  1.
         -5    1    3    3    0  502 -0.35586570104E+02  0.32834080142E+02 -0.11164429475E+02  0.49865796655E+02  0.41800000000E+01 0.  1.
        -11    1    1    2    0    0  0.24711613884E+02 -0.46515242734E+02 -0.29738730129E+02  0.60487384942E+02  0.00000000000E+00 0.  1.
         11    1    1    2    0    0  0.32332677460E+02  0.41546155983E+02 -0.20751575655E+00  0.52645305312E+02  0.00000000000E+00 0. -1.
</event>
<event>
 7    1  0.7127053E-006  0.1846423E+03  0.7561462E-02  0.1163384E+00
         -4   -1    0    0    0  501 -0.00000000000E+00  0.00000000000E+00  0.36926017522E+02  0.36926017522E+02  0.00000000000E+00 0.  1.
          4   -1    0    0  501    0  0.00000000000E+00 -0.00000000000E+00 -0.99308678362E+03  0.99308678362E+03  0.00000000000E+00 0. -1.
         23    2    1    2    0    0 -0.15183952987E+03  0.40969650327E+02 -0.48766968618E+03  0.52744995161E+03  0.12509186046E+03 0.  0.
          5    1    3    3  502    0 -0.13811287390E+03 -0.16393109699E+02 -0.30027794056E+03  0.33095047057E+03  0.41800000000E+01 0. -1.
         -5    1    3    3    0  502 -0.13726655967E+02  0.57362760025E+02 -0.18739174562E+03  0.19649948104E+03  0.41800000000E+01 0. -1.
        -11    1    1    2    0    0  0.11297332949E+03  0.21036090507E+01 -0.21919076517E+03  0.24660087162E+03  0.00000000000E+00 0.  1.
         11    1    1    2    0    0  0.38866200374E+02 -0.43073259377E+02 -0.24930031475E+03  0.25596197792E+03  0.00000000000E+00 0. -1.
</event>
<event>
 7    1  0.4966153E-006  0.1043740E+03  0.7561462E-02  0.1271358E+00
         -4   -1    0    0    0  501 -0.00000000000E+00  0.00000000000E+00  0.30299983895E+02  0.30299983895E+02  0.00000000000E+00 0.  1.
          4   -1    0    0  501    0  0.00000000000E+00 -0.00000000000E+00 -0.55675304225E+03  0.55675304225E+03  0.00000000000E+00 0. -1.
         23    2    1    2    0    0  0.49598572920E+01  0.62984524006E+02 -0.21838717731E+03  0.25948380737E+03  0.12508891489E+03 0.  0.
          5    1    3    3  502    0 -0.85298060305E+01 -0.22487732939E+02  0.13922275894E+00  0.24412036102E+02  0.41800000000E+01 0. -1.
         -5    1    3    3    0  502  0.13489663323E+02  0.85472256945E+02 -0.21852640006E+03  0.23507177127E+03  0.41800000000E+01 0. -1.
        -11    1    1    2    0    0  0.33561871708E+02 -0.42249528978E+02 -0.88218923702E+02  0.10341180025E+03  0.00000000000E+00 0.  1.
         11    1    1    2    0    0 -0.38521729000E+02 -0.20734995028E+02 -0.21984695734E+03  0.22415741852E+03  0.00000000000E+00 0. -1.
</event>
<event>
 7    1  0.4966153E-006  0.1648195E+03  0.7561462E-02  0.1183361E+00
         -1   -1    0    0    0  501 -0.00000000000E+00  0.00000000000E+00  0.47596472728E+02  0.47596472728E+02  0.00000000000E+00 0.  1.
          1   -1    0    0  501    0  0.00000000000E+00 -0.00000000000E+00 -0.67799847984E+03  0.67799847984E+03  0.00000000000E+00 0. -1.
         23    2    1    2    0    0 -0.12018375410E+03  0.65497668524E+02 -0.25140861956E+03  0.31238644687E+03  0.12507965010E+03 0.  0.
          5    1    3    3  502    0 -0.11772572048E+03  0.97349947691E+02 -0.19973989713E+03  0.25149524147E+03  0.41800000000E+01 0.  1.
         -5    1    3    3    0  502 -0.24580336236E+01 -0.31852279168E+02 -0.51668722439E+02  0.60891205407E+02  0.41800000000E+01 0.  1.
        -11    1    1    2    0    0  0.29482261211E+02 -0.41269186439E+02 -0.24118731294E+03  0.24646230827E+03  0.00000000000E+00 0. -1.
         11    1    1    2    0    0  0.90701492888E+02 -0.24228482084E+02 -0.13780607461E+03  0.16674619743E+03  0.00000000000E+00 0.  1.
</event>
<event>
 7    1  0.4966153E-006  0.1084359E+03  0.7561462E-02  0.1263494E+00
         -2   -1    0    0    0  501 -0.00000000000E+00  0.00000000000E+00  0.27874087964E+02  0.27874087964E+02  0.00000000000E+00 0.  1.
          2   -1    0    0  501    0  0.00000000000E+00 -0.00000000000E+00 -0.44859048482E+03  0.44859048482E+03  0.00000000000E+00 0. -1.
         23    2    1    2    0    0 -0.33645464024E+02  0.13567505474E+02 -0.22504717158E+03  0.26001831349E+03  0.12508876633E+03 0.  0.
          5    1    3    3  502    0 -0.63921298053E+02  0.50285476483E+02 -0.15715878985E+03  0.17700542116E+03  0.41800000000E+01 0. -1.
         -5    1    3    3    0  502  0.30275834029E+02 -0.36717971009E+02 -0.67888381721E+02  0.83012892335E+02  0.41800000000E+01 0. -1.
        -11    1    1    2    0    0  0.32064271265E+02  0.30091729829E+02 -0.13277712030E+03  0.13986920094E+03  0.00000000000E+00 0.  1.
         11    1    1    2    0    0  0.15811927596E+01 -0.43659235303E+02 -0.62892104987E+02  0.76577058363E+02  0.00000000000E+00 0. -1.
</event>
<event>
 7    1  0.4966153E-006  0.9381365E+02  0.7561462E-02  0.1293871E+00
         -1   -1    0    0    0  501 -0.00000000000E+00  0.00000000000E+00  0.38008280841E+02  0.38008280841E+02  0.00000000000E+00 0.  1.
          1   -1    0    0  501    0  0.00000000000E+00 -0.00000000000E+00 -0.35953374158E+03  0.35953374158E+03  0.00000000000E+00 0. -1.
         23    2    1    2    0    0 -0.40445249978E+02 -0.93063918730E+01 -0.18717317681E+03  0.22891853258E+03  0.12508984478E+03 0.  0.
          5    1    3    3  502    0 -0.40539505705E+02  0.42407218797E+02 -0.15975277087E+03  0.17023584796E+03  0.41800000000E+01 0.  1.
         -5    1    3    3    0  502  0.94255726585E-01 -0.51713610670E+02 -0.27420405932E+02  0.58682684619E+02  0.41800000000E+01 0.  1.
        -11    1    1    2    0    0  0.45872008097E+02 -0.17859877209E+02 -0.13193027623E+03  0.14081482211E+03  0.00000000000E+00 0. -1.
         11    1    1    2    0    0 -0.54267581193E+01  0.27166269082E+02 -0.24220077050E+01  0.27808667729E+02  0.00000000000E+00 0.  1.
</event>
<event>
 7    1  0.4966153E-006  0.1021901E+03  0.7561462E-02  0.1275757E+00
         -2   -1    0    0    0  501 -0.00000000000E+00  0.00000000000E+00  0.11746162359E+03  0.11746162359E+03  0.00000000000E+00 0.  1.
          2   -1    0    0  501    0  0.00000000000E+00 -0.00000000000E+00 -0.11665781748E+03  0.11665781748E+03  0.00000000000E+00 0. -1.
         23    2    1    2    0    0  0.11968852321E+02  0.24679003945E+02  0.32167794536E+02  0.13203814777E+03  0.12508796425E+03 0.  0.
          5    1    3    3  502    0 -0.48219259321E+02  0.40087110245E+02  0.30231066647E+02  0.69738534311E+02  0.41800000000E+01 0.  1.
         -5    1    3    3    0  502  0.60188111642E+02 -0.15408106300E+02  0.19367278894E+01  0.62299613464E+02  0.41800000000E+01 0.  1.
        -11    1    1    2    0    0  0.17165410215E+02 -0.41999051671E+02  0.12106541159E+02  0.46958918087E+02  0.00000000000E+00 0.  1.
         11    1    1    2    0    0 -0.29134262536E+02  0.17320047725E+02 -0.43470529577E+02  0.55122375207E+02  0.00000000000E+00 0. -1.
</event>
<event>
 7    1  0.4966153E-006  0.1761418E+03  0.7561462E-02  0.1171590E+00
         -1   -1    0    0    0  501 -0.00000000000E+00  0.00000000000E+00  0.37058015922E+02  0.37058015922E+02  0.00000000000E+00 0.  1.
          1   -1    0    0  501    0  0.00000000000E+00 -0.00000000000E+00 -0.87079248681E+03  0.87079248681E+03  0.00000000000E+00 0. -1.
         23    2    1    2    0    0 -0.13309519857E+03  0.41891183256E+02 -0.35832374601E+03  0.40436556575E+03  0.12508557348E+03 0.  0.
          5    1    3    3  502    0  0.18089698002E+02  0.29400743033E+02 -0.82958214064E+02  0.89950978568E+02  0.41800000000E+01 0. -1.
         -5    1    3    3    0  502 -0.15118489657E+03  0.12490440223E+02 -0.27536553195E+03  0.31441458719E+03  0.41800000000E+01 0. -1.
        -11    1    1    2    0    0  0.10645488731E+03  0.10506991017E+02 -0.31075539426E+03  0.32865172289E+03  0.00000000000E+00 0. -1.
         11    1    1    2    0    0  0.26640311258E+02 -0.52398174273E+02 -0.16465533061E+03  0.17483321409E+03  0.00000000000E+00 0.  1.
</event>
<event>
 7    1  0.4966153E-006  0.1680120E+03  0.7561462E-02  0.1179937E+00
          3   -1    0    0  501    0  0.00000000000E+00  0.00000000000E+00  0.16948823311E+03  0.16948823311E+03  0.00000000000E+00 0. -1.
         -3   -1    0    0    0  501 -0.00000000000E+00 -0.00000000000E+00 -0.25914363594E+03  0.25914363594E+03  0.00000000000E+00 0.  1.
         23    2    1    2    0    0 -0.15994409838E+03 -0.99206129410E+01 -0.12887181245E+03  0.24069787792E+03  0.12508793395E+03 0.  0.
          5    1    3    3  502    0 -0.10611630809E+03  0.27592586155E+02 -0.13580266016E+03  0.17459053972E+03  0.41800000000E+01 0. -1.
         -5    1    3    3    0  502 -0.53827790289E+02 -0.37513199096E+02  0.69308477019E+01  0.66107338198E+02  0.41800000000E+01 0. -1.
        -11    1    1    2    0    0  0.45140328354E+02  0.72693629034E+01  0.55547085538E+02  0.71944225569E+02  0.00000000000E+00 0. -1.
         11    1    1    2    0    0  0.11480377003E+03  0.26512500375E+01 -0.16330675905E+02  0.11598976556E+03  0.00000000000E+00 0.  1.
</event>
<event>
 7    1  0.4966153E-006  0.1001625E+03  0.7561462E-02  0.1279955E+00
         -1   -1    0    0    0  501 -0.00000000000E+00  0.00000000000E+00  0.22939547375E+02  0.22939547375E+02  0.00000000000E+00 0.  1.
          1   -1    0    0  501    0  0.00000000000E+00 -0.00000000000E+00 -0.62939605199E+03  0.62939605199E+03  0.00000000000E+00 0. -1.
         23    2    1    2    0    0  0.40704900120E+02  0.29370510739E+02 -0.32301169146E+03  0.35000507731E+03  0.12508990978E+03 0.  0.
          5    1    3    3  502    0  0.44352369584E+02  0.68525223793E+02 -0.27951050433E+03  0.29121544158E+03  0.41800000000E+01 0.  1.
         -5    1    3    3    0  502 -0.36474694633E+01 -0.39154713054E+02 -0.43501187138E+02  0.58789635738E+02  0.41800000000E+01 0.  1.
        -11    1    1    2    0    0  0.16290689663E+02 -0.82741670111E+01 -0.74640424417E+01  0.19737282969E+02  0.00000000000E+00 0.  1.
         11    1    1    2    0    0 -0.56995589784E+02 -0.21096343728E+02 -0.27598077071E+03  0.28259323908E+03  0.00000000000E+00 0. -1.
</event>
<event>
 7    1  0.4966153E-006  0.9186480E+02  0.7561462E-02  0.1298398E+00
          1   -1    0    0  501    0  0.00000000000E+00  0.00000000000E+00  0.13702988878E+03  0.13702988878E+03  0.00000000000E+00 0. -1.
         -1   -1    0    0    0  501 -0.00000000000E+00 -0.00000000000E+00 -0.76763135011E+02  0.76763135011E+02  0.00000000000E+00 0.  1.
         23    2    1    2    0    0 -0.92006188280E+01  0.17124166642E+02  0.23417160627E+02  0.12873941797E+03  0.12509031080E+03 0.  0.
          5    1    3    3  502    0  0.37819122948E+02 -0.24983898555E+02  0.42901443280E+02  0.62549879960E+02  0.41800000000E+01 0.  1.
         -5    1    3    3    0  502 -0.47019741776E+02  0.42108065197E+02 -0.19484282654E+02  0.66189538009E+02  0.41800000000E+01 0.  1.
        -11    1    1    2    0    0  0.77329169291E+01 -0.45695462770E+02  0.13922238962E+02  0.48391136169E+02  0.00000000000E+00 0.  1.
         11    1    1    2    0    0  0.14677018989E+01  0.28571296128E+02  0.22927354176E+02  0.36662469650E+02  0.00000000000E+00 0. -1.
</event>
<event>
 7    1  0.4966153E-006  0.1105689E+03  0.7561462E-02  0.1259520E+00
         -2   -1    0    0    0  501 -0.00000000000E+00  0.00000000000E+00  0.20272513383E+03  0.20272513383E+03  0.00000000000E+00 0.  1.
          2   -1    0    0  501    0  0.00000000000E+00 -0.00000000000E+00 -0.97998743659E+02  0.97998743659E+02  0.00000000000E+00 0. -1.
         23    2    1    2    0    0 -0.43301720109E+02  0.22744460786E+02  0.13494872281E+03  0.19039837832E+03  0.12509210693E+03 0.  0.
          5    1    3    3  502    0 -0.10318436020E+01  0.63785347565E+02  0.10794033180E+03  0.12545207409E+03  0.41800000000E+01 0. -1.
         -5    1    3    3    0  502 -0.42269876506E+02 -0.41040886779E+02  0.27008391014E+02  0.64946304226E+02  0.41800000000E+01 0. -1.
        -11    1    1    2    0    0  0.19662439207E+02  0.32538645800E+02  0.83061174172E+01  0.38914863132E+02  0.00000000000E+00 0.  1.
         11    1    1    2    0    0  0.23639280901E+02 -0.55283106586E+02 -0.38528450059E+02  0.71410636037E+02  0.00000000000E+00 0. -1.
</event>
<event>
 7    1  0.4966153E-006  0.1394013E+03  0.7561462E-02  0.1214137E+00
          1   -1    0    0  501    0  0.00000000000E+00  0.00000000000E+00  0.12790085998E+04  0.12790085998E+04  0.00000000000E+00 0. -1.
         -1   -1    0    0    0  501 -0.00000000000E+00 -0.00000000000E+00 -0.21360089555E+02  0.21360089555E+02  0.00000000000E+00 0.  1.
         23    2    1    2    0    0  0.10836561988E+03  0.59963255015E+02  0.64589054879E+03  0.66944763873E+03  0.12508733133E+03 0.  0.
          5    1    3    3  502    0  0.11351045195E+02  0.92593617562E+01  0.39964258354E+03  0.39993280559E+03  0.41800000000E+01 0. -1.
         -5    1    3    3    0  502  0.97014574681E+02  0.50703893259E+02  0.24624796525E+03  0.26951483314E+03  0.41800000000E+01 0. -1.
        -11    1    1    2    0    0 -0.13639603320E+02  0.23893941373E+02  0.12491386378E+03  0.12790790663E+03  0.00000000000E+00 0. -1.
         11    1    1    2    0    0 -0.94726016557E+02 -0.83857196389E+02  0.48684409769E+03  0.50301314402E+03  0.00000000000E+00 0.  1.
</event>
<event>
 7    1  0.4966153E-006  0.1011539E+03  0.7561462E-02  0.1277888E+00
          2   -1    0    0  501    0  0.00000000000E+00  0.00000000000E+00  0.61505151419E+03  0.61505151419E+03  0.00000000000E+00 0. -1.
         -2   -1    0    0    0  501 -0.00000000000E+00 -0.00000000000E+00 -0.34931197664E+02  0.34931197664E+02  0.00000000000E+00 0.  1.
         23    2    1    2    0    0  0.90172067129E+02 -0.20858696003E+01  0.22640638633E+03  0.27393797022E+03  0.12508719844E+03 0.  0.
          5    1    3    3  502    0  0.29236735738E+02  0.24115387529E+02  0.19803869241E+03  0.20167581591E+03  0.41800000000E+01 0.  1.
         -5    1    3    3    0  502  0.60935331392E+02 -0.26201257129E+02  0.28367693926E+02  0.72262154311E+02  0.41800000000E+01 0.  1.
        -11    1    1    2    0    0 -0.67760556949E+02 -0.15163688405E+02  0.33502828498E+03  0.34214818758E+03  0.00000000000E+00 0. -1.
         11    1    1    2    0    0 -0.22411510180E+02  0.17249558006E+02  0.18685645210E+02  0.33896554056E+02  0.00000000000E+00 0.  1.
</event>
<event>
 7    1  0.4966153E-006  0.1766088E+03  0.7561462E-02  0.1171126E+00
         -2   -1    0    0    0  501 -0.00000000000E+00  0.00000000000E+00  0.31876788010E+02  0.31876788010E+02  0.00000000000E+00 0. -1.
          2   -1    0    0  501    0  0.00000000000E+00 -0.00000000000E+00 -0.11758545224E+04  0.11758545224E+04  0.00000000000E+00 0.  1.
         23    2    1    2    0    0 -0.85958049080E+02  0.12694962600E+03 -0.47622708013E+03  0.51569856940E+03  0.12509112234E+03 0.  0.
          5    1    3    3  502    0 -0.78672272536E+02  0.13955596662E+02 -0.25319153614E+03  0.26553250558E+03  0.41800000000E+01 0.  1.
         -5    1    3    3    0  502 -0.72857765441E+01  0.11299402934E+03 -0.22303554399E+03  0.25016606382E+03  0.41800000000E+01 0.  1.
        -11    1    1    2    0    0  0.10302279712E+02 -0.53409403220E+02 -0.93508379843E+02  0.10817817904E+03  0.00000000000E+00 0. -1.
         11    1    1    2    0    0  0.75655769368E+02 -0.73540222782E+02 -0.57424227437E+03  0.58385456192E+03  0.00000000000E+00 0.  1.
</event>
<event>
 6    1  0.4966153E-006  0.8766270E+02  0.7561462E-02  0.1308613E+00
         -1   -1    0    0    0  501 -0.00000000000E+00  0.00000000000E+00  0.65731963354E+02  0.65731963354E+02  0.00000000000E+00 0.  1.
          1   -1    0    0  501    0  0.00000000000E+00 -0.00000000000E+00 -0.44975912847E+03  0.44975912847E+03  0.00000000000E+00 0. -1.
          5    1    1    2  502    0  0.22985241239E+02 -0.50234497032E+02 -0.18793513471E+03  0.19593088900E+03  0.41800000000E+01 0. -1.
         -5    1    1    2    0  502 -0.52043498094E+01  0.14501180266E+02  0.49937422864E+02  0.52426978631E+02  0.41800000000E+01 0.  1.
        -11    1    1    2    0    0  0.25550038857E+02 -0.20649070984E+02 -0.83422368498E+02  0.89657571816E+02  0.00000000000E+00 0.  1.
         11    1    1    2    0    0 -0.43330930286E+02  0.56382387751E+02 -0.16260708477E+03  0.17747565237E+03  0.00000000000E+00 0. -1.
</event>
<event>
 7    1  0.4966153E-006  0.9072939E+02  0.7561462E-02  0.1301095E+00
          2   -1    0    0  501    0  0.00000000000E+00  0.00000000000E+00  0.41855287470E+02  0.41855287470E+02  0.00000000000E+00 0.  1.
         -2   -1    0    0    0  501 -0.00000000000E+00 -0.00000000000E+00 -0.32698689840E+03  0.32698689840E+03  0.00000000000E+00 0. -1.
         23    2    1    2    0    0  0.45240758419E+01  0.10015009189E+02 -0.24724900826E+03  0.27729059495E+03  0.12504892759E+03 0.  0.
          5    1    3    3  502    0 -0.46208342719E+02 -0.32474368413E+01 -0.20386931348E+03  0.20910745124E+03  0.41800000000E+01 0.  1.
         -5    1    3    3    0  502  0.50732418561E+02  0.13262446031E+02 -0.43379694781E+02  0.68183143716E+02  0.41800000000E+01 0.  1.
        -11    1    1    2    0    0 -0.42882588978E+02 -0.97877983611E+01 -0.27263983553E+02  0.51749804187E+02  0.00000000000E+00 0.  1.
         11    1    1    2    0    0  0.38358513137E+02 -0.22721082828E+00 -0.10618619110E+02  0.39801786726E+02  0.00000000000E+00 0. -1.
</event>
<event>
 7    1  0.4966153E-006  0.1568924E+03  0.7561462E-02  0.1192251E+00
          1   -1    0    0  501    0  0.00000000000E+00  0.00000000000E+00  0.18216945996E+03  0.18216945996E+03  0.00000000000E+00 0. -1.
         -1   -1    0    0    0  501 -0.00000000000E+00 -0.00000000000E+00 -0.34393718561E+03  0.34393718561E+03  0.00000000000E+00 0.  1.
         23    2    1    2    0    0 -0.40408528819E+02 -0.14877963167E+03 -0.25657342437E+03  0.32434960985E+03  0.12491805040E+03 0.  0.
          5    1    3    3  502    0 -0.35209269704E+02 -0.10402993317E+03 -0.25655490587E+03  0.27910537758E+03  0.41800000000E+01 0.  1.
         -5    1    3    3    0  502 -0.51992591154E+01 -0.44749698492E+02 -0.18518499477E-01  0.45244232267E+02  0.41800000000E+01 0.  1.
        -11    1    1    2    0    0  0.45548845639E+02  0.10369898333E+03  0.21107434721E+02  0.11521154579E+03  0.00000000000E+00 0.  1.
         11    1    1    2    0    0 -0.51403168197E+01  0.45080648340E+02  0.73698263997E+02  0.86545489934E+02  0.00000000000E+00 0. -1.
</event>
<event>
 7    1  0.4966153E-006  0.8351468E+02  0.7561462E-02  0.1319363E+00
         -1   -1    0    0    0  501 -0.00000000000E+00  0.00000000000E+00  0.24437216474E+02  0.24437216474E+02  0.00000000000E+00 0.  1.
          1   -1    0    0  501    0  0.00000000000E+00 -0.00000000000E+00 -0.54376011532E+03  0.54376011532E+03  0.00000000000E+00 0. -1.
         23    2    1    2    0    0  0.38386786022E+02 -0.67165713934E+01 -0.31812459386E+03  0.34404030351E+03  0.12506724411E+03 0.  0.
          5    1    3    3  502    0 -0.17694659324E+02  0.12221116797E+02 -0.26018342876E+03  0.26110408971E+03  0.41800000000E+01 0.  1.
         -5    1    3    3    0  502  0.56081445346E+02 -0.18937688191E+02 -0.57941165100E+02  0.82936213799E+02  0.41800000000E+01 0.  1.
        -11    1    1    2    0    0 -0.48915909087E+02  0.31959696507E+02 -0.75243760125E+02  0.95267055168E+02  0.00000000000E+00 0.  1.
         11    1    1    2    0    0  0.10529123066E+02 -0.25243125113E+02 -0.12595454486E+03  0.12888997311E+03  0.00000000000E+00 0. -1.
</event>
<event>
 7    1  0.4966153E-006  0.7897209E+02  0.7561462E-02  0.1331994E+00
          1   -1    0    0  501    0  0.00000000000E+00  0.00000000000E+00  0.26269477049E+03  0.26269477049E+03  0.00000000000E+00 0. -1.
         -1   -1    0    0    0  501 -0.00000000000E+00 -0.00000000000E+00 -0.58951124649E+02  0.58951124649E+02  0.00000000000E+00 0.  1.
         23    2    1    2    0    0  0.19117689985E+01 -0.39095993650E+02  0.50027180784E+02  0.14029111054E+03  0.12508687101E+03 0.  0.
          5    1    3    3  502    0 -0.34944741799E+02 -0.26010918805E+02  0.79765050484E+02  0.90981528648E+02  0.41800000000E+01 0.  1.
         -5    1    3    3    0  502  0.36856510797E+02 -0.13085074845E+02 -0.29737869699E+02  0.49309581889E+02  0.41800000000E+01 0.  1.
        -11    1    1    2    0    0  0.30718531819E+02  0.23533171451E+02  0.13541316914E+03  0.14083381956E+03  0.00000000000E+00 0. -1.
         11    1    1    2    0    0 -0.32630300818E+02  0.15562822199E+02  0.18303295912E+02  0.40520965036E+02  0.00000000000E+00 0.  1.
</event>
<event>
 7    1  0.4966153E-006  0.1355474E+03  0.7561462E-02  0.1219449E+00
          3   -1    0    0  501    0  0.00000000000E+00  0.00000000000E+00  0.15942990839E+03  0.15942990839E+03  0.00000000000E+00 0. -1.
         -3   -1    0    0    0  501 -0.00000000000E+00 -0.00000000000E+00 -0.11793296585E+03  0.11793296585E+03  0.00000000000E+00 0.  1.
         23    2    1    2    0    0 -0.41623777726E+02 -0.70279751512E+02  0.48839650531E+01  0.14947532083E+03  0.12508891269E+03 0.  0.
          5    1    3    3  502    0 -0.63279883729E+01 -0.10144564934E+03  0.83901635135E+01  0.10207414193E+03  0.41800000000E+01 0.  1.
         -5    1    3    3    0  502 -0.35295789353E+02  0.31165897830E+02 -0.35061984604E+01  0.47401178902E+02  0.41800000000E+01 0.  1.
        -11    1    1    2    0    0  0.33056943685E+02  0.92527119270E+02  0.33684573481E+02  0.10386856992E+03  0.00000000000E+00 0.  1.
         11    1    1    2    0    0  0.85668340405E+01 -0.22247367758E+02  0.29284040097E+01  0.24018983486E+02  0.00000000000E+00 0. -1.
</event>
<event>
 7    1  0.4966153E-006  0.1281683E+03  0.7561462E-02  0.1230199E+00
         -1   -1    0    0    0  501 -0.00000000000E+00  0.00000000000E+00  0.29961335417E+03  0.29961335417E+03  0.00000000000E+00 0.  1.
          1   -1    0    0  501    0  0.00000000000E+00 -0.00000000000E+00 -0.93767907319E+02  0.93767907319E+02  0.00000000000E+00 0. -1.
         23    2    1    2    0    0  0.59454918833E+02  0.66581149645E+02  0.21484775756E+03  0.26414932580E+03  0.12508945013E+03 0.  0.
          5    1    3    3  502    0 -0.35896448266E+02  0.32630580897E+02  0.98523795111E+02  0.10989868248E+03  0.41800000000E+01 0. -1.
         -5    1    3    3    0  502  0.95351367099E+02  0.33950568747E+02  0.11632396245E+03  0.15425064332E+03  0.41800000000E+01 0. -1.
        -11    1    1    2    0    0 -0.87189968978E+01 -0.53150546779E+02  0.31983146843E+02  0.62641226136E+02  0.00000000000E+00 0.  1.
         11    1    1    2    0    0 -0.50735921935E+02 -0.13430602866E+02 -0.40985457550E+02  0.66590709551E+02  0.00000000000E+00 0. -1.
</event>
<event>
 7    1  0.4966153E-006  0.1205334E+03  0.7561462E-02  0.1242220E+00
          1   -1    0    0  501    0  0.00000000000E+00  0.00000000000E+00  0.24979733245E+02  0.24979733245E+02  0.00000000000E+00 0. -1.
         -1   -1    0    0    0  501 -0.00000000000E+00 -0.00000000000E+00 -0.65862486412E+03  0.65862486412E+03  0.00000000000E+00 0.  1.
         23    2    1    2    0    0  0.65288187185E+02  0.19604420771E+02 -0.35133445105E+03  0.37911695596E+03  0.12508752577E+03 0.  0.
          5    1    3    3  502    0 -0.36350541397E+02 -0.71238696733E+01 -0.92725049828E+02  0.99937573737E+02  0.41800000000E+01 0. -1.
         -5    1    3    3    0  502  0.10163872858E+03  0.26728290444E+02 -0.25860940122E+03  0.27917938222E+03  0.41800000000E+01 0. -1.
        -11    1    1    2    0    0 -0.27534486976E+02  0.27048058811E+02 -0.19342333031E+03  0.19723673635E+03  0.00000000000E+00 0.  1.
         11    1    1    2    0    0 -0.37753700209E+02 -0.46652479582E+02 -0.88887349514E+02  0.10725090505E+03  0.00000000000E+00 0. -1.
</event>
<event>
 7    1  0.4966153E-006  0.1056556E+03  0.7561462E-02  0.1268833E+00
          2   -1    0    0  501    0  0.00000000000E+00  0.00000000000E+00  0.49925096060E+03  0.49925096060E+03  0.00000000000E+00 0. -1.
         -2   -1    0    0    0  501 -0.00000000000E+00 -0.00000000000E+00 -0.26455931625E+02  0.26455931625E+02  0.00000000000E+00 0.  1.
         23    2    1    2    0    0 -0.19654035573E+02  0.25846379798E+02  0.22337736608E+03  0.25806822180E+03  0.12508973964E+03 0.  0.
          5    1    3    3  502    0 -0.69747493048E+02 -0.36566270535E+00  0.14880519313E+03  0.16439374805E+03  0.41800000000E+01 0. -1.
         -5    1    3    3    0  502  0.50093457475E+02  0.26212042503E+02  0.74572172951E+02  0.93674473752E+02  0.41800000000E+01 0. -1.
        -11    1    1    2    0    0  0.49648874324E+02 -0.93737587999E+01  0.78685997262E+02  0.93511305417E+02  0.00000000000E+00 0.  1.
         11    1    1    2    0    0 -0.29994838751E+02 -0.16472620998E+02  0.17073166563E+03  0.17412736501E+03  0.00000000000E+00 0. -1.
</event>
<event>
 7    1  0.4966153E-006  0.1324338E+03  0.7561462E-02  0.1223889E+00
          2   -1    0    0  501    0  0.00000000000E+00  0.00000000000E+00  0.51499852695E+03  0.51499852695E+03  0.00000000000E+00 0. -1.
         -2   -1    0    0    0  501 -0.00000000000E+00 -0.00000000000E+00 -0.39746039296E+02  0.39746039296E+02  0.00000000000E+00 0.  1.
         23    2    1    2    0    0 -0.72174718775E+02 -0.46919608259E+02  0.19225824420E+03  0.24498921581E+03  0.12508334712E+03 0.  0.
          5    1    3    3  502    0  0.84538222634E+01 -0.65854247074E+02  0.64387411338E+02  0.92582180290E+02  0.41800000000E+01 0. -1.
         -5    1    3    3    0  502 -0.80628541038E+02  0.18934638814E+02  0.12787083287E+03  0.15240703552E+03  0.41800000000E+01 0. -1.
        -11    1    1    2    0    0  0.27183229751E+02  0.62214506942E+02  0.22365792969E+03  0.23373583886E+03  0.00000000000E+00 0. -1.
         11    1    1    2    0    0  0.44991489023E+02 -0.15294898683E+02  0.59336313760E+02  0.76019511580E+02  0.00000000000E+00 0.  1.
</event>
<event>
 7    1  0.4966153E-006  0.2261835E+03  0.7561462E-02  0.1129355E+00
          2   -1    0    0  501    0  0.00000000000E+00  0.00000000000E+00  0.72879110459E+03  0.72879110459E+03  0.00000000000E+00 0. -1.
         -2   -1    0    0    0  501 -0.00000000000E+00 -0.00000000000E+00 -0.83669918249E+02  0.83669918249E+02  0.00000000000E+00 0.  1.
         23    2    1    2    0    0 -0.62982794385E+02  0.19747655679E+03  0.20580920228E+03  0.31775486117E+03  0.12508757406E+03 0.  0.
          5    1    3    3  502    0 -0.82254866762E+02  0.11824755128E+03  0.18310768560E+03  0.23301125169E+03  0.41800000000E+01 0.  1.
         -5    1    3    3    0  502  0.19272072378E+02  0.79229005508E+02  0.22701516678E+02  0.84743609476E+02  0.41800000000E+01 0.  1.
        -11    1    1    2    0    0 -0.23406372744E+02 -0.58115947621E+02  0.14125820099E+03  0.15452896493E+03  0.00000000000E+00 0. -1.
         11    1    1    2    0    0  0.86389167129E+02 -0.13936060917E+03  0.29805378307E+03  0.34017719675E+03  0.00000000000E+00 0.  1.
</event>
<event>
 7    1  0.4966153E-006  0.8950351E+02  0.7561462E-02  0.1304058E+00
         -1   -1    0    0    0  501 -0.00000000000E+00  0.00000000000E+00  0.57910257381E+03  0.57910257381E+03  0.00000000000E+00 0.  1.
          1   -1    0    0  501    0  0.00000000000E+00 -0.00000000000E+00 -0.33096334275E+02  0.33096334275E+02  0.00000000000E+00 0. -1.
         23    2    1    2    0    0 -0.13611237085E+02 -0.10920525038E+02  0.48561883131E+03  0.50177438610E+03  0.12508941432E+03 0.  0.
          5    1    3    3  502    0 -0.46566695889E+02  0.97357052869E+01  0.72550054191E+02  0.86857491827E+02  0.41800000000E+01 0.  1.
         -5    1    3    3    0  502  0.32955458804E+02 -0.20656230325E+02  0.41306877712E+03  0.41491689427E+03  0.41800000000E+01 0.  1.
        -11    1    1    2    0    0  0.23054697960E+02 -0.36833351157E+02  0.33056871107E+02  0.54598274541E+02  0.00000000000E+00 0.  1.
         11    1    1    2    0    0 -0.94434608753E+01  0.47753876195E+02  0.27330537110E+02  0.55826247444E+02  0.00000000000E+00 0. -1.
</event>
<event>
 6    1  0.4966153E-006  0.1730712E+03  0.7561462E-02  0.1174682E+00
         -1   -1    0    0    0  501 -0.00000000000E+00  0.00000000000E+00  0.63683464992E+03  0.63683464992E+03  0.00000000000E+00 0.  1.
          1   -1    0    0  501    0  0.00000000000E+00 -0.00000000000E+00 -0.53373164968E+02  0.53373164968E+02  0.00000000000E+00 0. -1.
          5    1    1    2  502    0 -0.21132644318E+02 -0.36455092805E+02  0.65101613048E+02  0.77661154181E+02  0.41800000000E+01 0. -1.
         -5    1    1    2    0  502 -0.40523181878E+02  0.14567159079E+03  0.36336219403E+03  0.39358848698E+03  0.41800000000E+01 0.  1.
        -11    1    1    2    0    0  0.61578432259E+02 -0.22104999417E+02  0.84660766849E+02  0.10699523243E+03  0.00000000000E+00 0.  1.
         11    1    1    2    0    0  0.77393938245E-01 -0.87111498566E+02  0.70336911028E+02  0.11196294130E+03  0.00000000000E+00 0. -1.
</event>
<event>
 7    1  0.4966153E-006  0.1254792E+03  0.7561462E-02  0.1234322E+00
          2   -1    0    0  501    0  0.00000000000E+00  0.00000000000E+00  0.15440576233E+03  0.15440576233E+03  0.00000000000E+00 0. -1.
         -2   -1    0    0    0  501 -0.00000000000E+00 -0.00000000000E+00 -0.12213766413E+03  0.12213766413E+03  0.00000000000E+00 0.  1.
         23    2    1    2    0    0  0.42493857409E+02  0.71252105933E+02  0.49045675503E+01  0.15017907257E+03  0.12508840289E+03 0.  0.
          5    1    3    3  502    0  0.75771290415E+02  0.31580485841E+02 -0.30104083590E+02  0.87534814708E+02  0.41800000000E+01 0. -1.
         -5    1    3    3    0  502 -0.33277433006E+02  0.39671620092E+02  0.35008651140E+02  0.62644257860E+02  0.41800000000E+01 0. -1.
        -11    1    1    2    0    0  0.17953937563E+02 -0.49360391382E+02 -0.77779745490E+01  0.53096977310E+02  0.00000000000E+00 0.  1.
         11    1    1    2    0    0 -0.60447794972E+02 -0.21891714551E+02  0.35141505202E+02  0.73267376579E+02  0.00000000000E+00 0. -1.
</event>
<event>
 7    1  0.4966153E-006  0.1184338E+03  0.7561462E-02  0.1245703E+00
         -2   -1    0    0    0  501 -0.00000000000E+00  0.00000000000E+00  0.39659579991E+02  0.39659579991E+02  0.00000000000E+00 0.  1.
          2   -1    0    0  501    0  0.00000000000E+00 -0.00000000000E+00 -0.41642054918E+03  0.41642054918E+03  0.00000000000E+00 0. -1.
         23    2    1    2    0    0 -0.62716541218E+02 -0.11420338632E+02 -0.16227714831E+03  0.21458077579E+03  0.12508895953E+03 0.  0.
          5    1    3    3  502    0 -0.72831022387E+02  0.41507747735E+02 -0.11747479720E+03  0.14437815389E+03  0.41800000000E+01 0. -1.
         -5    1    3    3    0  502  0.10114481168E+02 -0.52928086366E+02 -0.44802351113E+02  0.70202621895E+02  0.41800000000E+01 0. -1.
        -11    1    1    2    0    0  0.63755949264E+02 -0.20484011333E+02 -0.85385679444E+02  0.10851327127E+03  0.00000000000E+00 0.  1.
         11    1    1    2    0    0 -0.10394080455E+01  0.31904349965E+02 -0.12909814143E+03  0.13298608212E+03  0.00000000000E+00 0. -1.
</event>
<event>
 6    1  0.4966153E-006  0.1129926E+03  0.7561462E-02  0.1255126E+00
         -1   -1    0    0    0  501 -0.00000000000E+00  0.00000000000E+00  0.67353044953E+02  0.67353044953E+02  0.00000000000E+00 0.  1.
          1   -1    0    0  501    0  0.00000000000E+00 -0.00000000000E+00 -0.65498160104E+03  0.65498160104E+03  0.00000000000E+00 0. -1.
          5    1    1    2  502    0  0.52029558206E+02 -0.60985526153E+01 -0.63890035913E+02  0.82726515459E+02  0.41800000000E+01 0. -1.
         -5    1    1    2    0  502 -0.65910823169E+02 -0.76090625294E+01  0.31917423243E+02  0.73745025255E+02  0.41800000000E+01 0.  1.
        -11    1    1    2    0    0  0.53935079086E+02 -0.16924716170E+02 -0.28592579613E+03  0.29146011677E+03  0.00000000000E+00 0. -1.
         11    1    1    2    0    0 -0.40053814123E+02  0.30632331314E+02 -0.26973014728E+03  0.27440298851E+03  0.00000000000E+00 0.  1.
</event>
<event>
 7    1  0.4966153E-006  0.7770399E+02  0.7561462E-02  0.1335696E+00
         -1   -1    0    0    0  501 -0.00000000000E+00  0.00000000000E+00  0.42105843953E+02  0.42105843953E+02  0.00000000000E+00 0.  1.
          1   -1    0    0  501    0  0.00000000000E+00 -0.00000000000E+00 -0.32923414751E+03  0.32923414751E+03  0.00000000000E+00 0. -1.
         23    2    1    2    0    0 -0.13821028718E+02  0.43740102393E+02 -0.15943636521E+03  0.20778869490E+03  0.12510783263E+03 0.  0.
          5    1    3    3  502    0  0.14205514602E+02  0.47248001085E+02 -0.39156838941E+01  0.49668654421E+02  0.41800000000E+01 0. -1.
         -5    1    3    3    0  502 -0.28026543321E+02 -0.35078986920E+01 -0.15552068132E+03  0.15812004048E+03  0.41800000000E+01 0. -1.
        -11    1    1    2    0    0 -0.24169721263E+02 -0.25716112689E+02 -0.73153581786E+01  0.36041758324E+02  0.00000000000E+00 0.  1.
         11    1    1    2    0    0  0.37990749982E+02 -0.18023989704E+02 -0.12037658017E+03  0.12750953824E+03  0.00000000000E+00 0. -1.
</event>
<event>
 7    1  0.4966153E-006  0.7990894E+02  0.7561462E-02  0.1329310E+00
         -3   -1    0    0    0  501 -0.00000000000E+00  0.00000000000E+00  0.19789726358E+03  0.19789726358E+03  0.00000000000E+00 0.  1.
          3   -1    0    0  501    0  0.00000000000E+00 -0.00000000000E+00 -0.97720778016E+02  0.97720778016E+02  0.00000000000E+00 0. -1.
         23    2    1    2    0    0  0.30964697879E+02 -0.56527283087E+02  0.11923112464E+03  0.18444016031E+03  0.12509182789E+03 0.  0.
          5    1    3    3  502    0 -0.34906004379E+01 -0.18093045187E+02  0.13015066050E+03  0.13151505390E+03  0.41800000000E+01 0.  1.
         -5    1    3    3    0  502  0.34455298317E+02 -0.38434237900E+02 -0.10919535857E+02  0.52925106409E+02  0.41800000000E+01 0.  1.
        -11    1    1    2    0    0  0.17870170019E+02  0.59595238284E+01  0.22633835203E+02  0.29447400510E+02  0.00000000000E+00 0.  1.
         11    1    1    2    0    0 -0.48834867898E+02  0.50567759258E+02 -0.41688474282E+02  0.81730480771E+02  0.00000000000E+00 0. -1.
</event>
<event>
 7    1  0.4966153E-006  0.1189712E+03  0.7561462E-02  0.1244804E+00
         -3   -1    0    0    0  501 -0.00000000000E+00  0.00000000000E+00  0.13797259967E+03  0.13797259967E+03  0.00000000000E+00 0.  1.
          3   -1    0    0  501    0  0.00000000000E+00 -0.00000000000E+00 -0.15573171951E+03  0.15573171951E+03  0.00000000000E+00 0. -1.
         23    2    1    2    0    0 -0.79006368146E+02 -0.57511941447E+02 -0.91328897557E-01  0.15873762238E+03  0.12509194539E+03 0.  0.
          5    1    3    3  502    0 -0.66646698458E+02  0.75732164101E+01  0.42826823911E+02  0.79691563345E+02  0.41800000000E+01 0.  1.
         -5    1    3    3    0  502 -0.12359669689E+02 -0.65085157857E+02 -0.42918152808E+02  0.79046059033E+02  0.41800000000E+01 0.  1.
        -11    1    1    2    0    0  0.51552833085E+02  0.57059884550E+02  0.27867973979E+02  0.81793331010E+02  0.00000000000E+00 0.  1.
         11    1    1    2    0    0  0.27453535061E+02  0.45205689732E+00 -0.45535764921E+02  0.53173365793E+02  0.00000000000E+00 0. -1.
</event>
<event>
 6    1  0.4966153E-006  0.1470831E+03  0.7561462E-02  0.1204104E+00
          1   -1    0    0  501    0  0.00000000000E+00  0.00000000000E+00  0.31071009004E+03  0.31071009004E+03  0.00000000000E+00 0. -1.
         -1   -1    0    0    0  501 -0.00000000000E+00 -0.00000000000E+00 -0.12086710314E+03  0.12086710314E+03  0.00000000000E+00 0.  1.
          5    1    1    2  502    0 -0.14470589991E+02  0.53621402190E+02  0.94498356260E+02  0.10969076754E+03  0.41800000000E+01 0. -1.
         -5    1    1    2    0  502  0.10630514817E+03  0.11385462320E+02 -0.48482275093E+02  0.11746666198E+03  0.41800000000E+01 0.  1.
        -11    1    1    2    0    0 -0.14768062342E+02 -0.51064585655E+02  0.17833441597E+02  0.56068879182E+02  0.00000000000E+00 0.  1.
         11    1    1    2    0    0 -0.77066495834E+02 -0.13942278854E+02  0.12599346414E+03  0.14835088448E+03  0.00000000000E+00 0. -1.
</event>
<event>
 6    1  0.4966153E-006  0.1109779E+03  0.7561462E-02  0.1258770E+00
          1   -1    0    0  501    0  0.00000000000E+00  0.00000000000E+00  0.26270072426E+02  0.26270072426E+02  0.00000000000E+00 0. -1.
         -1   -1    0    0    0  501 -0.00000000000E+00 -0.00000000000E+00 -0.23217086206E+04  0.23217086206E+04  0.00000000000E+00 0.  1.
          5    1    1    2  502    0 -0.15133365231E+02 -0.45320244497E+02 -0.97935087197E+03  0.98052462801E+03  0.41800000000E+01 0. -1.
         -5    1    1    2    0  502  0.25342067792E+02  0.92712213578E+02 -0.12278102671E+04  0.12315735054E+04  0.41800000000E+01 0.  1.
        -11    1    1    2    0    0 -0.35251843902E+02 -0.35627961418E+02 -0.77292872135E+01  0.50712779593E+02  0.00000000000E+00 0. -1.
         11    1    1    2    0    0  0.25043141341E+02 -0.11764007664E+02 -0.80548121927E+02  0.85167780002E+02  0.00000000000E+00 0.  1.
</event>
<event>
 7    1  0.4966153E-006  0.1030618E+03  0.7561462E-02  0.1273986E+00
          1   -1    0    0  501    0  0.00000000000E+00  0.00000000000E+00  0.35087743683E+03  0.35087743683E+03  0.00000000000E+00 0. -1.
         -1   -1    0    0    0  501 -0.00000000000E+00 -0.00000000000E+00 -0.16794072498E+03  0.16794072498E+03  0.00000000000E+00 0.  1.
         23    2    1    2    0    0  0.79164920220E+02 -0.23993643176E+02 -0.12027523221E+03  0.19224782368E+03  0.12510121790E+03 0.  0.
          5    1    3    3  502    0  0.59302654020E+02 -0.26842080941E+02 -0.14567368898E+03  0.15961077077E+03  0.41800000000E+01 0.  1.
         -5    1    3    3    0  502  0.19862266201E+02  0.28484377651E+01  0.25398456773E+02  0.32637052912E+02  0.41800000000E+01 0.  1.
        -11    1    1    2    0    0 -0.77973165135E+02  0.51126146979E+02  0.21705245450E+03  0.23623180436E+03  0.00000000000E+00 0.  1.
         11    1    1    2    0    0 -0.11917550851E+01 -0.27132503803E+02  0.86159489563E+02  0.90338533775E+02  0.00000000000E+00 0. -1.
</event>
<event>
 7    1  0.4966153E-006  0.8145251E+02  0.7561462E-02  0.1324979E+00
         -3   -1    0    0    0  501 -0.00000000000E+00  0.00000000000E+00  0.12916461219E+03  0.12916461219E+03  0.00000000000E+00 0.  1.
          3   -1    0    0  501    0  0.00000000000E+00 -0.00000000000E+00 -0.98862996876E+02  0.98862996876E+02  0.00000000000E+00 0. -1.
         23    2    1    2    0    0 -0.77826928661E+01  0.25666626546E+02  0.46601448835E+02  0.13160268097E+03  0.12011754484E+03 0.  0.
          5    1    3    3  502    0  0.13886985893E+02  0.67726408004E+02  0.67296413694E+01  0.69587895436E+02  0.41800000000E+01 0. -1.
         -5    1    3    3    0  502 -0.21669678759E+02 -0.42059781458E+02  0.39871807466E+02  0.62014785530E+02  0.41800000000E+01 0.  1.
        -11    1    1    2    0    0 -0.14446595884E+02 -0.37430551168E+01 -0.48994737736E+02  0.51217174073E+02  0.00000000000E+00 0. -1.
         11    1    1    2    0    0  0.22229288750E+02 -0.21923571429E+02  0.32694904216E+02  0.45207754027E+02  0.00000000000E+00 0.  1.
</event>
<event>
 7    1  0.4966153E-006  0.1341718E+03  0.7561462E-02  0.1221394E+00
          2   -1    0    0  501    0  0.00000000000E+00  0.00000000000E+00  0.18057529462E+03  0.18057529462E+03  0.00000000000E+00 0. -1.
         -2   -1    0    0    0  501 -0.00000000000E+00 -0.00000000000E+00 -0.13249518426E+03  0.13249518426E+03  0.00000000000E+00 0.  1.
         23    2    1    2    0    0  0.10920082920E+03  0.69874543354E+01  0.16578640389E+02  0.16702152092E+03  0.12509073313E+03 0.  0.
          5    1    3    3  502    0  0.21868327775E+02 -0.44356503299E+02 -0.27183094034E+02  0.56587243668E+02  0.41800000000E+01 0.  1.
         -5    1    3    3    0  502  0.87332501429E+02  0.51343957635E+02  0.43761734423E+02  0.11043427725E+03  0.41800000000E+01 0.  1.
        -11    1    1    2    0    0 -0.69901275213E+02 -0.24801901124E+02 -0.21954020729E+02  0.77351804128E+02  0.00000000000E+00 0.  1.
         11    1    1    2    0    0 -0.39299553991E+02  0.17814446789E+02  0.53455490699E+02  0.68697153829E+02  0.00000000000E+00 0. -1.
</event>
<event>
 7    1  0.4966153E-006  0.1922615E+03  0.7561462E-02  0.1156437E+00
          2   -1    0    0  501    0  0.00000000000E+00  0.00000000000E+00  0.24359640069E+03  0.24359640069E+03  0.00000000000E+00 0. -1.
         -2   -1    0    0    0  501 -0.00000000000E+00 -0.00000000000E+00 -0.18212911134E+03  0.18212911134E+03  0.00000000000E+00 0.  1.
         23    2    1    2    0    0 -0.13120254215E+03 -0.12261383237E+03  0.21267734293E+02  0.21988127821E+03  0.12508877260E+03 0.  0.
          5    1    3    3  502    0 -0.31464754433E+02 -0.95193459130E+02  0.50463392955E+02  0.11232030921E+03  0.41800000000E+01 0. -1.
         -5    1    3    3    0  502 -0.99737787717E+02 -0.27420373238E+02 -0.29195658662E+02  0.10756096900E+03  0.41800000000E+01 0. -1.
        -11    1    1    2    0    0  0.10520916929E+03  0.86752705673E+02 -0.12580735516E+02  0.13694260167E+03  0.00000000000E+00 0.  1.
         11    1    1    2    0    0  0.25993372857E+02  0.35861126694E+02  0.52780290578E+02  0.68901632156E+02  0.00000000000E+00 0. -1.
</event>
<event>
 7    1  0.4966153E-006  0.1280882E+03  0.7561462E-02  0.1230320E+00
         -1   -1    0    0    0  501 -0.00000000000E+00  0.00000000000E+00  0.34400237469E+02  0.34400237469E+02  0.00000000000E+00 0.  1.
          1   -1    0    0  501    0  0.00000000000E+00 -0.00000000000E+00 -0.64006219034E+03  0.64006219034E+03  0.00000000000E+00 0. -1.
         23    2    1    2    0    0 -0.49829654992E+00  0.86101159706E+02 -0.20749698584E+03  0.25712723806E+03  0.12508301012E+03 0.  0.
          5    1    3    3  502    0 -0.62368397905E+01 -0.28129225086E+02 -0.13974541507E+02  0.32294143197E+02  0.41800000000E+01 0. -1.
         -5    1    3    3    0  502  0.57385432406E+01  0.11423038479E+03 -0.19352244433E+03  0.22483309487E+03  0.41800000000E+01 0. -1.
        -11    1    1    2    0    0  0.24125972258E+02 -0.84371696018E+00 -0.29077676096E+02  0.37792666522E+02  0.00000000000E+00 0.  1.
         11    1    1    2    0    0 -0.23627675708E+02 -0.85257442746E+02 -0.36908729094E+03  0.37954252323E+03  0.00000000000E+00 0. -1.
</event>
<event>
 7    1  0.4966153E-006  0.6622528E+02  0.7561462E-02  0.1373421E+00
         -1   -1    0    0    0  501 -0.00000000000E+00  0.00000000000E+00  0.12023406918E+03  0.12023406918E+03  0.00000000000E+00 0.  1.
          1   -1    0    0  501    0  0.00000000000E+00 -0.00000000000E+00 -0.15495131443E+03  0.15495131443E+03  0.00000000000E+00 0. -1.
         23    2    1    2    0    0  0.12840556589E+02  0.14722800700E+02  0.62267527665E+02  0.14109039388E+03  0.12509042125E+03 0.  0.
          5    1    3    3  502    0 -0.16699942213E+02  0.20609799023E+02  0.93630364506E+02  0.97405181809E+02  0.41800000000E+01 0.  1.
         -5    1    3    3    0  502  0.29540498802E+02 -0.58869983230E+01 -0.31362836841E+02  0.43685212068E+02  0.41800000000E+01 0.  1.
        -11    1    1    2    0    0 -0.98140295181E+01  0.29382291616E+02 -0.41284817418E+01  0.31251857504E+02  0.00000000000E+00 0.  1.
         11    1    1    2    0    0 -0.30265270713E+01 -0.44105092316E+02 -0.92856291173E+02  0.10284313222E+03  0.00000000000E+00 0. -1.
</event>
<event>
 7    1  0.4966153E-006  0.6639130E+02  0.7561462E-02  0.1372813E+00
         -4   -1    0    0    0  501 -0.00000000000E+00  0.00000000000E+00  0.51812303902E+03  0.51812303902E+03  0.00000000000E+00 0.  1.
          4   -1    0    0  501    0  0.00000000000E+00 -0.00000000000E+00 -0.36544318228E+02  0.36544318228E+02  0.00000000000E+00 0. -1.
         23    2    1    2    0    0 -0.15173068700E+02  0.30224298279E+02  0.42380527995E+03  0.44317670979E+03  0.12510375922E+03 0.  0.
          5    1    3    3  502    0  0.11990204495E+01  0.27560258074E+02  0.42510664896E+03  0.42602129156E+03  0.41800000000E+01 0.  1.
         -5    1    3    3    0  502 -0.16372089149E+02  0.26640402056E+01 -0.13013690115E+01  0.17155418229E+02  0.41800000000E+01 0.  1.
        -11    1    1    2    0    0  0.18364634408E+02 -0.57475389881E+02  0.17619721823E+02  0.62858053073E+02  0.00000000000E+00 0.  1.
         11    1    1    2    0    0 -0.31915657087E+01  0.27251091602E+02  0.40153719018E+02  0.48632594380E+02  0.00000000000E+00 0. -1.
</event>
<event>
 7    1  0.4966153E-006  0.1125264E+03  0.7561462E-02  0.1255962E+00
          2   -1    0    0  501    0  0.00000000000E+00  0.00000000000E+00  0.99758614783E+02  0.99758614783E+02  0.00000000000E+00 0. -1.
         -2   -1    0    0    0  501 -0.00000000000E+00 -0.00000000000E+00 -0.15988578371E+03  0.15988578371E+03  0.00000000000E+00 0.  1.
         23    2    1    2    0    0  0.45077045325E+01 -0.63196555484E+02 -0.17987383480E+02  0.14136829268E+03  0.12508926487E+03 0.  0.
          5    1    3    3  502    0  0.61488024959E+02 -0.15508560200E+02  0.42598413855E+01  0.63693887473E+02  0.41800000000E+01 0. -1.
         -5    1    3    3    0  502 -0.56980320426E+02 -0.47687995284E+02 -0.22247224865E+02  0.77674405207E+02  0.41800000000E+01 0. -1.
        -11    1    1    2    0    0 -0.32026666800E+02  0.29172241948E+02 -0.57416370217E+02  0.71926119425E+02  0.00000000000E+00 0.  1.
         11    1    1    2    0    0  0.27518962267E+02  0.34024313536E+02  0.15276584770E+02  0.46349986387E+02  0.00000000000E+00 0. -1.
</event>
<event>
 7    1  0.4966153E-006  0.1018445E+03  0.7561462E-02  0.1276464E+00
         -2   -1    0    0    0  501 -0.00000000000E+00  0.00000000000E+00  0.76622280958E+03  0.76622280958E+03  0.00000000000E+00 0.  1.
          2   -1    0    0  501    0  0.00000000000E+00 -0.00000000000E+00 -0.16168265540E+02  0.16168265540E+02  0.00000000000E+00 0. -1.
         23    2    1    2    0    0 -0.14899606971E+02 -0.25064257527E+01  0.50674189545E+03  0.52216994136E+03  0.12508324666E+03 0.  0.
          5    1    3    3  502    0 -0.62223069172E+02  0.27684508415E+02  0.31671045402E+03  0.32397704615E+03  0.41800000000E+01 0.  1.
         -5    1    3    3    0  502  0.47323462202E+02 -0.30190934167E+02  0.19003144143E+03  0.19819289521E+03  0.41800000000E+01 0.  1.
        -11    1    1    2    0    0 -0.28965986440E+02 -0.14161151630E+02  0.17102836916E+03  0.17404099989E+03  0.00000000000E+00 0.  1.
         11    1    1    2    0    0  0.43865593411E+02  0.16667577382E+02  0.72284279429E+02  0.86180133869E+02  0.00000000000E+00 0. -1.
</event>
<event>
 7    1  0.4966153E-006  0.1022598E+03  0.7561462E-02  0.1275615E+00
          2   -1    0    0  501    0  0.00000000000E+00  0.00000000000E+00  0.35477081452E+03  0.35477081452E+03  0.00000000000E+00 0. -1.
         -2   -1    0    0    0  501 -0.00000000000E+00 -0.00000000000E+00 -0.48499067676E+02  0.48499067676E+02  0.00000000000E+00 0.  1.
         23    2    1    2    0    0 -0.38269836540E+02 -0.10270753670E+02  0.71815428487E+02  0.14957887217E+03  0.12508522878E+03 0.  0.
          5    1    3    3  502    0 -0.70285517476E+02 -0.43319886919E+02  0.59214789154E+02  0.10168839769E+03  0.41800000000E+01 0.  1.
         -5    1    3    3    0  502  0.32015680936E+02  0.33049133249E+02  0.12600639333E+02  0.47890474480E+02  0.41800000000E+01 0.  1.
        -11    1    1    2    0    0 -0.40576059181E+01 -0.22031758137E+02  0.12951927220E+02  0.25876919274E+02  0.00000000000E+00 0.  1.
         11    1    1    2    0    0  0.42327442458E+02  0.32302511807E+02  0.22150439113E+03  0.22781409075E+03  0.00000000000E+00 0. -1.
</event>
<event>
 7    1  0.4966153E-006  0.1185611E+03  0.7561462E-02  0.1245490E+00
          2   -1    0    0  501    0  0.00000000000E+00  0.00000000000E+00  0.11511409798E+04  0.11511409798E+04  0.00000000000E+00 0. -1.
         -2   -1    0    0    0  501 -0.00000000000E+00 -0.00000000000E+00 -0.16999415041E+02  0.16999415041E+02  0.00000000000E+00 0.  1.
         23    2    1    2    0    0  0.84881662400E+02  0.17410318387E+02  0.56831873551E+03  0.58833729931E+03  0.12508627752E+03 0.  0.
          5    1    3    3  502    0  0.50979956966E+02 -0.25360280438E+02  0.87923616311E+02  0.10483384254E+03  0.41800000000E+01 0.  1.
         -5    1    3    3    0  502  0.33901705434E+02  0.42770598825E+02  0.48039511920E+03  0.48350345677E+03  0.41800000000E+01 0.  1.
        -11    1    1    2    0    0 -0.55914155462E+02 -0.54601221683E+02  0.31194705944E+03  0.32158770822E+03  0.00000000000E+00 0.  1.
         11    1    1    2    0    0 -0.28967506938E+02  0.37190903296E+02  0.25387576977E+03  0.25821538727E+03  0.00000000000E+00 0. -1.
</event>
<event>
 7    1  0.4966153E-006  0.1065507E+03  0.7561462E-02  0.1267094E+00
          1   -1    0    0  501    0  0.00000000000E+00  0.00000000000E+00  0.80171762645E+02  0.80171762645E+02  0.00000000000E+00 0. -1.
         -1   -1    0    0    0  501 -0.00000000000E+00 -0.00000000000E+00 -0.22243894829E+03  0.22243894829E+03  0.00000000000E+00 0.  1.
         23    2    1    2    0    0  0.63933677918E+02  0.32952699274E+02 -0.12529760799E+03  0.19109554132E+03  0.12507845451E+03 0.  0.
          5    1    3    3  502    0  0.56315571952E+02  0.70446793054E+02 -0.12294520199E+03  0.15253586263E+03  0.41800000000E+01 0. -1.
         -5    1    3    3    0  502  0.76181059662E+01 -0.37494093780E+02 -0.23524060018E+01  0.38559678693E+02  0.41800000000E+01 0. -1.
        -11    1    1    2    0    0 -0.27466271731E+02  0.88466384270E+01 -0.41757286920E+02  0.50757562050E+02  0.00000000000E+00 0.  1.
         11    1    1    2    0    0 -0.36467406187E+02 -0.41799337701E+02  0.24787709265E+02  0.60757607564E+02  0.00000000000E+00 0. -1.
</event>
<event>
 7    1  0.4966153E-006  0.1125549E+03  0.7561462E-02  0.1255910E+00
         -2   -1    0    0    0  501 -0.00000000000E+00  0.00000000000E+00  0.22413175825E+02  0.22413175825E+02  0.00000000000E+00 0.  1.
          2   -1    0    0  501    0  0.00000000000E+00 -0.00000000000E+00 -0.67772539649E+03  0.67772539649E+03  0.00000000000E+00 0. -1.
         23    2    1    2    0    0  0.11744068984E+01  0.37662528478E+02 -0.24405493343E+03  0.27682123302E+03  0.12508932504E+03 0.  0.
          5    1    3    3  502    0  0.60866774946E+02  0.35572768553E+02 -0.13850971384E+03  0.15547539800E+03  0.41800000000E+01 0. -1.
         -5    1    3    3    0  502 -0.59692368047E+02  0.20897599250E+01 -0.10554521959E+03  0.12134583503E+03  0.41800000000E+01 0. -1.
        -11    1    1    2    0    0 -0.30756434371E+02  0.14992307846E+02 -0.87058995567E+02  0.93541414673E+02  0.00000000000E+00 0.  1.
         11    1    1    2    0    0  0.29582027473E+02 -0.52654836323E+02 -0.32419829167E+03  0.32977592462E+03  0.00000000000E+00 0. -1.
</event>
<event>
 7    1  0.4966153E-006  0.6225121E+02  0.7561462E-02  0.1388620E+00
         -1   -1    0    0    0  501 -0.00000000000E+00  0.00000000000E+00  0.88108140582E+02  0.88108140582E+02  0.00000000000E+00 0. -1.
          1   -1    0    0  501    0  0.00000000000E+00 -0.00000000000E+00 -0.15358633974E+03  0.15358633974E+03  0.00000000000E+00 0.  1.
         23    2    1    2    0    0  0.14074863530E+02 -0.80680847542E+00  0.58922601822E+01  0.12602366241E+03  0.12509393284E+03 0.  0.
          5    1    3    3  502    0 -0.52900865260E+01 -0.35007209433E+02  0.53411066106E+02  0.64216073614E+02  0.41800000000E+01 0.  1.
         -5    1    3    3    0  502  0.19364950056E+02  0.34200400958E+02 -0.47518805924E+02  0.61807588796E+02  0.41800000000E+01 0.  1.
        -11    1    1    2    0    0 -0.26337521344E+02 -0.14221186235E+02  0.10357246514E+02  0.31673012548E+02  0.00000000000E+00 0. -1.
         11    1    1    2    0    0  0.12262657814E+02  0.15027994711E+02 -0.81727705851E+02  0.83997805360E+02  0.00000000000E+00 0.  1.
</event>
<event>
 7    1  0.4966153E-006  0.9632484E+02  0.7561462E-02  0.1288220E+00
         -2   -1    0    0    0  501 -0.00000000000E+00  0.00000000000E+00  0.29811521520E+02  0.29811521520E+02  0.00000000000E+00 0.  1.
          2   -1    0    0  501    0  0.00000000000E+00 -0.00000000000E+00 -0.59293185950E+03  0.59293185950E+03  0.00000000000E+00 0. -1.
         23    2    1    2    0    0  0.68686361942E+02 -0.31154358556E+02 -0.27223604055E+03  0.30894838709E+03  0.12509290043E+03 0.  0.
          5    1    3    3  502    0  0.45655143779E+01  0.84174713620E+01  0.11388893239E+02  0.15455647346E+02  0.41800000000E+01 0. -1.
         -5    1    3    3    0  502  0.64120847564E+02 -0.39571829918E+02 -0.28362493379E+03  0.29349273975E+03  0.41800000000E+01 0. -1.
        -11    1    1    2    0    0 -0.34169576035E+02  0.55024090865E+02 -0.10612168361E+03  0.12432627331E+03  0.00000000000E+00 0.  1.
         11    1    1    2    0    0 -0.34516785907E+02 -0.23869732308E+02 -0.18476261382E+03  0.18946872062E+03  0.00000000000E+00 0. -1.
</event>
<event>
 7    1  0.4966153E-006  0.1092634E+03  0.7561462E-02  0.1261940E+00
         -3   -1    0    0    0  501 -0.00000000000E+00  0.00000000000E+00  0.21261465852E+02  0.21261465852E+02  0.00000000000E+00 0.  1.
          3   -1    0    0  501    0  0.00000000000E+00 -0.00000000000E+00 -0.57308117088E+03  0.57308117088E+03  0.00000000000E+00 0. -1.
         23    2    1    2    0    0 -0.90224583408E+01  0.16337129037E+02 -0.30037703762E+03  0.32591734322E+03  0.12508974116E+03 0.  0.
          5    1    3    3  502    0 -0.53270904105E+02  0.48041562123E+02 -0.17382331506E+03  0.18808986728E+03  0.41800000000E+01 0.  1.
         -5    1    3    3    0  502  0.44248445764E+02 -0.31704433086E+02 -0.12655372255E+03  0.13782747593E+03  0.41800000000E+01 0.  1.
        -11    1    1    2    0    0  0.49148249435E+02 -0.16822868737E+02 -0.11468258674E+03  0.12589938457E+03  0.00000000000E+00 0. -1.
         11    1    1    2    0    0 -0.40125791094E+02  0.48573969943E+00 -0.13676008067E+03  0.14252590894E+03  0.00000000000E+00 0.  1.
</event>
<event>
 7    1  0.4966153E-006  0.1072282E+03  0.7561462E-02  0.1265791E+00
          2   -1    0    0  501    0  0.00000000000E+00  0.00000000000E+00  0.83176245749E+02  0.83176245749E+02  0.00000000000E+00 0.  1.
         -2   -1    0    0    0  501 -0.00000000000E+00 -0.00000000000E+00 -0.20803269793E+03  0.20803269793E+03  0.00000000000E+00 0. -1.
         23    2    1    2    0    0  0.28347646194E+02  0.68454395274E+02 -0.62250321589E+02  0.15815425974E+03  0.12509226219E+03 0.  0.
          5    1    3    3  502    0  0.26826659433E+02 -0.30527980355E+02 -0.38781860885E+02  0.56330563414E+02  0.41800000000E+01 0. -1.
         -5    1    3    3    0  502  0.15209867610E+01  0.98982375629E+02 -0.23468460704E+02  0.10182369633E+03  0.41800000000E+01 0. -1.
        -11    1    1    2    0    0 -0.21717087603E+02 -0.42443184555E+02 -0.85421362945E+02  0.97825687100E+02  0.00000000000E+00 0. -1.
         11    1    1    2    0    0 -0.66305585905E+01 -0.26011210720E+02  0.22815232358E+02  0.35228996833E+02  0.00000000000E+00 0.  1.
</event>
<event>
 7    1  0.4966153E-006  0.1167430E+03  0.7561462E-02  0.1248569E+00
          2   -1    0    0  501    0  0.00000000000E+00  0.00000000000E+00  0.17006361853E+03  0.17006361853E+03  0.00000000000E+00 0. -1.
         -2   -1    0    0    0  501 -0.00000000000E+00 -0.00000000000E+00 -0.87773856299E+02  0.87773856299E+02  0.00000000000E+00 0.  1.
         23    2    1    2    0    0  0.42690556558E+02  0.41817675343E+02  0.46960953331E+02  0.14636752884E+03  0.12508765236E+03 0.  0.
          5    1    3    3  502    0 -0.42886884269E+02  0.45045085167E+00  0.95801749617E+01  0.44144534209E+02  0.41800000000E+01 0.  1.
         -5    1    3    3    0  502  0.85577440827E+02  0.41367224491E+02  0.37380778370E+02  0.10222299463E+03  0.41800000000E+01 0.  1.
        -11    1    1    2    0    0 -0.30891856104E+02  0.17000264992E+02  0.37456910947E+02  0.51442550102E+02  0.00000000000E+00 0. -1.
         11    1    1    2    0    0 -0.11798700455E+02 -0.58817940335E+02 -0.21281020507E+01  0.60027395879E+02  0.00000000000E+00 0.  1.
</event>
<event>
 6    1  0.4966153E-006  0.1270785E+03  0.7561462E-02  0.1231856E+00
         -1   -1    0    0    0  501 -0.00000000000E+00  0.00000000000E+00  0.19049257803E+03  0.19049257803E+03  0.00000000000E+00 0.  1.
          1   -1    0    0  501    0  0.00000000000E+00 -0.00000000000E+00 -0.58855674870E+03  0.58855674870E+03  0.00000000000E+00 0. -1.
          5    1    1    2  502    0 -0.33102017696E+02 -0.71194396651E+02 -0.47304389949E+01  0.78766967335E+02  0.41800000000E+01 0. -1.
         -5    1    1    2    0  502 -0.31852824468E+02 -0.14864959198E+02  0.14229111463E+03  0.14662811171E+03  0.41800000000E+01 0.  1.
        -11    1    1    2    0    0  0.15869674383E+02  0.89530428461E+02 -0.34516912206E+03  0.35694434722E+03  0.00000000000E+00 0.  1.
         11    1    1    2    0    0  0.49085167781E+02 -0.34710726118E+01 -0.19045572425E+03  0.19670990047E+03  0.00000000000E+00 0. -1.
</event>
<event>
 7    1  0.4966153E-006  0.1185116E+03  0.7561462E-02  0.1245573E+00
          1   -1    0    0  501    0  0.00000000000E+00  0.00000000000E+00  0.15344202024E+03  0.15344202024E+03  0.00000000000E+00 0. -1.
         -1   -1    0    0    0  501 -0.00000000000E+00 -0.00000000000E+00 -0.12211556564E+03  0.12211556564E+03  0.00000000000E+00 0.  1.
         23    2    1    2    0    0 -0.12324341917E+02 -0.51786276121E+02 -0.46437106559E+02  0.14365971881E+03  0.12509197474E+03 0.  0.
          5    1    3    3  502    0  0.50003459123E+02  0.47467112616E+01 -0.27070835027E+02  0.57211709476E+02  0.41800000000E+01 0. -1.
         -5    1    3    3    0  502 -0.62327801040E+02 -0.56532987382E+02 -0.19366271532E+02  0.86448009335E+02  0.41800000000E+01 0. -1.
        -11    1    1    2    0    0  0.49492104611E+02  0.39179360414E+02  0.65050753152E+02  0.90642656552E+02  0.00000000000E+00 0.  1.
         11    1    1    2    0    0 -0.37167762694E+02  0.12606915707E+02  0.12712808007E+02  0.41255210516E+02  0.00000000000E+00 0. -1.
</event>
<event>
 7    1  0.4966153E-006  0.9611552E+02  0.7561462E-02  0.1288683E+00
          2   -1    0    0  501    0  0.00000000000E+00  0.00000000000E+00  0.44487179111E+02  0.44487179111E+02  0.00000000000E+00 0. -1.
         -2   -1    0    0    0  501 -0.00000000000E+00 -0.00000000000E+00 -0.37101253234E+03  0.37101253234E+03  0.00000000000E+00 0.  1.
         23    2    1    2    0    0  0.19232506112E+02 -0.28273262257E+02 -0.27246031960E+03  0.30174755801E+03  0.12509075247E+03 0.  0.
          5    1    3    3  502    0 -0.28667770011E+02 -0.38684772425E+02 -0.23498407737E+03  0.23990277545E+03  0.41800000000E+01 0. -1.
         -5    1    3    3    0  502  0.47900276123E+02  0.10411510168E+02 -0.37476242238E+02  0.61844782552E+02  0.41800000000E+01 0. -1.
        -11    1    1    2    0    0 -0.33054796688E+02 -0.23861847275E+02 -0.54324155665E+01  0.41128074090E+02  0.00000000000E+00 0. -1.
         11    1    1    2    0    0  0.13822290576E+02  0.52135109533E+02 -0.48632618057E+02  0.72624079353E+02  0.00000000000E+00 0.  1.
</event>
<event>
 7    1  0.4966153E-006  0.1428632E+03  0.7561462E-02  0.1209527E+00
         -1   -1    0    0    0  501 -0.00000000000E+00  0.00000000000E+00  0.17039136878E+02  0.17039136878E+02  0.00000000000E+00 0.  1.
          1   -1    0    0  501    0  0.00000000000E+00 -0.00000000000E+00 -0.13198261545E+04  0.13198261545E+04  0.00000000000E+00 0. -1.
         23    2    1    2    0    0  0.48968917762E+02  0.92009823913E+02 -0.66675967053E+03  0.68635257893E+03  0.12509053422E+03 0.  0.
          5    1    3    3  502    0  0.85540958319E+02  0.55514843536E+02 -0.53718235450E+03  0.54679201511E+03  0.41800000000E+01 0. -1.
         -5    1    3    3    0  502 -0.36572040557E+02  0.36494980377E+02 -0.12957731604E+03  0.13956056382E+03  0.41800000000E+01 0. -1.
        -11    1    1    2    0    0  0.60336590419E+01  0.12415770248E+02 -0.28999839484E+02  0.32117706680E+02  0.00000000000E+00 0. -1.
         11    1    1    2    0    0 -0.55002576804E+02 -0.10442559416E+03 -0.60702750762E+03  0.61839500579E+03  0.00000000000E+00 0.  1.
</event>
<event>
 7    1  0.4966153E-006  0.1057658E+03  0.7561462E-02  0.1268618E+00
         -2   -1    0    0    0  501 -0.00000000000E+00  0.00000000000E+00  0.28698366031E+02  0.28698366031E+02  0.00000000000E+00 0.  1.
          2   -1    0    0  501    0  0.00000000000E+00 -0.00000000000E+00 -0.51679835958E+03  0.51679835958E+03  0.00000000000E+00 0. -1.
         23    2    1    2    0    0 -0.37948481166E+02 -0.23871562342E+02 -0.21035472975E+03  0.24881330716E+03  0.12509600625E+03 0.  0.
          5    1    3    3  502    0  0.33948505409E+02 -0.40855530238E+02 -0.12480422610E+03  0.13570277308E+03  0.41800000000E+01 0. -1.
         -5    1    3    3    0  502 -0.71896986575E+02  0.16983967896E+02 -0.85550503646E+02  0.11311053407E+03  0.41800000000E+01 0. -1.
        -11    1    1    2    0    0 -0.11517427294E+02 -0.16694172796E+02 -0.12481165327E+02  0.23814407923E+02  0.00000000000E+00 0.  1.
         11    1    1    2    0    0  0.49465908460E+02  0.40565735137E+02 -0.26526409848E+03  0.27286901053E+03  0.00000000000E+00 0. -1.
</event>
<event>
 7    1  0.4966153E-006  0.1877794E+03  0.7561462E-02  0.1160480E+00
          2   -1    0    0  501    0  0.00000000000E+00  0.00000000000E+00  0.30128412106E+03  0.30128412106E+03  0.00000000000E+00 0. -1.
         -2   -1    0    0    0  501 -0.00000000000E+00 -0.00000000000E+00 -0.14212846741E+03  0.14212846741E+03  0.00000000000E+00 0.  1.
         23    2    1    2    0    0  0.26966842803E+02 -0.15767054816E+03  0.35693043597E+01  0.20309592534E+03  0.12509197652E+03 0.  0.
          5    1    3    3  502    0 -0.45399301215E+02 -0.97995432421E+02  0.12400732605E+02  0.10879086311E+03  0.41800000000E+01 0.  1.
         -5    1    3    3    0  502  0.72366144019E+02 -0.59675115735E+02 -0.88314282452E+01  0.94305062234E+02  0.41800000000E+01 0.  1.
        -11    1    1    2    0    0  0.10064516763E+02  0.12117972270E+03  0.70364183981E+02  0.14048821331E+03  0.00000000000E+00 0.  1.
         11    1    1    2    0    0 -0.37031359566E+02  0.36490825453E+02  0.85222165306E+02  0.99828449818E+02  0.00000000000E+00 0. -1.
</event>
<event>
 7    1  0.4966153E-006  0.7845847E+02  0.7561462E-02  0.1333484E+00
         -1   -1    0    0    0  501 -0.00000000000E+00  0.00000000000E+00  0.19226830078E+02  0.19226830078E+02  0.00000000000E+00 0.  1.
          1   -1    0    0  501    0  0.00000000000E+00 -0.00000000000E+00 -0.62416005454E+03  0.62416005454E+03  0.00000000000E+00 0. -1.
         23    2    1    2    0    0  0.96819415704E+00  0.85060089910E+01 -0.26804352077E+03  0.29591942094E+03  0.12509070737E+03 0.  0.
          5    1    3    3  502    0 -0.84191438550E+01  0.42914835029E+02 -0.25333074301E+03  0.25711184882E+03  0.41800000000E+01 0.  1.
         -5    1    3    3    0  502  0.93873380121E+01 -0.34408826038E+02 -0.14712777767E+02  0.38807572120E+02  0.41800000000E+01 0.  1.
        -11    1    1    2    0    0  0.17056174254E+02  0.30027546131E+02 -0.80829123068E+02  0.87897177104E+02  0.00000000000E+00 0.  1.
         11    1    1    2    0    0 -0.18024368411E+02 -0.38533555122E+02 -0.25606058062E+03  0.25957028658E+03  0.00000000000E+00 0. -1.
</event>
<event>
 7    1  0.4966153E-006  0.7254486E+02  0.7561462E-02  0.1351647E+00
          2   -1    0    0  501    0  0.00000000000E+00  0.00000000000E+00  0.54147209332E+03  0.54147209332E+03  0.00000000000E+00 0.  1.
         -2   -1    0    0    0  501 -0.00000000000E+00 -0.00000000000E+00 -0.25980817053E+02  0.25980817053E+02  0.00000000000E+00 0. -1.
         23    2    1    2    0    0  0.42857999596E+02  0.22208027004E+02  0.27302054916E+03  0.30417279683E+03  0.12510341912E+03 0.  0.
          5    1    3    3  502    0  0.22555484336E+02  0.21623926225E+02  0.28039678221E+03  0.28216337808E+03  0.41800000000E+01 0.  1.
         -5    1    3    3    0  502  0.20302515260E+02  0.58410077972E+00 -0.73762330486E+01  0.22009418747E+02  0.41800000000E+01 0.  1.
        -11    1    1    2    0    0 -0.22794461980E+02 -0.52076512115E+02  0.88678723632E+02  0.10533502094E+03  0.00000000000E+00 0. -1.
         11    1    1    2    0    0 -0.20063537616E+02  0.29868485111E+02  0.15379200348E+03  0.15794509261E+03  0.00000000000E+00 0.  1.
</event>
<event>
 7    1  0.4966153E-006  0.4943446E+02  0.7561462E-02  0.1448416E+00
          2   -1    0    0  501    0  0.00000000000E+00  0.00000000000E+00  0.46287583669E+03  0.46287583669E+03  0.00000000000E+00 0. -1.
         -2   -1    0    0    0  501 -0.00000000000E+00 -0.00000000000E+00 -0.27588191574E+02  0.27588191574E+02  0.00000000000E+00 0.  1.
         23    2    1    2    0    0 -0.66170373728E+01  0.35406389323E+01  0.18068169532E+03  0.21988529522E+03  0.12508935495E+03 0.  0.
          5    1    3    3  502    0  0.12385993992E+01  0.37205864063E+01 -0.19081625817E+02  0.19923798219E+02  0.41800000000E+01 0.  1.
         -5    1    3    3    0  502 -0.78556367720E+01 -0.17994747400E+00  0.19976332114E+03  0.19996149700E+03  0.41800000000E+01 0.  1.
        -11    1    1    2    0    0 -0.26342563917E+02 -0.31466720977E+02  0.17763449347E+03  0.18231318788E+03  0.00000000000E+00 0. -1.
         11    1    1    2    0    0  0.32959601289E+02  0.27926082045E+02  0.76971456326E+02  0.88265545172E+02  0.00000000000E+00 0.  1.
</event>
<event>
 7    1  0.4966153E-006  0.1039134E+03  0.7561462E-02  0.1272275E+00
         -1   -1    0    0    0  501 -0.00000000000E+00  0.00000000000E+00  0.40385177708E+03  0.40385177708E+03  0.00000000000E+00 0.  1.
          1   -1    0    0  501    0  0.00000000000E+00 -0.00000000000E+00 -0.37898589627E+02  0.37898589627E+02  0.00000000000E+00 0. -1.
         23    2    1    2    0    0  0.34143958914E+02 -0.47423305188E+02  0.22311998263E+03  0.26238502137E+03  0.12509433635E+03 0.  0.
          5    1    3    3  502    0  0.56013013188E+02 -0.80166942918E+02  0.16941937999E+03  0.19566449626E+03  0.41800000000E+01 0. -1.
         -5    1    3    3    0  502 -0.21869054273E+02  0.32743637730E+02  0.53700602643E+02  0.66720525109E+02  0.41800000000E+01 0. -1.
        -11    1    1    2    0    0 -0.21388935189E+01  0.36446504386E+02  0.43017423186E+01  0.36761767292E+02  0.00000000000E+00 0. -1.
         11    1    1    2    0    0 -0.32005065396E+02  0.10976800802E+02  0.13853146250E+03  0.14260357804E+03  0.00000000000E+00 0.  1.
</event>
<event>
 7    1  0.4966153E-006  0.9695987E+02  0.7561462E-02  0.1286822E+00
          1   -1    0    0  501    0  0.00000000000E+00  0.00000000000E+00  0.36012758328E+02  0.36012758328E+02  0.00000000000E+00 0. -1.
         -1   -1    0    0    0  501 -0.00000000000E+00 -0.00000000000E+00 -0.40032687796E+03  0.40032687796E+03  0.00000000000E+00 0.  1.
         23    2    1    2    0    0 -0.17079419095E+02  0.45073500446E+02 -0.24328060866E+03  0.27776910090E+03  0.12508753681E+03 0.  0.
          5    1    3    3  502    0  0.72292143150E+01  0.61898701359E+02 -0.23969255080E+03  0.24769679465E+03  0.41800000000E+01 0.  1.
         -5    1    3    3    0  502 -0.24308633410E+02 -0.16825200912E+02 -0.35880578556E+01  0.30072306250E+02  0.41800000000E+01 0.  1.
        -11    1    1    2    0    0  0.55341961265E+01  0.27533223337E+02 -0.24792310325E+02  0.37461505113E+02  0.00000000000E+00 0. -1.
         11    1    1    2    0    0  0.11545222969E+02 -0.72606723783E+02 -0.96241200649E+02  0.12110903028E+03  0.00000000000E+00 0.  1.
</event>
<event>
 7    1  0.4966153E-006  0.8044425E+02  0.7561462E-02  0.1327795E+00
         -1   -1    0    0    0  501 -0.00000000000E+00  0.00000000000E+00  0.16403443062E+02  0.16403443062E+02  0.00000000000E+00 0.  1.
          1   -1    0    0  501    0  0.00000000000E+00 -0.00000000000E+00 -0.78710148443E+03  0.78710148443E+03  0.00000000000E+00 0. -1.
         23    2    1    2    0    0  0.14854245955E+01 -0.31302208175E+02 -0.41899285558E+03  0.43838838788E+03  0.12508929165E+03 0.  0.
          5    1    3    3  502    0  0.21029172741E+02 -0.44987091642E+02 -0.57523606650E+02  0.76108489951E+02  0.41800000000E+01 0.  1.
         -5    1    3    3    0  502 -0.19543748145E+02  0.13684883467E+02 -0.36146924893E+03  0.36227989793E+03  0.41800000000E+01 0.  1.
        -11    1    1    2    0    0  0.33002559391E+02  0.39409709354E+02 -0.28488432622E+03  0.28948466876E+03  0.00000000000E+00 0. -1.
         11    1    1    2    0    0 -0.34487983986E+02 -0.81075011792E+01 -0.66820859566E+02  0.75631870848E+02  0.00000000000E+00 0.  1.
</event>
<event>
 7    1  0.4966153E-006  0.1373973E+03  0.7561462E-02  0.1216875E+00
         -1   -1    0    0    0  501 -0.00000000000E+00  0.00000000000E+00  0.57507937032E+03  0.57507937032E+03  0.00000000000E+00 0. -1.
          1   -1    0    0  501    0  0.00000000000E+00 -0.00000000000E+00 -0.18119212957E+03  0.18119212957E+03  0.00000000000E+00 0.  1.
         23    2    1    2    0    0 -0.11303074871E+02  0.97623046508E+02  0.53691530788E+03  0.55998621101E+03  0.12509392463E+03 0.  0.
          5    1    3    3  502    0  0.25773676628E+02 -0.20491415922E+02  0.80822028410E+02  0.87371924608E+02  0.41800000000E+01 0.  1.
         -5    1    3    3    0  502 -0.37076751499E+02  0.11811446243E+03  0.45609327947E+03  0.47261428641E+03  0.41800000000E+01 0.  1.
        -11    1    1    2    0    0 -0.78087858030E+01 -0.98302193988E+02 -0.14674800442E+03  0.17680292780E+03  0.00000000000E+00 0.  1.
         11    1    1    2    0    0  0.19111860674E+02  0.67914748047E+00  0.37199372906E+01  0.19482361078E+02  0.00000000000E+00 0. -1.
</event>
<event>
 7    1  0.4966153E-006  0.1012325E+03  0.7561462E-02  0.1277725E+00
          2   -1    0    0  501    0  0.00000000000E+00  0.00000000000E+00  0.20307666174E+03  0.20307666174E+03  0.00000000000E+00 0. -1.
         -2   -1    0    0    0  501 -0.00000000000E+00 -0.00000000000E+00 -0.90607970281E+02  0.90607970281E+02  0.00000000000E+00 0.  1.
         23    2    1    2    0    0  0.27637910021E+02 -0.36330601812E+02 -0.10505216495E+02  0.13357552595E+03  0.12509314474E+03 0.  0.
          5    1    3    3  502    0  0.47258786395E+02  0.24917298436E+02  0.25938071189E+02  0.59535876494E+02  0.41800000000E+01 0. -1.
         -5    1    3    3    0  502 -0.19620876374E+02 -0.61247900248E+02 -0.36443287685E+02  0.74039649457E+02  0.41800000000E+01 0. -1.
        -11    1    1    2    0    0  0.54975118785E+01  0.48736131119E+02  0.23215847679E+02  0.54262405925E+02  0.00000000000E+00 0.  1.
         11    1    1    2    0    0 -0.33135421900E+02 -0.12405529306E+02  0.99758060274E+02  0.10584670014E+03  0.00000000000E+00 0. -1.
</event>
<event>
 7    1  0.4966153E-006  0.1069791E+03  0.7561462E-02  0.1266269E+00
          1   -1    0    0  501    0  0.00000000000E+00  0.00000000000E+00  0.24732706098E+03  0.24732706098E+03  0.00000000000E+00 0. -1.
         -1   -1    0    0    0  501 -0.00000000000E+00 -0.00000000000E+00 -0.61508850418E+02  0.61508850418E+02  0.00000000000E+00 0.  1.
         23    2    1    2    0    0  0.18572314550E+02 -0.52499769246E+02  0.12503349157E+03  0.18542453684E+03  0.12509087980E+03 0.  0.
          5    1    3    3  502    0 -0.44570230844E+02 -0.30474553022E+02  0.10032860551E+03  0.11401098782E+03  0.41800000000E+01 0.  1.
         -5    1    3    3    0  502  0.63142545395E+02 -0.22025216225E+02  0.24704886061E+02  0.71413549022E+02  0.41800000000E+01 0.  1.
        -11    1    1    2    0    0 -0.22274066584E+02  0.70752326742E+02  0.70561932492E+02  0.10237681426E+03  0.00000000000E+00 0. -1.
         11    1    1    2    0    0  0.37017520332E+01 -0.18252557496E+02 -0.97772134965E+01  0.21034560300E+02  0.00000000000E+00 0.  1.
</event>
<event>
 7    1  0.4966153E-006  0.1506222E+03  0.7561462E-02  0.1199710E+00
          1   -1    0    0  501    0  0.00000000000E+00  0.00000000000E+00  0.16544984983E+03  0.16544984983E+03  0.00000000000E+00 0.  1.
         -1   -1    0    0    0  501 -0.00000000000E+00 -0.00000000000E+00 -0.16422190843E+03  0.16422190843E+03  0.00000000000E+00 0. -1.
         23    2    1    2    0    0 -0.86032124242E+02  0.71216732759E+02 -0.53510483078E+02  0.17602202673E+03  0.12508809963E+03 0.  0.
          5    1    3    3  502    0  0.23302787273E+02  0.40573090130E+02 -0.39807902372E+02  0.61573833961E+02  0.41800000000E+01 0.  1.
         -5    1    3    3    0  502 -0.10933491152E+03  0.30643642628E+02 -0.13702580706E+02  0.11444819277E+03  0.41800000000E+01 0.  1.
        -11    1    1    2    0    0  0.10279622454E+03 -0.52190298062E+02  0.56188822584E+02  0.12825004786E+03  0.00000000000E+00 0.  1.
         11    1    1    2    0    0 -0.16764100298E+02 -0.19026434697E+02 -0.14503981075E+01  0.25399683674E+02  0.00000000000E+00 0. -1.
</event>
<event>
 7    1  0.4966153E-006  0.1733068E+03  0.7561462E-02  0.1174443E+00
         -1   -1    0    0    0  501 -0.00000000000E+00  0.00000000000E+00  0.33929906630E+02  0.33929906630E+02  0.00000000000E+00 0.  1.
          1   -1    0    0  501    0  0.00000000000E+00 -0.00000000000E+00 -0.12411034280E+04  0.12411034280E+04  0.00000000000E+00 0. -1.
         23    2    1    2    0    0 -0.16112846389E+03  0.35695469233E+02 -0.49048305412E+03  0.53240355547E+03  0.12507346283E+03 0.  0.
          5    1    3    3  502    0 -0.38935075330E+02  0.37554757933E+02 -0.30798271927E+03  0.31272532309E+03  0.41800000000E+01 0.  1.
         -5    1    3    3    0  502 -0.12219338856E+03 -0.18592886996E+01 -0.18250033485E+03  0.21967823239E+03  0.41800000000E+01 0.  1.
        -11    1    1    2    0    0  0.11473338353E+03 -0.57891441881E+01 -0.62606240701E+03  0.63651504378E+03  0.00000000000E+00 0. -1.
         11    1    1    2    0    0  0.46395080365E+02 -0.29906325045E+02 -0.90628060202E+02  0.10611473534E+03  0.00000000000E+00 0.  1.
</event>
<event>
 7    1  0.4966153E-006  0.1007952E+03  0.7561462E-02  0.1278633E+00
          1   -1    0    0  501    0  0.00000000000E+00  0.00000000000E+00  0.77606065179E+02  0.77606065179E+02  0.00000000000E+00 0. -1.
         -1   -1    0    0    0  501 -0.00000000000E+00 -0.00000000000E+00 -0.21019361034E+03  0.21019361034E+03  0.00000000000E+00 0.  1.
         23    2    1    2    0    0  0.22119680574E+02  0.54452356988E+02 -0.12805963909E+03  0.18233764238E+03  0.11572988040E+03 0.  0.
          5    1    3    3  502    0 -0.12698630996E+02  0.65986744254E+02 -0.23269795136E+02  0.71235253998E+02  0.41800000000E+01 0. -1.
         -5    1    3    3    0  502  0.34818311570E+02 -0.11534387266E+02 -0.10478984395E+03  0.11110238839E+03  0.41800000000E+01 0.  1.
        -11    1    1    2    0    0  0.13173960646E+02 -0.60167664578E+02  0.16783735406E+02  0.63838819492E+02  0.00000000000E+00 0. -1.
         11    1    1    2    0    0 -0.35293641220E+02  0.57153075903E+01 -0.21311641486E+02  0.41623213647E+02  0.00000000000E+00 0.  1.
</event>
<event>
 7    1  0.4966153E-006  0.6019254E+02  0.7561462E-02  0.1397026E+00
         -2   -1    0    0    0  501 -0.00000000000E+00  0.00000000000E+00  0.22019215699E+03  0.22019215699E+03  0.00000000000E+00 0.  1.
          2   -1    0    0  501    0  0.00000000000E+00 -0.00000000000E+00 -0.65724193965E+02  0.65724193965E+02  0.00000000000E+00 0. -1.
         23    2    1    2    0    0 -0.37361509907E+02 -0.10268776322E+02  0.12892542201E+03  0.18376627303E+03  0.12508776308E+03 0.  0.
          5    1    3    3  502    0  0.75087171417E+01 -0.27268037220E+02  0.13242408352E+03  0.13547522646E+03  0.41800000000E+01 0.  1.
         -5    1    3    3    0  502 -0.44870227048E+02  0.16999260898E+02 -0.34986615106E+01  0.48291046570E+02  0.41800000000E+01 0.  1.
        -11    1    1    2    0    0  0.27239792946E+02  0.16401116566E+02  0.58801830314E+02  0.66848023102E+02  0.00000000000E+00 0.  1.
         11    1    1    2    0    0  0.10121716960E+02 -0.61323402433E+01 -0.33259289294E+02  0.35302054833E+02  0.00000000000E+00 0. -1.
</event>
<event>
 7    1  0.4966153E-006  0.1429060E+03  0.7561462E-02  0.1209471E+00
         -2   -1    0    0    0  501 -0.00000000000E+00  0.00000000000E+00  0.91581356533E+02  0.91581356533E+02  0.00000000000E+00 0. -1.
          2   -1    0    0  501    0  0.00000000000E+00 -0.00000000000E+00 -0.32213750362E+03  0.32213750362E+03  0.00000000000E+00 0.  1.
         23    2    1    2    0    0  0.66328251741E+02 -0.11536372413E+03 -0.12232889240E+03  0.21981733401E+03  0.12508827520E+03 0.  0.
          5    1    3    3  502    0  0.35650089385E+02 -0.33331425499E+01  0.15743102618E+02  0.39336451193E+02  0.41800000000E+01 0.  1.
         -5    1    3    3    0  502  0.30678162356E+02 -0.11203058158E+03 -0.13807199502E+03  0.18048088282E+03  0.41800000000E+01 0.  1.
        -11    1    1    2    0    0 -0.54165592336E+02  0.10181067826E+03 -0.12433939245E+03  0.16958658590E+03  0.00000000000E+00 0.  1.
         11    1    1    2    0    0 -0.12162659405E+02  0.13553045872E+02  0.16112137757E+02  0.24314940249E+02  0.00000000000E+00 0. -1.
</event>
<event>
 7    1  0.4966153E-006  0.1083835E+03  0.7561462E-02  0.1263593E+00
         -1   -1    0    0    0  501 -0.00000000000E+00  0.00000000000E+00  0.14320346510E+03  0.14320346510E+03  0.00000000000E+00 0.  1.
          1   -1    0    0  501    0  0.00000000000E+00 -0.00000000000E+00 -0.12898759292E+03  0.12898759292E+03  0.00000000000E+00 0. -1.
         23    2    1    2    0    0  0.23834651852E+02  0.69397616260E+02  0.59714043492E+02  0.15683333597E+03  0.12508720362E+03 0.  0.
          5    1    3    3  502    0 -0.47049325101E+01  0.97753775420E+02  0.19661124945E+02  0.99909805489E+02  0.41800000000E+01 0.  1.
         -5    1    3    3    0  502  0.28539584363E+02 -0.28356159159E+02  0.40052918547E+02  0.56923530477E+02  0.41800000000E+01 0.  1.
        -11    1    1    2    0    0  0.62791852254E+01 -0.11591745049E+02 -0.48350836812E+02  0.50115867155E+02  0.00000000000E+00 0. -1.
         11    1    1    2    0    0 -0.30113837078E+02 -0.57805871212E+02  0.28526655073E+01  0.65241854899E+02  0.00000000000E+00 0.  1.
</event>
<event>
 7    1  0.4966153E-006  0.2056357E+03  0.7561462E-02  0.1145069E+00
         -4   -1    0    0    0  501 -0.00000000000E+00  0.00000000000E+00  0.20902073386E+03  0.20902073386E+03  0.00000000000E+00 0.  1.
          4   -1    0    0  501    0  0.00000000000E+00 -0.00000000000E+00 -0.20802851184E+03  0.20802851184E+03  0.00000000000E+00 0. -1.
         23    2    1    2    0    0  0.14637452948E+03  0.10194435203E+03  0.22858549941E+02  0.21906300007E+03  0.12509168999E+03 0.  0.
          5    1    3    3  502    0  0.16795000458E+03  0.95078178088E+02  0.29066977515E+02  0.19521635579E+03  0.41800000000E+01 0. -1.
         -5    1    3    3    0  502 -0.21575475103E+02  0.68661739447E+01 -0.62084275733E+01  0.23846644282E+02  0.41800000000E+01 0. -1.
        -11    1    1    2    0    0 -0.56689613898E+02  0.34791953927E+01  0.49145344886E+01  0.57008506152E+02  0.00000000000E+00 0. -1.
         11    1    1    2    0    0 -0.89684915579E+02 -0.10542354743E+03 -0.26780862407E+02  0.14097773947E+03  0.00000000000E+00 0.  1.
</event>
<event>
 6    1  0.4966153E-006  0.8831274E+02  0.7561462E-02  0.1306990E+00
         -2   -1    0    0    0  501 -0.00000000000E+00  0.00000000000E+00  0.69362822922E+02  0.69362822922E+02  0.00000000000E+00 0.  1.
          2   -1    0    0  501    0  0.00000000000E+00 -0.00000000000E+00 -0.65709734988E+03  0.65709734988E+03  0.00000000000E+00 0. -1.
          5    1    1    2  502    0 -0.37066332282E+02 -0.27409711259E+02 -0.32882122601E+03  0.33206336193E+03  0.41800000000E+01 0. -1.
         -5    1    1    2    0  502  0.10088912766E+02  0.33855377579E+02  0.55199551034E+02  0.65669137242E+02  0.41800000000E+01 0.  1.
        -11    1    1    2    0    0  0.59553452492E+02 -0.14316089534E+02 -0.23409253768E+03  0.24197289170E+03  0.00000000000E+00 0.  1.
         11    1    1    2    0    0 -0.32576032976E+02  0.78704232145E+01 -0.80020314306E+02  0.86754781929E+02  0.00000000000E+00 0. -1.
</event>
<event>
 7    1  0.4966153E-006  0.1663821E+03  0.7561462E-02  0.1181674E+00
          1   -1    0    0  501    0  0.00000000000E+00  0.00000000000E+00  0.27447034718E+03  0.27447034718E+03  0.00000000000E+00 0. -1.
         -1   -1    0    0    0  501 -0.00000000000E+00 -0.00000000000E+00 -0.14720466728E+03  0.14720466728E+03  0.00000000000E+00 0.  1.
         23    2    1    2    0    0 -0.10359021091E+03  0.11645059655E+03 -0.14283586025E+01  0.19985296311E+03  0.12508994133E+03 0.  0.
          5    1    3    3  502    0 -0.79348354522E+02  0.76015907244E+02  0.57645479183E+02  0.12415737268E+03  0.41800000000E+01 0. -1.
         -5    1    3    3    0  502 -0.24241856385E+02  0.40434689311E+02 -0.59073837786E+02  0.75695590435E+02  0.41800000000E+01 0. -1.
        -11    1    1    2    0    0  0.67472412249E+02 -0.16880123652E+02  0.77651797856E+02  0.10424618314E+03  0.00000000000E+00 0. -1.
         11    1    1    2    0    0  0.36117798658E+02 -0.99570472903E+02  0.51042240650E+02  0.11757586821E+03  0.00000000000E+00 0.  1.
</event>
<event>
 7    1  0.4966153E-006  0.6827287E+02  0.7561462E-02  0.1366067E+00
         -1   -1    0    0    0  501 -0.00000000000E+00  0.00000000000E+00  0.70722234120E+02  0.70722234120E+02  0.00000000000E+00 0.  1.
          1   -1    0    0  501    0  0.00000000000E+00 -0.00000000000E+00 -0.30754087420E+03  0.30754087420E+03  0.00000000000E+00 0. -1.
         23    2    1    2    0    0 -0.11606884923E+02 -0.12944726566E+02 -0.30534809132E+01  0.12628463454E+03  0.12504478979E+03 0.  0.
          5    1    3    3  502    0 -0.13867030529E+02 -0.28848441319E+02 -0.59367223392E+02  0.67575636996E+02  0.41800000000E+01 0.  1.
         -5    1    3    3    0  502  0.22601456063E+01  0.15903714754E+02  0.56313742478E+02  0.58708997548E+02  0.41800000000E+01 0.  1.
        -11    1    1    2    0    0  0.41908324815E+02  0.31240127608E+02 -0.91518316916E+02  0.10539381193E+03  0.00000000000E+00 0.  1.
         11    1    1    2    0    0 -0.30301439891E+02 -0.18295401043E+02 -0.14224684225E+03  0.14658466185E+03  0.00000000000E+00 0. -1.
</event>
<event>
 7    1  0.4966153E-006  0.3047616E+03  0.7561462E-02  0.1082884E+00
          1   -1    0    0  501    0  0.00000000000E+00  0.00000000000E+00  0.42282215351E+03  0.42282215351E+03  0.00000000000E+00 0. -1.
         -1   -1    0    0    0  501 -0.00000000000E+00 -0.00000000000E+00 -0.24174780509E+03  0.24174780509E+03  0.00000000000E+00 0.  1.
         23    2    1    2    0    0 -0.27584111126E+03  0.11474150285E+03  0.60870560409E+02  0.32955726538E+03  0.12509530330E+03 0.  0.
          5    1    3    3  502    0 -0.62505353937E+02  0.26249552344E+02 -0.38518931155E+02  0.78084177183E+02  0.41800000000E+01 0. -1.
         -5    1    3    3    0  502 -0.21333575732E+03  0.88491950502E+02  0.99389491563E+02  0.25147308820E+03  0.41800000000E+01 0. -1.
        -11    1    1    2    0    0  0.11166352596E+03 -0.92350658290E+02  0.75483778053E+02  0.16338662083E+03  0.00000000000E+00 0.  1.
         11    1    1    2    0    0  0.16417758529E+03 -0.22390844556E+02  0.44720009964E+02  0.17162607239E+03  0.00000000000E+00 0. -1.
</event>
<event>
 6    1  0.4966153E-006  0.1643550E+03  0.7561462E-02  0.1183866E+00
          1   -1    0    0  501    0  0.00000000000E+00  0.00000000000E+00  0.16633432999E+04  0.16633432999E+04  0.00000000000E+00 0. -1.
         -1   -1    0    0    0  501 -0.00000000000E+00 -0.00000000000E+00 -0.16968843974E+02  0.16968843974E+02  0.00000000000E+00 0.  1.
          5    1    1    2  502    0 -0.75789127414E+00 -0.29851188498E+02  0.13555083993E+03  0.13886385584E+03  0.41800000000E+01 0. -1.
         -5    1    1    2    0  502 -0.35426904307E+02  0.14590561066E+03  0.87442979691E+03  0.88723641432E+03  0.41800000000E+01 0.  1.
        -11    1    1    2    0    0  0.39192839940E+02 -0.76794296197E+01  0.23808690050E+03  0.24141338929E+03  0.00000000000E+00 0.  1.
         11    1    1    2    0    0 -0.30080443585E+01 -0.10837499255E+03  0.39830691859E+03  0.41279848442E+03  0.00000000000E+00 0. -1.
</event>
<event>
 7    1  0.4966153E-006  0.8990206E+02  0.7561462E-02  0.1303089E+00
         -1   -1    0    0    0  501 -0.00000000000E+00  0.00000000000E+00  0.17998348508E+03  0.17998348508E+03  0.00000000000E+00 0.  1.
          1   -1    0    0  501    0  0.00000000000E+00 -0.00000000000E+00 -0.18411357188E+03  0.18411357188E+03  0.00000000000E+00 0. -1.
         23    2    1    2    0    0  0.62607211591E+02 -0.28418886743E+02  0.11861641348E+03  0.18557627606E+03  0.12506560127E+03 0.  0.
          5    1    3    3  502    0  0.38632375969E+02  0.22589613477E+02  0.12092953111E+03  0.12901230563E+03  0.41800000000E+01 0.  1.
         -5    1    3    3    0  502  0.23974835622E+02 -0.51008500220E+02 -0.23131176230E+01  0.56563970431E+02  0.41800000000E+01 0.  1.
        -11    1    1    2    0    0 -0.31640612114E+02 -0.58242041155E+01 -0.12806756403E+03  0.13204677446E+03  0.00000000000E+00 0. -1.
         11    1    1    2    0    0 -0.30966599477E+02  0.34243090859E+02  0.53210637476E+01  0.46474006435E+02  0.00000000000E+00 0.  1.
</event>
<event>
 7    1  0.4966153E-006  0.1585972E+03  0.7561462E-02  0.1190290E+00
         -1   -1    0    0    0  501 -0.00000000000E+00  0.00000000000E+00  0.10528676541E+03  0.10528676541E+03  0.00000000000E+00 0.  1.
          1   -1    0    0  501    0  0.00000000000E+00 -0.00000000000E+00 -0.34728181971E+03  0.34728181971E+03  0.00000000000E+00 0. -1.
         23    2    1    2    0    0  0.11391959717E+03 -0.19737746931E+02 -0.19087620915E+01  0.17035213742E+03  0.12509577961E+03 0.  0.
          5    1    3    3  502    0  0.11210282068E+03  0.32391514379E+02 -0.10846360829E+02  0.11726622938E+03  0.41800000000E+01 0.  1.
         -5    1    3    3    0  502  0.18167764881E+01 -0.52129261311E+02  0.89375987376E+01  0.53085908043E+02  0.41800000000E+01 0.  1.
        -11    1    1    2    0    0 -0.98085263005E+02 -0.24515011098E+02 -0.17117917421E+03  0.19880647442E+03  0.00000000000E+00 0. -1.
         11    1    1    2    0    0 -0.15834334166E+02  0.44252758030E+02 -0.68907117999E+02  0.83409973281E+02  0.00000000000E+00 0.  1.
</event>
<event>
 7    1  0.4966153E-006  0.5768802E+02  0.7561462E-02  0.1407798E+00
          2   -1    0    0  501    0  0.00000000000E+00  0.00000000000E+00  0.37298173139E+03  0.37298173139E+03  0.00000000000E+00 0.  1.
         -2   -1    0    0    0  501 -0.00000000000E+00 -0.00000000000E+00 -0.34686650264E+02  0.34686650264E+02  0.00000000000E+00 0. -1.
         23    2    1    2    0    0 -0.16152556118E+02 -0.10287155082E+02  0.14757502781E+03  0.19440253033E+03  0.12508886576E+03 0.  0.
          5    1    3    3  502    0  0.11318089002E+02 -0.43260522165E+01 -0.20371598904E+02  0.24068408928E+02  0.41800000000E+01 0. -1.
         -5    1    3    3    0  502 -0.27470645120E+02 -0.59611028660E+01  0.16794662671E+03  0.17033412140E+03  0.41800000000E+01 0. -1.
        -11    1    1    2    0    0 -0.94369782495E+01 -0.27177714990E+02  0.14859674564E+03  0.15135612827E+03  0.00000000000E+00 0.  1.
         11    1    1    2    0    0  0.25589534367E+02  0.37464870072E+02  0.42123307685E+02  0.61909723057E+02  0.00000000000E+00 0. -1.
</event>
<event>
 7    1  0.4966153E-006  0.1694216E+03  0.7561462E-02  0.1178452E+00
         -3   -1    0    0    0  501 -0.00000000000E+00  0.00000000000E+00  0.11763408065E+03  0.11763408065E+03  0.00000000000E+00 0.  1.
          3   -1    0    0  501    0  0.00000000000E+00 -0.00000000000E+00 -0.27066368686E+03  0.27066368686E+03  0.00000000000E+00 0. -1.
         23    2    1    2    0    0 -0.14068307456E+03  0.13726156064E+02 -0.66892437804E+02  0.20025110859E+03  0.12508306612E+03 0.  0.
          5    1    3    3  502    0 -0.16327585001E+03  0.41395732709E+01 -0.62725441028E+02  0.17500883582E+03  0.41800000000E+01 0.  1.
         -5    1    3    3    0  502  0.22592775455E+02  0.95865827933E+01 -0.41669967756E+01  0.25242272769E+02  0.41800000000E+01 0.  1.
        -11    1    1    2    0    0  0.90346115787E+02  0.16514781329E+02 -0.90786063209E+02  0.12914049680E+03  0.00000000000E+00 0. -1.
         11    1    1    2    0    0  0.50336958770E+02 -0.30240937393E+02  0.46488948040E+01  0.58906162118E+02  0.00000000000E+00 0.  1.
</event>
<event>
 7    1  0.4966153E-006  0.1368487E+03  0.7561462E-02  0.1217633E+00
         -1   -1    0    0    0  501 -0.00000000000E+00  0.00000000000E+00  0.11579827697E+03  0.11579827697E+03  0.00000000000E+00 0.  1.
          1   -1    0    0  501    0  0.00000000000E+00 -0.00000000000E+00 -0.22513758727E+03  0.22513758727E+03  0.00000000000E+00 0. -1.
         23    2    1    2    0    0 -0.71478383522E+02 -0.44209022771E+02  0.30560619363E+02  0.15376590761E+03  0.12508559422E+03 0.  0.
          5    1    3    3  502    0  0.34237490104E+02  0.58798799291E+00 -0.13563188051E+01  0.34523375548E+02  0.41800000000E+01 0.  1.
         -5    1    3    3    0  502 -0.10571587363E+03 -0.44797010764E+02  0.31916938168E+02  0.11924253206E+03  0.41800000000E+01 0.  1.
        -11    1    1    2    0    0  0.93727278737E+02  0.38596607258E+02 -0.11241657829E+03  0.15136706361E+03  0.00000000000E+00 0.  1.
         11    1    1    2    0    0 -0.22248895215E+02  0.56124155135E+01 -0.27483351367E+02  0.35802893019E+02  0.00000000000E+00 0. -1.
</event>
<event>
 7    1  0.4966153E-006  0.9379153E+02  0.7561462E-02  0.1293921E+00
          2   -1    0    0  501    0  0.00000000000E+00  0.00000000000E+00  0.15296324662E+03  0.15296324662E+03  0.00000000000E+00 0. -1.
         -2   -1    0    0    0  501 -0.00000000000E+00 -0.00000000000E+00 -0.12088482420E+03  0.12088482420E+03  0.00000000000E+00 0.  1.
         23    2    1    2    0    0  0.84325517715E+02  0.77730750183E+01  0.60763620411E+01  0.15118010055E+03  0.12508911620E+03 0.  0.
          5    1    3    3  502    0  0.84046880956E+02  0.22738350810E+02  0.52818384814E+02  0.10192234775E+03  0.41800000000E+01 0.  1.
         -5    1    3    3    0  502  0.27863675867E+00 -0.14965275792E+02 -0.46742022773E+02  0.49257752799E+02  0.41800000000E+01 0.  1.
        -11    1    1    2    0    0 -0.35591007267E+02 -0.61044100187E+01  0.55103279251E+02  0.65881370691E+02  0.00000000000E+00 0. -1.
         11    1    1    2    0    0 -0.48734510448E+02 -0.16686649996E+01 -0.29101218876E+02  0.56786599577E+02  0.00000000000E+00 0.  1.
</event>
<event>
 7    1  0.4966153E-006  0.1384087E+03  0.7561462E-02  0.1215486E+00
         -1   -1    0    0    0  501 -0.00000000000E+00  0.00000000000E+00  0.17790289021E+03  0.17790289021E+03  0.00000000000E+00 0.  1.
          1   -1    0    0  501    0  0.00000000000E+00 -0.00000000000E+00 -0.19175232267E+03  0.19175232267E+03  0.00000000000E+00 0. -1.
         23    2    1    2    0    0  0.73039941508E+02 -0.44615851586E+02  0.11438455883E+03  0.18989024105E+03  0.12509623927E+03 0.  0.
          5    1    3    3  502    0  0.10103830650E+03 -0.29567590547E+01  0.78362050659E+02  0.12796704727E+03  0.41800000000E+01 0. -1.
         -5    1    3    3    0  502 -0.27998364989E+02 -0.41659092531E+02  0.36022508176E+02  0.61923193779E+02  0.41800000000E+01 0. -1.
        -11    1    1    2    0    0 -0.93631900742E+02  0.46614161033E+02 -0.99524788452E+02  0.14437796356E+03  0.00000000000E+00 0. -1.
         11    1    1    2    0    0  0.20591959233E+02 -0.19983094477E+01 -0.28709202844E+02  0.35387008260E+02  0.00000000000E+00 0.  1.
</event>
<event>
 7    1  0.4966153E-006  0.2094409E+03  0.7561462E-02  0.1142009E+00
         -2   -1    0    0    0  501 -0.00000000000E+00  0.00000000000E+00  0.34006046507E+02  0.34006046507E+02  0.00000000000E+00 0.  1.
          2   -1    0    0  501    0  0.00000000000E+00 -0.00000000000E+00 -0.15855615331E+04  0.15855615331E+04  0.00000000000E+00 0. -1.
         23    2    1    2    0    0 -0.14175832299E+03  0.14784609054E+03 -0.80605112749E+03  0.84102245679E+03  0.12508582679E+03 0.  0.
          5    1    3    3  502    0 -0.51322092493E+02  0.25368642716E+02 -0.45161048625E+03  0.45524392242E+03  0.41800000000E+01 0.  1.
         -5    1    3    3    0  502 -0.90436230501E+02  0.12247744783E+03 -0.35444064124E+03  0.38577853436E+03  0.41800000000E+01 0.  1.
        -11    1    1    2    0    0  0.15730573965E+02 -0.41125160975E+02 -0.66565884255E+02  0.79810693326E+02  0.00000000000E+00 0.  1.
         11    1    1    2    0    0  0.12602774903E+03 -0.10672092957E+03 -0.67893847487E+03  0.69873442952E+03  0.00000000000E+00 0. -1.
</event>
<event>
 7    1  0.4966153E-006  0.2332282E+03  0.7561462E-02  0.1124388E+00
         -2   -1    0    0    0  501 -0.00000000000E+00  0.00000000000E+00  0.54024317874E+02  0.54024317874E+02  0.00000000000E+00 0. -1.
          2   -1    0    0  501    0  0.00000000000E+00 -0.00000000000E+00 -0.11946179230E+04  0.11946179230E+04  0.00000000000E+00 0.  1.
         23    2    1    2    0    0  0.20006047199E+03  0.10439783222E+03 -0.48668143681E+03  0.55084556365E+03  0.12509562038E+03 0.  0.
          5    1    3    3  502    0  0.11107211686E+03  0.97237619530E+02 -0.39979194179E+03  0.42619624460E+03  0.41800000000E+01 0. -1.
         -5    1    3    3    0  502  0.88988355131E+02  0.71602126857E+01 -0.86889495020E+02  0.12464931905E+03  0.41800000000E+01 0. -1.
        -11    1    1    2    0    0 -0.45089791931E+02 -0.44227513370E+02 -0.30280567484E+03  0.30932254847E+03  0.00000000000E+00 0. -1.
         11    1    1    2    0    0 -0.15497068006E+03 -0.60170318846E+02 -0.35110649349E+03  0.38847412876E+03  0.00000000000E+00 0.  1.
</event>
<event>
 6    1  0.4966153E-006  0.1321360E+03  0.7561462E-02  0.1224320E+00
         -2   -1    0    0    0  501 -0.00000000000E+00  0.00000000000E+00  0.87102626704E+02  0.87102626704E+02  0.00000000000E+00 0.  1.
          2   -1    0    0  501    0  0.00000000000E+00 -0.00000000000E+00 -0.31260699496E+03  0.31260699496E+03  0.00000000000E+00 0. -1.
          5    1    1    2  502    0 -0.28676319232E+02 -0.99706954114E+02 -0.18821164633E+03  0.21495326049E+03  0.41800000000E+01 0. -1.
         -5    1    1    2    0  502  0.23477379248E+02 -0.14303151828E+01  0.25078256516E+02  0.34635595675E+02  0.41800000000E+01 0.  1.
        -11    1    1    2    0    0  0.29901709158E+02  0.10705112820E+03 -0.50529532884E+02  0.12209541331E+03  0.00000000000E+00 0.  1.
         11    1    1    2    0    0 -0.24702769174E+02 -0.59138589008E+01 -0.11841445561E+02  0.28025352182E+02  0.00000000000E+00 0. -1.
</event>
<event>
 7    1  0.4966153E-006  0.1717607E+03  0.7561462E-02  0.1176024E+00
          2   -1    0    0  501    0  0.00000000000E+00  0.00000000000E+00  0.10628066943E+04  0.10628066943E+04  0.00000000000E+00 0. -1.
         -2   -1    0    0    0  501 -0.00000000000E+00 -0.00000000000E+00 -0.29053306798E+02  0.29053306798E+02  0.00000000000E+00 0.  1.
         23    2    1    2    0    0 -0.77466771218E+01 -0.13759056622E+03  0.50709924577E+03  0.54017449579E+03  0.12509063086E+03 0.  0.
          5    1    3    3  502    0 -0.44585158899E+02 -0.92561128333E+01  0.20203634161E+03  0.20714648862E+03  0.41800000000E+01 0. -1.
         -5    1    3    3    0  502  0.36838481777E+02 -0.12833445339E+03  0.30506290416E+03  0.33302800717E+03  0.41800000000E+01 0. -1.
        -11    1    1    2    0    0  0.41239640245E+02  0.11891675497E+03  0.41089439236E+03  0.42973957720E+03  0.00000000000E+00 0.  1.
         11    1    1    2    0    0 -0.33492963124E+02  0.18673811252E+02  0.11575974941E+03  0.12194592813E+03  0.00000000000E+00 0. -1.
</event>
<event>
 7    1  0.4966153E-006  0.1085358E+03  0.7561462E-02  0.1263306E+00
          2   -1    0    0  501    0  0.00000000000E+00  0.00000000000E+00  0.31272706236E+03  0.31272706236E+03  0.00000000000E+00 0. -1.
         -2   -1    0    0    0  501 -0.00000000000E+00 -0.00000000000E+00 -0.48195759692E+02  0.48195759692E+02  0.00000000000E+00 0.  1.
         23    2    1    2    0    0  0.19836396519E+02  0.30276457174E+02  0.11101862246E+03  0.17111807298E+03  0.12508442701E+03 0.  0.
          5    1    3    3  502    0 -0.45390059111E+01  0.74641438885E+02  0.87405774462E+02  0.11510512058E+03  0.41800000000E+01 0.  1.
         -5    1    3    3    0  502  0.24375402430E+02 -0.44364981711E+02  0.23612848002E+02  0.56012952400E+02  0.41800000000E+01 0.  1.
        -11    1    1    2    0    0 -0.24636361405E+02 -0.58121471988E+02  0.14815805560E+03  0.16104615875E+03  0.00000000000E+00 0. -1.
         11    1    1    2    0    0  0.47999648858E+01  0.27845014814E+02  0.53546246050E+01  0.28758590326E+02  0.00000000000E+00 0.  1.
</event>
<event>
 7    1  0.4966153E-006  0.7962028E+02  0.7561462E-02  0.1330132E+00
          2   -1    0    0  501    0  0.00000000000E+00  0.00000000000E+00  0.45008435416E+03  0.45008435416E+03  0.00000000000E+00 0. -1.
         -2   -1    0    0    0  501 -0.00000000000E+00 -0.00000000000E+00 -0.35078672436E+02  0.35078672436E+02  0.00000000000E+00 0.  1.
         23    2    1    2    0    0 -0.23595494769E+02  0.50995725512E+02  0.17062546799E+03  0.21890007683E+03  0.12508749703E+03 0.  0.
          5    1    3    3  502    0  0.61135205667E+00 -0.58285206921E+01 -0.18526154554E+02  0.19875517788E+02  0.41800000000E+01 0.  1.
         -5    1    3    3    0  502 -0.24206846826E+02  0.56824246204E+02  0.18915162254E+03  0.19902455904E+03  0.41800000000E+01 0.  1.
        -11    1    1    2    0    0  0.22656635789E+02  0.13007669966E+02  0.19917382958E+02  0.32851556540E+02  0.00000000000E+00 0.  1.
         11    1    1    2    0    0  0.93885898024E+00 -0.64003395478E+02  0.22446283077E+03  0.23341139323E+03  0.00000000000E+00 0. -1.
</event>
<event>
 7    1  0.4966153E-006  0.9308238E+02  0.7561462E-02  0.1295554E+00
          1   -1    0    0  501    0  0.00000000000E+00  0.00000000000E+00  0.56903315371E+02  0.56903315371E+02  0.00000000000E+00 0. -1.
         -1   -1    0    0    0  501 -0.00000000000E+00 -0.00000000000E+00 -0.27193174892E+03  0.27193174892E+03  0.00000000000E+00 0.  1.
         23    2    1    2    0    0  0.32496272243E+01 -0.15270834617E+02 -0.18669542136E+03  0.22526723523E+03  0.12508552452E+03 0.  0.
          5    1    3    3  502    0  0.47201825124E+02 -0.45638596224E+02 -0.65897919914E+02  0.93117678285E+02  0.41800000000E+01 0.  1.
         -5    1    3    3    0  502 -0.43952197899E+02  0.30367761606E+02 -0.12079750144E+03  0.13214955694E+03  0.41800000000E+01 0.  1.
        -11    1    1    2    0    0  0.28955121770E+02 -0.40431550431E+01  0.24913526111E+02  0.38411325969E+02  0.00000000000E+00 0. -1.
         11    1    1    2    0    0 -0.32204748994E+02  0.19313989660E+02 -0.53246538306E+02  0.65156503098E+02  0.00000000000E+00 0.  1.
</event>
<event>
 7    1  0.4966153E-006  0.1132868E+03  0.7561462E-02  0.1254602E+00
          1   -1    0    0  501    0  0.00000000000E+00  0.00000000000E+00  0.66465809702E+02  0.66465809702E+02  0.00000000000E+00 0. -1.
         -1   -1    0    0    0  501 -0.00000000000E+00 -0.00000000000E+00 -0.35610280876E+03  0.35610280876E+03  0.00000000000E+00 0.  1.
         23    2    1    2    0    0  0.65993129782E+02  0.76743303375E+02 -0.20990049138E+03  0.26450647094E+03  0.12514323431E+03 0.  0.
          5    1    3    3  502    0 -0.13831597284E+01  0.18925578044E+02 -0.16272526804E+03  0.16388128598E+03  0.41800000000E+01 0. -1.
         -5    1    3    3    0  502  0.67376289510E+02  0.57817725331E+02 -0.47175223340E+02  0.10062518496E+03  0.41800000000E+01 0. -1.
        -11    1    1    2    0    0  0.76530706011E+01 -0.30166926855E+02 -0.61658734163E+02  0.69068172584E+02  0.00000000000E+00 0.  1.
         11    1    1    2    0    0 -0.73646200383E+02 -0.46576376520E+02 -0.18077773515E+02  0.88993974941E+02  0.00000000000E+00 0. -1.
</event>
<event>
 7    1  0.4966153E-006  0.1511290E+03  0.7561462E-02  0.1199093E+00
          1   -1    0    0  501    0  0.00000000000E+00  0.00000000000E+00  0.46304475449E+03  0.46304475449E+03  0.00000000000E+00 0. -1.
         -1   -1    0    0    0  501 -0.00000000000E+00 -0.00000000000E+00 -0.55318981466E+02  0.55318981466E+02  0.00000000000E+00 0.  1.
         23    2    1    2    0    0 -0.89136427211E+01  0.10869502227E+03  0.15489796365E+03  0.22701541087E+03  0.12509419146E+03 0.  0.
          5    1    3    3  502    0 -0.43200069537E+02 -0.68674436484E+01  0.28904065015E+02  0.52595866422E+02  0.41800000000E+01 0.  1.
         -5    1    3    3    0  502  0.34286426816E+02  0.11556246592E+03  0.12599389863E+03  0.17441954445E+03  0.41800000000E+01 0.  1.
        -11    1    1    2    0    0  0.44986424580E+02 -0.79290409151E+02  0.12066491144E+03  0.15123084418E+03  0.00000000000E+00 0.  1.
         11    1    1    2    0    0 -0.36072781858E+02 -0.29404613116E+02  0.13216289794E+03  0.14011748090E+03  0.00000000000E+00 0. -1.
</event>
<event>
 7    1  0.4966153E-006  0.6361180E+02  0.7561462E-02  0.1383271E+00
         -1   -1    0    0    0  501 -0.00000000000E+00  0.00000000000E+00  0.33126586962E+02  0.33126586962E+02  0.00000000000E+00 0.  1.
          1   -1    0    0  501    0  0.00000000000E+00 -0.00000000000E+00 -0.41484607960E+03  0.41484607960E+03  0.00000000000E+00 0. -1.
         23    2    1    2    0    0  0.31086354192E+02 -0.25514895102E+02 -0.18068022247E+03  0.22340418636E+03  0.12508683546E+03 0.  0.
          5    1    3    3  502    0  0.23546402713E+02  0.25453378138E+01  0.13118508202E+02  0.27394880594E+02  0.41800000000E+01 0.  1.
         -5    1    3    3    0  502  0.75399514787E+01 -0.28060232916E+02 -0.19379873067E+03  0.19600930577E+03  0.41800000000E+01 0.  1.
        -11    1    1    2    0    0  0.28667717146E+01 -0.18224292670E+02 -0.26996640142E+01  0.18644876217E+02  0.00000000000E+00 0.  1.
         11    1    1    2    0    0 -0.33953125907E+02  0.43739187772E+02 -0.19833960615E+03  0.20592360398E+03  0.00000000000E+00 0. -1.
</event>
<event>
 7    1  0.4966153E-006  0.2198856E+03  0.7561462E-02  0.1133968E+00
          2   -1    0    0  501    0  0.00000000000E+00  0.00000000000E+00  0.77875543177E+03  0.77875543177E+03  0.00000000000E+00 0. -1.
         -2   -1    0    0    0  501 -0.00000000000E+00 -0.00000000000E+00 -0.72264150907E+02  0.72264150907E+02  0.00000000000E+00 0.  1.
         23    2    1    2    0    0  0.29988093935E+01  0.20837411348E+03  0.31819716776E+03  0.40040744989E+03  0.12509166374E+03 0.  0.
          5    1    3    3  502    0 -0.32499861421E+02  0.11116022628E+03  0.25230571073E+03  0.27764812437E+03  0.41800000000E+01 0.  1.
         -5    1    3    3    0  502  0.35498670814E+02  0.97213887199E+02  0.65891457026E+02  0.12275932552E+03  0.41800000000E+01 0.  1.
        -11    1    1    2    0    0  0.27823863848E+02 -0.37620068265E+02  0.40279051094E+02  0.61740091454E+02  0.00000000000E+00 0.  1.
         11    1    1    2    0    0 -0.30822673241E+02 -0.17075404521E+03  0.34801506201E+03  0.38887204133E+03  0.00000000000E+00 0. -1.
</event>
<event>
 7    1  0.4966153E-006  0.1154483E+03  0.7561462E-02  0.1250801E+00
         -2   -1    0    0    0  501 -0.00000000000E+00  0.00000000000E+00  0.42105317843E+02  0.42105317843E+02  0.00000000000E+00 0. -1.
          2   -1    0    0  501    0  0.00000000000E+00 -0.00000000000E+00 -0.45403927619E+03  0.45403927619E+03  0.00000000000E+00 0.  1.
         23    2    1    2    0    0 -0.42685474872E+02  0.41011524631E+02 -0.11452271501E+03  0.17962730201E+03  0.12508605220E+03 0.  0.
          5    1    3    3  502    0 -0.58134322541E+02 -0.21891318440E+02 -0.20837578444E+02  0.65654446581E+02  0.41800000000E+01 0.  1.
         -5    1    3    3    0  502  0.15448847669E+02  0.62902843071E+02 -0.93685136569E+02  0.11397285543E+03  0.41800000000E+01 0.  1.
        -11    1    1    2    0    0  0.53768002811E+02  0.72116933897E+01 -0.20044053796E+03  0.20765215122E+03  0.00000000000E+00 0.  1.
         11    1    1    2    0    0 -0.11082527938E+02 -0.48223218020E+02 -0.96970705375E+02  0.10886514081E+03  0.00000000000E+00 0. -1.
</event>
<event>
 7    1  0.7388356E-006  0.1700787E+03  0.7561462E-02  0.1177766E+00
          2   -1    0    0  501    0  0.00000000000E+00  0.00000000000E+00  0.10380289150E+04  0.10380289150E+04  0.00000000000E+00 0. -1.
         -2   -1    0    0    0  501 -0.00000000000E+00 -0.00000000000E+00 -0.36112029349E+02  0.36112029349E+02  0.00000000000E+00 0.  1.
         23    2    1    2    0    0  0.12973705266E+03 -0.85870548669E+02  0.42909483221E+03  0.47326039450E+03  0.12509025548E+03 0.  0.
          5    1    3    3  502    0  0.56091189539E+02 -0.17010967235E+02  0.39489217506E+02  0.70798765875E+02  0.41800000000E+01 0. -1.
         -5    1    3    3    0  502  0.73645863119E+02 -0.68859581433E+02  0.38960561470E+03  0.40246162863E+03  0.41800000000E+01 0. -1.
        -11    1    1    2    0    0 -0.74838394495E+02 -0.42505287356E+01  0.20757125905E+03  0.22069136790E+03  0.00000000000E+00 0.  1.
         11    1    1    2    0    0 -0.54898658163E+02  0.90121077404E+02  0.36525079441E+03  0.38018918196E+03  0.00000000000E+00 0. -1.
</event>
<event>
 7    1  0.4966153E-006  0.7857897E+02  0.7561462E-02  0.1333133E+00
         -2   -1    0    0    0  501 -0.00000000000E+00  0.00000000000E+00  0.16148634285E+02  0.16148634285E+02  0.00000000000E+00 0. -1.
          2   -1    0    0  501    0  0.00000000000E+00 -0.00000000000E+00 -0.86617238150E+03  0.86617238150E+03  0.00000000000E+00 0.  1.
         23    2    1    2    0    0  0.16163479120E+02  0.44418837592E+02 -0.48141166650E+03  0.49964201285E+03  0.12510258662E+03 0.  0.
          5    1    3    3  502    0 -0.65467355956E+01  0.16528527480E+02 -0.14539997532E+01  0.18320438938E+02  0.41800000000E+01 0. -1.
         -5    1    3    3    0  502  0.22710214716E+02  0.27890310112E+02 -0.47995766674E+03  0.48132157391E+03  0.41800000000E+01 0. -1.
        -11    1    1    2    0    0 -0.72270741044E+01 -0.72683798842E+02 -0.27027032452E+03  0.27996645072E+03  0.00000000000E+00 0.  1.
         11    1    1    2    0    0 -0.89364050158E+01  0.28264961251E+02 -0.98341756199E+02  0.10271255221E+03  0.00000000000E+00 0. -1.
</event>
<event>
 6    1  0.4966153E-006  0.1272914E+03  0.7561462E-02  0.1231531E+00
         -1   -1    0    0    0  501 -0.00000000000E+00  0.00000000000E+00  0.63383669958E+03  0.63383669958E+03  0.00000000000E+00 0.  1.
          1   -1    0    0  501    0  0.00000000000E+00 -0.00000000000E+00 -0.33643382249E+02  0.33643382249E+02  0.00000000000E+00 0. -1.
          5    1    1    2  502    0  0.31867917424E+02 -0.61279152513E+02  0.33856333818E+03  0.34556230271E+03  0.41800000000E+01 0.  1.
         -5    1    1    2    0  502 -0.74720121074E+02  0.27507745551E+02  0.10313380295E+03  0.13036037078E+03  0.41800000000E+01 0. -1.
        -11    1    1    2    0    0  0.59589577764E+02 -0.84969011077E+01  0.10777324692E+03  0.12344305513E+03  0.00000000000E+00 0.  1.
         11    1    1    2    0    0 -0.16737374114E+02  0.42268308070E+02  0.50722929271E+02  0.68114353210E+02  0.00000000000E+00 0. -1.
</event>
<event>
 7    1  0.4966153E-006  0.1184631E+03  0.7561462E-02  0.1245654E+00
          2   -1    0    0  501    0  0.00000000000E+00  0.00000000000E+00  0.55781549391E+03  0.55781549391E+03  0.00000000000E+00 0.  1.
         -2   -1    0    0    0  501 -0.00000000000E+00 -0.00000000000E+00 -0.29785686021E+02  0.29785686021E+02  0.00000000000E+00 0. -1.
         23    2    1    2    0    0  0.44292680291E+02  0.50266235948E+02  0.25107996499E+03  0.28840841273E+03  0.12509887175E+03 0.  0.
          5    1    3    3  502    0 -0.28699479902E+02 -0.14255417220E+02  0.12449324074E+03  0.12861926938E+03  0.41800000000E+01 0.  1.
         -5    1    3    3    0  502  0.72992160193E+02  0.64521653167E+02  0.12658672425E+03  0.15978914335E+03  0.41800000000E+01 0.  1.
        -11    1    1    2    0    0  0.90627428976E+01 -0.52907639484E+02  0.90310512444E+02  0.10505874682E+03  0.00000000000E+00 0.  1.
         11    1    1    2    0    0 -0.53355423189E+02  0.26414035360E+01  0.18663933046E+03  0.19413402039E+03  0.00000000000E+00 0. -1.
</event>
<event>
 7    1  0.4966153E-006  0.1097461E+03  0.7561462E-02  0.1261041E+00
         -1   -1    0    0    0  501 -0.00000000000E+00  0.00000000000E+00  0.99685240211E+02  0.99685240211E+02  0.00000000000E+00 0.  1.
          1   -1    0    0  501    0  0.00000000000E+00 -0.00000000000E+00 -0.18156102254E+03  0.18156102254E+03  0.00000000000E+00 0. -1.
         23    2    1    2    0    0  0.16452623893E+02  0.31384170681E+02  0.24930545144E+02  0.13557086206E+03  0.12846116750E+03 0.  0.
          5    1    3    3  502    0  0.22707176052E+02 -0.41420345552E+02 -0.17994442568E+02  0.50720146227E+02  0.41800000000E+01 0. -1.
         -5    1    3    3    0  502 -0.62545521590E+01  0.72804516233E+02  0.42924987713E+02  0.84850715829E+02  0.41800000000E+01 0.  1.
        -11    1    1    2    0    0 -0.53207153356E+02 -0.46095346179E+01 -0.53236793467E+02  0.75408256552E+02  0.00000000000E+00 0.  1.
         11    1    1    2    0    0  0.36754529463E+02 -0.26774636063E+02 -0.53569534009E+02  0.70267144144E+02  0.00000000000E+00 0. -1.
</event>
<event>
 7    1  0.4966153E-006  0.1130574E+03  0.7561462E-02  0.1255011E+00
         -2   -1    0    0    0  501 -0.00000000000E+00  0.00000000000E+00  0.63078331737E+02  0.63078331737E+02  0.00000000000E+00 0.  1.
          2   -1    0    0  501    0  0.00000000000E+00 -0.00000000000E+00 -0.32320190926E+03  0.32320190926E+03  0.00000000000E+00 0. -1.
         23    2    1    2    0    0  0.84445820179E+02 -0.30617569046E+02 -0.11535085153E+03  0.19240493864E+03  0.12508121115E+03 0.  0.
          5    1    3    3  502    0 -0.14039478198E+02 -0.34436396249E+02  0.39169795411E+01  0.37626951291E+02  0.41800000000E+01 0. -1.
         -5    1    3    3    0  502  0.98485298377E+02  0.38188272038E+01 -0.11926783108E+03  0.15477798735E+03  0.41800000000E+01 0. -1.
        -11    1    1    2    0    0 -0.69919631466E+02  0.27821271387E+02 -0.15737574122E+03  0.17444168633E+03  0.00000000000E+00 0. -1.
         11    1    1    2    0    0 -0.14526188712E+02  0.27962976586E+01  0.12603015229E+02  0.19433616029E+02  0.00000000000E+00 0.  1.
</event>
<event>
 7    1  0.4966153E-006  0.1538755E+03  0.7561462E-02  0.1195790E+00
         -2   -1    0    0    0  501 -0.00000000000E+00  0.00000000000E+00  0.62605256005E+02  0.62605256005E+02  0.00000000000E+00 0. -1.
          2   -1    0    0  501    0  0.00000000000E+00 -0.00000000000E+00 -0.50076278589E+03  0.50076278589E+03  0.00000000000E+00 0.  1.
         23    2    1    2    0    0 -0.98251976841E+02 -0.47500382657E+02 -0.98535012548E+02  0.19304249835E+03  0.12508605105E+03 0.  0.
          5    1    3    3  502    0  0.79496560950E+01 -0.57433506926E+02 -0.45649441783E+02  0.73913115784E+02  0.41800000000E+01 0.  1.
         -5    1    3    3    0  502 -0.10620163294E+03  0.99331242691E+01 -0.52885570765E+02  0.11912938257E+03  0.41800000000E+01 0.  1.
        -11    1    1    2    0    0  0.18184876547E+02 -0.27629028359E+02 -0.12429756439E+03  0.12862323840E+03  0.00000000000E+00 0.  1.
         11    1    1    2    0    0  0.80067100295E+02  0.75129411016E+02 -0.21532495294E+03  0.24170230514E+03  0.00000000000E+00 0. -1.
</event>
<event>
 7    1  0.4966153E-006  0.7401106E+02  0.7561462E-02  0.1346961E+00
         -2   -1    0    0    0  501 -0.00000000000E+00  0.00000000000E+00  0.17533758909E+03  0.17533758909E+03  0.00000000000E+00 0.  1.
          2   -1    0    0  501    0  0.00000000000E+00 -0.00000000000E+00 -0.84226818609E+02  0.84226818609E+02  0.00000000000E+00 0. -1.
         23    2    1    2    0    0 -0.46285850224E+01 -0.31501084927E+02  0.96499579264E+02  0.16116572576E+03  0.12509388559E+03 0.  0.
          5    1    3    3  502    0  0.30691595347E+02 -0.17404588149E+02  0.11377081047E+03  0.11918961124E+03  0.41800000000E+01 0. -1.
         -5    1    3    3    0  502 -0.35320180369E+02 -0.14096496778E+02 -0.17271231204E+02  0.41976114518E+02  0.41800000000E+01 0. -1.
        -11    1    1    2    0    0 -0.24972111526E+02 -0.67489707476E+01  0.29145193333E+02  0.38969183397E+02  0.00000000000E+00 0.  1.
         11    1    1    2    0    0  0.29600696548E+02  0.38250055675E+02 -0.34534002113E+02  0.59429498544E+02  0.00000000000E+00 0. -1.
</event>
<event>
 7    1  0.4966153E-006  0.1164673E+03  0.7561462E-02  0.1249041E+00
          2   -1    0    0  501    0  0.00000000000E+00  0.00000000000E+00  0.13523572581E+03  0.13523572581E+03  0.00000000000E+00 0.  1.
         -2   -1    0    0    0  501 -0.00000000000E+00 -0.00000000000E+00 -0.10385449534E+03  0.10385449534E+03  0.00000000000E+00 0. -1.
         23    2    1    2    0    0 -0.11834641433E+02  0.40913828356E+02  0.92913976819E+01  0.13248840463E+03  0.12511133922E+03 0.  0.
          5    1    3    3  502    0 -0.21527740838E+01  0.84247131101E+02  0.19797373385E+02  0.86669613637E+02  0.41800000000E+01 0. -1.
         -5    1    3    3    0  502 -0.96818673492E+01 -0.43333302746E+02 -0.10505975703E+02  0.45818790989E+02  0.41800000000E+01 0. -1.
        -11    1    1    2    0    0  0.48313376843E+02 -0.46498748984E+02  0.18281737845E+02  0.69502071751E+02  0.00000000000E+00 0.  1.
         11    1    1    2    0    0 -0.36478735410E+02  0.55849206280E+01  0.38080949408E+01  0.37099744778E+02  0.00000000000E+00 0. -1.
</event>
<event>
 7    1  0.4966153E-006  0.9992902E+02  0.7561462E-02  0.1280445E+00
         -3   -1    0    0    0  501 -0.00000000000E+00  0.00000000000E+00  0.46365698245E+03  0.46365698245E+03  0.00000000000E+00 0.  1.
          3   -1    0    0  501    0  0.00000000000E+00 -0.00000000000E+00 -0.62709815759E+02  0.62709815759E+02  0.00000000000E+00 0. -1.
         23    2    1    2    0    0  0.28795109642E+02 -0.68274272435E+02  0.37933707945E+03  0.40624608967E+03  0.12509488762E+03 0.  0.
          5    1    3    3  502    0  0.32903448910E+02 -0.32978138142E+02  0.36453878968E+03  0.36752713658E+03  0.41800000000E+01 0.  1.
         -5    1    3    3    0  502 -0.41083392676E+01 -0.35296134293E+02  0.14798289771E+02  0.38718953082E+02  0.41800000000E+01 0.  1.
        -11    1    1    2    0    0 -0.54621251696E+02  0.72875625681E+02  0.10662991681E+02  0.91695350737E+02  0.00000000000E+00 0.  1.
         11    1    1    2    0    0  0.25826142054E+02 -0.46013532457E+01  0.10947095557E+02  0.28425357803E+02  0.00000000000E+00 0. -1.
</event>
<event>
 7    1  0.4966153E-006  0.1223643E+03  0.7561462E-02  0.1239247E+00
          2   -1    0    0  501    0  0.00000000000E+00  0.00000000000E+00  0.17984784410E+03  0.17984784410E+03  0.00000000000E+00 0.  1.
         -2   -1    0    0    0  501 -0.00000000000E+00 -0.00000000000E+00 -0.14336906993E+03  0.14336906993E+03  0.00000000000E+00 0. -1.
         23    2    1    2    0    0  0.30158463634E+02 -0.69739566959E+02 -0.71473666999E+02  0.16287760089E+03  0.12508991834E+03 0.  0.
          5    1    3    3  502    0  0.69988135706E+02 -0.12045103640E+02 -0.14875711357E+02  0.72678627186E+02  0.41800000000E+01 0. -1.
         -5    1    3    3    0  502 -0.39829672072E+02 -0.57694463319E+02 -0.56597955642E+02  0.90198973708E+02  0.41800000000E+01 0. -1.
        -11    1    1    2    0    0 -0.37735769898E+02  0.48731411651E+01  0.81374718840E+02  0.89830844930E+02  0.00000000000E+00 0.  1.
         11    1    1    2    0    0  0.75773062634E+01  0.64866425794E+02  0.26577722327E+02  0.70508468212E+02  0.00000000000E+00 0. -1.
</event>
<event>
 7    1  0.4966153E-006  0.7780493E+02  0.7561462E-02  0.1335399E+00
          2   -1    0    0  501    0  0.00000000000E+00  0.00000000000E+00  0.21281437356E+03  0.21281437356E+03  0.00000000000E+00 0.  1.
         -2   -1    0    0    0  501 -0.00000000000E+00 -0.00000000000E+00 -0.66850813345E+02  0.66850813345E+02  0.00000000000E+00 0. -1.
         23    2    1    2    0    0 -0.39629103071E+02 -0.12504786049E+02  0.55146399918E+02  0.14292005753E+03  0.12513265735E+03 0.  0.
          5    1    3    3  502    0 -0.14800082205E+02  0.23416757062E+02  0.85238112697E+02  0.89723994565E+02  0.41800000000E+01 0. -1.
         -5    1    3    3    0  502 -0.24829020866E+02 -0.35921543111E+02 -0.30091712779E+02  0.53196062961E+02  0.41800000000E+01 0. -1.
        -11    1    1    2    0    0 -0.19936813765E+02 -0.68740828090E+01 -0.55522866275E+01  0.21807279619E+02  0.00000000000E+00 0. -1.
         11    1    1    2    0    0  0.59565916836E+02  0.19378868858E+02  0.96369446921E+02  0.11493784976E+03  0.00000000000E+00 0.  1.
</event>
<event>
 7    1  0.4966153E-006  0.8621498E+02  0.7561462E-02  0.1312285E+00
          1   -1    0    0  501    0  0.00000000000E+00  0.00000000000E+00  0.29385848056E+03  0.29385848056E+03  0.00000000000E+00 0. -1.
         -1   -1    0    0    0  501 -0.00000000000E+00 -0.00000000000E+00 -0.51800599635E+02  0.51800599635E+02  0.00000000000E+00 0.  1.
         23    2    1    2    0    0  0.46021044312E+02 -0.27804750202E+02  0.99724368714E+02  0.16876841349E+03  0.12508711773E+03 0.  0.
          5    1    3    3  502    0  0.24858547444E+02  0.22801236266E+02  0.10792312301E+03  0.11314909030E+03  0.41800000000E+01 0.  1.
         -5    1    3    3    0  502  0.21162496868E+02 -0.50605986468E+02 -0.81987542917E+01  0.55619323189E+02  0.41800000000E+01 0.  1.
        -11    1    1    2    0    0  0.16256828269E+02  0.76793737379E+01 -0.23116567930E+01  0.18127355116E+02  0.00000000000E+00 0.  1.
         11    1    1    2    0    0 -0.62277872581E+02  0.20125376465E+02  0.14464516901E+03  0.15876331159E+03  0.00000000000E+00 0. -1.
</event>
<event>
 7    1  0.4966153E-006  0.1043280E+03  0.7561462E-02  0.1271449E+00
         -1   -1    0    0    0  501 -0.00000000000E+00  0.00000000000E+00  0.49682444738E+02  0.49682444738E+02  0.00000000000E+00 0.  1.
          1   -1    0    0  501    0  0.00000000000E+00 -0.00000000000E+00 -0.31257386280E+03  0.31257386280E+03  0.00000000000E+00 0. -1.
         23    2    1    2    0    0 -0.40720931077E+02 -0.39000002514E+02 -0.11217305272E+03  0.17722717345E+03  0.12508989898E+03 0.  0.
          5    1    3    3  502    0  0.99353371611E+01  0.20846297907E+02  0.14939159445E+02  0.27819596436E+02  0.41800000000E+01 0.  1.
         -5    1    3    3    0  502 -0.50656268239E+02 -0.59846300421E+02 -0.12711221217E+03  0.14940757701E+03  0.41800000000E+01 0.  1.
        -11    1    1    2    0    0  0.99830856294E+00 -0.28409463577E+02 -0.49674024384E+02  0.57232883374E+02  0.00000000000E+00 0.  1.
         11    1    1    2    0    0  0.39722622514E+02  0.67409466091E+02 -0.10104434095E+03  0.12779625072E+03  0.00000000000E+00 0. -1.
</event>
<event>
 7    1  0.4966153E-006  0.1029656E+03  0.7561462E-02  0.1274180E+00
          1   -1    0    0  501    0  0.00000000000E+00  0.00000000000E+00  0.88583992010E+02  0.88583992010E+02  0.00000000000E+00 0. -1.
         -1   -1    0    0    0  501 -0.00000000000E+00 -0.00000000000E+00 -0.20416463972E+03  0.20416463972E+03  0.00000000000E+00 0.  1.
         23    2    1    2    0    0 -0.74965521878E+02 -0.13280159870E+02 -0.10713647338E+03  0.17375659280E+03  0.11365270562E+03 0.  0.
          5    1    3    3  502    0 -0.48384145751E+01  0.24906922505E+02  0.13487678687E+02  0.29037130034E+02  0.41800000000E+01 0. -1.
         -5    1    3    3    0  502 -0.70127107303E+02 -0.38187082375E+02 -0.12062415207E+03  0.14471946276E+03  0.41800000000E+01 0.  1.
        -11    1    1    2    0    0  0.86081159218E+02  0.18389299817E+02  0.18009169052E+02  0.89846883585E+02  0.00000000000E+00 0. -1.
         11    1    1    2    0    0 -0.11115637339E+02 -0.51091399462E+01 -0.26453343375E+02  0.29145155347E+02  0.00000000000E+00 0.  1.
</event>
<event>
 7    1  0.4966153E-006  0.2541654E+03  0.7561462E-02  0.1110700E+00
          1   -1    0    0  501    0  0.00000000000E+00  0.00000000000E+00  0.85442310264E+03  0.85442310264E+03  0.00000000000E+00 0. -1.
         -1   -1    0    0    0  501 -0.00000000000E+00 -0.00000000000E+00 -0.16176776600E+03  0.16176776600E+03  0.00000000000E+00 0.  1.
         23    2    1    2    0    0 -0.23902045311E+03  0.75952540273E+02  0.67457812371E+01  0.28034247290E+03  0.12508729418E+03 0.  0.
          5    1    3    3  502    0 -0.96606935842E+02  0.59521945548E+02 -0.52587437969E+02  0.12513461986E+03  0.41800000000E+01 0.  1.
         -5    1    3    3    0  502 -0.14241351727E+03  0.16430594726E+02  0.59333219206E+02  0.15520785304E+03  0.41800000000E+01 0.  1.
        -11    1    1    2    0    0  0.67943991834E+02 -0.29648454133E+02  0.10519893220E+03  0.12869433629E+03  0.00000000000E+00 0.  1.
         11    1    1    2    0    0  0.17107646128E+03 -0.46304086141E+02  0.58071062320E+03  0.60715405944E+03  0.00000000000E+00 0. -1.
</event>
<event>
 7    1  0.4966153E-006  0.6934120E+02  0.7561462E-02  0.1362348E+00
         -4   -1    0    0    0  501 -0.00000000000E+00  0.00000000000E+00  0.11588401979E+03  0.11588401979E+03  0.00000000000E+00 0. -1.
          4   -1    0    0  501    0  0.00000000000E+00 -0.00000000000E+00 -0.12640650257E+03  0.12640650257E+03  0.00000000000E+00 0.  1.
         23    2    1    2    0    0  0.18045081804E+02  0.46910392378E+02  0.81092174432E+01  0.13505336801E+03  0.12508973944E+03 0.  0.
          5    1    3    3  502    0  0.40299290607E+00  0.61579194042E+02  0.55007280770E+02  0.82676676759E+02  0.41800000000E+01 0.  1.
         -5    1    3    3    0  502  0.17642088898E+02 -0.14668801665E+02 -0.46898063327E+02  0.52376691254E+02  0.41800000000E+01 0.  1.
        -11    1    1    2    0    0 -0.14629481398E+02 -0.13042912925E+02  0.37084819122E+02  0.41945477860E+02  0.00000000000E+00 0. -1.
         11    1    1    2    0    0 -0.34156004059E+01 -0.33867479452E+02 -0.55716519348E+02  0.65291676490E+02  0.00000000000E+00 0.  1.
</event>
<event>
 7    1  0.4966153E-006  0.1131824E+03  0.7561462E-02  0.1254788E+00
         -2   -1    0    0    0  501 -0.00000000000E+00  0.00000000000E+00  0.14645783285E+02  0.14645783285E+02  0.00000000000E+00 0.  1.
          2   -1    0    0  501    0  0.00000000000E+00 -0.00000000000E+00 -0.94098906296E+03  0.94098906296E+03  0.00000000000E+00 0. -1.
         23    2    1    2    0    0  0.13185821678E+02  0.33289167958E+02 -0.63094480802E+03  0.64422210723E+03  0.12509491626E+03 0.  0.
          5    1    3    3  502    0  0.60572845873E+02  0.48654400429E+02 -0.32253623267E+03  0.33178820672E+03  0.41800000000E+01 0.  1.
         -5    1    3    3    0  502 -0.47387024196E+02 -0.15365232472E+02 -0.30840857536E+03  0.31243390050E+03  0.41800000000E+01 0.  1.
        -11    1    1    2    0    0  0.14693098178E+02 -0.58903518395E+02 -0.18412278822E+03  0.19387292940E+03  0.00000000000E+00 0.  1.
         11    1    1    2    0    0 -0.27878919856E+02  0.25614350438E+02 -0.11127568343E+03  0.11753980961E+03  0.00000000000E+00 0. -1.
</event>
<event>
 7    1  0.4966153E-006  0.1314183E+03  0.7561462E-02  0.1225366E+00
          1   -1    0    0  501    0  0.00000000000E+00  0.00000000000E+00  0.49298378897E+03  0.49298378897E+03  0.00000000000E+00 0.  1.
         -1   -1    0    0    0  501 -0.00000000000E+00 -0.00000000000E+00 -0.51684378901E+02  0.51684378901E+02  0.00000000000E+00 0. -1.
         23    2    1    2    0    0 -0.12578950558E+02 -0.82091862602E+02  0.95441972686E+02  0.17791852550E+03  0.12509407525E+03 0.  0.
          5    1    3    3  502    0 -0.60072142238E+02 -0.13616226864E+02  0.63527184584E+02  0.88584645894E+02  0.41800000000E+01 0. -1.
         -5    1    3    3    0  502  0.47493191680E+02 -0.68475635738E+02  0.31914788103E+02  0.89333879605E+02  0.41800000000E+01 0. -1.
        -11    1    1    2    0    0  0.21807264014E+02 -0.10783514242E+02  0.11866852148E+03  0.12113653013E+03  0.00000000000E+00 0.  1.
         11    1    1    2    0    0 -0.92283134555E+01  0.92875376844E+02  0.22718891591E+03  0.24561311224E+03  0.00000000000E+00 0. -1.
</event>
<event>
 7    1  0.4966153E-006  0.9227126E+02  0.7561462E-02  0.1297443E+00
          2   -1    0    0  501    0  0.00000000000E+00  0.00000000000E+00  0.24506709451E+02  0.24506709451E+02  0.00000000000E+00 0. -1.
         -2   -1    0    0    0  501 -0.00000000000E+00 -0.00000000000E+00 -0.86407252764E+03  0.86407252764E+03  0.00000000000E+00 0.  1.
         23    2    1    2    0    0  0.60833693633E+01 -0.47286282937E+02 -0.71139877354E+03  0.72390522658E+03  0.12521007202E+03 0.  0.
          5    1    3    3  502    0  0.25391554590E+02 -0.84049512199E+02 -0.56011142311E+03  0.56696678054E+03  0.41800000000E+01 0.  1.
         -5    1    3    3    0  502 -0.19308185226E+02  0.36763229262E+02 -0.15128735043E+03  0.15693844603E+03  0.41800000000E+01 0.  1.
        -11    1    1    2    0    0 -0.16484040604E+02  0.21424918275E+02 -0.13357235981E+03  0.13628032148E+03  0.00000000000E+00 0.  1.
         11    1    1    2    0    0  0.10400671241E+02  0.25861364662E+02  0.54053151684E+01  0.28393689026E+02  0.00000000000E+00 0. -1.
</event>
<event>
 7    1  0.4966153E-006  0.9637103E+02  0.7561462E-02  0.1288118E+00
          2   -1    0    0  501    0  0.00000000000E+00  0.00000000000E+00  0.15798924387E+03  0.15798924387E+03  0.00000000000E+00 0. -1.
         -2   -1    0    0    0  501 -0.00000000000E+00 -0.00000000000E+00 -0.10711112640E+03  0.10711112640E+03  0.00000000000E+00 0.  1.
         23    2    1    2    0    0  0.26049961969E+02  0.18102895457E+02 -0.25272210910E+02  0.13151194921E+03  0.12510152996E+03 0.  0.
          5    1    3    3  502    0  0.17571000128E+01 -0.29549614494E+02  0.38132596933E+02  0.48454457649E+02  0.41800000000E+01 0. -1.
         -5    1    3    3    0  502  0.24292861956E+02  0.47652509951E+02 -0.63404807843E+02  0.83057491560E+02  0.41800000000E+01 0. -1.
        -11    1    1    2    0    0  0.10615616865E+02  0.39506778146E+02  0.35167352390E+02  0.53946450439E+02  0.00000000000E+00 0. -1.
         11    1    1    2    0    0 -0.36665578834E+02 -0.57609673604E+02  0.40982975990E+02  0.79641970624E+02  0.00000000000E+00 0.  1.
</event>
<event>
 7    1  0.4966153E-006  0.1198589E+03  0.7561462E-02  0.1243330E+00
          1   -1    0    0  501    0  0.00000000000E+00  0.00000000000E+00  0.15872764204E+03  0.15872764204E+03  0.00000000000E+00 0. -1.
         -1   -1    0    0    0  501 -0.00000000000E+00 -0.00000000000E+00 -0.98312734772E+02  0.98312734772E+02  0.00000000000E+00 0.  1.
         23    2    1    2    0    0  0.51250095708E+02  0.23943341463E+02  0.28456885664E+02  0.14020339915E+03  0.12508933960E+03 0.  0.
          5    1    3    3  502    0 -0.27559782560E+02  0.47193330558E+02  0.76785403832E+01  0.55346042734E+02  0.41800000000E+01 0. -1.
         -5    1    3    3    0  502  0.78809878267E+02 -0.23249989095E+02  0.20778345281E+02  0.84857356417E+02  0.41800000000E+01 0. -1.
        -11    1    1    2    0    0  0.24101805345E+02 -0.21751693429E+01  0.29780944027E+02  0.38373597820E+02  0.00000000000E+00 0. -1.
         11    1    1    2    0    0 -0.75351901052E+02 -0.21768172120E+02  0.21770775802E+01  0.78463379843E+02  0.00000000000E+00 0.  1.
</event>
<event>
 7    1  0.4966153E-006  0.1136048E+03  0.7561462E-02  0.1254036E+00
         -1   -1    0    0    0  501 -0.00000000000E+00  0.00000000000E+00  0.29315690602E+03  0.29315690602E+03  0.00000000000E+00 0.  1.
          1   -1    0    0  501    0  0.00000000000E+00 -0.00000000000E+00 -0.11783049230E+03  0.11783049230E+03  0.00000000000E+00 0. -1.
         23    2    1    2    0    0  0.34990286865E+02 -0.97418225304E+02  0.21191532443E+03  0.26695862814E+03  0.12507667095E+03 0.  0.
          5    1    3    3  502    0  0.34233837946E+02 -0.71089472677E+02  0.32277765015E+02  0.85352183923E+02  0.41800000000E+01 0. -1.
         -5    1    3    3    0  502  0.75644891933E+00 -0.26328752627E+02  0.17963755941E+03  0.18160644422E+03  0.41800000000E+01 0. -1.
        -11    1    1    2    0    0 -0.44615668475E+02  0.10165156986E+03 -0.54311352399E+01  0.11114448595E+03  0.00000000000E+00 0.  1.
         11    1    1    2    0    0  0.96253816093E+01 -0.42333445528E+01 -0.31157775465E+02  0.32884284228E+02  0.00000000000E+00 0. -1.
</event>
<event>
 7    1  0.4966153E-006  0.1197382E+03  0.7561462E-02  0.1243530E+00
         -2   -1    0    0    0  501 -0.00000000000E+00  0.00000000000E+00  0.37268092678E+03  0.37268092678E+03  0.00000000000E+00 0.  1.
          2   -1    0    0  501    0  0.00000000000E+00 -0.00000000000E+00 -0.63516870789E+02  0.63516870789E+02  0.00000000000E+00 0. -1.
         23    2    1    2    0    0 -0.10806790831E+02  0.84099661309E+02  0.26058347924E+03  0.30123275268E+03  0.12509149401E+03 0.  0.
          5    1    3    3  502    0  0.33646283368E+02  0.93066928258E+02  0.21538990594E+03  0.23707342639E+03  0.41800000000E+01 0.  1.
         -5    1    3    3    0  502 -0.44453074199E+02 -0.89672669489E+01  0.45193573297E+02  0.64159326287E+02  0.41800000000E+01 0.  1.
        -11    1    1    2    0    0 -0.14118292551E+02 -0.53949227912E+02 -0.17263376716E+02  0.58376960802E+02  0.00000000000E+00 0. -1.
         11    1    1    2    0    0  0.24925083382E+02 -0.30150433397E+02  0.65843953467E+02  0.76588084085E+02  0.00000000000E+00 0.  1.
</event>
<event>
 7    1  0.4966153E-006  0.8951389E+02  0.7561462E-02  0.1304033E+00
         -1   -1    0    0    0  501 -0.00000000000E+00  0.00000000000E+00  0.73960015644E+03  0.73960015644E+03  0.00000000000E+00 0.  1.
          1   -1    0    0  501    0  0.00000000000E+00 -0.00000000000E+00 -0.34564335879E+02  0.34564335879E+02  0.00000000000E+00 0. -1.
         23    2    1    2    0    0 -0.27271733258E+02 -0.58264984190E+02  0.61240433056E+03  0.62835161020E+03  0.12509247034E+03 0.  0.
          5    1    3    3  502    0 -0.19032582672E+02 -0.21920923659E+02  0.57373945220E+03  0.57448864002E+03  0.41800000000E+01 0. -1.
         -5    1    3    3    0  502 -0.82391505855E+01 -0.36344060532E+02  0.38664878356E+02  0.53862970179E+02  0.41800000000E+01 0. -1.
        -11    1    1    2    0    0  0.49064196546E+02 -0.97803048934E+00  0.34382863116E+02  0.59920223651E+02  0.00000000000E+00 0. -1.
         11    1    1    2    0    0 -0.21792463288E+02  0.59243014680E+02  0.58248626885E+02  0.85892658467E+02  0.00000000000E+00 0.  1.
</event>
<event>
 7    1  0.4966153E-006  0.1009811E+03  0.7561462E-02  0.1278246E+00
         -3   -1    0    0    0  501 -0.00000000000E+00  0.00000000000E+00  0.32453922617E+03  0.32453922617E+03  0.00000000000E+00 0.  1.
          3   -1    0    0  501    0  0.00000000000E+00 -0.00000000000E+00 -0.55308894910E+02  0.55308894910E+02  0.00000000000E+00 0. -1.
         23    2    1    2    0    0 -0.46997634805E+02  0.58124600027E+02  0.17852596227E+03  0.23044740233E+03  0.12508892529E+03 0.  0.
          5    1    3    3  502    0 -0.65551899474E+02 -0.38834069043E+00  0.14766359644E+03  0.16161439430E+03  0.41800000000E+01 0.  1.
         -5    1    3    3    0  502  0.18554264669E+02  0.58512940717E+02  0.30862365830E+02  0.68833008022E+02  0.41800000000E+01 0.  1.
        -11    1    1    2    0    0  0.31419643171E+02 -0.39233162612E+02 -0.50953554804E+01  0.50521259614E+02  0.00000000000E+00 0. -1.
         11    1    1    2    0    0  0.15577991634E+02 -0.18891437415E+02  0.95799724473E+02  0.98879459142E+02  0.00000000000E+00 0.  1.
</event>
<event>
 7    1  0.4966153E-006  0.1144498E+03  0.7561462E-02  0.1252545E+00
          1   -1    0    0  501    0  0.00000000000E+00  0.00000000000E+00  0.39546595784E+03  0.39546595784E+03  0.00000000000E+00 0. -1.
         -1   -1    0    0    0  501 -0.00000000000E+00 -0.00000000000E+00 -0.89584289459E+02  0.89584289459E+02  0.00000000000E+00 0.  1.
         23    2    1    2    0    0 -0.51749721526E+00 -0.70273380172E+02 -0.15209944511E+02  0.14368276824E+03  0.12439766764E+03 0.  0.
          5    1    3    3  502    0  0.40797059061E+01  0.23106120131E+02  0.31167626134E+02  0.39235571955E+02  0.41800000000E+01 0. -1.
         -5    1    3    3    0  502 -0.45972031214E+01 -0.93379500303E+02 -0.46377570645E+02  0.10444719629E+03  0.41800000000E+01 0.  1.
        -11    1    1    2    0    0  0.43356091326E+02  0.40338020827E+02  0.12323630674E+03  0.13672634669E+03  0.00000000000E+00 0. -1.
         11    1    1    2    0    0 -0.42838594111E+02  0.29935359345E+02  0.19785530615E+03  0.20464113237E+03  0.00000000000E+00 0.  1.
</event>
<event>
 7    1  0.4966153E-006  0.3266910E+03  0.7561462E-02  0.1072610E+00
         -1   -1    0    0    0  501 -0.00000000000E+00  0.00000000000E+00  0.11050734563E+03  0.11050734563E+03  0.00000000000E+00 0.  1.
          1   -1    0    0  501    0  0.00000000000E+00 -0.00000000000E+00 -0.98630248376E+03  0.98630248376E+03  0.00000000000E+00 0. -1.
         23    2    1    2    0    0  0.27152248194E+03 -0.14509079633E+03 -0.36853271415E+03  0.49622537685E+03  0.12508983115E+03 0.  0.
          5    1    3    3  502    0  0.84663516387E+02  0.14597611710E+02 -0.10710683339E+03  0.13736938318E+03  0.41800000000E+01 0.  1.
         -5    1    3    3    0  502  0.18685896555E+03 -0.15968840804E+03 -0.26142588075E+03  0.35885599368E+03  0.41800000000E+01 0.  1.
        -11    1    1    2    0    0 -0.33047247302E+02  0.59691469808E+02 -0.10647289798E+03  0.12645817540E+03  0.00000000000E+00 0.  1.
         11    1    1    2    0    0 -0.23847523464E+03  0.85399326524E+02 -0.40078952601E+03  0.47412627713E+03  0.00000000000E+00 0. -1.
</event>
<event>
 6    1  0.4966153E-006  0.1187110E+03  0.7561462E-02  0.1245239E+00
          1   -1    0    0  501    0  0.00000000000E+00  0.00000000000E+00  0.83057515454E+02  0.83057515454E+02  0.00000000000E+00 0. -1.
         -1   -1    0    0    0  501 -0.00000000000E+00 -0.00000000000E+00 -0.22423947213E+03  0.22423947213E+03  0.00000000000E+00 0.  1.
          5    1    1    2  502    0 -0.25103798829E+02  0.40092251129E+02 -0.25598587976E+02  0.53947654469E+02  0.41800000000E+01 0. -1.
         -5    1    1    2    0  502  0.88762566245E+02 -0.55672341583E+02 -0.24572137686E+02  0.10770081306E+03  0.41800000000E+01 0.  1.
        -11    1    1    2    0    0 -0.48914886740E+02  0.35393676565E+02 -0.10307692827E+02  0.61250526667E+02  0.00000000000E+00 0. -1.
         11    1    1    2    0    0 -0.14743880675E+02 -0.19813586111E+02 -0.80703538190E+02  0.84397993390E+02  0.00000000000E+00 0.  1.
</event>
<event>
 7    1  0.4966153E-006  0.8307721E+02  0.7561462E-02  0.1320539E+00
          1   -1    0    0  501    0  0.00000000000E+00  0.00000000000E+00  0.13752449125E+03  0.13752449125E+03  0.00000000000E+00 0. -1.
         -1   -1    0    0    0  501 -0.00000000000E+00 -0.00000000000E+00 -0.10651770055E+03  0.10651770055E+03  0.00000000000E+00 0.  1.
         23    2    1    2    0    0 -0.16814744511E+02 -0.43870423563E+02 -0.14438470479E+02  0.13440327104E+03  0.12509364548E+03 0.  0.
          5    1    3    3  502    0  0.36059826411E+02 -0.16381700241E+02  0.37901281551E+02  0.54978638823E+02  0.41800000000E+01 0.  1.
         -5    1    3    3    0  502 -0.52874570922E+02 -0.27488723322E+02 -0.52339752030E+02  0.79424632216E+02  0.41800000000E+01 0.  1.
        -11    1    1    2    0    0  0.33183864651E+02  0.24622111684E+02 -0.15130971744E+02  0.44004131203E+02  0.00000000000E+00 0.  1.
         11    1    1    2    0    0 -0.16369120141E+02  0.19248311879E+02  0.60576232925E+02  0.65634789554E+02  0.00000000000E+00 0. -1.
</event>
<event>
 7    1  0.4966153E-006  0.7797269E+02  0.7561462E-02  0.1334905E+00
         -3   -1    0    0    0  501 -0.00000000000E+00  0.00000000000E+00  0.67685124262E+02  0.67685124262E+02  0.00000000000E+00 0.  1.
          3   -1    0    0  501    0  0.00000000000E+00 -0.00000000000E+00 -0.22979744064E+03  0.22979744064E+03  0.00000000000E+00 0. -1.
         23    2    1    2    0    0 -0.41606360418E+02 -0.29249248461E+02 -0.50653155974E+02  0.14421997128E+03  0.12508816947E+03 0.  0.
          5    1    3    3  502    0 -0.14618791921E+02 -0.37173005690E+02 -0.88321169347E+02  0.97023928926E+02  0.41800000000E+01 0.  1.
         -5    1    3    3    0  502 -0.26987568496E+02  0.79237572294E+01  0.37668013374E+02  0.47196042350E+02  0.41800000000E+01 0.  1.
        -11    1    1    2    0    0  0.83309505267E+01 -0.23526060878E+02 -0.79173723991E+02  0.83014208710E+02  0.00000000000E+00 0. -1.
         11    1    1    2    0    0  0.33275409891E+02  0.52775309339E+02 -0.32285436417E+02  0.70248384920E+02  0.00000000000E+00 0.  1.
</event>
<event>
 7    1  0.4966153E-006  0.1830875E+03  0.7561462E-02  0.1164848E+00
         -1   -1    0    0    0  501 -0.00000000000E+00  0.00000000000E+00  0.16930882090E+04  0.16930882090E+04  0.00000000000E+00 0.  1.
          1   -1    0    0  501    0  0.00000000000E+00 -0.00000000000E+00 -0.23074075943E+02  0.23074075943E+02  0.00000000000E+00 0. -1.
         23    2    1    2    0    0 -0.61365196383E+02 -0.15240339512E+03  0.93250969481E+03  0.95509709389E+03  0.12507456043E+03 0.  0.
          5    1    3    3  502    0  0.85677441826E+01 -0.82123958443E+02  0.20808806675E+03  0.22391039886E+03  0.41800000000E+01 0.  1.
         -5    1    3    3    0  502 -0.69932940566E+02 -0.70279436680E+02  0.72442162805E+03  0.73118669503E+03  0.41800000000E+01 0.  1.
        -11    1    1    2    0    0  0.75823684857E+02  0.79183454865E+02  0.36290711844E+03  0.37910529847E+03  0.00000000000E+00 0. -1.
         11    1    1    2    0    0 -0.14458488474E+02  0.73219940258E+02  0.37459731981E+03  0.38195989260E+03  0.00000000000E+00 0.  1.
</event>
<event>
 7    1  0.4966153E-006  0.1192909E+03  0.7561462E-02  0.1244271E+00
         -1   -1    0    0    0  501 -0.00000000000E+00  0.00000000000E+00  0.47361872887E+02  0.47361872887E+02  0.00000000000E+00 0.  1.
          1   -1    0    0  501    0  0.00000000000E+00 -0.00000000000E+00 -0.46191922962E+03  0.46191922962E+03  0.00000000000E+00 0. -1.
         23    2    1    2    0    0  0.36510030468E+02 -0.93804686843E+02 -0.21550942433E+03  0.26874369444E+03  0.12508620918E+03 0.  0.
          5    1    3    3  502    0  0.10834510803E+02  0.33214806130E+01 -0.14601971536E+03  0.14651842386E+03  0.41800000000E+01 0.  1.
         -5    1    3    3    0  502  0.25675519665E+02 -0.97126167456E+02 -0.69489708971E+02  0.12222527058E+03  0.41800000000E+01 0.  1.
        -11    1    1    2    0    0 -0.46449981925E+02  0.18504243346E+02 -0.39104767760E+02  0.63475906486E+02  0.00000000000E+00 0.  1.
         11    1    1    2    0    0  0.99399514564E+01  0.75300443497E+02 -0.15994316464E+03  0.17706150158E+03  0.00000000000E+00 0. -1.
</event>
<event>
 7    1  0.4966153E-006  0.8400773E+02  0.7561462E-02  0.1318048E+00
         -2   -1    0    0    0  501 -0.00000000000E+00  0.00000000000E+00  0.35896030535E+02  0.35896030535E+02  0.00000000000E+00 0.  1.
          2   -1    0    0  501    0  0.00000000000E+00 -0.00000000000E+00 -0.34670406556E+03  0.34670406556E+03  0.00000000000E+00 0. -1.
         23    2    1    2    0    0 -0.96928780247E+01 -0.15045385974E+02 -0.14178420857E+03  0.18992114635E+03  0.12508782718E+03 0.  0.
          5    1    3    3  502    0 -0.10471479542E+02 -0.50398796076E+02 -0.14523708659E+03  0.15414595114E+03  0.41800000000E+01 0.  1.
         -5    1    3    3    0  502  0.77860151708E+00  0.35353410103E+02  0.34528780243E+01  0.35775195218E+02  0.41800000000E+01 0.  1.
        -11    1    1    2    0    0  0.66009595689E+01  0.47603055156E+02 -0.14307544633E+03  0.15093113287E+03  0.00000000000E+00 0. -1.
         11    1    1    2    0    0  0.30919184558E+01 -0.32557669183E+02 -0.25948380130E+02  0.41747816873E+02  0.00000000000E+00 0.  1.
</event>
<event>
 7    1  0.4966153E-006  0.1073873E+03  0.7561462E-02  0.1265486E+00
         -2   -1    0    0    0  501 -0.00000000000E+00  0.00000000000E+00  0.47170816006E+02  0.47170816006E+02  0.00000000000E+00 0.  1.
          2   -1    0    0  501    0  0.00000000000E+00 -0.00000000000E+00 -0.32721781620E+03  0.32721781620E+03  0.00000000000E+00 0. -1.
         23    2    1    2    0    0  0.52885659881E+02 -0.24108239892E+02 -0.12079403030E+03  0.17952858302E+03  0.11942032537E+03 0.  0.
          5    1    3    3  502    0 -0.16373535481E+02 -0.29059802835E+02 -0.10211037124E+03  0.10750146567E+03  0.41800000000E+01 0. -1.
         -5    1    3    3    0  502  0.69259195362E+02  0.49515629428E+01 -0.18683659059E+02  0.72027117348E+02  0.41800000000E+01 0.  1.
        -11    1    1    2    0    0 -0.42297126670E+02  0.60430663388E+02 -0.11518357863E+03  0.13677780810E+03  0.00000000000E+00 0.  1.
         11    1    1    2    0    0 -0.10588533210E+02 -0.36322423495E+02 -0.44069391256E+02  0.58082241088E+02  0.00000000000E+00 0. -1.
</event>
<event>
 6    1  0.4966153E-006  0.1108771E+03  0.7561462E-02  0.1258954E+00
         -2   -1    0    0    0  501 -0.00000000000E+00  0.00000000000E+00  0.47364113993E+02  0.47364113993E+02  0.00000000000E+00 0.  1.
          2   -1    0    0  501    0  0.00000000000E+00 -0.00000000000E+00 -0.29510719561E+03  0.29510719561E+03  0.00000000000E+00 0. -1.
          5    1    1    2  502    0  0.72298701118E+02 -0.17553090491E+02 -0.41630639853E+02  0.85356872856E+02  0.41800000000E+01 0. -1.
         -5    1    1    2    0  502 -0.49341325832E+02  0.23880814228E+02 -0.82790593160E+02  0.99381157363E+02  0.41800000000E+01 0.  1.
        -11    1    1    2    0    0 -0.45689334992E+02 -0.33632534950E+02 -0.10079577695E+03  0.11566525576E+03  0.00000000000E+00 0.  1.
         11    1    1    2    0    0  0.22731959706E+02  0.27304811213E+02 -0.22526071656E+02  0.42068023625E+02  0.00000000000E+00 0. -1.
</event>
<event>
 7    1  0.4966153E-006  0.1207609E+03  0.7561462E-02  0.1241847E+00
          2   -1    0    0  501    0  0.00000000000E+00  0.00000000000E+00  0.45761329796E+02  0.45761329796E+02  0.00000000000E+00 0. -1.
         -2   -1    0    0    0  501 -0.00000000000E+00 -0.00000000000E+00 -0.45763424323E+03  0.45763424323E+03  0.00000000000E+00 0.  1.
         23    2    1    2    0    0 -0.11172995219E+01 -0.62017436287E+02 -0.35056929844E+03  0.37735022421E+03  0.12508776093E+03 0.  0.
          5    1    3    3  502    0 -0.14410421572E+02  0.33141644229E+02 -0.15757888634E+03  0.16172385925E+03  0.41800000000E+01 0.  1.
         -5    1    3    3    0  502  0.13293122050E+02 -0.95159080516E+02 -0.19299041210E+03  0.21562636495E+03  0.41800000000E+01 0.  1.
        -11    1    1    2    0    0  0.39233512696E+02  0.58838322548E+02 -0.48330319585E+02  0.85656503022E+02  0.00000000000E+00 0. -1.
         11    1    1    2    0    0 -0.38116213175E+02  0.31791137387E+01 -0.12973295402E+02  0.40388845793E+02  0.00000000000E+00 0.  1.
</event>
<event>
 7    1  0.4966153E-006  0.9230428E+02  0.7561462E-02  0.1297366E+00
         -1   -1    0    0    0  501 -0.00000000000E+00  0.00000000000E+00  0.90563467955E+02  0.90563467955E+02  0.00000000000E+00 0.  1.
          1   -1    0    0  501    0  0.00000000000E+00 -0.00000000000E+00 -0.15993776289E+03  0.15993776289E+03  0.00000000000E+00 0. -1.
         23    2    1    2    0    0  0.14666628821E+02  0.36508067065E+02 -0.28027478989E+01  0.13116112123E+03  0.12508970927E+03 0.  0.
          5    1    3    3  502    0  0.30772391331E+02 -0.18484231867E+02  0.44083335715E+02  0.57003682194E+02  0.41800000000E+01 0.  1.
         -5    1    3    3    0  502 -0.16105762510E+02  0.54992298932E+02 -0.46886083614E+02  0.74157439037E+02  0.41800000000E+01 0.  1.
        -11    1    1    2    0    0  0.28279951179E+02 -0.38793245038E+02 -0.11320605740E+02  0.49323702351E+02  0.00000000000E+00 0.  1.
         11    1    1    2    0    0 -0.42946580000E+02  0.22851779731E+01 -0.55250941300E+02  0.70016407267E+02  0.00000000000E+00 0. -1.
</event>
<event>
 7    1  0.4966153E-006  0.1294021E+03  0.7561462E-02  0.1228346E+00
         -4   -1    0    0    0  501 -0.00000000000E+00  0.00000000000E+00  0.53792772038E+02  0.53792772038E+02  0.00000000000E+00 0.  1.
          4   -1    0    0  501    0  0.00000000000E+00 -0.00000000000E+00 -0.44415625992E+03  0.44415625992E+03  0.00000000000E+00 0. -1.
         23    2    1    2    0    0  0.10766174926E+03 -0.63434517568E+00 -0.14627773971E+03  0.22053621921E+03  0.12509033615E+03 0.  0.
          5    1    3    3  502    0  0.60622185552E+02  0.48476224829E+02 -0.12840080292E+03  0.15009740952E+03  0.41800000000E+01 0.  1.
         -5    1    3    3    0  502  0.47039563712E+02 -0.49110570005E+02 -0.17876936794E+02  0.70438809683E+02  0.41800000000E+01 0.  1.
        -11    1    1    2    0    0 -0.71407985490E+02 -0.15797439170E+02 -0.79248021851E+02  0.10783741671E+03  0.00000000000E+00 0.  1.
         11    1    1    2    0    0 -0.36253763774E+02  0.16431784346E+02 -0.16483772631E+03  0.16957539604E+03  0.00000000000E+00 0. -1.
</event>
<event>
 7    1  0.4966153E-006  0.1156524E+03  0.7561462E-02  0.1250446E+00
         -3   -1    0    0    0  501 -0.00000000000E+00  0.00000000000E+00  0.38857536205E+02  0.38857536205E+02  0.00000000000E+00 0.  1.
          3   -1    0    0  501    0  0.00000000000E+00 -0.00000000000E+00 -0.51511302659E+03  0.51511302659E+03  0.00000000000E+00 0. -1.
         23    2    1    2    0    0  0.31353115878E+02 -0.67075140917E+02 -0.15823326223E+03  0.21486578662E+03  0.12508976209E+03 0.  0.
          5    1    3    3  502    0  0.46890410897E+02  0.90221724326E+01 -0.12279748098E+02  0.49481055393E+02  0.41800000000E+01 0. -1.
         -5    1    3    3    0  502 -0.15537295019E+02 -0.76097313349E+02 -0.14595351413E+03  0.16538473123E+03  0.41800000000E+01 0. -1.
        -11    1    1    2    0    0  0.20198941543E+02  0.45358291139E+02 -0.22619438614E+03  0.23157994761E+03  0.00000000000E+00 0. -1.
         11    1    1    2    0    0 -0.51552057421E+02  0.21716849778E+02 -0.91827842020E+02  0.10752482857E+03  0.00000000000E+00 0.  1.
</event>
<event>
 7    1  0.4966153E-006  0.1018465E+03  0.7561462E-02  0.1276460E+00
          1   -1    0    0  501    0  0.00000000000E+00  0.00000000000E+00  0.60324769497E+02  0.60324769497E+02  0.00000000000E+00 0. -1.
         -1   -1    0    0    0  501 -0.00000000000E+00 -0.00000000000E+00 -0.24249396765E+03  0.24249396765E+03  0.00000000000E+00 0.  1.
         23    2    1    2    0    0 -0.39954847691E+01  0.52704421098E+02 -0.11507758005E+03  0.17800025323E+03  0.12509005084E+03 0.  0.
          5    1    3    3  502    0 -0.46341984876E+02  0.54047800191E+02 -0.11512680125E+03  0.13542672200E+03  0.41800000000E+01 0.  1.
         -5    1    3    3    0  502  0.42346500106E+02 -0.13433790922E+01  0.49221191653E-01  0.42573531230E+02  0.41800000000E+01 0.  1.
        -11    1    1    2    0    0 -0.31286908956E+02 -0.43057620034E+02 -0.70215222694E+02  0.88107927072E+02  0.00000000000E+00 0.  1.
         11    1    1    2    0    0  0.35282393725E+02 -0.96468010649E+01  0.31236045971E+01  0.36710556839E+02  0.00000000000E+00 0. -1.
</event>
<event>
 7    1  0.4966153E-006  0.7593076E+02  0.7561462E-02  0.1341013E+00
          2   -1    0    0  501    0  0.00000000000E+00  0.00000000000E+00  0.41741855435E+03  0.41741855435E+03  0.00000000000E+00 0. -1.
         -2   -1    0    0    0  501 -0.00000000000E+00 -0.00000000000E+00 -0.42452410439E+02  0.42452410439E+02  0.00000000000E+00 0.  1.
         23    2    1    2    0    0  0.41836381145E+02  0.16438580795E+02  0.75990557796E+02  0.14408154461E+03  0.11386139335E+03 0.  0.
          5    1    3    3  502    0  0.29093030357E+02  0.34722167749E+02  0.10072789309E+03  0.11052426971E+03  0.41800000000E+01 0. -1.
         -5    1    3    3    0  502  0.12743350788E+02 -0.18283586953E+02 -0.24737335292E+02  0.33557274898E+02  0.41800000000E+01 0.  1.
        -11    1    1    2    0    0 -0.31572744608E+02  0.25458830700E+02  0.56753601747E+02  0.69756444677E+02  0.00000000000E+00 0.  1.
         11    1    1    2    0    0 -0.10263636537E+02 -0.41897411495E+02  0.24222198437E+03  0.24603297551E+03  0.00000000000E+00 0. -1.
</event>
<event>
 7    1  0.4966153E-006  0.1302976E+03  0.7561462E-02  0.1227015E+00
         -2   -1    0    0    0  501 -0.00000000000E+00  0.00000000000E+00  0.69039153826E+02  0.69039153826E+02  0.00000000000E+00 0.  1.
          2   -1    0    0  501    0  0.00000000000E+00 -0.00000000000E+00 -0.32804114252E+03  0.32804114252E+03  0.00000000000E+00 0. -1.
         23    2    1    2    0    0 -0.62373316686E+02  0.58276673321E+02 -0.60929543749E+02  0.16323718864E+03  0.12508944466E+03 0.  0.
          5    1    3    3  502    0 -0.19546641969E+02  0.83885132085E+02 -0.24773179252E+01  0.86269323061E+02  0.41800000000E+01 0.  1.
         -5    1    3    3    0  502 -0.42826674717E+02 -0.25608458764E+02 -0.58452225824E+02  0.76967865576E+02  0.41800000000E+01 0.  1.
        -11    1    1    2    0    0  0.13778324188E+02  0.24610893357E+02 -0.43716569003E+02  0.52025731082E+02  0.00000000000E+00 0.  1.
         11    1    1    2    0    0  0.48594992499E+02 -0.82887566678E+02 -0.15435587594E+03  0.18181737662E+03  0.00000000000E+00 0. -1.
</event>
<event>
 7    1  0.4966153E-006  0.1041980E+03  0.7561462E-02  0.1271708E+00
         -2   -1    0    0    0  501 -0.00000000000E+00  0.00000000000E+00  0.67234429447E+02  0.67234429447E+02  0.00000000000E+00 0.  1.
          2   -1    0    0  501    0  0.00000000000E+00 -0.00000000000E+00 -0.24322496148E+03  0.24322496148E+03  0.00000000000E+00 0. -1.
         23    2    1    2    0    0 -0.49038623280E+02  0.36132582411E+02 -0.12832316826E+03  0.18927458537E+03  0.12509069938E+03 0.  0.
          5    1    3    3  502    0 -0.71283815469E+02  0.33266938682E+02 -0.14220625780E+03  0.16256741284E+03  0.41800000000E+01 0. -1.
         -5    1    3    3    0  502  0.22245192189E+02  0.28656437298E+01  0.13883089546E+02  0.26707172536E+02  0.41800000000E+01 0. -1.
        -11    1    1    2    0    0 -0.23639833686E+02  0.36994545500E+01 -0.26383339700E+02  0.35617528191E+02  0.00000000000E+00 0. -1.
         11    1    1    2    0    0  0.72678456966E+02 -0.39832036961E+02 -0.21284024079E+02  0.85567277370E+02  0.00000000000E+00 0.  1.
</event>
<event>
 7    1  0.4966153E-006  0.1173363E+03  0.7561462E-02  0.1247557E+00
         -3   -1    0    0    0  501 -0.00000000000E+00  0.00000000000E+00  0.65795972422E+02  0.65795972422E+02  0.00000000000E+00 0.  1.
          3   -1    0    0  501    0  0.00000000000E+00 -0.00000000000E+00 -0.44965244901E+03  0.44965244901E+03  0.00000000000E+00 0. -1.
         23    2    1    2    0    0  0.59049795716E+02  0.10427124292E+02 -0.25625946800E+02  0.14106539152E+03  0.12508857758E+03 0.  0.
          5    1    3    3  502    0  0.87867636679E+02 -0.12628493546E+02  0.10210924614E+02  0.89453539931E+02  0.41800000000E+01 0. -1.
         -5    1    3    3    0  502 -0.28817840962E+02  0.23055617838E+02 -0.35836871415E+02  0.51611851589E+02  0.41800000000E+01 0. -1.
        -11    1    1    2    0    0 -0.42134161073E+02 -0.50142336910E+02 -0.22443829947E+03  0.23379925524E+03  0.00000000000E+00 0. -1.
         11    1    1    2    0    0 -0.16915634643E+02  0.39715212618E+02 -0.13379223032E+03  0.14058377467E+03  0.00000000000E+00 0.  1.
</event>
<event>
 7    1  0.4966153E-006  0.1340185E+03  0.7561462E-02  0.1221612E+00
          1   -1    0    0  501    0  0.00000000000E+00  0.00000000000E+00  0.66961490992E+02  0.66961490992E+02  0.00000000000E+00 0. -1.
         -1   -1    0    0    0  501 -0.00000000000E+00 -0.00000000000E+00 -0.27591404169E+03  0.27591404169E+03  0.00000000000E+00 0.  1.
         23    2    1    2    0    0  0.59846889821E+02  0.51439180958E+02 -0.13374539461E+03  0.19940615419E+03  0.12508934483E+03 0.  0.
          5    1    3    3  502    0  0.64800210048E+02  0.88100924400E+02 -0.11043455056E+03  0.15548023173E+03  0.41800000000E+01 0. -1.
         -5    1    3    3    0  502 -0.49533202272E+01 -0.36661743442E+02 -0.23310844056E+02  0.43925922461E+02  0.41800000000E+01 0. -1.
        -11    1    1    2    0    0 -0.17032309887E+01  0.25146951952E+02 -0.22650939601E+02  0.33887095672E+02  0.00000000000E+00 0. -1.
         11    1    1    2    0    0 -0.58143658832E+02 -0.76586132910E+02 -0.52556216486E+02  0.10958228282E+03  0.00000000000E+00 0.  1.
</event>
<event>
 7    1  0.4966153E-006  0.1684575E+03  0.7561462E-02  0.1179466E+00
          2   -1    0    0  501    0  0.00000000000E+00  0.00000000000E+00  0.14357522459E+04  0.14357522459E+04  0.00000000000E+00 0. -1.
         -2   -1    0    0    0  501 -0.00000000000E+00 -0.00000000000E+00 -0.25630512869E+02  0.25630512869E+02  0.00000000000E+00 0.  1.
         23    2    1    2    0    0 -0.13482049162E+03  0.59052197234E+02  0.62406340278E+03  0.65327370867E+03  0.12509069029E+03 0.  0.
          5    1    3    3  502    0 -0.12287445412E+03  0.39120149844E+02  0.27882110238E+03  0.30722499431E+03  0.41800000000E+01 0.  1.
         -5    1    3    3    0  502 -0.11946037501E+02  0.19932047390E+02  0.34524230040E+03  0.34604871436E+03  0.41800000000E+01 0.  1.
        -11    1    1    2    0    0  0.15145829327E+03 -0.35694536990E+02  0.70931075963E+03  0.72617867519E+03  0.00000000000E+00 0.  1.
         11    1    1    2    0    0 -0.16637801656E+02 -0.23357660244E+02  0.76747570638E+02  0.81930374922E+02  0.00000000000E+00 0. -1.
</event>
<event>
 7    1  0.4966153E-006  0.1121756E+03  0.7561462E-02  0.1256593E+00
         -2   -1    0    0    0  501 -0.00000000000E+00  0.00000000000E+00  0.51326878317E+02  0.51326878317E+02  0.00000000000E+00 0.  1.
          2   -1    0    0  501    0  0.00000000000E+00 -0.00000000000E+00 -0.29307014399E+03  0.29307014399E+03  0.00000000000E+00 0. -1.
         23    2    1    2    0    0 -0.26424100444E+02 -0.43340025006E+02 -0.99193045521E+02  0.16752108878E+03  0.12508982394E+03 0.  0.
          5    1    3    3  502    0  0.21566566861E+02  0.26874357808E+02  0.26016418197E+01  0.34807884939E+02  0.41800000000E+01 0.  1.
         -5    1    3    3    0  502 -0.47990667305E+02 -0.70214382814E+02 -0.10179468734E+03  0.13271320384E+03  0.41800000000E+01 0.  1.
        -11    1    1    2    0    0 -0.31011042169E+02  0.34482420001E+02 -0.57587169162E+02  0.73939191757E+02  0.00000000000E+00 0.  1.
         11    1    1    2    0    0  0.57435142613E+02  0.88576050043E+01 -0.84963050989E+02  0.10293674177E+03  0.00000000000E+00 0. -1.
</event>
<event>
 7    1  0.4966153E-006  0.1199696E+03  0.7561462E-02  0.1243147E+00
          1   -1    0    0  501    0  0.00000000000E+00  0.00000000000E+00  0.64125205597E+03  0.64125205597E+03  0.00000000000E+00 0. -1.
         -1   -1    0    0    0  501 -0.00000000000E+00 -0.00000000000E+00 -0.28757483693E+02  0.28757483693E+02  0.00000000000E+00 0.  1.
         23    2    1    2    0    0  0.41455022134E+02  0.47808065664E+02  0.20519377667E+03  0.24850773643E+03  0.12508988400E+03 0.  0.
          5    1    3    3  502    0  0.73239166767E+02  0.67297634851E+02  0.17035061221E+03  0.19730623580E+03  0.41800000000E+01 0. -1.
         -5    1    3    3    0  502 -0.31784144633E+02 -0.19489569187E+02  0.34843164463E+02  0.51201500632E+02  0.41800000000E+01 0. -1.
        -11    1    1    2    0    0 -0.13434779358E+02 -0.67370723933E+02  0.32856142792E+03  0.33566638148E+03  0.00000000000E+00 0. -1.
         11    1    1    2    0    0 -0.28020242776E+02  0.19562658269E+02  0.78739367680E+02  0.85835421747E+02  0.00000000000E+00 0.  1.
</event>
<event>
 7    1  0.4966153E-006  0.6941235E+02  0.7561462E-02  0.1362103E+00
         -2   -1    0    0    0  501 -0.00000000000E+00  0.00000000000E+00  0.12457184782E+03  0.12457184782E+03  0.00000000000E+00 0.  1.
          2   -1    0    0  501    0  0.00000000000E+00 -0.00000000000E+00 -0.11297866241E+03  0.11297866241E+03  0.00000000000E+00 0. -1.
         23    2    1    2    0    0 -0.12038830754E+02  0.64525157079E+01  0.46646818560E+02  0.13420115777E+03  0.12508979439E+03 0.  0.
          5    1    3    3  502    0 -0.36607520244E+02 -0.39157543526E+02  0.59972242239E+02  0.80545428130E+02  0.41800000000E+01 0. -1.
         -5    1    3    3    0  502  0.24568689490E+02  0.45610059234E+02 -0.13325423679E+02  0.53655729637E+02  0.41800000000E+01 0. -1.
        -11    1    1    2    0    0 -0.26860965898E+01 -0.15546060491E+02 -0.66017907849E+02  0.67876794771E+02  0.00000000000E+00 0. -1.
         11    1    1    2    0    0  0.14724927343E+02  0.90935447827E+01  0.30964274695E+02  0.35472557694E+02  0.00000000000E+00 0.  1.
</event>
<event>
 7    1  0.4966153E-006  0.1612152E+03  0.7561462E-02  0.1187332E+00
         -3   -1    0    0    0  501 -0.00000000000E+00  0.00000000000E+00  0.26920277232E+03  0.26920277232E+03  0.00000000000E+00 0.  1.
          3   -1    0    0  501    0  0.00000000000E+00 -0.00000000000E+00 -0.12918754061E+03  0.12918754061E+03  0.00000000000E+00 0. -1.
         23    2    1    2    0    0  0.14796350911E+03 -0.30280655468E+02  0.62835069186E+02  0.20592643461E+03  0.12508929781E+03 0.  0.
          5    1    3    3  502    0  0.12561769513E+03 -0.55057201999E+02  0.29526572489E+01  0.13724901241E+03  0.41800000000E+01 0.  1.
         -5    1    3    3    0  502  0.22345813978E+02  0.24776546531E+02  0.59882411937E+02  0.68677422198E+02  0.41800000000E+01 0.  1.
        -11    1    1    2    0    0 -0.30847928314E+02  0.98589497816E+00 -0.20601545506E+02  0.37107820569E+02  0.00000000000E+00 0. -1.
         11    1    1    2    0    0 -0.11711558080E+03  0.29294760490E+02  0.97781708030E+02  0.15535605776E+03  0.00000000000E+00 0.  1.
</event>
<event>
 7    1  0.4966153E-006  0.1128477E+03  0.7561462E-02  0.1255386E+00
          2   -1    0    0  501    0  0.00000000000E+00  0.00000000000E+00  0.57488756143E+03  0.57488756143E+03  0.00000000000E+00 0. -1.
         -2   -1    0    0    0  501 -0.00000000000E+00 -0.00000000000E+00 -0.36242765856E+02  0.36242765856E+02  0.00000000000E+00 0.  1.
         23    2    1    2    0    0 -0.75128117685E+02  0.22148546686E+02  0.18129260360E+03  0.23376958103E+03  0.12508563750E+03 0.  0.
          5    1    3    3  502    0 -0.43630313538E+02 -0.28514756191E+02  0.16307591052E+03  0.17125396513E+03  0.41800000000E+01 0. -1.
         -5    1    3    3    0  502 -0.31497804147E+02  0.50663302878E+02  0.18216693076E+02  0.62515615898E+02  0.41800000000E+01 0. -1.
        -11    1    1    2    0    0 -0.42299672502E+01 -0.33209869548E+02  0.17511990992E+03  0.17829125304E+03  0.00000000000E+00 0. -1.
         11    1    1    2    0    0  0.79358084935E+02  0.11061322862E+02  0.18223228205E+03  0.19906949322E+03  0.00000000000E+00 0.  1.
</event>
<event>
 7    1  0.4966153E-006  0.1058677E+03  0.7561462E-02  0.1268419E+00
          2   -1    0    0  501    0  0.00000000000E+00  0.00000000000E+00  0.10919058930E+03  0.10919058930E+03  0.00000000000E+00 0. -1.
         -2   -1    0    0    0  501 -0.00000000000E+00 -0.00000000000E+00 -0.12842760951E+03  0.12842760951E+03  0.00000000000E+00 0.  1.
         23    2    1    2    0    0  0.33236157253E+02  0.28210825070E+02 -0.26319952459E+02  0.13505993169E+03  0.12509177611E+03 0.  0.
          5    1    3    3  502    0  0.38501022292E+02  0.72422749509E+02  0.19561318627E+01  0.82150363456E+02  0.41800000000E+01 0.  1.
         -5    1    3    3    0  502 -0.52648650385E+01 -0.44211924439E+02 -0.28276084322E+02  0.52909568237E+02  0.41800000000E+01 0.  1.
        -11    1    1    2    0    0 -0.30816111188E+02  0.19921803026E+02 -0.25232771968E+02  0.44533175563E+02  0.00000000000E+00 0.  1.
         11    1    1    2    0    0 -0.24200460655E+01 -0.48132628096E+02  0.32315704225E+02  0.58025091555E+02  0.00000000000E+00 0. -1.
</event>
<event>
 7    1  0.4966153E-006  0.1330446E+03  0.7561462E-02  0.1223007E+00
         -3   -1    0    0    0  501 -0.00000000000E+00  0.00000000000E+00  0.66580087292E+03  0.66580087292E+03  0.00000000000E+00 0.  1.
          3   -1    0    0  501    0  0.00000000000E+00 -0.00000000000E+00 -0.30131629657E+02  0.30131629657E+02  0.00000000000E+00 0. -1.
         23    2    1    2    0    0  0.29943919798E+02 -0.69393356584E+02  0.31561915094E+03  0.34781298957E+03  0.12508537487E+03 0.  0.
          5    1    3    3  502    0 -0.36843022402E+02  0.11519327435E+02  0.59979752094E+02  0.71450306267E+02  0.41800000000E+01 0.  1.
         -5    1    3    3    0  502  0.66786942200E+02 -0.80912684019E+02  0.25563939884E+03  0.27636268331E+03  0.41800000000E+01 0.  1.
        -11    1    1    2    0    0  0.35213742537E+02  0.19978767013E+02  0.42181028211E+02  0.58467067104E+02  0.00000000000E+00 0. -1.
         11    1    1    2    0    0 -0.65157662335E+02  0.49414589571E+02  0.27786906411E+03  0.28965244590E+03  0.00000000000E+00 0.  1.
</event>
<event>
 7    1  0.4966153E-006  0.1136796E+03  0.7561462E-02  0.1253904E+00
         -2   -1    0    0    0  501 -0.00000000000E+00  0.00000000000E+00  0.13386832074E+03  0.13386832074E+03  0.00000000000E+00 0.  1.
          2   -1    0    0  501    0  0.00000000000E+00 -0.00000000000E+00 -0.12244017893E+03  0.12244017893E+03  0.00000000000E+00 0. -1.
         23    2    1    2    0    0 -0.31617535283E+02  0.38030544637E+02  0.52317630526E+02  0.14432460833E+03  0.12508583950E+03 0.  0.
          5    1    3    3  502    0  0.11567075265E+00 -0.39444088432E+02 -0.87431536818E+01  0.40617294694E+02  0.41800000000E+01 0. -1.
         -5    1    3    3    0  502 -0.31733206036E+02  0.77474633069E+02  0.61060784208E+02  0.10370731364E+03  0.41800000000E+01 0. -1.
        -11    1    1    2    0    0  0.16842143493E+01  0.29736668720E+02 -0.74442145314E+01  0.30700527268E+02  0.00000000000E+00 0.  1.
         11    1    1    2    0    0  0.29933320934E+02 -0.67767213357E+02 -0.33445274182E+02  0.81283364063E+02  0.00000000000E+00 0. -1.
</event>
<event>
 7    1  0.4966153E-006  0.9105213E+02  0.7561462E-02  0.1300324E+00
         -1   -1    0    0    0  501 -0.00000000000E+00  0.00000000000E+00  0.66647724698E+02  0.66647724698E+02  0.00000000000E+00 0.  1.
          1   -1    0    0  501    0  0.00000000000E+00 -0.00000000000E+00 -0.22516250326E+03  0.22516250326E+03  0.00000000000E+00 0. -1.
         23    2    1    2    0    0 -0.39202921319E+01  0.55564578096E+02 -0.10787762918E+03  0.17432043759E+03  0.12508893258E+03 0.  0.
          5    1    3    3  502    0  0.15284138490E+02  0.62510061033E+02 -0.12926335331E+03  0.14445622011E+03  0.41800000000E+01 0. -1.
         -5    1    3    3    0  502 -0.19204430622E+02 -0.69454829375E+01  0.21385724132E+02  0.29864217475E+02  0.41800000000E+01 0. -1.
        -11    1    1    2    0    0  0.26650774502E+02  0.91529511187E+01  0.56725354184E+01  0.28744007268E+02  0.00000000000E+00 0.  1.
         11    1    1    2    0    0 -0.22730482370E+02 -0.64717529215E+02 -0.56309684804E+02  0.88745783106E+02  0.00000000000E+00 0. -1.
</event>
<event>
 7    1  0.4966153E-006  0.9943864E+02  0.7561462E-02  0.1281481E+00
          1   -1    0    0  501    0  0.00000000000E+00  0.00000000000E+00  0.42829444710E+03  0.42829444710E+03  0.00000000000E+00 0. -1.
         -1   -1    0    0    0  501 -0.00000000000E+00 -0.00000000000E+00 -0.45222848853E+02  0.45222848853E+02  0.00000000000E+00 0.  1.
         23    2    1    2    0    0 -0.69218869671E+01  0.59965744222E+02  0.10603255816E+03  0.17474066113E+03  0.12509033642E+03 0.  0.
          5    1    3    3  502    0 -0.26937358182E+02  0.65286269014E+02  0.43458108996E+01  0.70882132163E+02  0.41800000000E+01 0.  1.
         -5    1    3    3    0  502  0.20015471215E+02 -0.53205247920E+01  0.10168674726E+03  0.10385852897E+03  0.41800000000E+01 0.  1.
        -11    1    1    2    0    0 -0.28066535920E+02 -0.65793558124E+02  0.13991473581E+03  0.15713897042E+03  0.00000000000E+00 0.  1.
         11    1    1    2    0    0  0.34988422887E+02  0.58278139015E+01  0.13712430428E+03  0.14163766439E+03  0.00000000000E+00 0. -1.
</event>
<event>
 7    1  0.4966153E-006  0.1106823E+03  0.7561462E-02  0.1259312E+00
         -1   -1    0    0    0  501 -0.00000000000E+00  0.00000000000E+00  0.53944408601E+02  0.53944408601E+02  0.00000000000E+00 0.  1.
          1   -1    0    0  501    0  0.00000000000E+00 -0.00000000000E+00 -0.30691103896E+03  0.30691103896E+03  0.00000000000E+00 0. -1.
         23    2    1    2    0    0 -0.65244412485E+02 -0.21205010048E+02 -0.12241703244E+03  0.18799074987E+03  0.12509239144E+03 0.  0.
          5    1    3    3  502    0 -0.13151874375E+02  0.48459639382E+02 -0.70325292097E+02  0.86512586120E+02  0.41800000000E+01 0.  1.
         -5    1    3    3    0  502 -0.52092538110E+02 -0.69664649430E+02 -0.52091740341E+02  0.10147816375E+03  0.41800000000E+01 0.  1.
        -11    1    1    2    0    0  0.48176023129E+02  0.36914816976E+02 -0.13609366014E+03  0.14901381563E+03  0.00000000000E+00 0.  1.
         11    1    1    2    0    0  0.17068389356E+02 -0.15709806928E+02  0.55440622267E+01  0.23850882057E+02  0.00000000000E+00 0. -1.
</event>
<event>
 7    1  0.4966153E-006  0.1099168E+03  0.7561462E-02  0.1260724E+00
         -2   -1    0    0    0  501 -0.00000000000E+00  0.00000000000E+00  0.62700828015E+02  0.62700828015E+02  0.00000000000E+00 0.  1.
          2   -1    0    0  501    0  0.00000000000E+00 -0.00000000000E+00 -0.41864954741E+03  0.41864954741E+03  0.00000000000E+00 0. -1.
         23    2    1    2    0    0 -0.23555506169E+02  0.98175942890E+01 -0.16240849627E+02  0.12869797519E+03  0.12509259208E+03 0.  0.
          5    1    3    3  502    0 -0.29143015010E+02 -0.53889624998E+02 -0.19773180068E+02  0.64512464348E+02  0.41800000000E+01 0.  1.
         -5    1    3    3    0  502  0.55875088411E+01  0.63707219287E+02  0.35323304417E+01  0.64185510847E+02  0.41800000000E+01 0.  1.
        -11    1    1    2    0    0 -0.29724137644E+02  0.17468906100E+02 -0.13867520523E+03  0.14289681446E+03  0.00000000000E+00 0.  1.
         11    1    1    2    0    0  0.53279643813E+02 -0.27286500389E+02 -0.20103266454E+03  0.20975558577E+03  0.00000000000E+00 0. -1.
</event>
<event>
 7    1  0.4966153E-006  0.1718267E+03  0.7561462E-02  0.1175956E+00
         -1   -1    0    0    0  501 -0.00000000000E+00  0.00000000000E+00  0.51558548159E+02  0.51558548159E+02  0.00000000000E+00 0.  1.
          1   -1    0    0  501    0  0.00000000000E+00 -0.00000000000E+00 -0.63197998511E+03  0.63197998511E+03  0.00000000000E+00 0. -1.
         23    2    1    2    0    0  0.56602174667E+02  0.12481270309E+03 -0.22136904277E+03  0.28884943963E+03  0.12509088155E+03 0.  0.
          5    1    3    3  502    0 -0.35882741310E+02  0.52587334909E+02 -0.10914957049E+03  0.12642824073E+03  0.41800000000E+01 0. -1.
         -5    1    3    3    0  502  0.92484915976E+02  0.72225368181E+02 -0.11221947228E+03  0.16242119890E+03  0.41800000000E+01 0. -1.
        -11    1    1    2    0    0 -0.80189246603E+02 -0.92350854893E+02 -0.24600821336E+03  0.27473448402E+03  0.00000000000E+00 0.  1.
         11    1    1    2    0    0  0.23587071936E+02 -0.32461848197E+02 -0.11304418082E+03  0.11995460961E+03  0.00000000000E+00 0. -1.
</event>
<event>
 7    1  0.4966153E-006  0.1402332E+03  0.7561462E-02  0.1213016E+00
          1   -1    0    0  501    0  0.00000000000E+00  0.00000000000E+00  0.35394351902E+03  0.35394351902E+03  0.00000000000E+00 0. -1.
         -1   -1    0    0    0  501 -0.00000000000E+00 -0.00000000000E+00 -0.68428825394E+02  0.68428825394E+02  0.00000000000E+00 0.  1.
         23    2    1    2    0    0  0.10102835722E+03  0.47741661430E+02  0.16277693656E+03  0.23373060396E+03  0.12509064295E+03 0.  0.
          5    1    3    3  502    0  0.11259847344E+03  0.76641637542E+02  0.13449125091E+03  0.19146207405E+03  0.41800000000E+01 0.  1.
         -5    1    3    3    0  502 -0.11570116216E+02 -0.28899976113E+02  0.28285685645E+02  0.42268529913E+02  0.41800000000E+01 0.  1.
        -11    1    1    2    0    0 -0.60264790535E+02 -0.20076748787E+02  0.83134993871E+01  0.64062743402E+02  0.00000000000E+00 0.  1.
         11    1    1    2    0    0 -0.40763566689E+02 -0.27664912642E+02  0.11442425768E+03  0.12457899705E+03  0.00000000000E+00 0. -1.
</event>
<event>
 7    1  0.4966153E-006  0.1384239E+03  0.7561462E-02  0.1215466E+00
         -1   -1    0    0    0  501 -0.00000000000E+00  0.00000000000E+00  0.28699565921E+02  0.28699565921E+02  0.00000000000E+00 0.  1.
          1   -1    0    0  501    0  0.00000000000E+00 -0.00000000000E+00 -0.89732631171E+03  0.89732631171E+03  0.00000000000E+00 0. -1.
         23    2    1    2    0    0 -0.28278974211E+02 -0.10419717541E+03 -0.35441050098E+03  0.39101833647E+03  0.12502713507E+03 0.  0.
          5    1    3    3  502    0 -0.21018044662E+02 -0.11427208388E+03 -0.16891171053E+03  0.20505732298E+03  0.41800000000E+01 0.  1.
         -5    1    3    3    0  502 -0.72609295487E+01  0.10074908468E+02 -0.18549879045E+03  0.18596101349E+03  0.41800000000E+01 0.  1.
        -11    1    1    2    0    0 -0.23581851145E+02  0.90945658355E+02 -0.34134238080E+03  0.35403649163E+03  0.00000000000E+00 0.  1.
         11    1    1    2    0    0  0.51860825356E+02  0.13251517053E+02 -0.17287386401E+03  0.18097104953E+03  0.00000000000E+00 0. -1.
</event>
<event>
 7    1  0.4966153E-006  0.5372380E+02  0.7561462E-02  0.1426232E+00
          2   -1    0    0  501    0  0.00000000000E+00  0.00000000000E+00  0.29721117569E+03  0.29721117569E+03  0.00000000000E+00 0. -1.
         -2   -1    0    0    0  501 -0.00000000000E+00 -0.00000000000E+00 -0.59186387812E+02  0.59186387812E+02  0.00000000000E+00 0.  1.
         23    2    1    2    0    0 -0.31666790637E+01  0.35513218504E+02  0.45632387840E+02  0.13786550584E+03  0.12511341389E+03 0.  0.
          5    1    3    3  502    0 -0.10745829594E+01  0.30202093847E+01  0.85815973122E+02  0.85977497266E+02  0.41800000000E+01 0.  1.
         -5    1    3    3    0  502 -0.20920961042E+01  0.32493009119E+02 -0.40183585282E+02  0.51888008574E+02  0.41800000000E+01 0.  1.
        -11    1    1    2    0    0 -0.33578731683E+01 -0.51747358841E+02  0.19414236613E+03  0.20094855757E+03  0.00000000000E+00 0. -1.
         11    1    1    2    0    0  0.65245522320E+01  0.16234140337E+02 -0.17499660971E+01  0.17583500097E+02  0.00000000000E+00 0.  1.
</event>
<event>
 7    1  0.4966153E-006  0.2001200E+03  0.7561462E-02  0.1149638E+00
         -2   -1    0    0    0  501 -0.00000000000E+00  0.00000000000E+00  0.13411482072E+03  0.13411482072E+03  0.00000000000E+00 0.  1.
          2   -1    0    0  501    0  0.00000000000E+00 -0.00000000000E+00 -0.35298438593E+03  0.35298438593E+03  0.00000000000E+00 0. -1.
         23    2    1    2    0    0  0.15911569349E+01 -0.17269828900E+03 -0.29665498551E+02  0.21530044400E+03  0.12508800333E+03 0.  0.
          5    1    3    3  502    0 -0.18490789857E+02  0.11581366612E+02 -0.19573941141E+02  0.29608257867E+02  0.41800000000E+01 0.  1.
         -5    1    3    3    0  502  0.20081946792E+02 -0.18427965561E+03 -0.10091557409E+02  0.18569218613E+03  0.41800000000E+01 0.  1.
        -11    1    1    2    0    0 -0.40011939034E+02  0.50027020154E+02 -0.43176441678E+02  0.77251945780E+02  0.00000000000E+00 0.  1.
         11    1    1    2    0    0  0.38420782099E+02  0.12267126885E+03 -0.14602762498E+03  0.19454681687E+03  0.00000000000E+00 0. -1.
</event>
<event>
 7    1  0.4966153E-006  0.1071510E+03  0.7561462E-02  0.1265939E+00
         -1   -1    0    0    0  501 -0.00000000000E+00  0.00000000000E+00  0.15403871147E+03  0.15403871147E+03  0.00000000000E+00 0.  1.
          1   -1    0    0  501    0  0.00000000000E+00 -0.00000000000E+00 -0.93861822996E+02  0.93861822996E+02  0.00000000000E+00 0. -1.
         23    2    1    2    0    0  0.22150759400E+02 -0.21683347246E+01  0.84298241928E+02  0.15246032185E+03  0.12507037351E+03 0.  0.
          5    1    3    3  502    0  0.65665514503E+02  0.25867680819E+02  0.28485582227E+02  0.76223339606E+02  0.41800000000E+01 0.  1.
         -5    1    3    3    0  502 -0.43514755103E+02 -0.28036015543E+02  0.55812659701E+02  0.76236982247E+02  0.41800000000E+01 0.  1.
        -11    1    1    2    0    0  0.34739546477E+02  0.70339167370E-01 -0.14766561920E+02  0.37747746793E+02  0.00000000000E+00 0. -1.
         11    1    1    2    0    0 -0.56890305877E+02  0.20979955572E+01 -0.93547915302E+01  0.57692465823E+02  0.00000000000E+00 0.  1.
</event>
<event>
 7    1  0.4966153E-006  0.1126796E+03  0.7561462E-02  0.1255687E+00
          2   -1    0    0  501    0  0.00000000000E+00  0.00000000000E+00  0.21448209455E+03  0.21448209455E+03  0.00000000000E+00 0. -1.
         -2   -1    0    0    0  501 -0.00000000000E+00 -0.00000000000E+00 -0.75750800191E+02  0.75750800191E+02  0.00000000000E+00 0.  1.
         23    2    1    2    0    0 -0.78280950949E+01 -0.40209388740E+02  0.17161765509E+02  0.13265660549E+03  0.12500069908E+03 0.  0.
          5    1    3    3  502    0  0.56706400625E+02 -0.34058259192E+01  0.10793475342E+02  0.57975745204E+02  0.41800000000E+01 0.  1.
         -5    1    3    3    0  502 -0.64534495720E+02 -0.36803562821E+02  0.63682901665E+01  0.74680860291E+02  0.41800000000E+01 0.  1.
        -11    1    1    2    0    0  0.25226108215E+02  0.61512029581E+02  0.57678113969E+02  0.88016198224E+02  0.00000000000E+00 0. -1.
         11    1    1    2    0    0 -0.17398013120E+02 -0.21302640841E+02  0.63891414882E+02  0.69560091021E+02  0.00000000000E+00 0.  1.
</event>
<event>
 7    1  0.4966153E-006  0.1727437E+03  0.7561462E-02  0.1175016E+00
          1   -1    0    0  501    0  0.00000000000E+00  0.00000000000E+00  0.64101172360E+03  0.64101172360E+03  0.00000000000E+00 0. -1.
         -1   -1    0    0    0  501 -0.00000000000E+00 -0.00000000000E+00 -0.14586294347E+03  0.14586294347E+03  0.00000000000E+00 0.  1.
         23    2    1    2    0    0 -0.11906802405E+03  0.61874043532E+02 -0.70869936791E+02  0.19666647926E+03  0.12509821945E+03 0.  0.
          5    1    3    3  502    0 -0.14275935918E+03  0.68511699621E+02 -0.59036862552E+02  0.16904706788E+03  0.41800000000E+01 0.  1.
         -5    1    3    3    0  502  0.23691335137E+02 -0.66376560894E+01 -0.11833074239E+02  0.27619411378E+02  0.41800000000E+01 0.  1.
        -11    1    1    2    0    0  0.69281115815E+02  0.14669619315E+02  0.17754277397E+03  0.19114525192E+03  0.00000000000E+00 0. -1.
         11    1    1    2    0    0  0.49786908231E+02 -0.76543662847E+02  0.38847594295E+03  0.39906293589E+03  0.00000000000E+00 0.  1.
</event>
<event>
 7    1  0.4966153E-006  0.1116104E+03  0.7561462E-02  0.1257616E+00
          2   -1    0    0  501    0  0.00000000000E+00  0.00000000000E+00  0.96361561294E+02  0.96361561294E+02  0.00000000000E+00 0. -1.
         -2   -1    0    0    0  501 -0.00000000000E+00 -0.00000000000E+00 -0.13696472869E+03  0.13696472869E+03  0.00000000000E+00 0.  1.
         23    2    1    2    0    0  0.76236782758E+01 -0.35316757573E+02 -0.38302747348E+02  0.13571020291E+03  0.12507903455E+03 0.  0.
          5    1    3    3  502    0 -0.47436925067E+02  0.16100291853E+02  0.17261604155E+01  0.50298442196E+02  0.41800000000E+01 0.  1.
         -5    1    3    3    0  502  0.55060603343E+02 -0.51417049426E+02 -0.40028907763E+02  0.85411760717E+02  0.41800000000E+01 0.  1.
        -11    1    1    2    0    0  0.83043129979E+01  0.64083316838E+02 -0.34834836082E+01  0.64712964461E+02  0.00000000000E+00 0.  1.
         11    1    1    2    0    0 -0.15927991274E+02 -0.28766559264E+02  0.11830635613E+01  0.32903122607E+02  0.00000000000E+00 0. -1.
</event>
<event>
 7    1  0.4966153E-006  0.9643280E+02  0.7561462E-02  0.1287981E+00
          3   -1    0    0  501    0  0.00000000000E+00  0.00000000000E+00  0.31135841383E+03  0.31135841383E+03  0.00000000000E+00 0. -1.
         -3   -1    0    0    0  501 -0.00000000000E+00 -0.00000000000E+00 -0.47862515245E+02  0.47862515245E+02  0.00000000000E+00 0.  1.
         23    2    1    2    0    0 -0.18124889485E+02 -0.41533764734E+02  0.92239213899E+02  0.16189236899E+03  0.12508997292E+03 0.  0.
          5    1    3    3  502    0  0.16415959474E+02 -0.63428749576E+02  0.10042103323E+03  0.11997727415E+03  0.41800000000E+01 0.  1.
         -5    1    3    3    0  502 -0.34540848959E+02  0.21894984842E+02 -0.81818193263E+01  0.41915094841E+02  0.41800000000E+01 0.  1.
        -11    1    1    2    0    0 -0.15386223775E+02 -0.14287792193E+02  0.96674939023E+01  0.23115737629E+02  0.00000000000E+00 0.  1.
         11    1    1    2    0    0  0.33511113259E+02  0.55821556927E+02  0.16158919079E+03  0.17421282246E+03  0.00000000000E+00 0. -1.
</event>
<event>
 7    1  0.4966153E-006  0.1304881E+03  0.7561462E-02  0.1226733E+00
         -2   -1    0    0    0  501 -0.00000000000E+00  0.00000000000E+00  0.23124101647E+03  0.23124101647E+03  0.00000000000E+00 0.  1.
          2   -1    0    0  501    0  0.00000000000E+00 -0.00000000000E+00 -0.95844122805E+02  0.95844122805E+02  0.00000000000E+00 0. -1.
         23    2    1    2    0    0 -0.66071700653E+02  0.82412922554E+02  0.10277410860E+03  0.18445240368E+03  0.11091804359E+03 0.  0.
          5    1    3    3  502    0 -0.46009298130E+02  0.91805837547E+02  0.28240331407E+02  0.10658403276E+03  0.41800000000E+01 0.  1.
         -5    1    3    3    0  502 -0.20062402523E+02 -0.93929149931E+01  0.74533777189E+02  0.77868370916E+02  0.41800000000E+01 0. -1.
        -11    1    1    2    0    0  0.15319208350E+02 -0.83500459693E+02  0.34969621139E+02  0.91814374234E+02  0.00000000000E+00 0.  1.
         11    1    1    2    0    0  0.50752492303E+02  0.10875371395E+01 -0.23468360684E+01  0.50818361362E+02  0.00000000000E+00 0. -1.
</event>
<event>
 7    1  0.4966153E-006  0.1346836E+03  0.7561462E-02  0.1220667E+00
         -2   -1    0    0    0  501 -0.00000000000E+00  0.00000000000E+00  0.25904517875E+03  0.25904517875E+03  0.00000000000E+00 0.  1.
          2   -1    0    0  501    0  0.00000000000E+00 -0.00000000000E+00 -0.71168257736E+02  0.71168257736E+02  0.00000000000E+00 0. -1.
         23    2    1    2    0    0 -0.21600396618E+02  0.79907290394E+02  0.10048347729E+03  0.18054394362E+03  0.12508970452E+03 0.  0.
          5    1    3    3  502    0 -0.68381727862E+02  0.74146930306E+02  0.55248056013E+02  0.11508105001E+03  0.41800000000E+01 0.  1.
         -5    1    3    3    0  502  0.46781331244E+02  0.57603600879E+01  0.45235421273E+02  0.65462893604E+02  0.41800000000E+01 0.  1.
        -11    1    1    2    0    0 -0.25200349735E+02 -0.68409058075E+02  0.46547294556E+02  0.86495707893E+02  0.00000000000E+00 0.  1.
         11    1    1    2    0    0  0.46800746353E+02 -0.11498232319E+02  0.40846149174E+02  0.63173784975E+02  0.00000000000E+00 0. -1.
</event>
<event>
 7    1  0.4966153E-006  0.1404702E+03  0.7561462E-02  0.1212698E+00
          2   -1    0    0  501    0  0.00000000000E+00  0.00000000000E+00  0.70243924817E+02  0.70243924817E+02  0.00000000000E+00 0. -1.
         -2   -1    0    0    0  501 -0.00000000000E+00 -0.00000000000E+00 -0.63885502182E+03  0.63885502182E+03  0.00000000000E+00 0.  1.
         23    2    1    2    0    0  0.25427725390E+02  0.13113918359E+03 -0.50194267772E+03  0.53426313277E+03  0.12508632468E+03 0.  0.
          5    1    3    3  502    0  0.17341342773E+01  0.47886462790E+02 -0.38870916217E+03  0.39167385117E+03  0.41800000000E+01 0.  1.
         -5    1    3    3    0  502  0.23693591112E+02  0.83252720799E+02 -0.11323351556E+03  0.14258928160E+03  0.41800000000E+01 0.  1.
        -11    1    1    2    0    0  0.19166165337E+02 -0.50800199247E+02 -0.62591898602E+02  0.82859808761E+02  0.00000000000E+00 0.  1.
         11    1    1    2    0    0 -0.44593890726E+02 -0.80338984342E+02 -0.40765206780E+01  0.91976005110E+02  0.00000000000E+00 0. -1.
</event>
<event>
 7    1  0.4966153E-006  0.1061275E+03  0.7561462E-02  0.1267914E+00
         -2   -1    0    0    0  501 -0.00000000000E+00  0.00000000000E+00  0.33271865359E+02  0.33271865359E+02  0.00000000000E+00 0.  1.
          2   -1    0    0  501    0  0.00000000000E+00 -0.00000000000E+00 -0.42534323299E+03  0.42534323299E+03  0.00000000000E+00 0. -1.
         23    2    1    2    0    0  0.22046807285E+02  0.35817676879E+02 -0.17495764125E+03  0.21914950701E+03  0.12508941803E+03 0.  0.
          5    1    3    3  502    0 -0.41464291473E+02  0.18906575168E+01 -0.16157172893E+02  0.44736882872E+02  0.41800000000E+01 0. -1.
         -5    1    3    3    0  502  0.63511098758E+02  0.33927019362E+02 -0.15880046836E+03  0.17441262414E+03  0.41800000000E+01 0. -1.
        -11    1    1    2    0    0 -0.56785143638E+02 -0.19583764482E+02 -0.10488816583E+03  0.12087019360E+03  0.00000000000E+00 0.  1.
         11    1    1    2    0    0  0.34738336353E+02 -0.16233912397E+02 -0.11222556056E+03  0.11859539775E+03  0.00000000000E+00 0. -1.
</event>
<event>
 7    1  0.4966153E-006  0.1054793E+03  0.7561462E-02  0.1269178E+00
          1   -1    0    0  501    0  0.00000000000E+00  0.00000000000E+00  0.14597237978E+02  0.14597237978E+02  0.00000000000E+00 0. -1.
         -1   -1    0    0    0  501 -0.00000000000E+00 -0.00000000000E+00 -0.82270378665E+03  0.82270378665E+03  0.00000000000E+00 0.  1.
         23    2    1    2    0    0  0.58503398264E+01  0.91492504171E+01 -0.53217605882E+03  0.54678803441E+03  0.12509141347E+03 0.  0.
          5    1    3    3  502    0  0.61856172846E+02  0.14719563258E+02 -0.20164872015E+03  0.21147702098E+03  0.41800000000E+01 0.  1.
         -5    1    3    3    0  502 -0.56005833019E+02 -0.55703128407E+01 -0.33052733867E+03  0.33531101343E+03  0.41800000000E+01 0.  1.
        -11    1    1    2    0    0  0.41157448150E+02 -0.14163330974E+02 -0.13854611960E+03  0.14522245949E+03  0.00000000000E+00 0.  1.
         11    1    1    2    0    0 -0.47007787977E+02  0.50140805569E+01 -0.13738437025E+03  0.14529053074E+03  0.00000000000E+00 0. -1.
</event>
<event>
 7    1  0.4966153E-006  0.1776502E+03  0.7561462E-02  0.1170097E+00
          2   -1    0    0  501    0  0.00000000000E+00  0.00000000000E+00  0.48398690116E+03  0.48398690116E+03  0.00000000000E+00 0. -1.
         -2   -1    0    0    0  501 -0.00000000000E+00 -0.00000000000E+00 -0.95702275230E+02  0.95702275230E+02  0.00000000000E+00 0.  1.
         23    2    1    2    0    0  0.11448770973E+03  0.11518080537E+03  0.80907850196E+02  0.22028565517E+03  0.12492252017E+03 0.  0.
          5    1    3    3  502    0  0.11156625320E+03  0.11869946244E+03  0.10602849986E+03  0.19441220748E+03  0.41800000000E+01 0. -1.
         -5    1    3    3    0  502  0.29214565319E+01 -0.35186570694E+01 -0.25120649661E+02  0.25873447688E+02  0.41800000000E+01 0. -1.
        -11    1    1    2    0    0 -0.13034160902E+03 -0.10405011462E+03  0.27160053625E+03  0.31871964590E+03  0.00000000000E+00 0.  1.
         11    1    1    2    0    0  0.15853899283E+02 -0.11130690747E+02  0.35776239485E+02  0.40683875315E+02  0.00000000000E+00 0. -1.
</event>
<event>
 7    1  0.4966153E-006  0.6512281E+02  0.7561462E-02  0.1377510E+00
          1   -1    0    0  501    0  0.00000000000E+00  0.00000000000E+00  0.20135404454E+03  0.20135404454E+03  0.00000000000E+00 0. -1.
         -1   -1    0    0    0  501 -0.00000000000E+00 -0.00000000000E+00 -0.61605083345E+02  0.61605083345E+02  0.00000000000E+00 0.  1.
         23    2    1    2    0    0  0.35413860245E+01  0.32854437106E+02  0.53076237852E+02  0.13285463591E+03  0.11722334156E+03 0.  0.
          5    1    3    3  502    0  0.17066895042E+02  0.29361247560E+02  0.88318332671E+02  0.94715162727E+02  0.41800000000E+01 0. -1.
         -5    1    3    3    0  502 -0.13525509018E+02  0.34931895461E+01 -0.35242094819E+02  0.38139473182E+02  0.41800000000E+01 0.  1.
        -11    1    1    2    0    0 -0.38639242691E+02 -0.11295216942E+02  0.76299653269E+01  0.40973032258E+02  0.00000000000E+00 0. -1.
         11    1    1    2    0    0  0.35097856667E+02 -0.21559220165E+02  0.79042758015E+02  0.89131459717E+02  0.00000000000E+00 0.  1.
</event>
<event>
 7    1  0.4966153E-006  0.1474766E+03  0.7561462E-02  0.1203608E+00
         -3   -1    0    0    0  501 -0.00000000000E+00  0.00000000000E+00  0.35609992656E+03  0.35609992656E+03  0.00000000000E+00 0.  1.
          3   -1    0    0  501    0  0.00000000000E+00 -0.00000000000E+00 -0.73713210450E+02  0.73713210450E+02  0.00000000000E+00 0. -1.
         23    2    1    2    0    0 -0.78080946820E+02  0.83894757285E+02  0.19971186821E+03  0.26204471189E+03  0.12509051190E+03 0.  0.
          5    1    3    3  502    0 -0.45084443549E+02 -0.12649034402E+02  0.12258447229E+02  0.48583403030E+02  0.41800000000E+01 0. -1.
         -5    1    3    3    0  502 -0.32996503270E+02  0.96543791687E+02  0.18745342098E+03  0.21346130886E+03  0.41800000000E+01 0. -1.
        -11    1    1    2    0    0  0.22117054040E+02 -0.87011753261E+02  0.54625402994E+02  0.10509112207E+03  0.00000000000E+00 0.  1.
         11    1    1    2    0    0  0.55963892780E+02  0.31169959767E+01  0.28049444907E+02  0.62677303058E+02  0.00000000000E+00 0. -1.
</event>
<event>
 6    1  0.4966153E-006  0.8916522E+02  0.7561462E-02  0.1304886E+00
          2   -1    0    0  501    0  0.00000000000E+00  0.00000000000E+00  0.72931184132E+03  0.72931184132E+03  0.00000000000E+00 0. -1.
         -2   -1    0    0    0  501 -0.00000000000E+00 -0.00000000000E+00 -0.41995016619E+02  0.41995016619E+02  0.00000000000E+00 0.  1.
          5    1    1    2  502    0  0.94052527429E+01  0.13789282676E+02  0.19363753788E+03  0.19440054417E+03  0.41800000000E+01 0. -1.
         -5    1    1    2    0  502 -0.50217290646E+02  0.34186683627E+02 -0.90069326554E+01  0.61555689040E+02  0.41800000000E+01 0.  1.
        -11    1    1    2    0    0  0.46000162895E+02 -0.66575061885E+02  0.47343561091E+03  0.48030150065E+03  0.00000000000E+00 0. -1.
         11    1    1    2    0    0 -0.51881249915E+01  0.18599095582E+02  0.29250608565E+02  0.35049124081E+02  0.00000000000E+00 0.  1.
</event>
<event>
 7    1  0.4966153E-006  0.8446684E+02  0.7561462E-02  0.1316833E+00
          2   -1    0    0  501    0  0.00000000000E+00  0.00000000000E+00  0.88997414996E+02  0.88997414996E+02  0.00000000000E+00 0. -1.
         -2   -1    0    0    0  501 -0.00000000000E+00 -0.00000000000E+00 -0.14184414471E+03  0.14184414471E+03  0.00000000000E+00 0.  1.
         23    2    1    2    0    0 -0.26434064594E+02 -0.11560789355E+02 -0.27119640152E+02  0.13120955887E+03  0.12509221333E+03 0.  0.
          5    1    3    3  502    0 -0.41883932466E+02  0.40466621678E+02 -0.45212795629E+02  0.73847684849E+02  0.41800000000E+01 0. -1.
         -5    1    3    3    0  502  0.15449867872E+02 -0.52027411033E+02  0.18093155477E+02  0.57361874021E+02  0.41800000000E+01 0. -1.
        -11    1    1    2    0    0  0.28797358242E+02 -0.12886884233E+02  0.26961075329E+02  0.41500110962E+02  0.00000000000E+00 0. -1.
         11    1    1    2    0    0 -0.23632936479E+01  0.24447673588E+02 -0.52688164886E+02  0.58131889869E+02  0.00000000000E+00 0.  1.
</event>
<event>
 7    1  0.4966153E-006  0.7204189E+02  0.7561462E-02  0.1353284E+00
          2   -1    0    0  501    0  0.00000000000E+00  0.00000000000E+00  0.37695581446E+03  0.37695581446E+03  0.00000000000E+00 0. -1.
         -2   -1    0    0    0  501 -0.00000000000E+00 -0.00000000000E+00 -0.35365146342E+02  0.35365146342E+02  0.00000000000E+00 0.  1.
         23    2    1    2    0    0  0.23835629019E+02  0.30210221710E+02  0.13408478188E+03  0.18737240756E+03  0.12509554619E+03 0.  0.
          5    1    3    3  502    0  0.41628587432E+02  0.24674765069E+02 -0.32834878344E+01  0.48683025944E+02  0.41800000000E+01 0.  1.
         -5    1    3    3    0  502 -0.17792958413E+02  0.55354566407E+01  0.13736826971E+03  0.13868938161E+03  0.41800000000E+01 0.  1.
        -11    1    1    2    0    0  0.22947601194E+02 -0.14108701650E+02  0.13169005475E+03  0.13441695720E+03  0.00000000000E+00 0. -1.
         11    1    1    2    0    0 -0.46783230213E+02 -0.16101520059E+02  0.75815831497E+02  0.90531596048E+02  0.00000000000E+00 0.  1.
</event>
<event>
 7    1  0.4966153E-006  0.1656608E+03  0.7561462E-02  0.1182450E+00
          1   -1    0    0  501    0  0.00000000000E+00  0.00000000000E+00  0.18637010152E+03  0.18637010152E+03  0.00000000000E+00 0. -1.
         -1   -1    0    0    0  501 -0.00000000000E+00 -0.00000000000E+00 -0.15286250785E+03  0.15286250785E+03  0.00000000000E+00 0.  1.
         23    2    1    2    0    0 -0.12449735823E+03 -0.41264783482E+02  0.69651685650E+01  0.17702646852E+03  0.11869070065E+03 0.  0.
          5    1    3    3  502    0  0.54207577442E+01 -0.45839479280E+02  0.75539801479E+01  0.46959317407E+02  0.41800000000E+01 0. -1.
         -5    1    3    3    0  502 -0.12991811597E+03  0.45746957982E+01 -0.58881158284E+00  0.13006715111E+03  0.41800000000E+01 0.  1.
        -11    1    1    2    0    0  0.97118479450E+02 -0.91397278046E+01  0.36181423327E+02  0.10404147764E+03  0.00000000000E+00 0. -1.
         11    1    1    2    0    0  0.27378878776E+02  0.50404511287E+02 -0.96389982223E+01  0.58164663223E+02  0.00000000000E+00 0.  1.
</event>
<event>
 7    1  0.4966153E-006  0.2377971E+03  0.7561462E-02  0.1121269E+00
         -1   -1    0    0    0  501 -0.00000000000E+00  0.00000000000E+00  0.10115418256E+03  0.10115418256E+03  0.00000000000E+00 0.  1.
          1   -1    0    0  501    0  0.00000000000E+00 -0.00000000000E+00 -0.63859471087E+03  0.63859471087E+03  0.00000000000E+00 0. -1.
         23    2    1    2    0    0  0.24820216640E+02  0.20996223033E+03 -0.14692140661E+03  0.28624244788E+03  0.12509459592E+03 0.  0.
          5    1    3    3  502    0  0.53040041053E+02  0.25853327385E+02 -0.30519448915E+02  0.66562374160E+02  0.41800000000E+01 0.  1.
         -5    1    3    3    0  502 -0.28219824413E+02  0.18410890294E+03 -0.11640195770E+03  0.21968007372E+03  0.41800000000E+01 0.  1.
        -11    1    1    2    0    0  0.32142670160E+01 -0.20053077692E+03 -0.34912873875E+03  0.40263358060E+03  0.00000000000E+00 0.  1.
         11    1    1    2    0    0 -0.28034483655E+02 -0.94314534036E+01 -0.41390382948E+02  0.50872864945E+02  0.00000000000E+00 0. -1.
</event>
<event>
 7    1  0.4966153E-006  0.1398492E+03  0.7561462E-02  0.1213532E+00
          2   -1    0    0  501    0  0.00000000000E+00  0.00000000000E+00  0.89232530497E+03  0.89232530497E+03  0.00000000000E+00 0. -1.
         -2   -1    0    0    0  501 -0.00000000000E+00 -0.00000000000E+00 -0.23651414007E+02  0.23651414007E+02  0.00000000000E+00 0.  1.
         23    2    1    2    0    0 -0.54703960042E+02 -0.67282534375E+02  0.38239101990E+03  0.41156835992E+03  0.12508461182E+03 0.  0.
          5    1    3    3  502    0 -0.31238151983E+02 -0.10054647787E+03  0.21756427790E+03  0.24173767553E+03  0.41800000000E+01 0. -1.
         -5    1    3    3    0  502 -0.23465808060E+02  0.33263943493E+02  0.16482674200E+03  0.16983068439E+03  0.41800000000E+01 0. -1.
        -11    1    1    2    0    0 -0.17804797597E+02  0.57557270814E+02  0.19616090822E+03  0.20520465919E+03  0.00000000000E+00 0. -1.
         11    1    1    2    0    0  0.72508757639E+02  0.97252635607E+01  0.29012196285E+03  0.29920369986E+03  0.00000000000E+00 0.  1.
</event>
<event>
 6    1  0.4966153E-006  0.1122194E+03  0.7561462E-02  0.1256514E+00
          1   -1    0    0  501    0  0.00000000000E+00  0.00000000000E+00  0.51675869221E+02  0.51675869221E+02  0.00000000000E+00 0. -1.
         -1   -1    0    0    0  501 -0.00000000000E+00 -0.00000000000E+00 -0.34964025369E+03  0.34964025369E+03  0.00000000000E+00 0.  1.
          5    1    1    2  502    0 -0.29335321272E+02 -0.70543116221E+01  0.77781600870E+01  0.31437184367E+02  0.41800000000E+01 0. -1.
         -5    1    1    2    0  502  0.36693238480E+02  0.72657119452E+02 -0.19611137089E+03  0.21237371059E+03  0.41800000000E+01 0.  1.
        -11    1    1    2    0    0  0.20037580348E+02  0.16478105739E+02 -0.32521298077E+02  0.41601291129E+02  0.00000000000E+00 0.  1.
         11    1    1    2    0    0 -0.27395497556E+02 -0.82080913569E+02 -0.77109875590E+02  0.11590393683E+03  0.00000000000E+00 0. -1.
</event>
<event>
 7    1  0.4966153E-006  0.6051668E+02  0.7561462E-02  0.1395676E+00
         -1   -1    0    0    0  501 -0.00000000000E+00  0.00000000000E+00  0.16460682480E+03  0.16460682480E+03  0.00000000000E+00 0.  1.
          1   -1    0    0  501    0  0.00000000000E+00 -0.00000000000E+00 -0.85285644583E+02  0.85285644583E+02  0.00000000000E+00 0. -1.
         23    2    1    2    0    0  0.18376489374E+02 -0.98347119187E+01  0.83468538661E+02  0.15181777527E+03  0.12508886050E+03 0.  0.
          5    1    3    3  502    0  0.10634887995E+02  0.25339627477E+02 -0.25039722417E+02  0.37411998905E+02  0.41800000000E+01 0.  1.
         -5    1    3    3    0  502  0.77416013791E+01 -0.35174339396E+02  0.10850826108E+03  0.11440577637E+03  0.41800000000E+01 0.  1.
        -11    1    1    2    0    0  0.67751654901E+01 -0.18137320991E+02  0.37346989645E+02  0.42067361644E+02  0.00000000000E+00 0.  1.
         11    1    1    2    0    0 -0.25151654864E+02  0.27972032910E+02 -0.41494348085E+02  0.56007332471E+02  0.00000000000E+00 0. -1.
</event>
<event>
 7    1  0.4966153E-006  0.1653459E+03  0.7561462E-02  0.1182790E+00
          4   -1    0    0  501    0  0.00000000000E+00  0.00000000000E+00  0.17966846542E+03  0.17966846542E+03  0.00000000000E+00 0. -1.
         -4   -1    0    0    0  501 -0.00000000000E+00 -0.00000000000E+00 -0.20315892286E+03  0.20315892286E+03  0.00000000000E+00 0.  1.
         23    2    1    2    0    0 -0.13674912138E+03 -0.27279730903E+02 -0.85036385308E+02  0.20572769022E+03  0.12509272473E+03 0.  0.
          5    1    3    3  502    0  0.22082314960E+02 -0.16735456902E+02 -0.10691558304E+02  0.29991431621E+02  0.41800000000E+01 0. -1.
         -5    1    3    3    0  502 -0.15883143634E+03 -0.10544274001E+02 -0.74344827005E+02  0.17573625860E+03  0.41800000000E+01 0. -1.
        -11    1    1    2    0    0  0.11369914057E+03  0.35262509230E+02  0.82587742161E+02  0.14488503814E+03  0.00000000000E+00 0. -1.
         11    1    1    2    0    0  0.23049980812E+02 -0.79827783270E+01 -0.21041814293E+02  0.32214659924E+02  0.00000000000E+00 0.  1.
</event>
<event>
 7    1  0.4966153E-006  0.9905361E+02  0.7561462E-02  0.1282299E+00
         -1   -1    0    0    0  501 -0.00000000000E+00  0.00000000000E+00  0.46307325572E+03  0.46307325572E+03  0.00000000000E+00 0.  1.
          1   -1    0    0  501    0  0.00000000000E+00 -0.00000000000E+00 -0.34659479562E+02  0.34659479562E+02  0.00000000000E+00 0. -1.
         23    2    1    2    0    0 -0.21746296218E+02 -0.55804493207E+02  0.28433730952E+03  0.31635851185E+03  0.12509180458E+03 0.  0.
          5    1    3    3  502    0 -0.45661520535E+02 -0.27893970504E+02  0.34511456823E+02  0.63808785446E+02  0.41800000000E+01 0. -1.
         -5    1    3    3    0  502  0.23915224316E+02 -0.27910522704E+02  0.24982585270E+03  0.25254972641E+03  0.41800000000E+01 0. -1.
        -11    1    1    2    0    0 -0.31937506352E+02  0.28926093200E+01  0.62872300196E+02  0.70578308513E+02  0.00000000000E+00 0.  1.
         11    1    1    2    0    0  0.53683802570E+02  0.52911883887E+02  0.81204166441E+02  0.11079591492E+03  0.00000000000E+00 0. -1.
</event>
<event>
 7    1  0.9034736E-006  0.1514116E+03  0.7561462E-02  0.1198749E+00
         -2   -1    0    0    0  501 -0.00000000000E+00  0.00000000000E+00  0.30800473463E+02  0.30800473463E+02  0.00000000000E+00 0. -1.
          2   -1    0    0  501    0  0.00000000000E+00 -0.00000000000E+00 -0.93099353163E+03  0.93099353163E+03  0.00000000000E+00 0.  1.
         23    2    1    2    0    0 -0.12676557381E+03 -0.11547221658E+02 -0.41206640387E+03  0.44905324760E+03  0.12508896413E+03 0.  0.
          5    1    3    3  502    0 -0.13199770578E+03  0.26856557501E+01 -0.41268709421E+03  0.43331133981E+03  0.41800000000E+01 0. -1.
         -5    1    3    3    0  502  0.52321319769E+01 -0.14232877408E+02  0.62069033889E+00  0.15741907789E+02  0.41800000000E+01 0. -1.
        -11    1    1    2    0    0  0.10989388430E+03 -0.26793944619E+02 -0.31749379454E+03  0.33704137853E+03  0.00000000000E+00 0.  1.
         11    1    1    2    0    0  0.16871689504E+02  0.38341166277E+02 -0.17063285975E+03  0.17569937896E+03  0.00000000000E+00 0. -1.
</event>
<event>
 7    1  0.4966153E-006  0.1734035E+03  0.7561462E-02  0.1174344E+00
         -2   -1    0    0    0  501 -0.00000000000E+00  0.00000000000E+00  0.82459172043E+02  0.82459172043E+02  0.00000000000E+00 0.  1.
          2   -1    0    0  501    0  0.00000000000E+00 -0.00000000000E+00 -0.49327654499E+03  0.49327654499E+03  0.00000000000E+00 0. -1.
         23    2    1    2    0    0 -0.14734206453E+03 -0.21551424156E+02 -0.96747496491E+02  0.21721135924E+03  0.12508616487E+03 0.  0.
          5    1    3    3  502    0  0.17734228422E+02 -0.22171985029E+02 -0.20859070278E+02  0.35477781649E+02  0.41800000000E+01 0. -1.
         -5    1    3    3    0  502 -0.16507629296E+03  0.62056087376E+00 -0.75888426213E+02  0.18173357759E+03  0.41800000000E+01 0. -1.
        -11    1    1    2    0    0  0.71829262947E+02  0.28215975371E+02 -0.74570669211E+02  0.10731434661E+03  0.00000000000E+00 0.  1.
         11    1    1    2    0    0  0.75512801588E+02 -0.66645512150E+01 -0.23949920725E+03  0.25121001118E+03  0.00000000000E+00 0. -1.
</event>
<event>
 7    1  0.4966153E-006  0.8129649E+02  0.7561462E-02  0.1325412E+00
          1   -1    0    0  501    0  0.00000000000E+00  0.00000000000E+00  0.49439119275E+02  0.49439119275E+02  0.00000000000E+00 0. -1.
         -1   -1    0    0    0  501 -0.00000000000E+00 -0.00000000000E+00 -0.24673004805E+03  0.24673004805E+03  0.00000000000E+00 0.  1.
         23    2    1    2    0    0 -0.21317658067E+02 -0.67104419603E+01 -0.13438879966E+03  0.18495177158E+03  0.12508931113E+03 0.  0.
          5    1    3    3  502    0 -0.37565109260E+02  0.19020500445E+02  0.46431865160E+01  0.42566987818E+02  0.41800000000E+01 0. -1.
         -5    1    3    3    0  502  0.16247451193E+02 -0.25730942405E+02 -0.13903198617E+03  0.14238478376E+03  0.41800000000E+01 0. -1.
        -11    1    1    2    0    0  0.41572721424E+01  0.46262379175E+02 -0.20585485423E+02  0.50806031617E+02  0.00000000000E+00 0.  1.
         11    1    1    2    0    0  0.17160385925E+02 -0.39551937214E+02 -0.42316643695E+02  0.60411364131E+02  0.00000000000E+00 0. -1.
</event>
<event>
 7    1  0.4966153E-006  0.1053792E+03  0.7561462E-02  0.1269374E+00
         -1   -1    0    0    0  501 -0.00000000000E+00  0.00000000000E+00  0.99144347674E+02  0.99144347674E+02  0.00000000000E+00 0.  1.
          1   -1    0    0  501    0  0.00000000000E+00 -0.00000000000E+00 -0.14615860631E+03  0.14615860631E+03  0.00000000000E+00 0. -1.
         23    2    1    2    0    0  0.38631663383E+02  0.93394268530E+01  0.68453258684E+01  0.13142938450E+03  0.12508874575E+03 0.  0.
          5    1    3    3  502    0  0.54454229898E+02 -0.43994121628E+02 -0.14649526588E+02  0.71643750048E+02  0.41800000000E+01 0. -1.
         -5    1    3    3    0  502 -0.15822566515E+02  0.53333548481E+02  0.21494852457E+02  0.59785634452E+02  0.41800000000E+01 0. -1.
        -11    1    1    2    0    0 -0.51887220529E+02 -0.30265686767E+02 -0.64908322431E+01  0.60418758287E+02  0.00000000000E+00 0.  1.
         11    1    1    2    0    0  0.13255557146E+02  0.20926259914E+02 -0.47368752265E+02  0.53454811199E+02  0.00000000000E+00 0. -1.
</event>
<event>
 7    1  0.4966153E-006  0.1726613E+03  0.7561462E-02  0.1175101E+00
          2   -1    0    0  501    0  0.00000000000E+00  0.00000000000E+00  0.23857058040E+03  0.23857058040E+03  0.00000000000E+00 0. -1.
         -2   -1    0    0    0  501 -0.00000000000E+00 -0.00000000000E+00 -0.15616418575E+03  0.15616418575E+03  0.00000000000E+00 0.  1.
         23    2    1    2    0    0  0.63629396856E+01 -0.15006672302E+03 -0.11758797038E+02  0.19582333789E+03  0.12509197414E+03 0.  0.
          5    1    3    3  502    0  0.39900982473E+02 -0.14696200952E+03  0.14334216354E+02  0.15301262302E+03  0.41800000000E+01 0.  1.
         -5    1    3    3    0  502 -0.33538042788E+02 -0.31047134993E+01 -0.26093013391E+02  0.42810714871E+02  0.41800000000E+01 0.  1.
        -11    1    1    2    0    0 -0.26856082655E+02  0.11776935742E+03  0.10402399854E+03  0.15941098769E+03  0.00000000000E+00 0. -1.
         11    1    1    2    0    0  0.20493142970E+02  0.32297365596E+02 -0.98588068547E+01  0.39500440577E+02  0.00000000000E+00 0.  1.
</event>
<event>
 7    1  0.4966153E-006  0.1972514E+03  0.7561462E-02  0.1152079E+00
         -1   -1    0    0    0  501 -0.00000000000E+00  0.00000000000E+00  0.10549979890E+03  0.10549979890E+03  0.00000000000E+00 0.  1.
          1   -1    0    0  501    0  0.00000000000E+00 -0.00000000000E+00 -0.48300088869E+03  0.48300088869E+03  0.00000000000E+00 0. -1.
         23    2    1    2    0    0  0.71161569653E+02  0.16837424131E+03 -0.94863042865E+02  0.24095675921E+03  0.12508920327E+03 0.  0.
          5    1    3    3  502    0 -0.16100077765E+02  0.62771625207E+02  0.13392775332E+02  0.66304813296E+02  0.41800000000E+01 0. -1.
         -5    1    3    3    0  502  0.87261647418E+02  0.10560261611E+03 -0.10825581820E+03  0.17465194591E+03  0.41800000000E+01 0. -1.
        -11    1    1    2    0    0 -0.30834355894E+02 -0.15703412527E+02 -0.10152311659E+03  0.10725809000E+03  0.00000000000E+00 0. -1.
         11    1    1    2    0    0 -0.40327213760E+02 -0.15267082879E+03 -0.18111493034E+03  0.24028583838E+03  0.00000000000E+00 0.  1.
</event>
<event>
 7    1  0.4966153E-006  0.1109617E+03  0.7561462E-02  0.1258799E+00
          1   -1    0    0  501    0  0.00000000000E+00  0.00000000000E+00  0.24118147091E+03  0.24118147091E+03  0.00000000000E+00 0. -1.
         -1   -1    0    0    0  501 -0.00000000000E+00 -0.00000000000E+00 -0.54302953406E+02  0.54302953406E+02  0.00000000000E+00 0.  1.
         23    2    1    2    0    0 -0.16395708313E+01  0.37083199575E+02  0.10565350403E+03  0.16789431170E+03  0.12509190663E+03 0.  0.
          5    1    3    3  502    0 -0.20588066306E+02 -0.43017350244E+02  0.34464468536E+02  0.58988413165E+02  0.41800000000E+01 0. -1.
         -5    1    3    3    0  502  0.18948495475E+02  0.80100549819E+02  0.71189035492E+02  0.10890589854E+03  0.41800000000E+01 0. -1.
        -11    1    1    2    0    0  0.69445988813E+01 -0.63910283099E+02  0.33269061575E+02  0.72384958365E+02  0.00000000000E+00 0.  1.
         11    1    1    2    0    0 -0.53050280500E+01  0.26827083524E+02  0.47955951903E+02  0.55205154252E+02  0.00000000000E+00 0. -1.
</event>
<event>
 7    1  0.4966153E-006  0.1180368E+03  0.7561462E-02  0.1246371E+00
          1   -1    0    0  501    0  0.00000000000E+00  0.00000000000E+00  0.34335697582E+03  0.34335697582E+03  0.00000000000E+00 0. -1.
         -1   -1    0    0    0  501 -0.00000000000E+00 -0.00000000000E+00 -0.47614008969E+02  0.47614008969E+02  0.00000000000E+00 0.  1.
         23    2    1    2    0    0  0.52867080028E+02  0.41649844328E+02  0.18572849668E+03  0.23382358401E+03  0.12509498901E+03 0.  0.
          5    1    3    3  502    0  0.17917952868E+02 -0.41046805501E+02  0.30152442787E+02  0.54152889884E+02  0.41800000000E+01 0.  1.
         -5    1    3    3    0  502  0.34949127161E+02  0.82696649829E+02  0.15557605390E+03  0.17967069413E+03  0.41800000000E+01 0.  1.
        -11    1    1    2    0    0 -0.57896353126E+02  0.13608324263E+01  0.95103073298E+02  0.11134825603E+03  0.00000000000E+00 0.  1.
         11    1    1    2    0    0  0.50292730975E+01 -0.43010676754E+02  0.14911396865E+02  0.45799144743E+02  0.00000000000E+00 0. -1.
</event>
<event>
 7    1  0.4966153E-006  0.1078459E+03  0.7561462E-02  0.1264612E+00
          2   -1    0    0  501    0  0.00000000000E+00  0.00000000000E+00  0.97674502934E+02  0.97674502934E+02  0.00000000000E+00 0. -1.
         -2   -1    0    0    0  501 -0.00000000000E+00 -0.00000000000E+00 -0.13725306656E+03  0.13725306656E+03  0.00000000000E+00 0.  1.
         23    2    1    2    0    0 -0.80562791771E+00 -0.30941907393E+02 -0.45799266035E+02  0.13675979822E+03  0.12509044316E+03 0.  0.
          5    1    3    3  502    0  0.41800398448E+02  0.31135171700E+02 -0.27858747460E+02  0.59247400257E+02  0.41800000000E+01 0. -1.
         -5    1    3    3    0  502 -0.42606026366E+02 -0.62077079093E+02 -0.17940518576E+02  0.77512397964E+02  0.41800000000E+01 0. -1.
        -11    1    1    2    0    0 -0.39674787866E+02  0.25469587622E+02  0.24823985880E+02  0.53282445147E+02  0.00000000000E+00 0. -1.
         11    1    1    2    0    0  0.40480415783E+02  0.54723197709E+01 -0.18603283475E+02  0.44885326129E+02  0.00000000000E+00 0.  1.
</event>
<event>
 6    1  0.4966153E-006  0.2414163E+03  0.7561462E-02  0.1118853E+00
         -4   -1    0    0    0  501 -0.00000000000E+00  0.00000000000E+00  0.13711016174E+03  0.13711016174E+03  0.00000000000E+00 0.  1.
          4   -1    0    0  501    0  0.00000000000E+00 -0.00000000000E+00 -0.82387617566E+03  0.82387617566E+03  0.00000000000E+00 0. -1.
          5    1    1    2  502    0 -0.11973262098E+03 -0.10771123715E+03 -0.40443690452E+03  0.43534387934E+03  0.41800000000E+01 0. -1.
         -5    1    1    2    0  502 -0.71227810584E+02 -0.28481198736E+02  0.62275807225E+02  0.98895542102E+02  0.41800000000E+01 0.  1.
        -11    1    1    2    0    0  0.14675858245E+03  0.63678832834E+02 -0.17522396804E+03  0.23726886490E+03  0.00000000000E+00 0.  1.
         11    1    1    2    0    0  0.44201849111E+02  0.72513603053E+02 -0.16938094858E+03  0.18947805106E+03  0.00000000000E+00 0. -1.
</event>
<event>
 7    1  0.4966153E-006  0.1076050E+03  0.7561462E-02  0.1265070E+00
         -2   -1    0    0    0  501 -0.00000000000E+00  0.00000000000E+00  0.23324389066E+04  0.23324389066E+04  0.00000000000E+00 0. -1.
          2   -1    0    0  501    0  0.00000000000E+00 -0.00000000000E+00 -0.83888184931E+01  0.83888184931E+01  0.00000000000E+00 0.  1.
         23    2    1    2    0    0 -0.39558535074E+02  0.35216136120E+02  0.18584861211E+04  0.18634417905E+04  0.12505834783E+03 0.  0.
          5    1    3    3  502    0  0.78338333579E+00  0.61464493086E+02  0.15474630629E+04  0.15486890912E+04  0.41800000000E+01 0.  1.
         -5    1    3    3    0  502 -0.40341918410E+02 -0.26248356966E+02  0.31102305817E+03  0.31475269933E+03  0.41800000000E+01 0.  1.
        -11    1    1    2    0    0  0.14135664902E+02  0.31156364137E+02  0.16841486509E+03  0.17185488888E+03  0.00000000000E+00 0.  1.
         11    1    1    2    0    0  0.25422870171E+02 -0.66372500257E+02  0.29714910193E+03  0.30553104571E+03  0.00000000000E+00 0. -1.
</event>
<event>
 7    1  0.4966153E-006  0.8257042E+02  0.7561462E-02  0.1321911E+00
         -1   -1    0    0    0  501 -0.00000000000E+00  0.00000000000E+00  0.25996031961E+03  0.25996031961E+03  0.00000000000E+00 0.  1.
          1   -1    0    0  501    0  0.00000000000E+00 -0.00000000000E+00 -0.42639045516E+02  0.42639045516E+02  0.00000000000E+00 0. -1.
         23    2    1    2    0    0 -0.80520090865E+01 -0.19824703795E+02  0.14190387851E+03  0.18180972482E+03  0.11162531780E+03 0.  0.
          5    1    3    3  502    0 -0.32555752570E+02  0.84199844808E+01 -0.11352873934E+01  0.33904784935E+02  0.41800000000E+01 0. -1.
         -5    1    3    3    0  502  0.24503743483E+02 -0.28244688276E+02  0.14303916591E+03  0.14790493989E+03  0.41800000000E+01 0.  1.
        -11    1    1    2    0    0  0.20399431365E+02  0.53769427604E+02  0.53457251010E+02  0.78517296378E+02  0.00000000000E+00 0.  1.
         11    1    1    2    0    0 -0.12347422279E+02 -0.33944723809E+02  0.21960144574E+02  0.42272343927E+02  0.00000000000E+00 0. -1.
</event>
<event>
 7    1  0.4966153E-006  0.1191650E+03  0.7561462E-02  0.1244481E+00
         -2   -1    0    0    0  501 -0.00000000000E+00  0.00000000000E+00  0.41620653756E+02  0.41620653756E+02  0.00000000000E+00 0.  1.
          2   -1    0    0  501    0  0.00000000000E+00 -0.00000000000E+00 -0.54395548854E+03  0.54395548854E+03  0.00000000000E+00 0. -1.
         23    2    1    2    0    0  0.68070456290E+02  0.77980208678E+02 -0.28997938777E+03  0.33234045731E+03  0.12509050430E+03 0.  0.
          5    1    3    3  502    0 -0.26009517462E+01 -0.25258290716E+01 -0.17517898298E+03  0.17526634942E+03  0.41800000000E+01 0.  1.
         -5    1    3    3    0  502  0.70671408036E+02  0.80506037750E+02 -0.11480040480E+03  0.15707410789E+03  0.41800000000E+01 0.  1.
        -11    1    1    2    0    0  0.80253926120E+01 -0.39521927123E+02 -0.25149050993E+02  0.47527512201E+02  0.00000000000E+00 0.  1.
         11    1    1    2    0    0 -0.76095848902E+02 -0.38458281555E+02 -0.18720639602E+03  0.20570817278E+03  0.00000000000E+00 0. -1.
</event>
<event>
 7    1  0.4966153E-006  0.1068094E+03  0.7561462E-02  0.1266595E+00
         -1   -1    0    0    0  501 -0.00000000000E+00  0.00000000000E+00  0.20324378667E+03  0.20324378667E+03  0.00000000000E+00 0.  1.
          1   -1    0    0  501    0  0.00000000000E+00 -0.00000000000E+00 -0.98767497677E+02  0.98767497677E+02  0.00000000000E+00 0. -1.
         23    2    1    2    0    0  0.88425507876E+02  0.63049167648E+01  0.82926127665E+02  0.17430605360E+03  0.12508810996E+03 0.  0.
          5    1    3    3  502    0  0.41757674372E+02  0.34142445296E+02  0.10290454447E+03  0.11625931194E+03  0.41800000000E+01 0. -1.
         -5    1    3    3    0  502  0.46667833504E+02 -0.27837528531E+02 -0.19978416808E+02  0.58046741656E+02  0.41800000000E+01 0. -1.
        -11    1    1    2    0    0 -0.72492718666E+02 -0.28331885445E+02 -0.17834183146E+02  0.79849534005E+02  0.00000000000E+00 0. -1.
         11    1    1    2    0    0 -0.15932789211E+02  0.22026968681E+02  0.39384344469E+02  0.47855696741E+02  0.00000000000E+00 0.  1.
</event>
<event>
 7    1  0.4966153E-006  0.1738687E+03  0.7561462E-02  0.1173872E+00
         -2   -1    0    0    0  501 -0.00000000000E+00  0.00000000000E+00  0.17043653280E+03  0.17043653280E+03  0.00000000000E+00 0. -1.
          2   -1    0    0  501    0  0.00000000000E+00 -0.00000000000E+00 -0.22587841431E+03  0.22587841431E+03  0.00000000000E+00 0.  1.
         23    2    1    2    0    0  0.45350693481E+02  0.14144447750E+03  0.39496573516E+02  0.19816880105E+03  0.12509064223E+03 0.  0.
          5    1    3    3  502    0 -0.36769173425E+02  0.31521905197E+02 -0.14390861607E+02  0.50696863014E+02  0.41800000000E+01 0. -1.
         -5    1    3    3    0  502  0.82119866906E+02  0.10992257230E+03  0.53887435123E+02  0.14747193803E+03  0.41800000000E+01 0. -1.
        -11    1    1    2    0    0  0.12803402495E+02 -0.53928793110E+01  0.96833494428E+01  0.16934506758E+02  0.00000000000E+00 0. -1.
         11    1    1    2    0    0 -0.58154095976E+02 -0.13605159819E+03 -0.10462180448E+03  0.18121163931E+03  0.00000000000E+00 0.  1.
</event>
<event>
 7    1  0.4966153E-006  0.1269847E+03  0.7561462E-02  0.1232000E+00
         -3   -1    0    0    0  501 -0.00000000000E+00  0.00000000000E+00  0.20080013443E+03  0.20080013443E+03  0.00000000000E+00 0.  1.
          3   -1    0    0  501    0  0.00000000000E+00 -0.00000000000E+00 -0.83501544225E+02  0.83501544225E+02  0.00000000000E+00 0. -1.
         23    2    1    2    0    0 -0.17809758376E+02 -0.67291795220E+02  0.49796259989E+02  0.15156711867E+03  0.12509017050E+03 0.  0.
          5    1    3    3  502    0  0.57699892269E+01  0.35869710578E+02  0.64488934160E+01  0.37134748402E+02  0.41800000000E+01 0.  1.
         -5    1    3    3    0  502 -0.23579747603E+02 -0.10316150580E+03  0.43347366573E+02  0.11443237026E+03  0.41800000000E+01 0.  1.
        -11    1    1    2    0    0  0.46466261624E+02  0.10138708475E+02  0.14598198902E+02  0.49749515476E+02  0.00000000000E+00 0.  1.
         11    1    1    2    0    0 -0.28656503248E+02  0.57153086745E+02  0.52904131315E+02  0.82985044515E+02  0.00000000000E+00 0. -1.
</event>
<event>
 7    1  0.4966153E-006  0.9601445E+02  0.7561462E-02  0.1288908E+00
         -1   -1    0    0    0  501 -0.00000000000E+00  0.00000000000E+00  0.98270435693E+02  0.98270435693E+02  0.00000000000E+00 0.  1.
          1   -1    0    0  501    0  0.00000000000E+00 -0.00000000000E+00 -0.14836522431E+03  0.14836522431E+03  0.00000000000E+00 0. -1.
         23    2    1    2    0    0  0.19042336251E+02 -0.37537188916E+02  0.32223584889E+01  0.13202148359E+03  0.12509051688E+03 0.  0.
          5    1    3    3  502    0 -0.24498946068E+02  0.10978414980E+02  0.46363813369E+02  0.53738250288E+02  0.41800000000E+01 0.  1.
         -5    1    3    3    0  502  0.43541282319E+02 -0.48515603896E+02 -0.43141454880E+02  0.78283233304E+02  0.41800000000E+01 0.  1.
        -11    1    1    2    0    0 -0.46560857876E+02 -0.70991241536E+01 -0.14197284174E+02  0.49192214097E+02  0.00000000000E+00 0.  1.
         11    1    1    2    0    0  0.27518521625E+02  0.44636313069E+02 -0.39119862928E+02  0.65421962309E+02  0.00000000000E+00 0. -1.
</event>
<event>
 7    1  0.4966153E-006  0.1304879E+03  0.7561462E-02  0.1226734E+00
         -4   -1    0    0    0  501 -0.00000000000E+00  0.00000000000E+00  0.76028492070E+03  0.76028492070E+03  0.00000000000E+00 0.  1.
          4   -1    0    0  501    0  0.00000000000E+00 -0.00000000000E+00 -0.37208774618E+02  0.37208774618E+02  0.00000000000E+00 0. -1.
         23    2    1    2    0    0 -0.65648901838E+02 -0.97780270764E+02  0.50362789168E+03  0.53212752232E+03  0.12509151479E+03 0.  0.
          5    1    3    3  502    0 -0.16110575482E+02 -0.62994283410E+02  0.75525819537E+02  0.99746940813E+02  0.41800000000E+01 0. -1.
         -5    1    3    3    0  502 -0.49538326356E+02 -0.34785987354E+02  0.42810207214E+03  0.43238058151E+03  0.41800000000E+01 0. -1.
        -11    1    1    2    0    0  0.74090622748E+02  0.56947326577E+02  0.91458691546E+02  0.13075592011E+03  0.00000000000E+00 0.  1.
         11    1    1    2    0    0 -0.84417209103E+01  0.40832944187E+02  0.12798956286E+03  0.13461025289E+03  0.00000000000E+00 0. -1.
</event>
<event>
 7    1  0.4966153E-006  0.1121414E+03  0.7561462E-02  0.1256655E+00
          1   -1    0    0  501    0  0.00000000000E+00  0.00000000000E+00  0.34969239061E+03  0.34969239061E+03  0.00000000000E+00 0. -1.
         -1   -1    0    0    0  501 -0.00000000000E+00 -0.00000000000E+00 -0.75548510220E+02  0.75548510220E+02  0.00000000000E+00 0.  1.
         23    2    1    2    0    0 -0.82661446154E+02  0.48884802756E+02  0.53379871304E+02  0.16648778939E+03  0.12508451037E+03 0.  0.
          5    1    3    3  502    0 -0.52591818381E+02  0.39859130127E+02  0.94032876155E+02  0.11495348543E+03  0.41800000000E+01 0.  1.
         -5    1    3    3    0  502 -0.30069627773E+02  0.90256726294E+01 -0.40653004851E+02  0.51534303956E+02  0.41800000000E+01 0.  1.
        -11    1    1    2    0    0  0.99414954589E+02 -0.45783361209E+02  0.14831704562E+03  0.18432958357E+03  0.00000000000E+00 0.  1.
         11    1    1    2    0    0 -0.16753508435E+02 -0.31014415475E+01  0.72446963475E+02  0.74423527874E+02  0.00000000000E+00 0. -1.
</event>
<event>
 7    1  0.4966153E-006  0.1134294E+03  0.7561462E-02  0.1254348E+00
         -1   -1    0    0    0  501 -0.00000000000E+00  0.00000000000E+00  0.35398750649E+03  0.35398750649E+03  0.00000000000E+00 0. -1.
          1   -1    0    0  501    0  0.00000000000E+00 -0.00000000000E+00 -0.45191425802E+02  0.45191425802E+02  0.00000000000E+00 0.  1.
         23    2    1    2    0    0  0.11107431638E+02  0.58790715817E+02  0.25319594675E+03  0.28868024610E+03  0.12509345999E+03 0.  0.
          5    1    3    3  502    0  0.78112680482E+00  0.95102297138E+02  0.14015042132E+03  0.16942452620E+03  0.41800000000E+01 0.  1.
         -5    1    3    3    0  502  0.10326304833E+02 -0.36311581321E+02  0.11304552543E+03  0.11925571990E+03  0.41800000000E+01 0.  1.
        -11    1    1    2    0    0 -0.39128025782E+02 -0.51587605925E+02  0.47958739080E+02  0.80574959763E+02  0.00000000000E+00 0. -1.
         11    1    1    2    0    0  0.28020594144E+02 -0.72031098916E+01  0.76413948574E+01  0.29923726433E+02  0.00000000000E+00 0.  1.
</event>
<event>
 7    1  0.6253001E-006  0.1864355E+03  0.7561462E-02  0.1161716E+00
         -1   -1    0    0    0  501 -0.00000000000E+00  0.00000000000E+00  0.51607368551E+02  0.51607368551E+02  0.00000000000E+00 0.  1.
          1   -1    0    0  501    0  0.00000000000E+00 -0.00000000000E+00 -0.85870874432E+03  0.85870874432E+03  0.00000000000E+00 0. -1.
         23    2    1    2    0    0 -0.16543119213E+03  0.25478586864E+02 -0.27578565344E+03  0.34600889465E+03  0.12509113006E+03 0.  0.
          5    1    3    3  502    0 -0.46006363634E+02 -0.45117349209E+02 -0.12739749292E+03  0.14282770843E+03  0.41800000000E+01 0. -1.
         -5    1    3    3    0  502 -0.11942482850E+03  0.70595936073E+02 -0.14838816052E+03  0.20318118622E+03  0.41800000000E+01 0. -1.
        -11    1    1    2    0    0  0.90504796862E+02 -0.44027673937E+00 -0.40754568075E+03  0.41747430340E+03  0.00000000000E+00 0. -1.
         11    1    1    2    0    0  0.74926395269E+02 -0.25038310125E+02 -0.12377004158E+03  0.14683291482E+03  0.00000000000E+00 0.  1.
</event>
<event>
 7    1  0.4966153E-006  0.1071647E+03  0.7561462E-02  0.1265912E+00
          4   -1    0    0  501    0  0.00000000000E+00  0.00000000000E+00  0.44833276352E+02  0.44833276352E+02  0.00000000000E+00 0. -1.
         -4   -1    0    0    0  501 -0.00000000000E+00 -0.00000000000E+00 -0.36021551490E+03  0.36021551490E+03  0.00000000000E+00 0.  1.
         23    2    1    2    0    0  0.41800773894E+02  0.46264691096E+02 -0.21407670442E+03  0.25566379410E+03  0.12508962346E+03 0.  0.
          5    1    3    3  502    0 -0.68821207447E+01  0.55912459881E+02 -0.28021083537E+02  0.63057277760E+02  0.41800000000E+01 0.  1.
         -5    1    3    3    0  502  0.48682894639E+02 -0.96477687852E+01 -0.18605562089E+03  0.19260651634E+03  0.41800000000E+01 0.  1.
        -11    1    1    2    0    0 -0.56299001945E+02  0.32974266962E+01 -0.66089662569E+02  0.86880919316E+02  0.00000000000E+00 0.  1.
         11    1    1    2    0    0  0.14498228051E+02 -0.49562117792E+02 -0.35215871556E+02  0.62504077836E+02  0.00000000000E+00 0. -1.
</event>
<event>
 6    1  0.4966153E-006  0.8476384E+02  0.7561462E-02  0.1316051E+00
          1   -1    0    0  501    0  0.00000000000E+00  0.00000000000E+00  0.30563289445E+03  0.30563289445E+03  0.00000000000E+00 0. -1.
         -1   -1    0    0    0  501 -0.00000000000E+00 -0.00000000000E+00 -0.57516515248E+02  0.57516515248E+02  0.00000000000E+00 0.  1.
          5    1    1    2  502    0  0.26217827148E+02  0.26105428398E+02  0.95602763367E+02  0.10259741038E+03  0.41800000000E+01 0. -1.
         -5    1    1    2    0  502 -0.31370021751E+02  0.23711261379E+02 -0.31233996529E+02  0.50391835847E+02  0.41800000000E+01 0.  1.
        -11    1    1    2    0    0 -0.99359990247E+01  0.19459429311E+02  0.90039059461E+02  0.92652175875E+02  0.00000000000E+00 0.  1.
         11    1    1    2    0    0  0.15088193627E+02 -0.69276119088E+02  0.93708552897E+02  0.11750798760E+03  0.00000000000E+00 0. -1.
</event>
<event>
 7    1  0.4966153E-006  0.1656281E+03  0.7561462E-02  0.1182485E+00
         -1   -1    0    0    0  501 -0.00000000000E+00  0.00000000000E+00  0.29273752778E+03  0.29273752778E+03  0.00000000000E+00 0.  1.
          1   -1    0    0  501    0  0.00000000000E+00 -0.00000000000E+00 -0.11665449913E+03  0.11665449913E+03  0.00000000000E+00 0. -1.
         23    2    1    2    0    0 -0.21146849890E+02 -0.14198413855E+03  0.14614795151E+03  0.24002768475E+03  0.12508949139E+03 0.  0.
          5    1    3    3  502    0  0.50397334700E+02 -0.53402115265E+02  0.78255216107E+02  0.10739193875E+03  0.41800000000E+01 0.  1.
         -5    1    3    3    0  502 -0.71544184591E+02 -0.88582023287E+02  0.67892735407E+02  0.13263574601E+03  0.41800000000E+01 0.  1.
        -11    1    1    2    0    0  0.62006853453E+01  0.22052224118E+02 -0.27299791768E+02  0.35637448251E+02  0.00000000000E+00 0.  1.
         11    1    1    2    0    0  0.14946164545E+02  0.11993191443E+03  0.57234868899E+02  0.13372689390E+03  0.00000000000E+00 0. -1.
</event>
<event>
 7    1  0.4966153E-006  0.1483427E+03  0.7561462E-02  0.1202524E+00
          2   -1    0    0  501    0  0.00000000000E+00  0.00000000000E+00  0.34256494073E+03  0.34256494073E+03  0.00000000000E+00 0. -1.
         -2   -1    0    0    0  501 -0.00000000000E+00 -0.00000000000E+00 -0.75105393136E+02  0.75105393136E+02  0.00000000000E+00 0.  1.
         23    2    1    2    0    0 -0.11542581754E+03 -0.16160611837E+02  0.12075648902E+03  0.20932860000E+03  0.12510814684E+03 0.  0.
          5    1    3    3  502    0 -0.23087232263E+02  0.41823493917E+02  0.19162886023E+01  0.47993431832E+02  0.41800000000E+01 0.  1.
         -5    1    3    3    0  502 -0.92338585280E+02 -0.57984105755E+02  0.11884020042E+03  0.16133516817E+03  0.41800000000E+01 0.  1.
        -11    1    1    2    0    0  0.37344042997E+02 -0.30880716542E+02  0.86344102681E+02  0.99012626818E+02  0.00000000000E+00 0.  1.
         11    1    1    2    0    0  0.78081774546E+02  0.47041328379E+02  0.60358955889E+02  0.10932910705E+03  0.00000000000E+00 0. -1.
</event>
<event>
 6    1  0.1851524E-005  0.3837801E+02  0.7561462E-02  0.1520498E+00
          2   -1    0    0  501    0  0.00000000000E+00  0.00000000000E+00  0.25584808278E+03  0.25584808278E+03  0.00000000000E+00 0. -1.
         -2   -1    0    0    0  501 -0.00000000000E+00 -0.00000000000E+00 -0.36639225106E+02  0.36639225106E+02  0.00000000000E+00 0.  1.
          5    1    1    2  502    0 -0.20755423578E+02 -0.22251528497E+02  0.20855972911E+03  0.21080927668E+03  0.41800000000E+01 0. -1.
         -5    1    1    2    0  502  0.18316538054E+02 -0.37568316492E+01 -0.28359727963E+02  0.34225077362E+02  0.41800000000E+01 0.  1.
        -11    1    1    2    0    0  0.44879074945E+01  0.14050597932E+02  0.23770093288E+02  0.27974594740E+02  0.00000000000E+00 0.  1.
         11    1    1    2    0    0 -0.20490219710E+01  0.11957762215E+02  0.15238763232E+02  0.19478359096E+02  0.00000000000E+00 0. -1.
</event>
<event>
 7    1  0.4966153E-006  0.1067726E+03  0.7561462E-02  0.1266666E+00
          1   -1    0    0  501    0  0.00000000000E+00  0.00000000000E+00  0.67374900279E+03  0.67374900279E+03  0.00000000000E+00 0. -1.
         -1   -1    0    0    0  501 -0.00000000000E+00 -0.00000000000E+00 -0.23077764426E+02  0.23077764426E+02  0.00000000000E+00 0.  1.
         23    2    1    2    0    0 -0.40107381891E+02  0.38364252468E+02  0.28808066578E+03  0.31893676121E+03  0.12509903959E+03 0.  0.
          5    1    3    3  502    0  0.35941596138E+02  0.95850888261E+01  0.28963818907E+02  0.47329139718E+02  0.41800000000E+01 0. -1.
         -5    1    3    3    0  502 -0.76048978029E+02  0.28779163641E+02  0.25911684688E+03  0.27160762150E+03  0.41800000000E+01 0. -1.
        -11    1    1    2    0    0  0.15589135396E+02 -0.60001318616E+02  0.30862851870E+03  0.31479317326E+03  0.00000000000E+00 0. -1.
         11    1    1    2    0    0  0.24518246494E+02  0.21637066149E+02  0.53962053882E+02  0.63096832740E+02  0.00000000000E+00 0.  1.
</event>
<event>
 7    1  0.4966153E-006  0.9033687E+02  0.7561462E-02  0.1302038E+00
         -2   -1    0    0    0  501 -0.00000000000E+00  0.00000000000E+00  0.57257514517E+02  0.57257514517E+02  0.00000000000E+00 0.  1.
          2   -1    0    0  501    0  0.00000000000E+00 -0.00000000000E+00 -0.21636912281E+03  0.21636912281E+03  0.00000000000E+00 0. -1.
         23    2    1    2    0    0  0.93432387228E+01  0.53074022136E+02 -0.69423984322E+02  0.15287516466E+03  0.12508788285E+03 0.  0.
          5    1    3    3  502    0  0.49920965306E+02  0.39859345039E+02  0.78536321489E+01  0.64498233324E+02  0.41800000000E+01 0.  1.
         -5    1    3    3    0  502 -0.40577726583E+02  0.13214677098E+02 -0.77277616471E+02  0.88376931339E+02  0.41800000000E+01 0.  1.
        -11    1    1    2    0    0 -0.29257582535E+02 -0.20968154699E+02 -0.19245534667E+02  0.40817401337E+02  0.00000000000E+00 0.  1.
         11    1    1    2    0    0  0.19914343812E+02 -0.32105867437E+02 -0.70442089299E+02  0.79934071323E+02  0.00000000000E+00 0. -1.
</event>
<event>
 7    1  0.4966153E-006  0.8828218E+02  0.7561462E-02  0.1307066E+00
          2   -1    0    0  501    0  0.00000000000E+00  0.00000000000E+00  0.31366360214E+03  0.31366360214E+03  0.00000000000E+00 0. -1.
         -2   -1    0    0    0  501 -0.00000000000E+00 -0.00000000000E+00 -0.55649409138E+02  0.55649409138E+02  0.00000000000E+00 0.  1.
         23    2    1    2    0    0 -0.16461715656E+02  0.25020862418E+02  0.45488262709E+02  0.13642809587E+03  0.12508561732E+03 0.  0.
          5    1    3    3  502    0 -0.47409102650E+02 -0.20661489274E+02 -0.15428934453E+02  0.54129886121E+02  0.41800000000E+01 0.  1.
         -5    1    3    3    0  502  0.30947386995E+02  0.45682351692E+02  0.60917197162E+02  0.82298209749E+02  0.41800000000E+01 0.  1.
        -11    1    1    2    0    0  0.14258482867E+02  0.19838178864E+02  0.11681161095E+02  0.27079645471E+02  0.00000000000E+00 0.  1.
         11    1    1    2    0    0  0.22032327889E+01 -0.44859041282E+02  0.20084476920E+03  0.20580526994E+03  0.00000000000E+00 0. -1.
</event>
<event>
 7    1  0.4966153E-006  0.1327367E+03  0.7561462E-02  0.1223451E+00
         -2   -1    0    0    0  501 -0.00000000000E+00  0.00000000000E+00  0.63797256683E+02  0.63797256683E+02  0.00000000000E+00 0.  1.
          2   -1    0    0  501    0  0.00000000000E+00 -0.00000000000E+00 -0.46260144471E+03  0.46260144471E+03  0.00000000000E+00 0. -1.
         23    2    1    2    0    0 -0.86581077991E+02  0.73303592457E+02 -0.10397381073E+03  0.19831229047E+03  0.12509001359E+03 0.  0.
          5    1    3    3  502    0 -0.93784909142E+02  0.38205804583E+02 -0.12148587735E+03  0.15821372723E+03  0.41800000000E+01 0.  1.
         -5    1    3    3    0  502  0.72038311507E+01  0.35097787873E+02  0.17512066620E+02  0.40098563243E+02  0.41800000000E+01 0.  1.
        -11    1    1    2    0    0  0.76927791031E+02 -0.28219533164E+02 -0.25261896402E+03  0.26557591771E+03  0.00000000000E+00 0. -1.
         11    1    1    2    0    0  0.96532869595E+01 -0.45084059293E+02 -0.42211413278E+02  0.62510493218E+02  0.00000000000E+00 0.  1.
</event>
<event>
 7    1  0.4966153E-006  0.9436495E+02  0.7561462E-02  0.1292613E+00
          1   -1    0    0  501    0  0.00000000000E+00  0.00000000000E+00  0.32233158830E+03  0.32233158830E+03  0.00000000000E+00 0. -1.
         -1   -1    0    0    0  501 -0.00000000000E+00 -0.00000000000E+00 -0.57653080349E+02  0.57653080349E+02  0.00000000000E+00 0.  1.
         23    2    1    2    0    0 -0.10608894923E+00  0.46328823786E+02  0.51256942485E+02  0.14290574043E+03  0.12509358627E+03 0.  0.
          5    1    3    3  502    0 -0.30134250659E+02  0.70612762637E+02  0.66027931155E+02  0.10134789294E+03  0.41800000000E+01 0.  1.
         -5    1    3    3    0  502  0.30028161710E+02 -0.24283938851E+02 -0.14770988670E+02  0.41557847491E+02  0.41800000000E+01 0.  1.
        -11    1    1    2    0    0 -0.19029391251E+02 -0.50013209243E+02  0.21071678916E+03  0.21740516108E+03  0.00000000000E+00 0. -1.
         11    1    1    2    0    0  0.19135480200E+02  0.36843854569E+01  0.27047763056E+01  0.19673767142E+02  0.00000000000E+00 0.  1.
</event>
<event>
 7    1  0.4966153E-006  0.1186649E+03  0.7561462E-02  0.1245316E+00
         -1   -1    0    0    0  501 -0.00000000000E+00  0.00000000000E+00  0.67771353872E+02  0.67771353872E+02  0.00000000000E+00 0.  1.
          1   -1    0    0  501    0  0.00000000000E+00 -0.00000000000E+00 -0.27034024829E+03  0.27034024829E+03  0.00000000000E+00 0. -1.
         23    2    1    2    0    0 -0.13438564503E+01  0.70173611568E+02 -0.53830311852E+02  0.15320345059E+03  0.12508978011E+03 0.  0.
          5    1    3    3  502    0 -0.54757191931E+02  0.27617082586E+02 -0.58188838658E+02  0.84643172572E+02  0.41800000000E+01 0. -1.
         -5    1    3    3    0  502  0.53413335480E+02  0.42556528982E+02  0.43585268058E+01  0.68560278019E+02  0.41800000000E+01 0. -1.
        -11    1    1    2    0    0  0.37363492284E+02 -0.58798070876E+02 -0.11393527764E+03  0.13354583927E+03  0.00000000000E+00 0.  1.
         11    1    1    2    0    0 -0.36019635833E+02 -0.11375540692E+02 -0.34803304924E+02  0.51362312304E+02  0.00000000000E+00 0. -1.
</event>
<event>
 7    1  0.4966153E-006  0.2785219E+03  0.7561462E-02  0.1096499E+00
         -2   -1    0    0    0  501 -0.00000000000E+00  0.00000000000E+00  0.95311913983E+02  0.95311913983E+02  0.00000000000E+00 0. -1.
          2   -1    0    0  501    0  0.00000000000E+00 -0.00000000000E+00 -0.87366046450E+03  0.87366046450E+03  0.00000000000E+00 0.  1.
         23    2    1    2    0    0  0.25813278122E+03  0.33229276624E+02 -0.29498698058E+03  0.41279383769E+03  0.12507883978E+03 0.  0.
          5    1    3    3  502    0  0.43275171213E+02 -0.36803578554E+02 -0.96161675099E+02  0.11176664975E+03  0.41800000000E+01 0. -1.
         -5    1    3    3    0  502  0.21485761000E+03  0.70032855178E+02 -0.19882530548E+03  0.30102718794E+03  0.41800000000E+01 0. -1.
        -11    1    1    2    0    0 -0.67129959887E+02 -0.47940889852E+02 -0.12374449435E+03  0.14871940128E+03  0.00000000000E+00 0.  1.
         11    1    1    2    0    0 -0.19100282133E+03  0.14711613229E+02 -0.35961707559E+03  0.40745913952E+03  0.00000000000E+00 0. -1.
</event>
<event>
 7    1  0.4966153E-006  0.3070452E+03  0.7561462E-02  0.1081771E+00
          1   -1    0    0  501    0  0.00000000000E+00  0.00000000000E+00  0.36962048983E+03  0.36962048983E+03  0.00000000000E+00 0. -1.
         -1   -1    0    0    0  501 -0.00000000000E+00 -0.00000000000E+00 -0.28545895911E+03  0.28545895911E+03  0.00000000000E+00 0.  1.
         23    2    1    2    0    0  0.52091873263E+02 -0.29568870229E+03 -0.18543226569E+02  0.32578379880E+03  0.12508341372E+03 0.  0.
          5    1    3    3  502    0 -0.51779235274E+01 -0.46101689036E+02  0.41887393941E+02  0.62643457721E+02  0.41800000000E+01 0. -1.
         -5    1    3    3    0  502  0.57269796790E+02 -0.24958701325E+03 -0.60430620509E+02  0.26314034108E+03  0.41800000000E+01 0. -1.
        -11    1    1    2    0    0 -0.70943291618E+02  0.16850368864E+03  0.75894833160E+02  0.19795572589E+03  0.00000000000E+00 0. -1.
         11    1    1    2    0    0  0.18851418355E+02  0.12718501365E+03  0.26809924136E+02  0.13133992425E+03  0.00000000000E+00 0.  1.
</event>
<event>
 7    1  0.4966153E-006  0.8214910E+02  0.7561462E-02  0.1323061E+00
         -1   -1    0    0    0  501 -0.00000000000E+00  0.00000000000E+00  0.50093688803E+02  0.50093688803E+02  0.00000000000E+00 0.  1.
          1   -1    0    0  501    0  0.00000000000E+00 -0.00000000000E+00 -0.29687868156E+03  0.29687868156E+03  0.00000000000E+00 0. -1.
         23    2    1    2    0    0  0.51282944673E+02 -0.16250067364E+02 -0.14179650360E+03  0.19659007011E+03  0.12508957642E+03 0.  0.
          5    1    3    3  502    0  0.31732623302E+02 -0.51560804410E+02 -0.14367798808E+03  0.15596894752E+03  0.41800000000E+01 0. -1.
         -5    1    3    3    0  502  0.19550321371E+02  0.35310737046E+02  0.18814844780E+01  0.40621122587E+02  0.41800000000E+01 0. -1.
        -11    1    1    2    0    0 -0.28600276020E+02  0.25709596350E+02 -0.11690606164E+03  0.12306903096E+03  0.00000000000E+00 0. -1.
         11    1    1    2    0    0 -0.22682668653E+02 -0.94595289861E+01  0.11917572481E+02  0.27313269297E+02  0.00000000000E+00 0.  1.
</event>
<event>
 7    1  0.4966153E-006  0.1146686E+03  0.7561462E-02  0.1252161E+00
         -1   -1    0    0    0  501 -0.00000000000E+00  0.00000000000E+00  0.68183873347E+02  0.68183873347E+02  0.00000000000E+00 0.  1.
          1   -1    0    0  501    0  0.00000000000E+00 -0.00000000000E+00 -0.29691327084E+03  0.29691327084E+03  0.00000000000E+00 0. -1.
         23    2    1    2    0    0  0.43233463300E+02 -0.24546310465E+02 -0.24751861923E+02  0.13455403908E+03  0.12255807218E+03 0.  0.
          5    1    3    3  502    0 -0.41796653542E+02 -0.15968004089E+02 -0.19023512720E+02  0.48798604878E+02  0.41800000000E+01 0. -1.
         -5    1    3    3    0  502  0.85030116842E+02 -0.85783063758E+01 -0.57283492039E+01  0.85755434201E+02  0.41800000000E+01 0.  1.
        -11    1    1    2    0    0 -0.51870665115E+02  0.49945539152E+02 -0.10043285571E+03  0.12357945333E+03  0.00000000000E+00 0.  1.
         11    1    1    2    0    0  0.86372018153E+01 -0.25399228687E+02 -0.10354467987E+03  0.10696365178E+03  0.00000000000E+00 0. -1.
</event>
<event>
 7    1  0.4966153E-006  0.1030533E+03  0.7561462E-02  0.1274003E+00
         -1   -1    0    0    0  501 -0.00000000000E+00  0.00000000000E+00  0.12598966745E+03  0.12598966745E+03  0.00000000000E+00 0.  1.
          1   -1    0    0  501    0  0.00000000000E+00 -0.00000000000E+00 -0.10849111322E+03  0.10849111322E+03  0.00000000000E+00 0. -1.
         23    2    1    2    0    0  0.33467123593E+02  0.30691569678E+02  0.16201218556E+02  0.13406150526E+03  0.12509191381E+03 0.  0.
          5    1    3    3  502    0 -0.30769884546E+02 -0.73281639307E+01 -0.31935940028E+02  0.45142712004E+02  0.41800000000E+01 0. -1.
         -5    1    3    3    0  502  0.64237008138E+02  0.38019733609E+02  0.48137158584E+02  0.88918793260E+02  0.41800000000E+01 0. -1.
        -11    1    1    2    0    0 -0.64007009571E+02 -0.19468141924E+02  0.74162496980E+01  0.67312009209E+02  0.00000000000E+00 0.  1.
         11    1    1    2    0    0  0.30539885978E+02 -0.11223427754E+02 -0.61189140290E+01  0.33107266196E+02  0.00000000000E+00 0. -1.
</event>
<event>
 7    1  0.4966153E-006  0.1596493E+03  0.7561462E-02  0.1189093E+00
          1   -1    0    0  501    0  0.00000000000E+00  0.00000000000E+00  0.46682603371E+03  0.46682603371E+03  0.00000000000E+00 0. -1.
         -1   -1    0    0    0  501 -0.00000000000E+00 -0.00000000000E+00 -0.60212334951E+02  0.60212334951E+02  0.00000000000E+00 0.  1.
         23    2    1    2    0    0 -0.11645995212E+03  0.50294702375E+02  0.18366962586E+03  0.25587989589E+03  0.12509001609E+03 0.  0.
          5    1    3    3  502    0 -0.12442575002E+03  0.17106513824E+01  0.15478392169E+03  0.19864598765E+03  0.41800000000E+01 0. -1.
         -5    1    3    3    0  502  0.79657979024E+01  0.48584050992E+02  0.28885704167E+02  0.57233908238E+02  0.41800000000E+01 0. -1.
        -11    1    1    2    0    0  0.58348789266E+02  0.12659536394E+02  0.48920368956E+02  0.77188390120E+02  0.00000000000E+00 0.  1.
         11    1    1    2    0    0  0.58111162856E+02 -0.62954238768E+02  0.17402370395E+03  0.19397008265E+03  0.00000000000E+00 0. -1.
</event>
<event>
 7    1  0.4966153E-006  0.1221081E+03  0.7561462E-02  0.1239659E+00
          2   -1    0    0  501    0  0.00000000000E+00  0.00000000000E+00  0.59575010655E+03  0.59575010655E+03  0.00000000000E+00 0. -1.
         -2   -1    0    0    0  501 -0.00000000000E+00 -0.00000000000E+00 -0.32504047842E+02  0.32504047842E+02  0.00000000000E+00 0.  1.
         23    2    1    2    0    0 -0.84665594208E+02 -0.13209294733E+02  0.34953201231E+03  0.38100019435E+03  0.12508306100E+03 0.  0.
          5    1    3    3  502    0  0.26810763397E+02  0.56767207343E+01  0.14151239217E+03  0.14420219045E+03  0.41800000000E+01 0. -1.
         -5    1    3    3    0  502 -0.11147635761E+03 -0.18886015467E+02  0.20801962014E+03  0.23679800390E+03  0.41800000000E+01 0. -1.
        -11    1    1    2    0    0  0.60915619849E+02 -0.18565631158E+02  0.56568513415E+02  0.85178589516E+02  0.00000000000E+00 0.  1.
         11    1    1    2    0    0  0.23749974359E+02  0.31774925891E+02  0.15714553298E+03  0.16207537053E+03  0.00000000000E+00 0. -1.
</event>
<event>
 7    1  0.4966153E-006  0.2188452E+03  0.7561462E-02  0.1134747E+00
          1   -1    0    0  501    0  0.00000000000E+00  0.00000000000E+00  0.25143681269E+03  0.25143681269E+03  0.00000000000E+00 0. -1.
         -1   -1    0    0    0  501 -0.00000000000E+00 -0.00000000000E+00 -0.21014724885E+03  0.21014724885E+03  0.00000000000E+00 0.  1.
         23    2    1    2    0    0 -0.60514907203E+02 -0.19310694712E+03  0.12223416958E+02  0.23822254680E+03  0.12509285696E+03 0.  0.
          5    1    3    3  502    0 -0.64043165251E+02 -0.20630675885E+03  0.26914677473E+02  0.21772890949E+03  0.41800000000E+01 0.  1.
         -5    1    3    3    0  502  0.35282580483E+01  0.13199811735E+02 -0.14691260515E+02  0.20493637310E+02  0.41800000000E+01 0.  1.
        -11    1    1    2    0    0  0.19691558861E+02  0.13441597642E+03 -0.19057802921E+02  0.13718094642E+03  0.00000000000E+00 0.  1.
         11    1    1    2    0    0  0.40823348342E+02  0.58690970697E+02  0.48123949811E+02  0.86180568324E+02  0.00000000000E+00 0. -1.
</event>
<event>
 7    1  0.4966153E-006  0.1411683E+03  0.7561462E-02  0.1211766E+00
          2   -1    0    0  501    0  0.00000000000E+00  0.00000000000E+00  0.47793626304E+03  0.47793626304E+03  0.00000000000E+00 0. -1.
         -2   -1    0    0    0  501 -0.00000000000E+00 -0.00000000000E+00 -0.69658431657E+02  0.69658431657E+02  0.00000000000E+00 0.  1.
         23    2    1    2    0    0  0.81092820433E+02  0.70766994594E+02  0.65180186035E+02  0.17742696415E+03  0.12509139821E+03 0.  0.
          5    1    3    3  502    0  0.56371809855E+02 -0.11762654916E+02 -0.15008369456E+02  0.59656219715E+02  0.41800000000E+01 0. -1.
         -5    1    3    3    0  502  0.24721010578E+02  0.82529649511E+02  0.80188555491E+02  0.11777074443E+03  0.41800000000E+01 0. -1.
        -11    1    1    2    0    0 -0.20244676479E+02 -0.74676103245E+02  0.17452221099E+03  0.19090408443E+03  0.00000000000E+00 0.  1.
         11    1    1    2    0    0 -0.60848143954E+02  0.39091086501E+01  0.16857543436E+03  0.17926364613E+03  0.00000000000E+00 0. -1.
</event>
<event>
 7    1  0.4966153E-006  0.9753491E+02  0.7561462E-02  0.1285567E+00
          1   -1    0    0  501    0  0.00000000000E+00  0.00000000000E+00  0.15744842432E+03  0.15744842432E+03  0.00000000000E+00 0. -1.
         -1   -1    0    0    0  501 -0.00000000000E+00 -0.00000000000E+00 -0.14289245291E+03  0.14289245291E+03  0.00000000000E+00 0.  1.
         23    2    1    2    0    0  0.55900836910E+01  0.62853147950E+02 -0.80254892219E+02  0.15597817217E+03  0.11792614309E+03 0.  0.
          5    1    3    3  502    0  0.64599837042E+01 -0.31686845398E+02 -0.11389256424E+01  0.32627551431E+02  0.41800000000E+01 0. -1.
         -5    1    3    3    0  502 -0.86990001322E+00  0.94539993348E+02 -0.79115966576E+02  0.12335062073E+03  0.41800000000E+01 0.  1.
        -11    1    1    2    0    0  0.40972823250E+01 -0.55532456714E+02  0.11096578752E+03  0.12415332243E+03  0.00000000000E+00 0. -1.
         11    1    1    2    0    0 -0.96873660160E+01 -0.73206912359E+01 -0.16154923888E+02  0.20209382631E+02  0.00000000000E+00 0.  1.
</event>
<event>
 7    1  0.4966153E-006  0.1343625E+03  0.7561462E-02  0.1221122E+00
         -2   -1    0    0    0  501 -0.00000000000E+00  0.00000000000E+00  0.31171751066E+02  0.31171751066E+02  0.00000000000E+00 0.  1.
          2   -1    0    0  501    0  0.00000000000E+00 -0.00000000000E+00 -0.84339142737E+03  0.84339142737E+03  0.00000000000E+00 0. -1.
         23    2    1    2    0    0 -0.10271196901E+03 -0.17198693510E+02 -0.27983267513E+03  0.32372914356E+03  0.12509471883E+03 0.  0.
          5    1    3    3  502    0 -0.11766229260E+03 -0.15931193272E+02 -0.28379217862E+03  0.30765839995E+03  0.41800000000E+01 0. -1.
         -5    1    3    3    0  502  0.14950323583E+02 -0.12675002384E+01  0.39595034833E+01  0.16070743602E+02  0.41800000000E+01 0. -1.
        -11    1    1    2    0    0  0.23224285010E+02 -0.32981793308E+02 -0.90867439807E+02  0.99418598467E+02  0.00000000000E+00 0.  1.
         11    1    1    2    0    0  0.79487684002E+02  0.50180486818E+02 -0.44151956136E+03  0.45141543641E+03  0.00000000000E+00 0. -1.
</event>
<event>
 7    1  0.4966153E-006  0.1132284E+03  0.7561462E-02  0.1254705E+00
          2   -1    0    0  501    0  0.00000000000E+00  0.00000000000E+00  0.55015075997E+02  0.55015075997E+02  0.00000000000E+00 0. -1.
         -2   -1    0    0    0  501 -0.00000000000E+00 -0.00000000000E+00 -0.29344244751E+03  0.29344244751E+03  0.00000000000E+00 0.  1.
         23    2    1    2    0    0 -0.55735521379E+02 -0.28636115849E+02 -0.16032046402E+03  0.21278374637E+03  0.12509115101E+03 0.  0.
          5    1    3    3  502    0 -0.91102273429E+02 -0.43457917006E+02 -0.12220256421E+03  0.15855331556E+03  0.41800000000E+01 0. -1.
         -5    1    3    3    0  502  0.35366752050E+02  0.14821801157E+02 -0.38117899807E+02  0.54230430810E+02  0.41800000000E+01 0. -1.
        -11    1    1    2    0    0  0.44721200798E+02  0.47358946202E+02 -0.12187558636E+02  0.66267580096E+02  0.00000000000E+00 0. -1.
         11    1    1    2    0    0  0.11014320581E+02 -0.18722830353E+02 -0.65919348862E+02  0.69406197049E+02  0.00000000000E+00 0.  1.
</event>
<event>
 7    1  0.4966153E-006  0.9068121E+02  0.7561462E-02  0.1301210E+00
          1   -1    0    0  501    0  0.00000000000E+00  0.00000000000E+00  0.11047838669E+03  0.11047838669E+03  0.00000000000E+00 0. -1.
         -1   -1    0    0    0  501 -0.00000000000E+00 -0.00000000000E+00 -0.18780529705E+03  0.18780529705E+03  0.00000000000E+00 0.  1.
         23    2    1    2    0    0 -0.42149327718E+02  0.63803025830E+02 -0.94452471080E+02  0.17440200435E+03  0.12508955951E+03 0.  0.
          5    1    3    3  502    0  0.39494357489E+01  0.34822989873E+02  0.24869527647E+02  0.43176434218E+02  0.41800000000E+01 0.  1.
         -5    1    3    3    0  502 -0.46098763467E+02  0.28980035957E+02 -0.11932199873E+03  0.13122557014E+03  0.41800000000E+01 0.  1.
        -11    1    1    2    0    0  0.43935829354E+02 -0.21142116124E+02 -0.32361558773E+02  0.58520224380E+02  0.00000000000E+00 0.  1.
         11    1    1    2    0    0 -0.17865016367E+01 -0.42660909706E+02  0.49487119493E+02  0.65361455008E+02  0.00000000000E+00 0. -1.
</event>
<event>
 7    1  0.4966153E-006  0.1754772E+03  0.7561462E-02  0.1172253E+00
          2   -1    0    0  501    0  0.00000000000E+00  0.00000000000E+00  0.75412302554E+03  0.75412302554E+03  0.00000000000E+00 0. -1.
         -2   -1    0    0    0  501 -0.00000000000E+00 -0.00000000000E+00 -0.64296055498E+02  0.64296055498E+02  0.00000000000E+00 0.  1.
         23    2    1    2    0    0 -0.12918799559E+03  0.10077842884E+03  0.17258763723E+03  0.26884867084E+03  0.12508910970E+03 0.  0.
          5    1    3    3  502    0 -0.42499935388E+02  0.84780625426E+02  0.15039752359E+03  0.17785074208E+03  0.41800000000E+01 0. -1.
         -5    1    3    3    0  502 -0.86688060205E+02  0.15997803410E+02  0.22190113641E+02  0.90997928765E+02  0.41800000000E+01 0. -1.
        -11    1    1    2    0    0  0.45111679804E+02 -0.14693953843E+02  0.58546857101E+02  0.75357218703E+02  0.00000000000E+00 0.  1.
         11    1    1    2    0    0  0.84076315790E+02 -0.86084474993E+02  0.45869247571E+03  0.47421319149E+03  0.00000000000E+00 0. -1.
</event>
<event>
 7    1  0.4966153E-006  0.7741004E+02  0.7561462E-02  0.1336566E+00
          2   -1    0    0  501    0  0.00000000000E+00  0.00000000000E+00  0.48029720987E+02  0.48029720987E+02  0.00000000000E+00 0.  1.
         -2   -1    0    0    0  501 -0.00000000000E+00 -0.00000000000E+00 -0.33127671401E+03  0.33127671401E+03  0.00000000000E+00 0. -1.
         23    2    1    2    0    0 -0.52818211371E+02 -0.11154255645E+02 -0.21187816249E+03  0.25190021484E+03  0.12508869503E+03 0.  0.
          5    1    3    3  502    0 -0.72248195136E+02 -0.56363347452E+01 -0.48671690108E+02  0.87395513545E+02  0.41800000000E+01 0. -1.
         -5    1    3    3    0  502  0.19429983765E+02 -0.55179208995E+01 -0.16320647238E+03  0.16450470129E+03  0.41800000000E+01 0. -1.
        -11    1    1    2    0    0  0.27216985702E+02 -0.93786886712E+01  0.16797623873E+02  0.33329930688E+02  0.00000000000E+00 0.  1.
         11    1    1    2    0    0  0.25601225670E+02  0.20532944316E+02 -0.88166454403E+02  0.94076289468E+02  0.00000000000E+00 0. -1.
</event>
<event>
 7    1  0.4966153E-006  0.1323558E+03  0.7561462E-02  0.1224001E+00
         -2   -1    0    0    0  501 -0.00000000000E+00  0.00000000000E+00  0.10288690700E+03  0.10288690700E+03  0.00000000000E+00 0.  1.
          2   -1    0    0  501    0  0.00000000000E+00 -0.00000000000E+00 -0.19753016957E+03  0.19753016957E+03  0.00000000000E+00 0. -1.
         23    2    1    2    0    0  0.82214441012E+02 -0.42196124355E+02 -0.40421052366E+02  0.16068896657E+03  0.12508938917E+03 0.  0.
          5    1    3    3  502    0 -0.11836640985E+02  0.31114222386E+02  0.30651955688E+01  0.33690781059E+02  0.41800000000E+01 0. -1.
         -5    1    3    3    0  502  0.94051081998E+02 -0.73310346741E+02 -0.43486247935E+02  0.12699818551E+03  0.41800000000E+01 0. -1.
        -11    1    1    2    0    0 -0.36603648035E+02  0.53524013855E+02 -0.64674948286E+02  0.91583273824E+02  0.00000000000E+00 0.  1.
         11    1    1    2    0    0 -0.45610792977E+02 -0.11327889500E+02  0.10452738091E+02  0.48144836173E+02  0.00000000000E+00 0. -1.
</event>
<event>
 7    1  0.4966153E-006  0.8742528E+02  0.7561462E-02  0.1309209E+00
          2   -1    0    0  501    0  0.00000000000E+00  0.00000000000E+00  0.29631437316E+03  0.29631437316E+03  0.00000000000E+00 0. -1.
         -2   -1    0    0    0  501 -0.00000000000E+00 -0.00000000000E+00 -0.65018239352E+02  0.65018239352E+02  0.00000000000E+00 0.  1.
         23    2    1    2    0    0  0.94394433111E+01 -0.60488263045E+02  0.48720087822E+02  0.14754375943E+03  0.12509029113E+03 0.  0.
          5    1    3    3  502    0 -0.20357229631E+02 -0.27117315944E+02 -0.37246705015E+02  0.50542606350E+02  0.41800000000E+01 0.  1.
         -5    1    3    3    0  502  0.29796672942E+02 -0.33370947102E+02  0.85966792837E+02  0.97001153084E+02  0.41800000000E+01 0.  1.
        -11    1    1    2    0    0  0.31480182214E+02  0.36967992626E+02  0.37861389964E+02  0.61572065103E+02  0.00000000000E+00 0.  1.
         11    1    1    2    0    0 -0.40919625525E+02  0.23520270419E+02  0.14471465602E+03  0.15221678797E+03  0.00000000000E+00 0. -1.
</event>
<event>
 6    1  0.4966153E-006  0.2410604E+03  0.7561462E-02  0.1119088E+00
         -2   -1    0    0    0  501 -0.00000000000E+00  0.00000000000E+00  0.15499385935E+03  0.15499385935E+03  0.00000000000E+00 0.  1.
          2   -1    0    0  501    0  0.00000000000E+00 -0.00000000000E+00 -0.45294449419E+03  0.45294449419E+03  0.00000000000E+00 0. -1.
          5    1    1    2  502    0  0.59979182172E+02  0.59418052025E+02 -0.12815357396E+03  0.15352139303E+03  0.41800000000E+01 0. -1.
         -5    1    1    2    0  502  0.35177266905E+02  0.14845490431E+03  0.39080457447E+01  0.15267299677E+03  0.41800000000E+01 0.  1.
        -11    1    1    2    0    0 -0.91493853264E+02 -0.94499411849E+02 -0.75220953015E+02  0.15152377964E+03  0.00000000000E+00 0.  1.
         11    1    1    2    0    0 -0.36625958127E+01 -0.11337354448E+03 -0.98484153618E+02  0.15022018410E+03  0.00000000000E+00 0. -1.
</event>
<event>
 7    1  0.4966153E-006  0.9825021E+02  0.7561462E-02  0.1284019E+00
         -1   -1    0    0    0  501 -0.00000000000E+00  0.00000000000E+00  0.12084310287E+03  0.12084310287E+03  0.00000000000E+00 0.  1.
          1   -1    0    0  501    0  0.00000000000E+00 -0.00000000000E+00 -0.10542397734E+03  0.10542397734E+03  0.00000000000E+00 0. -1.
         23    2    1    2    0    0 -0.11257608637E+01  0.26663000518E+02  0.27881957098E+02  0.13091307345E+03  0.12509454958E+03 0.  0.
          5    1    3    3  502    0  0.26529733779E+02  0.55998643751E+02  0.54329104188E+02  0.82515446059E+02  0.41800000000E+01 0. -1.
         -5    1    3    3    0  502 -0.27655494643E+02 -0.29335643234E+02 -0.26447147091E+02  0.48397627391E+02  0.41800000000E+01 0. -1.
        -11    1    1    2    0    0 -0.25383838698E+02 -0.51575458871E+02 -0.20730590712E+01  0.57520994417E+02  0.00000000000E+00 0.  1.
         11    1    1    2    0    0  0.26509599561E+02  0.24912458353E+02 -0.10389772502E+02  0.37833012340E+02  0.00000000000E+00 0. -1.
</event>
<event>
 7    1  0.4966153E-006  0.1301291E+03  0.7561462E-02  0.1227264E+00
         -2   -1    0    0    0  501 -0.00000000000E+00  0.00000000000E+00  0.55455976202E+02  0.55455976202E+02  0.00000000000E+00 0.  1.
          2   -1    0    0  501    0  0.00000000000E+00 -0.00000000000E+00 -0.49965117946E+03  0.49965117946E+03  0.00000000000E+00 0. -1.
         23    2    1    2    0    0 -0.20429795010E+02  0.10376423223E+03 -0.12225269886E+03  0.20438988806E+03  0.12508042032E+03 0.  0.
          5    1    3    3  502    0 -0.40100679521E+02  0.97951316938E+02 -0.14095506561E+03  0.17631882460E+03  0.41800000000E+01 0.  1.
         -5    1    3    3    0  502  0.19670884511E+02  0.58129152882E+01  0.18702366747E+02  0.28071063456E+02  0.41800000000E+01 0.  1.
        -11    1    1    2    0    0  0.33539391307E+02 -0.11266721402E+03 -0.23983825509E+03  0.26709769840E+03  0.00000000000E+00 0.  1.
         11    1    1    2    0    0 -0.13109596297E+02  0.89029817975E+01 -0.82104249305E+02  0.83619569205E+02  0.00000000000E+00 0. -1.
</event>
<event>
 7    1  0.4966153E-006  0.2090860E+03  0.7561462E-02  0.1142292E+00
         -1   -1    0    0    0  501 -0.00000000000E+00  0.00000000000E+00  0.28062555885E+02  0.28062555885E+02  0.00000000000E+00 0.  1.
          1   -1    0    0  501    0  0.00000000000E+00 -0.00000000000E+00 -0.16892534710E+04  0.16892534710E+04  0.00000000000E+00 0. -1.
         23    2    1    2    0    0 -0.11689076200E+02 -0.18586689017E+03 -0.75393826282E+03  0.78660580644E+03  0.12507060093E+03 0.  0.
          5    1    3    3  502    0  0.39810993743E+02 -0.28598986962E+02 -0.92517194945E+02  0.10478416406E+03  0.41800000000E+01 0. -1.
         -5    1    3    3    0  502 -0.51500069944E+02 -0.15726790321E+03 -0.66142106787E+03  0.68182164237E+03  0.41800000000E+01 0. -1.
        -11    1    1    2    0    0 -0.12732110731E+02 -0.29321905573E+01 -0.25632099665E+02  0.28769930802E+02  0.00000000000E+00 0.  1.
         11    1    1    2    0    0  0.24421186931E+02  0.18879908073E+03 -0.88162055259E+03  0.90194028960E+03  0.00000000000E+00 0. -1.
</event>
<event>
 7    1  0.4966153E-006  0.1198743E+03  0.7561462E-02  0.1243305E+00
          1   -1    0    0  501    0  0.00000000000E+00  0.00000000000E+00  0.17264064003E+03  0.17264064003E+03  0.00000000000E+00 0. -1.
         -1   -1    0    0    0  501 -0.00000000000E+00 -0.00000000000E+00 -0.98633956555E+02  0.98633956555E+02  0.00000000000E+00 0.  1.
         23    2    1    2    0    0 -0.15454933326E+02 -0.70620708545E+02  0.35322110794E+02  0.14873109036E+03  0.12508855379E+03 0.  0.
          5    1    3    3  502    0 -0.27294561909E+02 -0.93663958309E+02 -0.81112343403E+01  0.97985686294E+02  0.41800000000E+01 0.  1.
         -5    1    3    3    0  502  0.11839628583E+02  0.23043249764E+02  0.43433345134E+02  0.50745404070E+02  0.41800000000E+01 0.  1.
        -11    1    1    2    0    0  0.47991641874E+02  0.13059695544E+02  0.11475164678E+02  0.51043439753E+02  0.00000000000E+00 0.  1.
         11    1    1    2    0    0 -0.32536708548E+02  0.57561013001E+02  0.27209408000E+02  0.71500066465E+02  0.00000000000E+00 0. -1.
</event>
<event>
 7    1  0.4966153E-006  0.1391905E+03  0.7561462E-02  0.1214422E+00
          1   -1    0    0  501    0  0.00000000000E+00  0.00000000000E+00  0.19539855979E+03  0.19539855979E+03  0.00000000000E+00 0. -1.
         -1   -1    0    0    0  501 -0.00000000000E+00 -0.00000000000E+00 -0.14856737655E+03  0.14856737655E+03  0.00000000000E+00 0.  1.
         23    2    1    2    0    0 -0.65762716793E+02  0.10290085316E+03 -0.26307794552E+02  0.17678885342E+03  0.12509547608E+03 0.  0.
          5    1    3    3  502    0 -0.53544522703E+02  0.38024034385E+02 -0.71116903604E+02  0.96891328201E+02  0.41800000000E+01 0.  1.
         -5    1    3    3    0  502 -0.12218194090E+02  0.64876818780E+02  0.44809109052E+02  0.79897525217E+02  0.41800000000E+01 0.  1.
        -11    1    1    2    0    0 -0.39504546933E+01 -0.68632327054E+02  0.53342018611E+02  0.87013638923E+02  0.00000000000E+00 0. -1.
         11    1    1    2    0    0  0.69713171486E+02 -0.34268526110E+02  0.19796959187E+02  0.80163443997E+02  0.00000000000E+00 0.  1.
</event>
<event>
 6    1  0.4966153E-006  0.1871094E+03  0.7561462E-02  0.1161095E+00
         -2   -1    0    0    0  501 -0.00000000000E+00  0.00000000000E+00  0.33176266559E+02  0.33176266559E+02  0.00000000000E+00 0.  1.
          2   -1    0    0  501    0  0.00000000000E+00 -0.00000000000E+00 -0.11931608200E+04  0.11931608200E+04  0.00000000000E+00 0. -1.
          5    1    1    2  502    0 -0.14511574583E+03  0.53215633379E+02 -0.35753598157E+03  0.38953810319E+03  0.41800000000E+01 0. -1.
         -5    1    1    2    0  502  0.64726975260E+02  0.46724058001E+02 -0.34789385869E+03  0.35695984121E+03  0.41800000000E+01 0.  1.
        -11    1    1    2    0    0  0.44836780232E+02 -0.14510238754E+02 -0.70542013028E+02  0.84835484865E+02  0.00000000000E+00 0. -1.
         11    1    1    2    0    0  0.35551990337E+02 -0.85429452626E+02 -0.38401270012E+03  0.39500365726E+03  0.00000000000E+00 0.  1.
</event>
<event>
 7    1  0.4966153E-006  0.9833368E+02  0.7561462E-02  0.1283840E+00
         -2   -1    0    0    0  501 -0.00000000000E+00  0.00000000000E+00  0.20548092157E+03  0.20548092157E+03  0.00000000000E+00 0. -1.
          2   -1    0    0  501    0  0.00000000000E+00 -0.00000000000E+00 -0.71787097655E+02  0.71787097655E+02  0.00000000000E+00 0.  1.
         23    2    1    2    0    0  0.10338770043E+02  0.29031374739E+02  0.12095088722E+03  0.17670919052E+03  0.12508920821E+03 0.  0.
          5    1    3    3  502    0  0.59924508889E+02  0.29111854542E+02  0.30320106513E+02  0.73315947101E+02  0.41800000000E+01 0. -1.
         -5    1    3    3    0  502 -0.49585738846E+02 -0.80479802614E-01  0.90630780705E+02  0.10339324342E+03  0.41800000000E+01 0. -1.
        -11    1    1    2    0    0  0.13328774236E+02 -0.48003730166E+02  0.36722935040E+02  0.61891746545E+02  0.00000000000E+00 0. -1.
         11    1    1    2    0    0 -0.23667544279E+02  0.18972355427E+02 -0.23979998338E+02  0.38667082162E+02  0.00000000000E+00 0.  1.
</event>
<event>
 7    1  0.4966153E-006  0.1984872E+03  0.7561462E-02  0.1151022E+00
          2   -1    0    0  501    0  0.00000000000E+00  0.00000000000E+00  0.31685796139E+03  0.31685796139E+03  0.00000000000E+00 0. -1.
         -2   -1    0    0    0  501 -0.00000000000E+00 -0.00000000000E+00 -0.14126344230E+03  0.14126344230E+03  0.00000000000E+00 0.  1.
         23    2    1    2    0    0 -0.13153648574E+03  0.12537300059E+03  0.85545567705E+02  0.23661355319E+03  0.12509073923E+03 0.  0.
          5    1    3    3  502    0 -0.34918735276E+01  0.60367508742E+02  0.69251828788E+02  0.92031068031E+02  0.41800000000E+01 0. -1.
         -5    1    3    3    0  502 -0.12804461221E+03  0.65005491847E+02  0.16293738917E+02  0.14458248516E+03  0.41800000000E+01 0. -1.
        -11    1    1    2    0    0  0.10048527899E+03 -0.52250944307E+02  0.18824017142E+02  0.11481200328E+03  0.00000000000E+00 0.  1.
         11    1    1    2    0    0  0.31051206746E+02 -0.73122056281E+02  0.71224934243E+02  0.10669584722E+03  0.00000000000E+00 0. -1.
</event>
<event>
 7    1  0.4966153E-006  0.7798807E+02  0.7561462E-02  0.1334860E+00
          3   -1    0    0  501    0  0.00000000000E+00  0.00000000000E+00  0.25294135502E+02  0.25294135502E+02  0.00000000000E+00 0. -1.
         -3   -1    0    0    0  501 -0.00000000000E+00 -0.00000000000E+00 -0.39557156534E+03  0.39557156534E+03  0.00000000000E+00 0.  1.
         23    2    1    2    0    0 -0.99627537348E+01 -0.12393003692E+02 -0.28082195863E+03  0.30783509744E+03  0.12509449134E+03 0.  0.
          5    1    3    3  502    0  0.18855394780E+02 -0.55646046167E+02 -0.21987096044E+03  0.22762407608E+03  0.41800000000E+01 0.  1.
         -5    1    3    3    0  502 -0.28818148514E+02  0.43253042475E+02 -0.60950998185E+02  0.80211021356E+02  0.41800000000E+01 0.  1.
        -11    1    1    2    0    0  0.16167200811E+02 -0.11761809483E+02 -0.85467560928E+02  0.87774839877E+02  0.00000000000E+00 0.  1.
         11    1    1    2    0    0 -0.62044470763E+01  0.24154813175E+02 -0.39879102858E+01  0.25255763531E+02  0.00000000000E+00 0. -1.
</event>
<event>
 7    1  0.4966153E-006  0.1098480E+03  0.7561462E-02  0.1260852E+00
         -3   -1    0    0    0  501 -0.00000000000E+00  0.00000000000E+00  0.30267080304E+03  0.30267080304E+03  0.00000000000E+00 0.  1.
          3   -1    0    0  501    0  0.00000000000E+00 -0.00000000000E+00 -0.61308872308E+02  0.61308872308E+02  0.00000000000E+00 0. -1.
         23    2    1    2    0    0 -0.41586459310E+02 -0.65098244561E+02  0.17376512751E+03  0.22761455831E+03  0.12508737976E+03 0.  0.
          5    1    3    3  502    0  0.17127008300E+02  0.26478411403E+02  0.15146782579E+02  0.35232628432E+02  0.41800000000E+01 0. -1.
         -5    1    3    3    0  502 -0.58713467610E+02 -0.91576655964E+02  0.15861834493E+03  0.19238192988E+03  0.41800000000E+01 0. -1.
        -11    1    1    2    0    0  0.24024233178E+02  0.51444565793E+02  0.88952281776E+02  0.10552826902E+03  0.00000000000E+00 0.  1.
         11    1    1    2    0    0  0.17562226132E+02  0.13653678768E+02 -0.21355478559E+02  0.30836848008E+02  0.00000000000E+00 0. -1.
</event>
<event>
 7    1  0.4966153E-006  0.7649185E+02  0.7561462E-02  0.1339313E+00
          2   -1    0    0  501    0  0.00000000000E+00  0.00000000000E+00  0.40902062640E+02  0.40902062640E+02  0.00000000000E+00 0. -1.
         -2   -1    0    0    0  501 -0.00000000000E+00 -0.00000000000E+00 -0.38343685111E+03  0.38343685111E+03  0.00000000000E+00 0.  1.
         23    2    1    2    0    0 -0.42738143545E+02 -0.23124779927E+02 -0.27708115773E+03  0.30786588216E+03  0.12508448771E+03 0.  0.
          5    1    3    3  502    0 -0.45266693983E+02 -0.34821892292E+02 -0.28644080418E+03  0.29210861759E+03  0.41800000000E+01 0. -1.
         -5    1    3    3    0  502  0.25285504381E+01  0.11697112365E+02  0.93596464514E+01  0.15757264569E+02  0.41800000000E+01 0. -1.
        -11    1    1    2    0    0  0.55175328736E+02 -0.17824412264E+01 -0.69046911581E+02  0.88402318955E+02  0.00000000000E+00 0.  1.
         11    1    1    2    0    0 -0.12437185191E+02  0.24907221154E+02  0.35932808403E+01  0.28070712643E+02  0.00000000000E+00 0. -1.
</event>
<event>
 7    1  0.4966153E-006  0.9198151E+02  0.7561462E-02  0.1298123E+00
          2   -1    0    0  501    0  0.00000000000E+00  0.00000000000E+00  0.11104552653E+03  0.11104552653E+03  0.00000000000E+00 0. -1.
         -2   -1    0    0    0  501 -0.00000000000E+00 -0.00000000000E+00 -0.22353647687E+03  0.22353647687E+03  0.00000000000E+00 0.  1.
         23    2    1    2    0    0 -0.29683807943E+02  0.13609232682E+02 -0.19403617532E+03  0.23194303142E+03  0.12280550812E+03 0.  0.
          5    1    3    3  502    0 -0.71079639034E+02  0.29601967540E+02 -0.88507686152E+02  0.11738685819E+03  0.41800000000E+01 0. -1.
         -5    1    3    3    0  502  0.41395831091E+02 -0.15992734858E+02 -0.10552848917E+03  0.11455617323E+03  0.41800000000E+01 0.  1.
        -11    1    1    2    0    0 -0.59796070321E-01 -0.28854861737E+02  0.39891346244E+02  0.49233384269E+02  0.00000000000E+00 0. -1.
         11    1    1    2    0    0  0.29743604013E+02  0.15245629055E+02  0.41653878738E+02  0.53405587712E+02  0.00000000000E+00 0.  1.
</event>
<event>
 7    1  0.4966153E-006  0.1166107E+03  0.7561462E-02  0.1248795E+00
         -1   -1    0    0    0  501 -0.00000000000E+00  0.00000000000E+00  0.23050686760E+02  0.23050686760E+02  0.00000000000E+00 0.  1.
          1   -1    0    0  501    0  0.00000000000E+00 -0.00000000000E+00 -0.96799409464E+03  0.96799409464E+03  0.00000000000E+00 0. -1.
         23    2    1    2    0    0  0.92083472616E+02 -0.47843073874E+02 -0.48706660047E+03  0.51346653896E+03  0.12508272338E+03 0.  0.
          5    1    3    3  502    0  0.10447239736E+02 -0.97154818027E+01  0.30021114188E+01  0.15166426004E+02  0.41800000000E+01 0.  1.
         -5    1    3    3    0  502  0.81636232880E+02 -0.38127592071E+02 -0.49006871189E+03  0.49830011295E+03  0.41800000000E+01 0.  1.
        -11    1    1    2    0    0 -0.98307221892E+02  0.59522696697E+02 -0.44301276158E+03  0.45767627010E+03  0.00000000000E+00 0. -1.
         11    1    1    2    0    0  0.62237492767E+01 -0.11679622823E+02 -0.14864045830E+02  0.19901972334E+02  0.00000000000E+00 0.  1.
</event>
<event>
 7    1  0.4966153E-006  0.1300920E+03  0.7561462E-02  0.1227319E+00
         -2   -1    0    0    0  501 -0.00000000000E+00  0.00000000000E+00  0.42497348706E+03  0.42497348706E+03  0.00000000000E+00 0.  1.
          2   -1    0    0  501    0  0.00000000000E+00 -0.00000000000E+00 -0.57189422792E+02  0.57189422792E+02  0.00000000000E+00 0. -1.
         23    2    1    2    0    0 -0.10687413530E+03  0.79872896041E+01  0.23518309410E+03  0.28713135249E+03  0.12508976074E+03 0.  0.
          5    1    3    3  502    0  0.15370668540E+02  0.21881581206E+02  0.71536009611E+01  0.27994775480E+02  0.41800000000E+01 0. -1.
         -5    1    3    3    0  502 -0.12224480384E+03 -0.13894291602E+02  0.22802949313E+03  0.25913657701E+03  0.41800000000E+01 0. -1.
        -11    1    1    2    0    0  0.79454254311E+01 -0.77320086146E+01 -0.14195196094E+02  0.18011588899E+02  0.00000000000E+00 0. -1.
         11    1    1    2    0    0  0.98928709869E+02 -0.25528098945E+00  0.14679616627E+03  0.17701996846E+03  0.00000000000E+00 0.  1.
</event>
<event>
 7    1  0.4966153E-006  0.1154304E+03  0.7561462E-02  0.1250832E+00
          2   -1    0    0  501    0  0.00000000000E+00  0.00000000000E+00  0.14294523468E+03  0.14294523468E+03  0.00000000000E+00 0. -1.
         -2   -1    0    0    0  501 -0.00000000000E+00 -0.00000000000E+00 -0.14000815245E+03  0.14000815245E+03  0.00000000000E+00 0.  1.
         23    2    1    2    0    0 -0.10135040984E+02 -0.36529134528E+02 -0.77725252913E+02  0.15207647563E+03  0.12509573444E+03 0.  0.
          5    1    3    3  502    0  0.32058257114E+02  0.34291842268E+02 -0.19195709301E+02  0.50888210333E+02  0.41800000000E+01 0. -1.
         -5    1    3    3    0  502 -0.42193298098E+02 -0.70820976796E+02 -0.58529543612E+02  0.10118826530E+03  0.41800000000E+01 0. -1.
        -11    1    1    2    0    0  0.48235675435E+02 -0.24463770048E+00  0.26103606195E+02  0.54846499329E+02  0.00000000000E+00 0.  1.
         11    1    1    2    0    0 -0.38100634451E+02  0.36773772228E+02  0.54558728946E+02  0.76030412163E+02  0.00000000000E+00 0. -1.
</event>
<event>
 7    1  0.4966153E-006  0.1221916E+03  0.7561462E-02  0.1239525E+00
         -1   -1    0    0    0  501 -0.00000000000E+00  0.00000000000E+00  0.28648532976E+02  0.28648532976E+02  0.00000000000E+00 0.  1.
          1   -1    0    0  501    0  0.00000000000E+00 -0.00000000000E+00 -0.56086257008E+03  0.56086257008E+03  0.00000000000E+00 0. -1.
         23    2    1    2    0    0 -0.65223717536E+02 -0.12413293320E+02 -0.30876111488E+03  0.33969112373E+03  0.12509360615E+03 0.  0.
          5    1    3    3  502    0 -0.93720847813E+02  0.21770731881E+02 -0.22510840788E+03  0.24484450122E+03  0.41800000000E+01 0. -1.
         -5    1    3    3    0  502  0.28497130277E+02 -0.34184025201E+02 -0.83652707005E+02  0.94846622513E+02  0.41800000000E+01 0. -1.
        -11    1    1    2    0    0 -0.14424730655E+02 -0.13360323868E+02 -0.91223806316E+02  0.93318561643E+02  0.00000000000E+00 0. -1.
         11    1    1    2    0    0  0.79648448191E+02  0.25773617188E+02 -0.13222911591E+03  0.15650141768E+03  0.00000000000E+00 0.  1.
</event>
<event>
 7    1  0.4966153E-006  0.1000469E+03  0.7561462E-02  0.1280197E+00
          2   -1    0    0  501    0  0.00000000000E+00  0.00000000000E+00  0.35034615578E+03  0.35034615578E+03  0.00000000000E+00 0.  1.
         -2   -1    0    0    0  501 -0.00000000000E+00 -0.00000000000E+00 -0.39686341099E+02  0.39686341099E+02  0.00000000000E+00 0. -1.
         23    2    1    2    0    0  0.16243764533E+02 -0.40858693102E+01  0.10307665202E+03  0.16295029546E+03  0.12508976131E+03 0.  0.
          5    1    3    3  502    0 -0.47090451539E+02 -0.95701217947E+00  0.70616821034E+01  0.47809687853E+02  0.41800000000E+01 0.  1.
         -5    1    3    3    0  502  0.63334216072E+02 -0.31288571308E+01  0.96014969913E+02  0.11514060761E+03  0.41800000000E+01 0.  1.
        -11    1    1    2    0    0 -0.66415946876E+01 -0.41828162618E+02  0.12658362338E+03  0.13348078392E+03  0.00000000000E+00 0.  1.
         11    1    1    2    0    0 -0.96021698459E+01  0.45914031928E+02  0.80999539283E+02  0.93601417498E+02  0.00000000000E+00 0. -1.
</event>
<event>
 7    1  0.4966153E-006  0.1000783E+03  0.7561462E-02  0.1280131E+00
         -4   -1    0    0    0  501 -0.00000000000E+00  0.00000000000E+00  0.69013034542E+02  0.69013034542E+02  0.00000000000E+00 0.  1.
          4   -1    0    0  501    0  0.00000000000E+00 -0.00000000000E+00 -0.18335762606E+03  0.18335762606E+03  0.00000000000E+00 0. -1.
         23    2    1    2    0    0  0.76366135862E+00  0.19661781270E+02 -0.39400382579E+02  0.13261660662E+03  0.12509038885E+03 0.  0.
          5    1    3    3  502    0  0.26241902962E+01 -0.51634408150E+02 -0.31628610220E+02  0.60752282790E+02  0.41800000000E+01 0.  1.
         -5    1    3    3    0  502 -0.18605289376E+01  0.71296189420E+02 -0.77717723589E+01  0.71864323829E+02  0.41800000000E+01 0.  1.
        -11    1    1    2    0    0 -0.35642365218E+02 -0.22002931748E+02 -0.58145565031E+01  0.42288488637E+02  0.00000000000E+00 0.  1.
         11    1    1    2    0    0  0.34878703860E+02  0.23411504777E+01 -0.69129652438E+02  0.77465565348E+02  0.00000000000E+00 0. -1.
</event>
<event>
 7    1  0.4966153E-006  0.2007201E+03  0.7561462E-02  0.1149133E+00
          1   -1    0    0  501    0  0.00000000000E+00  0.00000000000E+00  0.12193755788E+04  0.12193755788E+04  0.00000000000E+00 0. -1.
         -1   -1    0    0    0  501 -0.00000000000E+00 -0.00000000000E+00 -0.35452576547E+02  0.35452576547E+02  0.00000000000E+00 0.  1.
         23    2    1    2    0    0  0.43124083811E+02  0.16741412281E+03  0.50732776130E+03  0.55037487020E+03  0.12507543822E+03 0.  0.
          5    1    3    3  502    0  0.41219385361E+02  0.18566857298E+03  0.48612592830E+03  0.52202274594E+03  0.41800000000E+01 0.  1.
         -5    1    3    3    0  502  0.19046984503E+01 -0.18254450172E+02  0.21201833001E+02  0.28352124257E+02  0.41800000000E+01 0.  1.
        -11    1    1    2    0    0  0.25417078981E+02 -0.34697389968E+02  0.21608020023E+03  0.22031929037E+03  0.00000000000E+00 0. -1.
         11    1    1    2    0    0 -0.68541162792E+02 -0.13271673284E+03  0.46051504075E+03  0.48413399480E+03  0.00000000000E+00 0.  1.
</event>
<event>
 7    1  0.4966153E-006  0.1599256E+03  0.7561462E-02  0.1188781E+00
          2   -1    0    0  501    0  0.00000000000E+00  0.00000000000E+00  0.17752193830E+03  0.17752193830E+03  0.00000000000E+00 0.  1.
         -2   -1    0    0    0  501 -0.00000000000E+00 -0.00000000000E+00 -0.16899074805E+03  0.16899074805E+03  0.00000000000E+00 0. -1.
         23    2    1    2    0    0  0.70397184255E+02 -0.11296752830E+03 -0.14408843109E+02  0.18322748627E+03  0.12508905214E+03 0.  0.
          5    1    3    3  502    0  0.90943048145E+01  0.26237876769E+02  0.85205892564E+01  0.29346301278E+02  0.41800000000E+01 0.  1.
         -5    1    3    3    0  502  0.61302879440E+02 -0.13920540507E+03 -0.22929432365E+02  0.15388118500E+03  0.41800000000E+01 0.  1.
        -11    1    1    2    0    0 -0.44184851704E+02  0.32149503952E+02  0.50051767691E+02  0.74101762283E+02  0.00000000000E+00 0.  1.
         11    1    1    2    0    0 -0.26212332550E+02  0.80818024346E+02 -0.27111734333E+02  0.89183437787E+02  0.00000000000E+00 0. -1.
</event>
<event>
 7    1  0.4966153E-006  0.2217287E+03  0.7561462E-02  0.1132601E+00
          2   -1    0    0  501    0  0.00000000000E+00  0.00000000000E+00  0.33968772539E+03  0.33968772539E+03  0.00000000000E+00 0. -1.
         -2   -1    0    0    0  501 -0.00000000000E+00 -0.00000000000E+00 -0.14792350170E+03  0.14792350170E+03  0.00000000000E+00 0.  1.
         23    2    1    2    0    0  0.11895107761E+03  0.15464858017E+03  0.11286349492E+03  0.25777982459E+03  0.12508687888E+03 0.  0.
          5    1    3    3  502    0 -0.15150999372E+02 -0.74744725725E+01  0.23279669207E+02  0.29066061319E+02  0.41800000000E+01 0.  1.
         -5    1    3    3    0  502  0.13410207698E+03  0.16212305274E+03  0.89583825715E+02  0.22871376327E+03  0.41800000000E+01 0.  1.
        -11    1    1    2    0    0 -0.68585458681E+02 -0.19376509942E+02  0.31309350412E+02  0.77844008782E+02  0.00000000000E+00 0. -1.
         11    1    1    2    0    0 -0.50365618929E+02 -0.13527207023E+03  0.47591378356E+02  0.15198739371E+03  0.00000000000E+00 0.  1.
</event>
<event>
 7    1  0.4966153E-006  0.7152503E+02  0.7561462E-02  0.1354983E+00
         -1   -1    0    0    0  501 -0.00000000000E+00  0.00000000000E+00  0.35355882187E+03  0.35355882187E+03  0.00000000000E+00 0.  1.
          1   -1    0    0  501    0  0.00000000000E+00 -0.00000000000E+00 -0.48166359724E+02  0.48166359724E+02  0.00000000000E+00 0. -1.
         23    2    1    2    0    0 -0.27015340565E+02 -0.60928584318E+01  0.27281160298E+03  0.30139677809E+03  0.12508755162E+03 0.  0.
          5    1    3    3  502    0  0.16285319709E+02 -0.22674677268E+02  0.24611870587E+03  0.24773219897E+03  0.41800000000E+01 0.  1.
         -5    1    3    3    0  502 -0.43300660274E+02  0.16581818836E+02  0.26692897116E+02  0.53664579124E+02  0.41800000000E+01 0.  1.
        -11    1    1    2    0    0  0.20126380259E+02  0.34006360486E+02 -0.16997637912E+02  0.43016548332E+02  0.00000000000E+00 0. -1.
         11    1    1    2    0    0  0.68889603069E+01 -0.27913502054E+02  0.49578497074E+02  0.57311855171E+02  0.00000000000E+00 0.  1.
</event>
<event>
 7    1  0.4966153E-006  0.8959142E+02  0.7561462E-02  0.1303844E+00
          4   -1    0    0  501    0  0.00000000000E+00  0.00000000000E+00  0.16234628467E+03  0.16234628467E+03  0.00000000000E+00 0. -1.
         -4   -1    0    0    0  501 -0.00000000000E+00 -0.00000000000E+00 -0.89929719761E+02  0.89929719761E+02  0.00000000000E+00 0.  1.
         23    2    1    2    0    0  0.52261430516E+02  0.23235288598E+02  0.30915378892E+02  0.14097601702E+03  0.12508933194E+03 0.  0.
          5    1    3    3  502    0  0.44920151981E+02  0.52553325306E+02  0.65171436898E+02  0.95102369277E+02  0.41800000000E+01 0. -1.
         -5    1    3    3    0  502  0.73412785353E+01 -0.29318036708E+02 -0.34256058006E+02  0.45873647741E+02  0.41800000000E+01 0. -1.
        -11    1    1    2    0    0 -0.41359856727E+02 -0.41211592460E+02 -0.66449957040E+01  0.58763841514E+02  0.00000000000E+00 0.  1.
         11    1    1    2    0    0 -0.10901573789E+02  0.17976303862E+02  0.48146181720E+02  0.52536145898E+02  0.00000000000E+00 0. -1.
</event>
<event>
 7    1  0.4966153E-006  0.9473456E+02  0.7561462E-02  0.1291775E+00
         -2   -1    0    0    0  501 -0.00000000000E+00  0.00000000000E+00  0.47210858617E+02  0.47210858617E+02  0.00000000000E+00 0.  1.
          2   -1    0    0  501    0  0.00000000000E+00 -0.00000000000E+00 -0.25616581377E+03  0.25616581377E+03  0.00000000000E+00 0. -1.
         23    2    1    2    0    0 -0.79163576997E+01 -0.19102853871E+02 -0.10886013395E+03  0.16709845107E+03  0.12507508081E+03 0.  0.
          5    1    3    3  502    0 -0.45901899098E+02  0.12465295672E+02 -0.28999048298E+00  0.47748554234E+02  0.41800000000E+01 0.  1.
         -5    1    3    3    0  502  0.37985541398E+02 -0.31568149543E+02 -0.10857014347E+03  0.11934989683E+03  0.41800000000E+01 0.  1.
        -11    1    1    2    0    0 -0.32678176061E+02  0.35610171492E+02 -0.46759533367E+02  0.67248802704E+02  0.00000000000E+00 0.  1.
         11    1    1    2    0    0  0.40594533761E+02 -0.16507317621E+02 -0.53335287831E+02  0.69029418615E+02  0.00000000000E+00 0. -1.
</event>
<event>
 7    1  0.4966153E-006  0.1729605E+03  0.7561462E-02  0.1174795E+00
         -1   -1    0    0    0  501 -0.00000000000E+00  0.00000000000E+00  0.83710967026E+03  0.83710967026E+03  0.00000000000E+00 0.  1.
          1   -1    0    0  501    0  0.00000000000E+00 -0.00000000000E+00 -0.44634611536E+02  0.44634611536E+02  0.00000000000E+00 0. -1.
         23    2    1    2    0    0  0.12237174979E+03  0.10231616271E+03  0.41018663203E+03  0.45754161419E+03  0.12509122001E+03 0.  0.
          5    1    3    3  502    0  0.81693027928E+02  0.42290721592E+02  0.88361648466E+02  0.12762252648E+03  0.41800000000E+01 0.  1.
         -5    1    3    3    0  502  0.40678721866E+02  0.60025441117E+02  0.32182498356E+03  0.32991908772E+03  0.41800000000E+01 0.  1.
        -11    1    1    2    0    0 -0.57703718876E+02  0.28194139884E+01  0.90335126422E+02  0.10722920933E+03  0.00000000000E+00 0. -1.
         11    1    1    2    0    0 -0.64668030917E+02 -0.10513557670E+03  0.29195330027E+03  0.31697345827E+03  0.00000000000E+00 0.  1.
</event>
<event>
 7    1  0.4966153E-006  0.9656774E+02  0.7561462E-02  0.1287684E+00
          1   -1    0    0  501    0  0.00000000000E+00  0.00000000000E+00  0.23678472232E+03  0.23678472232E+03  0.00000000000E+00 0. -1.
         -1   -1    0    0    0  501 -0.00000000000E+00 -0.00000000000E+00 -0.70959525408E+02  0.70959525408E+02  0.00000000000E+00 0.  1.
         23    2    1    2    0    0 -0.22658140015E+02 -0.61707449559E+02  0.95557889615E+02  0.16926045330E+03  0.12327445049E+03 0.  0.
          5    1    3    3  502    0 -0.29785831121E+02 -0.33607869117E+02  0.12183270650E+03  0.12991291458E+03  0.41800000000E+01 0. -1.
         -5    1    3    3    0  502  0.71276911056E+01 -0.28099580442E+02 -0.26274816881E+02  0.39347538724E+02  0.41800000000E+01 0.  1.
        -11    1    1    2    0    0  0.61537559390E+02  0.45918907662E+02  0.38767628221E+02  0.86013640165E+02  0.00000000000E+00 0.  1.
         11    1    1    2    0    0 -0.38879419375E+02  0.15788541897E+02  0.31499679074E+02  0.52470154259E+02  0.00000000000E+00 0. -1.
</event>
<event>
 7    1  0.4966153E-006  0.3359236E+03  0.7561462E-02  0.1068546E+00
          1   -1    0    0  501    0  0.00000000000E+00  0.00000000000E+00  0.40623114060E+03  0.40623114060E+03  0.00000000000E+00 0. -1.
         -1   -1    0    0    0  501 -0.00000000000E+00 -0.00000000000E+00 -0.29875073625E+03  0.29875073625E+03  0.00000000000E+00 0.  1.
         23    2    1    2    0    0 -0.11887781685E+03  0.30388213849E+03  0.13096092944E+01  0.34946434029E+03  0.12508925065E+03 0.  0.
          5    1    3    3  502    0  0.10783497134E+02  0.92873801621E+02  0.34091726013E+02  0.99606952671E+02  0.41800000000E+01 0. -1.
         -5    1    3    3    0  502 -0.12966131399E+03  0.21100833687E+03 -0.32782116718E+02  0.24985738762E+03  0.41800000000E+01 0. -1.
        -11    1    1    2    0    0  0.57572743388E+02 -0.21506836177E+03  0.10828868554E+03  0.24757920032E+03  0.00000000000E+00 0. -1.
         11    1    1    2    0    0  0.61305073467E+02 -0.88813776720E+02 -0.21178904815E+01  0.10793833623E+03  0.00000000000E+00 0.  1.
</event>
<event>
 7    1  0.4966153E-006  0.2403228E+03  0.7561462E-02  0.1119578E+00
         -2   -1    0    0    0  501 -0.00000000000E+00  0.00000000000E+00  0.56749782543E+02  0.56749782543E+02  0.00000000000E+00 0.  1.
          2   -1    0    0  501    0  0.00000000000E+00 -0.00000000000E+00 -0.10264784064E+04  0.10264784064E+04  0.00000000000E+00 0. -1.
         23    2    1    2    0    0  0.11691101703E+03  0.18025939435E+03 -0.52586037514E+03  0.58166801984E+03  0.12508763333E+03 0.  0.
          5    1    3    3  502    0  0.14367134732E+03  0.15547712005E+03 -0.44036961184E+03  0.48862813911E+03  0.41800000000E+01 0.  1.
         -5    1    3    3    0  502 -0.26760330292E+02  0.24782274298E+02 -0.85490763292E+02  0.93039880724E+02  0.41800000000E+01 0.  1.
        -11    1    1    2    0    0 -0.10832988185E+02  0.97557888945E+01 -0.16808048202E+02  0.22249483912E+02  0.00000000000E+00 0.  1.
         11    1    1    2    0    0 -0.10607802884E+03 -0.19001518325E+03 -0.42706020048E+03  0.47931068515E+03  0.00000000000E+00 0. -1.
</event>
<event>
 7    1  0.4966153E-006  0.1362582E+03  0.7561462E-02  0.1218454E+00
          1   -1    0    0  501    0  0.00000000000E+00  0.00000000000E+00  0.78239788340E+03  0.78239788340E+03  0.00000000000E+00 0. -1.
         -1   -1    0    0    0  501 -0.00000000000E+00 -0.00000000000E+00 -0.38826578287E+02  0.38826578287E+02  0.00000000000E+00 0.  1.
         23    2    1    2    0    0  0.12899724142E+03 -0.36495268277E+02  0.42553344015E+03  0.46335685043E+03  0.12509464121E+03 0.  0.
          5    1    3    3  502    0  0.23597629448E+02 -0.20586007049E+02  0.28588815512E+03  0.28762847814E+03  0.41800000000E+01 0.  1.
         -5    1    3    3    0  502  0.10539961198E+03 -0.15909261228E+02  0.13964528503E+03  0.17572837229E+03  0.41800000000E+01 0.  1.
        -11    1    1    2    0    0 -0.93095846389E+02  0.23007780915E+02  0.10831197349E+03  0.14466401833E+03  0.00000000000E+00 0.  1.
         11    1    1    2    0    0 -0.35901395035E+02  0.13487487362E+02  0.20972589147E+03  0.21320359292E+03  0.00000000000E+00 0. -1.
</event>
<event>
 7    1  0.4966153E-006  0.2215358E+03  0.7561462E-02  0.1132743E+00
         -2   -1    0    0    0  501 -0.00000000000E+00  0.00000000000E+00  0.19801819464E+03  0.19801819464E+03  0.00000000000E+00 0. -1.
          2   -1    0    0  501    0  0.00000000000E+00 -0.00000000000E+00 -0.29752359757E+03  0.29752359757E+03  0.00000000000E+00 0.  1.
         23    2    1    2    0    0 -0.16824405383E+03  0.13035380204E+03 -0.38242230517E+01  0.24690074550E+03  0.12508868090E+03 0.  0.
          5    1    3    3  502    0 -0.29729523151E+02  0.14535063242E+02  0.48506509332E+02  0.58868212626E+02  0.41800000000E+01 0.  1.
         -5    1    3    3    0  502 -0.13851453068E+03  0.11581873880E+03 -0.52330732383E+02  0.18803253287E+03  0.41800000000E+01 0.  1.
        -11    1    1    2    0    0  0.70602820913E+02 -0.10786135484E+03 -0.60925995601E+02  0.14258613933E+03  0.00000000000E+00 0.  1.
         11    1    1    2    0    0  0.97641232920E+02 -0.22492447205E+02 -0.34755184279E+02  0.10605490739E+03  0.00000000000E+00 0. -1.
</event>
<event>
 7    1  0.4966153E-006  0.1289056E+03  0.7561462E-02  0.1229089E+00
         -1   -1    0    0    0  501 -0.00000000000E+00  0.00000000000E+00  0.65539154743E+03  0.65539154743E+03  0.00000000000E+00 0.  1.
          1   -1    0    0  501    0  0.00000000000E+00 -0.00000000000E+00 -0.45612941867E+02  0.45612941867E+02  0.00000000000E+00 0. -1.
         23    2    1    2    0    0  0.58171631692E+02  0.59245320979E+02  0.53940351395E+03  0.55990848104E+03  0.12508960582E+03 0.  0.
          5    1    3    3  502    0  0.94055830379E+02  0.43961052626E+02  0.45673616142E+03  0.46840630539E+03  0.41800000000E+01 0. -1.
         -5    1    3    3    0  502 -0.35884198688E+02  0.15284268353E+02  0.82667352529E+02  0.91502175650E+02  0.41800000000E+01 0. -1.
        -11    1    1    2    0    0  0.99569186241E+01 -0.43671174028E+02  0.52400197636E+02  0.68935421822E+02  0.00000000000E+00 0. -1.
         11    1    1    2    0    0 -0.68128550316E+02 -0.15574146951E+02  0.17974893974E+02  0.72160586436E+02  0.00000000000E+00 0.  1.
</event>
<event>
 7    1  0.4966153E-006  0.2623072E+03  0.7561462E-02  0.1105765E+00
          2   -1    0    0  501    0  0.00000000000E+00  0.00000000000E+00  0.16421196189E+04  0.16421196189E+04  0.00000000000E+00 0. -1.
         -2   -1    0    0    0  501 -0.00000000000E+00 -0.00000000000E+00 -0.45170853635E+02  0.45170853635E+02  0.00000000000E+00 0.  1.
         23    2    1    2    0    0 -0.18951134855E+03 -0.16011700687E+03  0.89952138235E+03  0.94145826743E+03  0.12511172962E+03 0.  0.
          5    1    3    3  502    0 -0.19831088847E+03 -0.11868366255E+03  0.80995290159E+03  0.84229103963E+03  0.41800000000E+01 0.  1.
         -5    1    3    3    0  502  0.87995399239E+01 -0.41433344317E+02  0.89568480761E+02  0.99167227802E+02  0.41800000000E+01 0.  1.
        -11    1    1    2    0    0  0.13377136198E+03  0.13400924115E+03  0.40610837668E+03  0.44808176442E+03  0.00000000000E+00 0.  1.
         11    1    1    2    0    0  0.55739986569E+02  0.26107765719E+02  0.29131900620E+03  0.29775044065E+03  0.00000000000E+00 0. -1.
</event>
<event>
 7    1  0.4966153E-006  0.1632300E+03  0.7561462E-02  0.1185098E+00
          1   -1    0    0  501    0  0.00000000000E+00  0.00000000000E+00  0.60299320387E+02  0.60299320387E+02  0.00000000000E+00 0. -1.
         -1   -1    0    0    0  501 -0.00000000000E+00 -0.00000000000E+00 -0.73653152152E+03  0.73653152152E+03  0.00000000000E+00 0.  1.
         23    2    1    2    0    0  0.11747537442E+03  0.64688081767E+02 -0.58034658897E+03  0.60863444655E+03  0.12509482272E+03 0.  0.
          5    1    3    3  502    0  0.39930360311E+02  0.80035818896E+02 -0.42444682303E+03  0.43378882416E+03  0.41800000000E+01 0. -1.
         -5    1    3    3    0  502  0.77545014107E+02 -0.15347737129E+02 -0.15589976594E+03  0.17484562239E+03  0.41800000000E+01 0. -1.
        -11    1    1    2    0    0 -0.10803765831E+03 -0.17267930575E+02 -0.85223907662E+02  0.13868464759E+03  0.00000000000E+00 0.  1.
         11    1    1    2    0    0 -0.94377161062E+01 -0.47420151192E+02 -0.10661704494E+02  0.49511747768E+02  0.00000000000E+00 0. -1.
</event>
<event>
 7    1  0.4966153E-006  0.2881865E+03  0.7561462E-02  0.1091300E+00
         -2   -1    0    0    0  501 -0.00000000000E+00  0.00000000000E+00  0.81120655470E+02  0.81120655470E+02  0.00000000000E+00 0.  1.
          2   -1    0    0  501    0  0.00000000000E+00 -0.00000000000E+00 -0.14922201841E+04  0.14922201841E+04  0.00000000000E+00 0. -1.
         23    2    1    2    0    0  0.17456724175E+02  0.95653852789E+02 -0.12809581847E+03  0.20204417453E+03  0.12230663506E+03 0.  0.
          5    1    3    3  502    0 -0.38328333920E+02  0.91927166719E+02 -0.89602076236E+02  0.13403607584E+03  0.41800000000E+01 0. -1.
         -5    1    3    3    0  502  0.55785058095E+02  0.37266860701E+01 -0.38493742237E+02  0.68008098688E+02  0.41800000000E+01 0.  1.
        -11    1    1    2    0    0 -0.47376396105E+02 -0.25455643839E+03 -0.42094484659E+03  0.49420447904E+03  0.00000000000E+00 0.  1.
         11    1    1    2    0    0  0.29919671930E+02  0.15890258560E+03 -0.86205886360E+03  0.87709218602E+03  0.00000000000E+00 0. -1.
</event>
<event>
 7    1  0.4966153E-006  0.9889393E+02  0.7561462E-02  0.1282639E+00
         -2   -1    0    0    0  501 -0.00000000000E+00  0.00000000000E+00  0.19877616881E+03  0.19877616881E+03  0.00000000000E+00 0.  1.
          2   -1    0    0  501    0  0.00000000000E+00 -0.00000000000E+00 -0.75477537750E+02  0.75477537750E+02  0.00000000000E+00 0. -1.
         23    2    1    2    0    0  0.24961244380E+02 -0.11242435450E+02  0.12427916906E+03  0.17844659444E+03  0.12509364144E+03 0.  0.
          5    1    3    3  502    0  0.60710780550E+02  0.16840624642E+02  0.11596834708E+03  0.13204368761E+03  0.41800000000E+01 0. -1.
         -5    1    3    3    0  502 -0.35749536170E+02 -0.28083060093E+02  0.83108219857E+01  0.46402906834E+02  0.41800000000E+01 0. -1.
        -11    1    1    2    0    0 -0.45052955897E+02 -0.22010487655E+02  0.17068881829E+02  0.52967698919E+02  0.00000000000E+00 0.  1.
         11    1    1    2    0    0  0.20091711516E+02  0.33252923105E+02 -0.18049419835E+02  0.42839413197E+02  0.00000000000E+00 0. -1.
</event>
<event>
 7    1  0.4966153E-006  0.1294859E+03  0.7561462E-02  0.1228221E+00
         -4   -1    0    0    0  501 -0.00000000000E+00  0.00000000000E+00  0.21248291196E+03  0.21248291196E+03  0.00000000000E+00 0.  1.
          4   -1    0    0  501    0  0.00000000000E+00 -0.00000000000E+00 -0.11708599903E+03  0.11708599903E+03  0.00000000000E+00 0. -1.
         23    2    1    2    0    0  0.38287974241E+02 -0.95103660260E+02  0.54081976203E+02  0.17053873342E+03  0.12509166352E+03 0.  0.
          5    1    3    3  502    0  0.18777440969E+02 -0.93482225508E+02 -0.16778561474E+02  0.96904650562E+02  0.41800000000E+01 0.  1.
         -5    1    3    3    0  502  0.19510533272E+02 -0.16214347519E+01  0.70860537677E+02  0.73634082863E+02  0.41800000000E+01 0.  1.
        -11    1    1    2    0    0 -0.69087748726E+02  0.38550491951E+02  0.50680721936E+02  0.93956335761E+02  0.00000000000E+00 0.  1.
         11    1    1    2    0    0  0.30799774485E+02  0.56553168309E+02 -0.93657852036E+01  0.65073841800E+02  0.00000000000E+00 0. -1.
</event>
<event>
 7    1  0.4966153E-006  0.1187898E+03  0.7561462E-02  0.1245107E+00
         -2   -1    0    0    0  501 -0.00000000000E+00  0.00000000000E+00  0.30794023918E+03  0.30794023918E+03  0.00000000000E+00 0.  1.
          2   -1    0    0  501    0  0.00000000000E+00 -0.00000000000E+00 -0.46272799151E+02  0.46272799151E+02  0.00000000000E+00 0. -1.
         23    2    1    2    0    0  0.38068270305E+02 -0.31969311308E+02  0.16463598556E+03  0.21265287284E+03  0.12508000046E+03 0.  0.
          5    1    3    3  502    0 -0.10863392593E+01 -0.75655726309E+02  0.91889595083E+02  0.11910557981E+03  0.41800000000E+01 0.  1.
         -5    1    3    3    0  502  0.39154609564E+02  0.43686415001E+02  0.72746390479E+02  0.93547293032E+02  0.41800000000E+01 0.  1.
        -11    1    1    2    0    0  0.27676991194E+02 -0.41291037116E+01  0.28986456651E+02  0.40289949221E+02  0.00000000000E+00 0.  1.
         11    1    1    2    0    0 -0.65745261499E+02  0.36098415019E+02  0.68044997819E+02  0.10127021628E+03  0.00000000000E+00 0. -1.
</event>
<event>
 7    1  0.4966153E-006  0.6846563E+02  0.7561462E-02  0.1365390E+00
          1   -1    0    0  501    0  0.00000000000E+00  0.00000000000E+00  0.44746863130E+02  0.44746863130E+02  0.00000000000E+00 0. -1.
         -1   -1    0    0    0  501 -0.00000000000E+00 -0.00000000000E+00 -0.24541996763E+03  0.24541996763E+03  0.00000000000E+00 0.  1.
         23    2    1    2    0    0  0.83020489882E+01 -0.99267687064E+01 -0.18128907640E+03  0.22063422334E+03  0.12508503720E+03 0.  0.
          5    1    3    3  502    0  0.17102750031E+02 -0.37323878263E+02 -0.45488357297E+01  0.41517950982E+02  0.41800000000E+01 0.  1.
         -5    1    3    3    0  502 -0.88007010429E+01  0.27397109557E+02 -0.17674024067E+03  0.17911627236E+03  0.41800000000E+01 0.  1.
        -11    1    1    2    0    0 -0.27855357845E+02  0.28332288280E+02 -0.14132621411E+02  0.42170730464E+02  0.00000000000E+00 0.  1.
         11    1    1    2    0    0  0.19553308857E+02 -0.18405519574E+02 -0.52514066794E+01  0.27361876949E+02  0.00000000000E+00 0. -1.
</event>
<event>
 7    1  0.4966153E-006  0.1103720E+03  0.7561462E-02  0.1259883E+00
          2   -1    0    0  501    0  0.00000000000E+00  0.00000000000E+00  0.76311785003E+03  0.76311785003E+03  0.00000000000E+00 0. -1.
         -2   -1    0    0    0  501 -0.00000000000E+00 -0.00000000000E+00 -0.17620159070E+02  0.17620159070E+02  0.00000000000E+00 0.  1.
         23    2    1    2    0    0 -0.29876035554E+02 -0.14081681371E+02  0.31791890404E+03  0.34323678172E+03  0.12509271572E+03 0.  0.
          5    1    3    3  502    0  0.75856731423E+01 -0.65249622881E+02  0.16315611847E+03  0.17593307568E+03  0.41800000000E+01 0.  1.
         -5    1    3    3    0  502 -0.37461708697E+02  0.51167941510E+02  0.15476278557E+03  0.16730370604E+03  0.41800000000E+01 0.  1.
        -11    1    1    2    0    0  0.58839929567E+02  0.19328967178E+02  0.32167178756E+03  0.32757973868E+03  0.00000000000E+00 0. -1.
         11    1    1    2    0    0 -0.28963894013E+02 -0.52472858073E+01  0.10590699936E+03  0.10992148870E+03  0.00000000000E+00 0.  1.
</event>
<event>
 7    1  0.4966153E-006  0.1248408E+03  0.7561462E-02  0.1235318E+00
         -2   -1    0    0    0  501 -0.00000000000E+00  0.00000000000E+00  0.45303308972E+02  0.45303308972E+02  0.00000000000E+00 0.  1.
          2   -1    0    0  501    0  0.00000000000E+00 -0.00000000000E+00 -0.40548012564E+03  0.40548012564E+03  0.00000000000E+00 0. -1.
         23    2    1    2    0    0  0.58751503274E+02  0.49532989125E+02 -0.15323119292E+03  0.21221026309E+03  0.12509253026E+03 0.  0.
          5    1    3    3  502    0 -0.37459640792E+02  0.24411836833E+02 -0.66234044648E+02  0.80022393968E+02  0.41800000000E+01 0.  1.
         -5    1    3    3    0  502  0.96211144067E+02  0.25121152292E+02 -0.86997148268E+02  0.13218786912E+03  0.41800000000E+01 0.  1.
        -11    1    1    2    0    0 -0.27749300754E+01 -0.49194359763E+02 -0.15336328698E+03  0.16108408694E+03  0.00000000000E+00 0.  1.
         11    1    1    2    0    0 -0.55976573199E+02 -0.33862936268E+00 -0.53582336764E+02  0.77489084586E+02  0.00000000000E+00 0. -1.
</event>
<event>
 7    1  0.4966153E-006  0.1535946E+03  0.7561462E-02  0.1196124E+00
          1   -1    0    0  501    0  0.00000000000E+00  0.00000000000E+00  0.10100574855E+04  0.10100574855E+04  0.00000000000E+00 0. -1.
         -1   -1    0    0    0  501 -0.00000000000E+00 -0.00000000000E+00 -0.29203383949E+02  0.29203383949E+02  0.00000000000E+00 0.  1.
         23    2    1    2    0    0 -0.46303319973E+01  0.12802572737E+03  0.41103819460E+03  0.44834170267E+03  0.12508340453E+03 0.  0.
          5    1    3    3  502    0  0.60094698412E+02  0.64155888992E+02  0.20486586335E+03  0.22296826060E+03  0.41800000000E+01 0.  1.
         -5    1    3    3    0  502 -0.64725030409E+02  0.63869838381E+02  0.20617233125E+03  0.22537344207E+03  0.41800000000E+01 0.  1.
        -11    1    1    2    0    0 -0.49137364718E+00 -0.23370392058E+02  0.18711276833E+02  0.29942086663E+02  0.00000000000E+00 0.  1.
         11    1    1    2    0    0  0.51217056445E+01 -0.10465533532E+03  0.55110463010E+03  0.56097708010E+03  0.00000000000E+00 0. -1.
</event>
<event>
 7    1  0.4966153E-006  0.1437211E+03  0.7561462E-02  0.1208408E+00
         -1   -1    0    0    0  501 -0.00000000000E+00  0.00000000000E+00  0.42431147834E+02  0.42431147834E+02  0.00000000000E+00 0.  1.
          1   -1    0    0  501    0  0.00000000000E+00 -0.00000000000E+00 -0.50481352920E+03  0.50481352920E+03  0.00000000000E+00 0. -1.
         23    2    1    2    0    0  0.41561492090E+02  0.86717115654E+02 -0.21347647407E+03  0.26547196913E+03  0.12512372133E+03 0.  0.
          5    1    3    3  502    0 -0.41594161614E+02  0.53650862045E+02 -0.98892500424E+02  0.12002369899E+03  0.41800000000E+01 0. -1.
         -5    1    3    3    0  502  0.83155653704E+02  0.33066253610E+02 -0.11458397365E+03  0.14544827014E+03  0.41800000000E+01 0. -1.
        -11    1    1    2    0    0  0.23928390616E+02 -0.48333140130E+02 -0.12948776594E+03  0.14027024574E+03  0.00000000000E+00 0.  1.
         11    1    1    2    0    0 -0.65489882705E+02 -0.38383975524E+02 -0.11941814136E+03  0.14150246217E+03  0.00000000000E+00 0. -1.
</event>
<event>
 7    1  0.4966153E-006  0.1542287E+03  0.7561462E-02  0.1195371E+00
          2   -1    0    0  501    0  0.00000000000E+00  0.00000000000E+00  0.35539415745E+02  0.35539415745E+02  0.00000000000E+00 0. -1.
         -2   -1    0    0    0  501 -0.00000000000E+00 -0.00000000000E+00 -0.11600466536E+04  0.11600466536E+04  0.00000000000E+00 0.  1.
         23    2    1    2    0    0 -0.79728278872E+02 -0.12579716183E+03 -0.84197558913E+03  0.86414922605E+03  0.12509783304E+03 0.  0.
          5    1    3    3  502    0 -0.86236009719E+02 -0.11889276940E+03 -0.47909087899E+03  0.50111643629E+03  0.41800000000E+01 0.  1.
         -5    1    3    3    0  502  0.65077308475E+01 -0.69043924334E+01 -0.36288471013E+03  0.36303278977E+03  0.41800000000E+01 0.  1.
        -11    1    1    2    0    0  0.73619625196E+02  0.97310354369E+02 -0.13892003388E+03  0.18489978393E+03  0.00000000000E+00 0. -1.
         11    1    1    2    0    0  0.61086536761E+01  0.28486807460E+02 -0.14361161485E+03  0.14653705937E+03  0.00000000000E+00 0.  1.
</event>
<event>
 7    1  0.4966153E-006  0.1028849E+03  0.7561462E-02  0.1274344E+00
          1   -1    0    0  501    0  0.00000000000E+00  0.00000000000E+00  0.64399676444E+02  0.64399676444E+02  0.00000000000E+00 0. -1.
         -1   -1    0    0    0  501 -0.00000000000E+00 -0.00000000000E+00 -0.19877331461E+03  0.19877331461E+03  0.00000000000E+00 0.  1.
         23    2    1    2    0    0 -0.15034978609E+02 -0.58972659808E+01 -0.10783743730E+03  0.16594201762E+03  0.12508801701E+03 0.  0.
          5    1    3    3  502    0  0.44993483760E+02 -0.36477016479E+02 -0.57661851836E+02  0.81837325648E+02  0.41800000000E+01 0. -1.
         -5    1    3    3    0  502 -0.60028462368E+02  0.30579750498E+02 -0.50175585466E+02  0.84104691972E+02  0.41800000000E+01 0. -1.
        -11    1    1    2    0    0  0.14049098020E+02 -0.35816462447E+02  0.12134267648E+02  0.40341499585E+02  0.00000000000E+00 0. -1.
         11    1    1    2    0    0  0.98588058912E+00  0.41713728428E+02 -0.38670468512E+02  0.56889473850E+02  0.00000000000E+00 0.  1.
</event>
<event>
 7    1  0.4966153E-006  0.4514307E+02  0.7561462E-02  0.1473450E+00
         -1   -1    0    0    0  501 -0.00000000000E+00  0.00000000000E+00  0.50885406816E+02  0.50885406816E+02  0.00000000000E+00 0.  1.
          1   -1    0    0  501    0  0.00000000000E+00 -0.00000000000E+00 -0.26979478612E+03  0.26979478612E+03  0.00000000000E+00 0. -1.
         23    2    1    2    0    0 -0.42687820485E+02  0.72979282309E+01 -0.13244716966E+03  0.18725770757E+03  0.12509071316E+03 0.  0.
          5    1    3    3  502    0 -0.11460579190E+02  0.83008304522E+01 -0.15030597400E+03  0.15102849692E+03  0.41800000000E+01 0.  1.
         -5    1    3    3    0  502 -0.31227241296E+02 -0.10029022214E+01  0.17858804341E+02  0.36229210649E+02  0.41800000000E+01 0.  1.
        -11    1    1    2    0    0  0.23428604489E+02 -0.79446416311E+01  0.15804283980E+02  0.29356297980E+02  0.00000000000E+00 0.  1.
         11    1    1    2    0    0  0.19259215996E+02  0.64671340023E+00 -0.10226649363E+03  0.10406618739E+03  0.00000000000E+00 0. -1.
</event>
<event>
 7    1  0.4966153E-006  0.8716651E+02  0.7561462E-02  0.1309862E+00
          2   -1    0    0  501    0  0.00000000000E+00  0.00000000000E+00  0.16944070973E+03  0.16944070973E+03  0.00000000000E+00 0. -1.
         -2   -1    0    0    0  501 -0.00000000000E+00 -0.00000000000E+00 -0.67621333526E+02  0.67621333526E+02  0.00000000000E+00 0.  1.
         23    2    1    2    0    0 -0.11275955959E+02  0.15157137761E+01  0.56793486073E+02  0.13784950097E+03  0.12509012865E+03 0.  0.
          5    1    3    3  502    0  0.19526366093E+02  0.37268495893E+02  0.75806455488E+02  0.86800408136E+02  0.41800000000E+01 0.  1.
         -5    1    3    3    0  502 -0.30802322051E+02 -0.35752782117E+02 -0.19012969415E+02  0.51049092831E+02  0.41800000000E+01 0.  1.
        -11    1    1    2    0    0  0.47041725609E+01  0.41194756603E+02  0.36342962567E+02  0.55135724709E+02  0.00000000000E+00 0. -1.
         11    1    1    2    0    0  0.65717833979E+01 -0.42710470379E+02  0.86829275641E+01  0.44076817581E+02  0.00000000000E+00 0.  1.
</event>
<event>
 7    1  0.4966153E-006  0.1041902E+03  0.7561462E-02  0.1271723E+00
         -2   -1    0    0    0  501 -0.00000000000E+00  0.00000000000E+00  0.16143967962E+02  0.16143967962E+02  0.00000000000E+00 0.  1.
          2   -1    0    0  501    0  0.00000000000E+00 -0.00000000000E+00 -0.74771355761E+03  0.74771355761E+03  0.00000000000E+00 0. -1.
         23    2    1    2    0    0 -0.46366171875E+01  0.23957234003E+01 -0.36021037970E+03  0.38134846885E+03  0.12509156383E+03 0.  0.
          5    1    3    3  502    0 -0.51472250808E+02  0.35965927502E+02 -0.23783621100E+03  0.24602129218E+03  0.41800000000E+01 0. -1.
         -5    1    3    3    0  502  0.46835633621E+02 -0.33570204102E+02 -0.12237416870E+03  0.13532717667E+03  0.41800000000E+01 0. -1.
        -11    1    1    2    0    0  0.37751630018E+02 -0.27004171266E+02 -0.25151492334E+03  0.25576193520E+03  0.00000000000E+00 0.  1.
         11    1    1    2    0    0 -0.33115012831E+02  0.24608447866E+02 -0.11984428661E+03  0.12674712153E+03  0.00000000000E+00 0. -1.
</event>
<event>
 7    1  0.4966153E-006  0.1234974E+03  0.7561462E-02  0.1237436E+00
          2   -1    0    0  501    0  0.00000000000E+00  0.00000000000E+00  0.45190880143E+03  0.45190880143E+03  0.00000000000E+00 0. -1.
         -2   -1    0    0    0  501 -0.00000000000E+00 -0.00000000000E+00 -0.41550606902E+02  0.41550606902E+02  0.00000000000E+00 0.  1.
         23    2    1    2    0    0  0.79021906471E+02 -0.25987448968E+02  0.22172855046E+03  0.26782641209E+03  0.12509047814E+03 0.  0.
          5    1    3    3  502    0 -0.91530135759E-01 -0.53574359047E+02  0.37890369850E+02  0.65752360052E+02  0.41800000000E+01 0.  1.
         -5    1    3    3    0  502  0.79113436607E+02  0.27586910079E+02  0.18383818061E+03  0.20207405204E+03  0.41800000000E+01 0.  1.
        -11    1    1    2    0    0 -0.49810950884E+02 -0.20987135926E+02  0.40587625123E+02  0.67593979136E+02  0.00000000000E+00 0.  1.
         11    1    1    2    0    0 -0.29210955587E+02  0.46974584894E+02  0.14804201895E+03  0.15803901710E+03  0.00000000000E+00 0. -1.
</event>
<event>
 7    1  0.4966153E-006  0.1363157E+03  0.7561462E-02  0.1218374E+00
          2   -1    0    0  501    0  0.00000000000E+00  0.00000000000E+00  0.23037810344E+03  0.23037810344E+03  0.00000000000E+00 0. -1.
         -2   -1    0    0    0  501 -0.00000000000E+00 -0.00000000000E+00 -0.94447354174E+02  0.94447354174E+02  0.00000000000E+00 0.  1.
         23    2    1    2    0    0  0.88645699437E+02  0.45238321497E+02  0.77049989133E+02  0.17745079725E+03  0.12509004300E+03 0.  0.
          5    1    3    3  502    0 -0.29554148211E+02  0.90552494413E+01 -0.98406889620E+00  0.31207146786E+02  0.41800000000E+01 0.  1.
         -5    1    3    3    0  502  0.11819984765E+03  0.36183072055E+02  0.78034058030E+02  0.14624365046E+03  0.41800000000E+01 0.  1.
        -11    1    1    2    0    0 -0.14805940547E+02 -0.41228746480E+02  0.58926797979E+02  0.73426105248E+02  0.00000000000E+00 0. -1.
         11    1    1    2    0    0 -0.73839758889E+02 -0.40095750163E+01 -0.46037848081E-01  0.73948555119E+02  0.00000000000E+00 0.  1.
</event>
<event>
 7    1  0.4966153E-006  0.1308125E+03  0.7561462E-02  0.1226255E+00
          4   -1    0    0  501    0  0.00000000000E+00  0.00000000000E+00  0.78323343173E+02  0.78323343173E+02  0.00000000000E+00 0. -1.
         -4   -1    0    0    0  501 -0.00000000000E+00 -0.00000000000E+00 -0.36519997408E+03  0.36519997408E+03  0.00000000000E+00 0.  1.
         23    2    1    2    0    0 -0.77371514360E+02 -0.10124930981E+03 -0.19896655450E+03  0.26734433278E+03  0.12509008150E+03 0.  0.
          5    1    3    3  502    0 -0.25086859937E+02 -0.55433169628E+02 -0.18698141631E+03  0.19667666176E+03  0.41800000000E+01 0. -1.
         -5    1    3    3    0  502 -0.52284654423E+02 -0.45816140180E+02 -0.11985138183E+02  0.70667671013E+02  0.41800000000E+01 0. -1.
        -11    1    1    2    0    0  0.41739350619E+02  0.77940678357E+02 -0.12110081357E+02  0.89238874956E+02  0.00000000000E+00 0. -1.
         11    1    1    2    0    0  0.35632163741E+02  0.23308631451E+02 -0.75799995058E+02  0.86940109522E+02  0.00000000000E+00 0.  1.
</event>
<event>
 7    1  0.4966153E-006  0.1188956E+03  0.7561462E-02  0.1244930E+00
         -1   -1    0    0    0  501 -0.00000000000E+00  0.00000000000E+00  0.10775547476E+03  0.10775547476E+03  0.00000000000E+00 0.  1.
          1   -1    0    0  501    0  0.00000000000E+00 -0.00000000000E+00 -0.23176796518E+03  0.23176796518E+03  0.00000000000E+00 0. -1.
         23    2    1    2    0    0  0.78540277097E+02  0.44946396953E+02  0.87300406837E+01  0.15463910688E+03  0.12509310948E+03 0.  0.
          5    1    3    3  502    0  0.76927568398E+02  0.59943873399E+02  0.50592360735E+02  0.10994625097E+03  0.41800000000E+01 0.  1.
         -5    1    3    3    0  502  0.16127086992E+01 -0.14997476446E+02 -0.41862320052E+02  0.44692855908E+02  0.41800000000E+01 0.  1.
        -11    1    1    2    0    0 -0.11299776391E+02 -0.55343040504E+02 -0.37364143501E+02  0.67724562001E+02  0.00000000000E+00 0.  1.
         11    1    1    2    0    0 -0.67240500705E+02  0.10396643551E+02 -0.95378387601E+02  0.11715977105E+03  0.00000000000E+00 0. -1.
</event>
<event>
 7    1  0.4966153E-006  0.1229114E+03  0.7561462E-02  0.1238370E+00
         -2   -1    0    0    0  501 -0.00000000000E+00  0.00000000000E+00  0.24282457410E+02  0.24282457410E+02  0.00000000000E+00 0.  1.
          2   -1    0    0  501    0  0.00000000000E+00 -0.00000000000E+00 -0.81141760542E+03  0.81141760542E+03  0.00000000000E+00 0. -1.
         23    2    1    2    0    0  0.66608835800E+02  0.56440380695E+02 -0.45942005616E+03  0.48408172058E+03  0.12508425408E+03 0.  0.
          5    1    3    3  502    0 -0.28409637688E+02  0.23655990837E+02 -0.49069661908E+02  0.61579359657E+02  0.41800000000E+01 0. -1.
         -5    1    3    3    0  502  0.95018473488E+02  0.32784389859E+02 -0.41035039425E+03  0.42250236092E+03  0.41800000000E+01 0. -1.
        -11    1    1    2    0    0 -0.30693592161E+02 -0.64300518380E+02 -0.29124085983E+03  0.29982977120E+03  0.00000000000E+00 0. -1.
         11    1    1    2    0    0 -0.35915243639E+02  0.78601376845E+01 -0.36474232023E+02  0.51788571054E+02  0.00000000000E+00 0.  1.
</event>
<event>
 7    1  0.4966153E-006  0.1539985E+03  0.7561462E-02  0.1195644E+00
          2   -1    0    0  501    0  0.00000000000E+00  0.00000000000E+00  0.77222453700E+03  0.77222453700E+03  0.00000000000E+00 0. -1.
         -2   -1    0    0    0  501 -0.00000000000E+00 -0.00000000000E+00 -0.32635660216E+02  0.32635660216E+02  0.00000000000E+00 0.  1.
         23    2    1    2    0    0  0.43315351374E+02 -0.10508806472E+03  0.43509602644E+03  0.46677138812E+03  0.12508899044E+03 0.  0.
          5    1    3    3  502    0  0.82433763433E+01  0.28937281837E+02  0.74434440615E+02  0.80394514013E+02  0.41800000000E+01 0. -1.
         -5    1    3    3    0  502  0.35071975031E+02 -0.13402534656E+03  0.36066158582E+03  0.38637687410E+03  0.41800000000E+01 0. -1.
        -11    1    1    2    0    0 -0.51143555055E+02  0.22187466105E+02  0.17901666378E+03  0.18749643406E+03  0.00000000000E+00 0.  1.
         11    1    1    2    0    0  0.78282036802E+01  0.82900598617E+02  0.12547618657E+03  0.15059237504E+03  0.00000000000E+00 0. -1.
</event>
<event>
 7    1  0.4966153E-006  0.1074872E+03  0.7561462E-02  0.1265295E+00
         -2   -1    0    0    0  501 -0.00000000000E+00  0.00000000000E+00  0.12325399670E+03  0.12325399670E+03  0.00000000000E+00 0.  1.
          2   -1    0    0  501    0  0.00000000000E+00 -0.00000000000E+00 -0.16382840792E+03  0.16382840792E+03  0.00000000000E+00 0. -1.
         23    2    1    2    0    0 -0.39095031332E+02  0.65605831703E+02  0.31595418386E+02  0.14852708737E+03  0.12340777362E+03 0.  0.
          5    1    3    3  502    0  0.34945773958E+02  0.14144175179E+02 -0.21703093886E+02  0.43700817993E+02  0.41800000000E+01 0. -1.
         -5    1    3    3    0  502 -0.74040805290E+02  0.51461656524E+02  0.53298512273E+02  0.10482626937E+03  0.41800000000E+01 0.  1.
        -11    1    1    2    0    0  0.28809228948E+02 -0.10409832193E+02  0.15590486534E+02  0.34371493264E+02  0.00000000000E+00 0.  1.
         11    1    1    2    0    0  0.10285802384E+02 -0.55195999510E+02 -0.87760316137E+02  0.10418382399E+03  0.00000000000E+00 0. -1.
</event>
<event>
 7    1  0.4966153E-006  0.1242763E+03  0.7561462E-02  0.1236205E+00
          2   -1    0    0  501    0  0.00000000000E+00  0.00000000000E+00  0.56494707350E+02  0.56494707350E+02  0.00000000000E+00 0. -1.
         -2   -1    0    0    0  501 -0.00000000000E+00 -0.00000000000E+00 -0.29720945717E+03  0.29720945717E+03  0.00000000000E+00 0.  1.
         23    2    1    2    0    0 -0.58408934938E+02 -0.30059605365E+02 -0.11018445146E+03  0.17917356823E+03  0.12508945060E+03 0.  0.
          5    1    3    3  502    0 -0.17916537707E+02  0.44767500847E+02 -0.69705950871E+02  0.84861790238E+02  0.41800000000E+01 0.  1.
         -5    1    3    3    0  502 -0.40492397231E+02 -0.74827106212E+02 -0.40478500592E+02  0.94311777991E+02  0.41800000000E+01 0.  1.
        -11    1    1    2    0    0  0.36804449705E+02 -0.32303025743E+02 -0.66411716868E+02  0.82514054121E+02  0.00000000000E+00 0.  1.
         11    1    1    2    0    0  0.21604485233E+02  0.62362631108E+02 -0.64118581493E+02  0.92016542173E+02  0.00000000000E+00 0. -1.
</event>
<event>
 7    1  0.4966153E-006  0.1701148E+03  0.7561462E-02  0.1177728E+00
         -1   -1    0    0    0  501 -0.00000000000E+00  0.00000000000E+00  0.73903433742E+02  0.73903433742E+02  0.00000000000E+00 0.  1.
          1   -1    0    0  501    0  0.00000000000E+00 -0.00000000000E+00 -0.89694531579E+03  0.89694531579E+03  0.00000000000E+00 0. -1.
         23    2    1    2    0    0  0.60506979959E+02  0.15642753931E+03 -0.11749184753E+03  0.23996397715E+03  0.12509079269E+03 0.  0.
          5    1    3    3  502    0  0.62097290125E+02  0.11809088261E+03 -0.14148519204E+03  0.19451751069E+03  0.41800000000E+01 0.  1.
         -5    1    3    3    0  502 -0.15903101658E+01  0.38336656697E+02  0.23993344514E+02  0.45446466464E+02  0.41800000000E+01 0.  1.
        -11    1    1    2    0    0 -0.52195713680E+02 -0.12140234831E+03 -0.65857827356E+03  0.67170548986E+03  0.00000000000E+00 0. -1.
         11    1    1    2    0    0 -0.83112662794E+01 -0.35025191001E+02 -0.46971760954E+02  0.59179282514E+02  0.00000000000E+00 0.  1.
</event>
<event>
 7    1  0.4966153E-006  0.1327461E+03  0.7561462E-02  0.1223437E+00
          2   -1    0    0  501    0  0.00000000000E+00  0.00000000000E+00  0.53262907707E+03  0.53262907707E+03  0.00000000000E+00 0.  1.
         -2   -1    0    0    0  501 -0.00000000000E+00 -0.00000000000E+00 -0.38094723838E+02  0.38094723838E+02  0.00000000000E+00 0. -1.
         23    2    1    2    0    0 -0.52153394891E+02 -0.72951879491E+02  0.23501785586E+03  0.28093235815E+03  0.12509054306E+03 0.  0.
          5    1    3    3  502    0  0.21464938551E+02 -0.76256007558E+02  0.13575861728E+03  0.15723739008E+03  0.41800000000E+01 0. -1.
         -5    1    3    3    0  502 -0.73618333441E+02  0.33041280667E+01  0.99259238578E+02  0.12369496806E+03  0.41800000000E+01 0. -1.
        -11    1    1    2    0    0  0.66310296299E+02  0.42475734301E+02  0.10270650811E+03  0.12942128962E+03  0.00000000000E+00 0. -1.
         11    1    1    2    0    0 -0.14156901408E+02  0.30476145189E+02  0.15680998927E+03  0.16037015314E+03  0.00000000000E+00 0.  1.
</event>
<event>
 7    1  0.4966153E-006  0.1900787E+03  0.7561462E-02  0.1158390E+00
         -2   -1    0    0    0  501 -0.00000000000E+00  0.00000000000E+00  0.91477419181E+03  0.91477419181E+03  0.00000000000E+00 0.  1.
          2   -1    0    0  501    0  0.00000000000E+00 -0.00000000000E+00 -0.57191183930E+02  0.57191183930E+02  0.00000000000E+00 0. -1.
         23    2    1    2    0    0  0.66355453217E+02 -0.15539163367E+03  0.67726828217E+03  0.70914613094E+03  0.12508518299E+03 0.  0.
          5    1    3    3  502    0  0.98626192878E+02 -0.14448909627E+03  0.53962000446E+03  0.56728427307E+03  0.41800000000E+01 0.  1.
         -5    1    3    3    0  502 -0.32270739662E+02 -0.10902537400E+02  0.13764827771E+03  0.14186185786E+03  0.41800000000E+01 0.  1.
        -11    1    1    2    0    0 -0.55517051568E+02  0.99726715297E+02  0.17063364296E+03  0.20528857949E+03  0.00000000000E+00 0.  1.
         11    1    1    2    0    0 -0.10838401649E+02  0.55664918373E+02  0.96810827439E+01  0.57530665309E+02  0.00000000000E+00 0. -1.
</event>
<event>
 7    1  0.4966153E-006  0.8813237E+02  0.7561462E-02  0.1307439E+00
          3   -1    0    0  501    0  0.00000000000E+00  0.00000000000E+00  0.13293609768E+03  0.13293609768E+03  0.00000000000E+00 0. -1.
         -3   -1    0    0    0  501 -0.00000000000E+00 -0.00000000000E+00 -0.12215764102E+03  0.12215764102E+03  0.00000000000E+00 0.  1.
         23    2    1    2    0    0 -0.31467395512E+02 -0.39721086545E+02 -0.40534704319E+02  0.13942206122E+03  0.12339970504E+03 0.  0.
          5    1    3    3  502    0  0.13020466174E+02  0.33700188779E+01  0.37296486278E+02  0.39867152586E+02  0.41800000000E+01 0. -1.
         -5    1    3    3    0  502 -0.44487861686E+02 -0.43091105423E+02 -0.77831190597E+02  0.99554908637E+02  0.41800000000E+01 0.  1.
        -11    1    1    2    0    0  0.52672150760E+02 -0.26335850778E+01  0.11927769376E+02  0.54069981675E+02  0.00000000000E+00 0. -1.
         11    1    1    2    0    0 -0.21204755248E+02  0.42354671622E+02  0.39385391602E+02  0.61601695797E+02  0.00000000000E+00 0.  1.
</event>
<event>
 7    1  0.4966153E-006  0.3313299E+02  0.7561462E-02  0.1565834E+00
         -2   -1    0    0    0  501 -0.00000000000E+00  0.00000000000E+00  0.48664231775E+02  0.48664231775E+02  0.00000000000E+00 0.  1.
          2   -1    0    0  501    0  0.00000000000E+00 -0.00000000000E+00 -0.25070558015E+03  0.25070558015E+03  0.00000000000E+00 0. -1.
         23    2    1    2    0    0  0.13572934836E+02 -0.11065237983E+02 -0.10707953456E+03  0.16559183206E+03  0.12509182255E+03 0.  0.
          5    1    3    3  502    0  0.56345539903E+01 -0.31832238908E+01 -0.13500258114E+03  0.13522222609E+03  0.41800000000E+01 0. -1.
         -5    1    3    3    0  502  0.79383808461E+01 -0.78820140919E+01  0.27923046577E+02  0.30369605969E+02  0.41800000000E+01 0. -1.
        -11    1    1    2    0    0 -0.11656276028E+02  0.27607159249E+02 -0.10834570145E+03  0.11241358920E+03  0.00000000000E+00 0. -1.
         11    1    1    2    0    0 -0.19166588082E+01 -0.16541921266E+02  0.13383887646E+02  0.21364390670E+02  0.00000000000E+00 0.  1.
</event>
<event>
 7    1  0.4966153E-006  0.5556396E+02  0.7561462E-02  0.1417451E+00
          1   -1    0    0  501    0  0.00000000000E+00  0.00000000000E+00  0.38154175507E+03  0.38154175507E+03  0.00000000000E+00 0. -1.
         -1   -1    0    0    0  501 -0.00000000000E+00 -0.00000000000E+00 -0.30796700347E+02  0.30796700347E+02  0.00000000000E+00 0.  1.
         23    2    1    2    0    0 -0.42364629574E+01  0.88188251754E+01  0.20013031924E+03  0.23620965749E+03  0.12508852191E+03 0.  0.
          5    1    3    3  502    0 -0.12127378322E+02 -0.12055084101E+02 -0.12993940737E+02  0.21879516757E+02  0.41800000000E+01 0. -1.
         -5    1    3    3    0  502  0.78909153647E+01  0.20873909276E+02  0.21312425998E+03  0.21433014073E+03  0.41800000000E+01 0. -1.
        -11    1    1    2    0    0 -0.11672035735E+02 -0.36814808941E+02  0.23970156301E+02  0.45454757382E+02  0.00000000000E+00 0.  1.
         11    1    1    2    0    0  0.15908498692E+02  0.27995983766E+02  0.12664457918E+03  0.13067404055E+03  0.00000000000E+00 0. -1.
</event>
<event>
 7    1  0.4966153E-006  0.1167033E+03  0.7561462E-02  0.1248637E+00
         -1   -1    0    0    0  501 -0.00000000000E+00  0.00000000000E+00  0.34779432345E+02  0.34779432345E+02  0.00000000000E+00 0.  1.
          1   -1    0    0  501    0  0.00000000000E+00 -0.00000000000E+00 -0.46899398808E+03  0.46899398808E+03  0.00000000000E+00 0. -1.
         23    2    1    2    0    0 -0.54027199419E+02 -0.69341251354E+01 -0.16230828966E+03  0.21203531210E+03  0.12509185552E+03 0.  0.
          5    1    3    3  502    0 -0.68349209293E+02  0.44981492352E+02 -0.88905257683E+02  0.12089899217E+03  0.41800000000E+01 0.  1.
         -5    1    3    3    0  502  0.14322009874E+02 -0.51915617488E+02 -0.73403031981E+02  0.91136319928E+02  0.41800000000E+01 0.  1.
        -11    1    1    2    0    0 -0.18202821238E+02 -0.13190112684E+02 -0.24641115654E+02  0.33354255416E+02  0.00000000000E+00 0.  1.
         11    1    1    2    0    0  0.72230020658E+02  0.20124237820E+02 -0.24726515042E+03  0.25838385291E+03  0.00000000000E+00 0. -1.
</event>
<event>
 7    1  0.4966153E-006  0.8746376E+02  0.7561462E-02  0.1309112E+00
          2   -1    0    0  501    0  0.00000000000E+00  0.00000000000E+00  0.11181196540E+03  0.11181196540E+03  0.00000000000E+00 0. -1.
         -2   -1    0    0    0  501 -0.00000000000E+00 -0.00000000000E+00 -0.18631407318E+03  0.18631407318E+03  0.00000000000E+00 0.  1.
         23    2    1    2    0    0  0.59394757346E+02 -0.23483114727E+02 -0.11397699289E+03  0.18087941062E+03  0.12508961748E+03 0.  0.
          5    1    3    3  502    0  0.43282272472E+01  0.19131061593E+02  0.20941300663E+02  0.28995543490E+02  0.41800000000E+01 0. -1.
         -5    1    3    3    0  502  0.55066530098E+02 -0.42614176321E+02 -0.13491829355E+03  0.15188386713E+03  0.41800000000E+01 0. -1.
        -11    1    1    2    0    0 -0.36809377283E+02  0.42046421833E+02 -0.12820575992E+02  0.57334099920E+02  0.00000000000E+00 0.  1.
         11    1    1    2    0    0 -0.22585380063E+02 -0.18563307106E+02  0.52295461098E+02  0.59912528029E+02  0.00000000000E+00 0. -1.
</event>
<event>
 7    1  0.4966153E-006  0.1933026E+03  0.7561462E-02  0.1155516E+00
          1   -1    0    0  501    0  0.00000000000E+00  0.00000000000E+00  0.11463684237E+03  0.11463684237E+03  0.00000000000E+00 0. -1.
         -1   -1    0    0    0  501 -0.00000000000E+00 -0.00000000000E+00 -0.39374493360E+03  0.39374493360E+03  0.00000000000E+00 0.  1.
         23    2    1    2    0    0 -0.14089677602E+03  0.77323457431E+02 -0.24641833586E+03  0.31968793609E+03  0.12509021413E+03 0.  0.
          5    1    3    3  502    0 -0.56841796944E+02  0.10122198633E+03 -0.14219735080E+03  0.18361492143E+03  0.41800000000E+01 0.  1.
         -5    1    3    3    0  502 -0.84054979081E+02 -0.23898528902E+02 -0.10422098506E+03  0.13607301466E+03  0.41800000000E+01 0.  1.
        -11    1    1    2    0    0  0.84630901731E+02  0.32331753101E+01  0.13512268152E+01  0.84703416485E+02  0.00000000000E+00 0. -1.
         11    1    1    2    0    0  0.56265874294E+02 -0.80556632741E+02 -0.34040982188E+02  0.10399042339E+03  0.00000000000E+00 0.  1.
</event>
<event>
 6    1  0.4966153E-006  0.1382639E+03  0.7561462E-02  0.1215684E+00
         -3   -1    0    0    0  501 -0.00000000000E+00  0.00000000000E+00  0.81242713983E+02  0.81242713983E+02  0.00000000000E+00 0.  1.
          3   -1    0    0  501    0  0.00000000000E+00 -0.00000000000E+00 -0.68736686822E+03  0.68736686822E+03  0.00000000000E+00 0. -1.
          5    1    1    2  502    0  0.17806283878E+02  0.65484754144E+02 -0.19263990459E+03  0.20428637256E+03  0.41800000000E+01 0. -1.
         -5    1    1    2    0  502  0.68025586623E+02  0.26300962243E+02  0.42152802146E+02  0.84341876781E+02  0.41800000000E+01 0.  1.
        -11    1    1    2    0    0 -0.28757186640E+02 -0.67664070919E+02 -0.13806053476E+03  0.15641647463E+03  0.00000000000E+00 0.  1.
         11    1    1    2    0    0 -0.57074683860E+02 -0.24121645468E+02 -0.31757651702E+03  0.32356485823E+03  0.00000000000E+00 0. -1.
</event>
<event>
 7    1  0.4966153E-006  0.1034450E+03  0.7561462E-02  0.1273214E+00
          2   -1    0    0  501    0  0.00000000000E+00  0.00000000000E+00  0.58555191312E+03  0.58555191312E+03  0.00000000000E+00 0.  1.
         -2   -1    0    0    0  501 -0.00000000000E+00 -0.00000000000E+00 -0.35057248895E+02  0.35057248895E+02  0.00000000000E+00 0. -1.
         23    2    1    2    0    0  0.62477447908E+02  0.34185051022E+02  0.16773331286E+03  0.22102952620E+03  0.12509011951E+03 0.  0.
          5    1    3    3  502    0  0.50398300155E+02 -0.12912102930E+02  0.16397827496E+03  0.17208445055E+03  0.41800000000E+01 0.  1.
         -5    1    3    3    0  502  0.12079147753E+02  0.47097153953E+02  0.37550378942E+01  0.48945075651E+02  0.41800000000E+01 0.  1.
        -11    1    1    2    0    0 -0.69488798490E+02  0.15230461395E+01  0.31590876784E+03  0.32346462307E+03  0.00000000000E+00 0.  1.
         11    1    1    2    0    0  0.70113505816E+01 -0.35708097162E+02  0.66852583534E+02  0.76115012745E+02  0.00000000000E+00 0. -1.
</event>
<event>
 6    1  0.4966153E-006  0.1248304E+03  0.7561462E-02  0.1235335E+00
          2   -1    0    0  501    0  0.00000000000E+00  0.00000000000E+00  0.24138116262E+03  0.24138116262E+03  0.00000000000E+00 0. -1.
         -2   -1    0    0    0  501 -0.00000000000E+00 -0.00000000000E+00 -0.16044974351E+03  0.16044974351E+03  0.00000000000E+00 0.  1.
          5    1    1    2  502    0  0.49826729505E+02  0.28458966355E+02  0.89774569252E+02  0.10662814555E+03  0.41800000000E+01 0. -1.
         -5    1    1    2    0  502 -0.99709162806E+02 -0.10005556343E+02 -0.10884755774E+03  0.14801111962E+03  0.41800000000E+01 0.  1.
        -11    1    1    2    0    0  0.40047103609E+02  0.25045080412E+02  0.89766611283E+02  0.10143505835E+03  0.00000000000E+00 0.  1.
         11    1    1    2    0    0  0.98353296924E+01 -0.43498490424E+02  0.10237796315E+02  0.45756582616E+02  0.00000000000E+00 0. -1.
</event>
<event>
 7    1  0.4966153E-006  0.1486474E+03  0.7561462E-02  0.1202145E+00
          1   -1    0    0  501    0  0.00000000000E+00  0.00000000000E+00  0.32927942165E+03  0.32927942165E+03  0.00000000000E+00 0. -1.
         -1   -1    0    0    0  501 -0.00000000000E+00 -0.00000000000E+00 -0.99328709932E+02  0.99328709932E+02  0.00000000000E+00 0.  1.
         23    2    1    2    0    0 -0.11870144042E+03  0.30678549110E+02  0.31205820333E+02  0.17790883091E+03  0.12508614456E+03 0.  0.
          5    1    3    3  502    0 -0.46550188238E+02 -0.48479160486E+02  0.19366871833E+02  0.70069231129E+02  0.41800000000E+01 0.  1.
         -5    1    3    3    0  502 -0.72151252178E+02  0.79157709596E+02  0.11838948500E+02  0.10783959978E+03  0.41800000000E+01 0.  1.
        -11    1    1    2    0    0  0.52542714313E+02 -0.10315161662E+02  0.16938655061E+02  0.56160995564E+02  0.00000000000E+00 0.  1.
         11    1    1    2    0    0  0.66158726103E+02 -0.20363387448E+02  0.18180623633E+03  0.19453830511E+03  0.00000000000E+00 0. -1.
</event>
<event>
 7    1  0.4966153E-006  0.8098629E+02  0.7561462E-02  0.1326276E+00
         -3   -1    0    0    0  501 -0.00000000000E+00  0.00000000000E+00  0.86651478592E+02  0.86651478592E+02  0.00000000000E+00 0.  1.
          3   -1    0    0  501    0  0.00000000000E+00 -0.00000000000E+00 -0.13975174943E+03  0.13975174943E+03  0.00000000000E+00 0. -1.
         23    2    1    2    0    0  0.11537325621E+02  0.14802786610E+02 -0.27958418545E+02  0.12954285882E+03  0.12508975469E+03 0.  0.
          5    1    3    3  502    0  0.48554760453E+02 -0.44154272517E+01  0.30461233400E+02  0.57640436334E+02  0.41800000000E+01 0.  1.
         -5    1    3    3    0  502 -0.37017434833E+02  0.19218213861E+02 -0.58419651945E+02  0.71902422484E+02  0.41800000000E+01 0.  1.
        -11    1    1    2    0    0 -0.34274067356E+02 -0.28501445106E+02  0.16454263651E+02  0.47516174705E+02  0.00000000000E+00 0.  1.
         11    1    1    2    0    0  0.22736741736E+02  0.13698658496E+02 -0.41596115942E+02  0.49344194500E+02  0.00000000000E+00 0. -1.
</event>
<event>
 7    1  0.4966153E-006  0.1214414E+03  0.7561462E-02  0.1240738E+00
          2   -1    0    0  501    0  0.00000000000E+00  0.00000000000E+00  0.40966223915E+03  0.40966223915E+03  0.00000000000E+00 0. -1.
         -2   -1    0    0    0  501 -0.00000000000E+00 -0.00000000000E+00 -0.50691601171E+02  0.50691601171E+02  0.00000000000E+00 0.  1.
         23    2    1    2    0    0  0.72048198903E+02 -0.48110339784E+02  0.14005937880E+03  0.20680506325E+03  0.12508459872E+03 0.  0.
          5    1    3    3  502    0  0.84097320340E+02  0.69705438734E+01  0.43794299712E+02  0.95164914004E+02  0.41800000000E+01 0.  1.
         -5    1    3    3    0  502 -0.12049121436E+02 -0.55080883657E+02  0.96265079091E+02  0.11164014925E+03  0.41800000000E+01 0.  1.
        -11    1    1    2    0    0 -0.76123427361E+02  0.27644029400E+02  0.21811526722E+03  0.23266550743E+03  0.00000000000E+00 0. -1.
         11    1    1    2    0    0  0.40752284580E+01  0.20466310385E+02  0.79599196395E+00  0.20883269642E+02  0.00000000000E+00 0.  1.
</event>
<event>
 7    1  0.4966153E-006  0.2537827E+03  0.7561462E-02  0.1110937E+00
         -2   -1    0    0    0  501 -0.00000000000E+00  0.00000000000E+00  0.10752314203E+04  0.10752314203E+04  0.00000000000E+00 0.  1.
          2   -1    0    0  501    0  0.00000000000E+00 -0.00000000000E+00 -0.66123778512E+02  0.66123778512E+02  0.00000000000E+00 0. -1.
         23    2    1    2    0    0  0.20840264984E+03 -0.12326183810E+03  0.56604116993E+03  0.62823101769E+03  0.12508581189E+03 0.  0.
          5    1    3    3  502    0  0.51250348052E+02 -0.86269540250E+02  0.30659294384E+03  0.32262321268E+03  0.41800000000E+01 0. -1.
         -5    1    3    3    0  502  0.15715230178E+03 -0.36992297847E+02  0.25944822610E+03  0.30560780501E+03  0.41800000000E+01 0. -1.
        -11    1    1    2    0    0 -0.10432155693E+03  0.85603523435E+02  0.32174258771E+03  0.34889718143E+03  0.00000000000E+00 0. -1.
         11    1    1    2    0    0 -0.10408109291E+03  0.37658314662E+02  0.12132388415E+03  0.16422699970E+03  0.00000000000E+00 0.  1.
</event>
<event>
 7    1  0.4966153E-006  0.1564020E+03  0.7561462E-02  0.1192820E+00
          1   -1    0    0  501    0  0.00000000000E+00  0.00000000000E+00  0.35862033458E+03  0.35862033458E+03  0.00000000000E+00 0. -1.
         -1   -1    0    0    0  501 -0.00000000000E+00 -0.00000000000E+00 -0.77834306514E+02  0.77834306514E+02  0.00000000000E+00 0.  1.
         23    2    1    2    0    0 -0.10612409792E+03  0.66192606741E+02  0.12131849088E+03  0.21449808054E+03  0.12508982764E+03 0.  0.
          5    1    3    3  502    0 -0.10054828404E+03  0.89166736324E+02  0.57354178840E+02  0.14617673728E+03  0.41800000000E+01 0. -1.
         -5    1    3    3    0  502 -0.55758138832E+01 -0.22974129583E+02  0.63964312039E+02  0.68321343262E+02  0.41800000000E+01 0. -1.
        -11    1    1    2    0    0  0.72696372513E+02  0.78338406761E+01  0.78197330135E+02  0.10705584560E+03  0.00000000000E+00 0. -1.
         11    1    1    2    0    0  0.33427725410E+02 -0.74026447417E+02  0.81270207051E+02  0.11490071496E+03  0.00000000000E+00 0.  1.
</event>
<event>
 6    1  0.4966153E-006  0.1210445E+03  0.7561462E-02  0.1241384E+00
         -2   -1    0    0    0  501 -0.00000000000E+00  0.00000000000E+00  0.35135473468E+02  0.35135473468E+02  0.00000000000E+00 0.  1.
          2   -1    0    0  501    0  0.00000000000E+00 -0.00000000000E+00 -0.44115538267E+03  0.44115538267E+03  0.00000000000E+00 0. -1.
          5    1    1    2  502    0 -0.48153414682E+02 -0.42998599899E+02 -0.83127944495E+02  0.10533450762E+03  0.41800000000E+01 0. -1.
         -5    1    1    2    0  502  0.76859233242E+02 -0.55502034634E+00 -0.15096851317E+03  0.16945977148E+03  0.41800000000E+01 0.  1.
        -11    1    1    2    0    0 -0.28386496547E+02  0.69188329808E+02 -0.98143652983E+02  0.12338960568E+03  0.00000000000E+00 0.  1.
         11    1    1    2    0    0 -0.31932201344E+00 -0.25634709562E+02 -0.73779798553E+02  0.78106971362E+02  0.00000000000E+00 0. -1.
</event>
<event>
 7    1  0.4966153E-006  0.9018132E+02  0.7561462E-02  0.1302413E+00
          3   -1    0    0  501    0  0.00000000000E+00  0.00000000000E+00  0.91705070295E+02  0.91705070295E+02  0.00000000000E+00 0. -1.
         -3   -1    0    0    0  501 -0.00000000000E+00 -0.00000000000E+00 -0.17036713705E+03  0.17036713705E+03  0.00000000000E+00 0.  1.
         23    2    1    2    0    0  0.16123766321E+02 -0.12452293153E+02 -0.10602052857E+03  0.16523550501E+03  0.12508950473E+03 0.  0.
          5    1    3    3  502    0  0.38747406037E+02  0.38251012389E+02 -0.93325482075E+02  0.10812779212E+03  0.41800000000E+01 0. -1.
         -5    1    3    3    0  502 -0.22623639715E+02 -0.50703305542E+02 -0.12695046496E+02  0.57107712897E+02  0.41800000000E+01 0. -1.
        -11    1    1    2    0    0 -0.39559978918E+02  0.21415560444E+02  0.46934976366E+02  0.65011615636E+02  0.00000000000E+00 0. -1.
         11    1    1    2    0    0  0.23436212597E+02 -0.89632672908E+01 -0.19576514554E+02  0.31825086701E+02  0.00000000000E+00 0.  1.
</event>
<event>
 7    1  0.4966153E-006  0.1102142E+03  0.7561462E-02  0.1260174E+00
          3   -1    0    0  501    0  0.00000000000E+00  0.00000000000E+00  0.33160407214E+03  0.33160407214E+03  0.00000000000E+00 0. -1.
         -3   -1    0    0    0  501 -0.00000000000E+00 -0.00000000000E+00 -0.44080354830E+02  0.44080354830E+02  0.00000000000E+00 0.  1.
         23    2    1    2    0    0  0.19541438533E+01 -0.35393536366E+02  0.92802607471E+02  0.15973657789E+03  0.12508768632E+03 0.  0.
          5    1    3    3  502    0 -0.38218702759E+02 -0.67201867638E+02  0.45082429487E+02  0.89591618487E+02  0.41800000000E+01 0. -1.
         -5    1    3    3    0  502  0.40172846612E+02  0.31808331272E+02  0.47720177984E+02  0.70144959406E+02  0.41800000000E+01 0. -1.
        -11    1    1    2    0    0  0.25710697282E+02 -0.18051042886E+02  0.48021718157E+02  0.57384366501E+02  0.00000000000E+00 0.  1.
         11    1    1    2    0    0 -0.27664841135E+02  0.53444579252E+02  0.14669939168E+03  0.15856348257E+03  0.00000000000E+00 0. -1.
</event>
<event>
 7    1  0.4966153E-006  0.1428367E+03  0.7561462E-02  0.1209562E+00
          1   -1    0    0  501    0  0.00000000000E+00  0.00000000000E+00  0.15150643325E+03  0.15150643325E+03  0.00000000000E+00 0. -1.
         -1   -1    0    0    0  501 -0.00000000000E+00 -0.00000000000E+00 -0.15758725879E+03  0.15758725879E+03  0.00000000000E+00 0.  1.
         23    2    1    2    0    0 -0.69698873393E+02 -0.77598137158E+02 -0.37712680222E+02  0.16717924558E+03  0.12508896858E+03 0.  0.
          5    1    3    3  502    0 -0.22929333657E+02 -0.10497388410E+03 -0.16293082507E+02  0.10875756352E+03  0.41800000000E+01 0. -1.
         -5    1    3    3    0  502 -0.46769539735E+02  0.27375746947E+02 -0.21419597716E+02  0.58421682056E+02  0.41800000000E+01 0. -1.
        -11    1    1    2    0    0  0.21344096909E+01  0.51210849813E+02  0.44942949308E+02  0.68168728430E+02  0.00000000000E+00 0.  1.
         11    1    1    2    0    0  0.67564463702E+02  0.26387287344E+02 -0.13311094625E+02  0.73745718037E+02  0.00000000000E+00 0. -1.
</event>
<event>
 7    1  0.4966153E-006  0.1044424E+03  0.7561462E-02  0.1271222E+00
         -2   -1    0    0    0  501 -0.00000000000E+00  0.00000000000E+00  0.99453535943E+02  0.99453535943E+02  0.00000000000E+00 0.  1.
          2   -1    0    0  501    0  0.00000000000E+00 -0.00000000000E+00 -0.28961772550E+03  0.28961772550E+03  0.00000000000E+00 0. -1.
         23    2    1    2    0    0 -0.71616274924E+02 -0.39602479634E+02  0.24752996258E+02  0.14187486117E+03  0.11321889498E+03 0.  0.
          5    1    3    3  502    0 -0.62634877929E+02 -0.20049838836E+02 -0.37537988417E+02  0.75839942939E+02  0.41800000000E+01 0. -1.
         -5    1    3    3    0  502 -0.89813969946E+01 -0.19552640798E+02  0.62290984675E+02  0.66034918233E+02  0.41800000000E+01 0.  1.
        -11    1    1    2    0    0  0.83924374596E+02  0.46972961683E+01 -0.13344846930E+03  0.15771448634E+03  0.00000000000E+00 0. -1.
         11    1    1    2    0    0 -0.12308099672E+02  0.34905183466E+02 -0.81468716512E+02  0.89481913929E+02  0.00000000000E+00 0.  1.
</event>
<event>
 7    1  0.4966153E-006  0.1060169E+03  0.7561462E-02  0.1268129E+00
         -1   -1    0    0    0  501 -0.00000000000E+00  0.00000000000E+00  0.27668818612E+02  0.27668818612E+02  0.00000000000E+00 0.  1.
          1   -1    0    0  501    0  0.00000000000E+00 -0.00000000000E+00 -0.44671337900E+03  0.44671337900E+03  0.00000000000E+00 0. -1.
         23    2    1    2    0    0 -0.15604934138E+02 -0.14809194148E+02 -0.22179668474E+03  0.25554571701E+03  0.12508804067E+03 0.  0.
          5    1    3    3  502    0  0.28954721871E+02 -0.57838069055E+02 -0.11576633713E+03  0.13267605422E+03  0.41800000000E+01 0. -1.
         -5    1    3    3    0  502 -0.44559656009E+02  0.43028874907E+02 -0.10603034761E+03  0.12286966279E+03  0.41800000000E+01 0. -1.
        -11    1    1    2    0    0 -0.11122620744E+02 -0.30535199681E+02 -0.12679163567E+03  0.13089014473E+03  0.00000000000E+00 0.  1.
         11    1    1    2    0    0  0.26727554881E+02  0.45344393829E+02 -0.70456239973E+02  0.87946335869E+02  0.00000000000E+00 0. -1.
</event>
<event>
 7    1  0.4966153E-006  0.9839338E+02  0.7561462E-02  0.1283711E+00
         -2   -1    0    0    0  501 -0.00000000000E+00  0.00000000000E+00  0.15202450367E+03  0.15202450367E+03  0.00000000000E+00 0.  1.
          2   -1    0    0  501    0  0.00000000000E+00 -0.00000000000E+00 -0.83753226121E+02  0.83753226121E+02  0.00000000000E+00 0. -1.
         23    2    1    2    0    0 -0.23871911648E+02 -0.22343934502E+01  0.54533775076E+02  0.13855006617E+03  0.12508927825E+03 0.  0.
          5    1    3    3  502    0 -0.57917560104E+02 -0.39854955370E+02  0.52055616661E+02  0.87579226201E+02  0.41800000000E+01 0.  1.
         -5    1    3    3    0  502  0.34045648457E+02  0.37620561920E+02  0.24781584150E+01  0.50970839969E+02  0.41800000000E+01 0.  1.
        -11    1    1    2    0    0  0.90812488497E+01  0.36771159956E+02 -0.23301279045E+02  0.44469505172E+02  0.00000000000E+00 0. -1.
         11    1    1    2    0    0  0.14790662798E+02 -0.34536766505E+02  0.37038781522E+02  0.52758158452E+02  0.00000000000E+00 0.  1.
</event>
<event>
 7    1  0.4966153E-006  0.6612349E+02  0.7561462E-02  0.1373795E+00
          2   -1    0    0  501    0  0.00000000000E+00  0.00000000000E+00  0.39455576569E+03  0.39455576569E+03  0.00000000000E+00 0. -1.
         -2   -1    0    0    0  501 -0.00000000000E+00 -0.00000000000E+00 -0.34988520800E+02  0.34988520800E+02  0.00000000000E+00 0.  1.
         23    2    1    2    0    0 -0.30815517423E+02  0.21554240508E+02  0.15480668907E+03  0.20254913597E+03  0.12508740986E+03 0.  0.
          5    1    3    3  502    0  0.11186901246E+02  0.14910918616E+02 -0.16960895799E+02  0.25546558276E+02  0.41800000000E+01 0. -1.
         -5    1    3    3    0  502 -0.42002418669E+02  0.66433218926E+01  0.17176758487E+03  0.17700257770E+03  0.41800000000E+01 0. -1.
        -11    1    1    2    0    0 -0.17356335887E+01 -0.35109903542E+02  0.18122084953E+03  0.18459879212E+03  0.00000000000E+00 0. -1.
         11    1    1    2    0    0  0.32551151012E+02  0.13555663034E+02  0.23539706294E+02  0.42396358392E+02  0.00000000000E+00 0.  1.
</event>
<event>
 7    1  0.4966153E-006  0.1293729E+03  0.7561462E-02  0.1228389E+00
          2   -1    0    0  501    0  0.00000000000E+00  0.00000000000E+00  0.41253055392E+03  0.41253055392E+03  0.00000000000E+00 0. -1.
         -2   -1    0    0    0  501 -0.00000000000E+00 -0.00000000000E+00 -0.67959572282E+02  0.67959572282E+02  0.00000000000E+00 0.  1.
         23    2    1    2    0    0 -0.69886490624E+02  0.10534344585E+03  0.15412126671E+03  0.23533331500E+03  0.12508813350E+03 0.  0.
          5    1    3    3  502    0 -0.59326677928E+02  0.70560635919E+02  0.17537642589E+02  0.93933483715E+02  0.41800000000E+01 0.  1.
         -5    1    3    3    0  502 -0.10559812696E+02  0.34782809933E+02  0.13658362412E+03  0.14139983129E+03  0.41800000000E+01 0.  1.
        -11    1    1    2    0    0  0.47743950665E+01 -0.29635874449E+02  0.11807438610E+03  0.12183037616E+03  0.00000000000E+00 0. -1.
         11    1    1    2    0    0  0.65112095557E+02 -0.75707571404E+02  0.72375328830E+02  0.12332643504E+03  0.00000000000E+00 0.  1.
</event>
<event>
 7    1  0.4966153E-006  0.1090047E+03  0.7561462E-02  0.1262424E+00
          1   -1    0    0  501    0  0.00000000000E+00  0.00000000000E+00  0.24743286347E+03  0.24743286347E+03  0.00000000000E+00 0. -1.
         -1   -1    0    0    0  501 -0.00000000000E+00 -0.00000000000E+00 -0.50543592165E+02  0.50543592165E+02  0.00000000000E+00 0.  1.
         23    2    1    2    0    0  0.59678964731E+01 -0.20698003392E+02  0.91905291353E+02  0.15670899361E+03  0.12508838062E+03 0.  0.
          5    1    3    3  502    0  0.15439817407E+02  0.51389060508E+02  0.33926800627E+02  0.63621723509E+02  0.41800000000E+01 0. -1.
         -5    1    3    3    0  502 -0.94719209334E+01 -0.72087063900E+02  0.57978490726E+02  0.93087270101E+02  0.41800000000E+01 0. -1.
        -11    1    1    2    0    0  0.40610733499E+02  0.18781831338E+02  0.69600961607E+02  0.82742266832E+02  0.00000000000E+00 0. -1.
         11    1    1    2    0    0 -0.46578629972E+02  0.19161720542E+01  0.35383018350E+02  0.58525195198E+02  0.00000000000E+00 0.  1.
</event>
<event>
 7    1  0.4966153E-006  0.1027361E+03  0.7561462E-02  0.1274645E+00
          1   -1    0    0  501    0  0.00000000000E+00  0.00000000000E+00  0.61969075678E+02  0.61969075678E+02  0.00000000000E+00 0. -1.
         -1   -1    0    0    0  501 -0.00000000000E+00 -0.00000000000E+00 -0.19092572910E+03  0.19092572910E+03  0.00000000000E+00 0.  1.
         23    2    1    2    0    0  0.76565952770E+01  0.16183939435E+02 -0.10267394864E+03  0.16282006021E+03  0.12509152222E+03 0.  0.
          5    1    3    3  502    0  0.18637248962E+02 -0.51750552065E+02 -0.30601119408E+02  0.63082228852E+02  0.41800000000E+01 0.  1.
         -5    1    3    3    0  502 -0.10980653685E+02  0.67934491500E+02 -0.72072829234E+02  0.99737831360E+02  0.41800000000E+01 0.  1.
        -11    1    1    2    0    0 -0.17249205623E+02  0.29778432613E+02 -0.25983392227E+02  0.43121071591E+02  0.00000000000E+00 0.  1.
         11    1    1    2    0    0  0.95926103464E+01 -0.45962372048E+02 -0.29931255227E+00  0.46953672972E+02  0.00000000000E+00 0. -1.
</event>
<event>
 7    1  0.4966153E-006  0.2338802E+03  0.7561462E-02  0.1123938E+00
          1   -1    0    0  501    0  0.00000000000E+00  0.00000000000E+00  0.15974473461E+03  0.15974473461E+03  0.00000000000E+00 0. -1.
         -1   -1    0    0    0  501 -0.00000000000E+00 -0.00000000000E+00 -0.36056821639E+03  0.36056821639E+03  0.00000000000E+00 0.  1.
         23    2    1    2    0    0  0.12815656776E+03 -0.16287286117E+03 -0.15802343051E+03  0.28908587589E+03  0.12509022457E+03 0.  0.
          5    1    3    3  502    0 -0.24342940184E+02 -0.35812147986E+02 -0.26679900977E+02  0.51033108825E+02  0.41800000000E+01 0.  1.
         -5    1    3    3    0  502  0.15249950794E+03 -0.12706071318E+03 -0.13134352953E+03  0.23805276706E+03  0.41800000000E+01 0.  1.
        -11    1    1    2    0    0 -0.69844700265E+02  0.15077058989E+03 -0.19606082879E+02  0.16731542492E+03  0.00000000000E+00 0. -1.
         11    1    1    2    0    0 -0.58311867492E+02  0.12102271272E+02 -0.23193968390E+02  0.63911650190E+02  0.00000000000E+00 0.  1.
</event>
<event>
 7    1  0.4966153E-006  0.1116303E+03  0.7561462E-02  0.1257580E+00
          1   -1    0    0  501    0  0.00000000000E+00  0.00000000000E+00  0.39778145817E+03  0.39778145817E+03  0.00000000000E+00 0. -1.
         -1   -1    0    0    0  501 -0.00000000000E+00 -0.00000000000E+00 -0.42877280226E+02  0.42877280226E+02  0.00000000000E+00 0.  1.
         23    2    1    2    0    0  0.22631168516E+02 -0.38882130964E+02  0.10165812102E+03  0.16734385405E+03  0.12508238095E+03 0.  0.
          5    1    3    3  502    0 -0.48753880336E+01  0.38196141391E+02  0.69004522447E+02  0.79131606478E+02  0.41800000000E+01 0. -1.
         -5    1    3    3    0  502  0.27506556550E+02 -0.77078272356E+02  0.32653598576E+02  0.88212247577E+02  0.41800000000E+01 0. -1.
        -11    1    1    2    0    0  0.18568678864E+02 -0.22176381255E+02  0.79605697226E+02  0.84697430606E+02  0.00000000000E+00 0. -1.
         11    1    1    2    0    0 -0.41199847381E+02  0.61058512220E+02  0.17364035970E+03  0.18861745374E+03  0.00000000000E+00 0.  1.
</event>
<event>
 7    1  0.4966153E-006  0.8041949E+02  0.7561462E-02  0.1327865E+00
         -2   -1    0    0    0  501 -0.00000000000E+00  0.00000000000E+00  0.64001397091E+02  0.64001397091E+02  0.00000000000E+00 0.  1.
          2   -1    0    0  501    0  0.00000000000E+00 -0.00000000000E+00 -0.18462149089E+03  0.18462149089E+03  0.00000000000E+00 0. -1.
         23    2    1    2    0    0  0.47396452609E+01 -0.17075033258E+01 -0.65345914618E+02  0.14121889082E+03  0.12508919522E+03 0.  0.
          5    1    3    3  502    0  0.47533900369E+02  0.27473157912E+02  0.32563739383E+01  0.55157252118E+02  0.41800000000E+01 0. -1.
         -5    1    3    3    0  502 -0.42794255108E+02 -0.29180661238E+02 -0.68602288556E+02  0.86061638700E+02  0.41800000000E+01 0. -1.
        -11    1    1    2    0    0 -0.37703453976E+01  0.27623241978E+02  0.15590830547E+02  0.31942651721E+02  0.00000000000E+00 0.  1.
         11    1    1    2    0    0 -0.96929986332E+00 -0.25915738652E+02 -0.70865009731E+02  0.75461345444E+02  0.00000000000E+00 0. -1.
</event>
<event>
 7    1  0.4966153E-006  0.1331680E+03  0.7561462E-02  0.1222829E+00
         -1   -1    0    0    0  501 -0.00000000000E+00  0.00000000000E+00  0.86164560946E+02  0.86164560946E+02  0.00000000000E+00 0.  1.
          1   -1    0    0  501    0  0.00000000000E+00 -0.00000000000E+00 -0.39181539420E+03  0.39181539420E+03  0.00000000000E+00 0. -1.
         23    2    1    2    0    0 -0.10446038646E+03 -0.65345297900E+01 -0.23087130085E+02  0.16473126317E+03  0.12509476836E+03 0.  0.
          5    1    3    3  502    0 -0.40654019887E+02  0.43504482089E+02 -0.51370219862E+02  0.78751261472E+02  0.41800000000E+01 0.  1.
         -5    1    3    3    0  502 -0.63806366568E+02 -0.50039011879E+02  0.28283089776E+02  0.85980001697E+02  0.41800000000E+01 0.  1.
        -11    1    1    2    0    0  0.22441134597E+02 -0.28489931185E+02 -0.14375066787E+03  0.14825496692E+03  0.00000000000E+00 0. -1.
         11    1    1    2    0    0  0.82019251858E+02  0.35024460975E+02 -0.13881303530E+03  0.16499372506E+03  0.00000000000E+00 0.  1.
</event>
<event>
 7    1  0.4966153E-006  0.1121104E+03  0.7561462E-02  0.1256711E+00
         -2   -1    0    0    0  501 -0.00000000000E+00  0.00000000000E+00  0.17247636690E+03  0.17247636690E+03  0.00000000000E+00 0.  1.
          2   -1    0    0  501    0  0.00000000000E+00 -0.00000000000E+00 -0.11529802795E+03  0.11529802795E+03  0.00000000000E+00 0. -1.
         23    2    1    2    0    0  0.39499488658E+02  0.61224284996E+02  0.83608525582E+02  0.16717417721E+03  0.12509275478E+03 0.  0.
          5    1    3    3  502    0  0.49956915820E+02 -0.23471108073E+02  0.14337870666E+02  0.57180707303E+02  0.41800000000E+01 0. -1.
         -5    1    3    3    0  502 -0.10457427162E+02  0.84695393069E+02  0.69270654916E+02  0.10999346991E+03  0.41800000000E+01 0. -1.
        -11    1    1    2    0    0 -0.28965141489E+02 -0.92667354587E+01 -0.53147914467E+02  0.61233590616E+02  0.00000000000E+00 0. -1.
         11    1    1    2    0    0 -0.10534347169E+02 -0.51957549538E+02  0.26717727834E+02  0.59366627029E+02  0.00000000000E+00 0.  1.
</event>
<event>
 7    1  0.4966153E-006  0.1354835E+03  0.7561462E-02  0.1219539E+00
         -2   -1    0    0    0  501 -0.00000000000E+00  0.00000000000E+00  0.15496233876E+03  0.15496233876E+03  0.00000000000E+00 0. -1.
          2   -1    0    0  501    0  0.00000000000E+00 -0.00000000000E+00 -0.39415749775E+03  0.39415749775E+03  0.00000000000E+00 0.  1.
         23    2    1    2    0    0  0.67424919263E+02 -0.85186346335E+02  0.95112058747E+02  0.19103197594E+03  0.12507629180E+03 0.  0.
          5    1    3    3  502    0  0.84632220799E+02 -0.16767578145E+02  0.21558811544E+02  0.89028193452E+02  0.41800000000E+01 0.  1.
         -5    1    3    3    0  502 -0.17207301536E+02 -0.68418768190E+02  0.73553247202E+02  0.10200378248E+03  0.41800000000E+01 0.  1.
        -11    1    1    2    0    0 -0.29808955864E+02  0.64338625813E+02 -0.11897583685E+03  0.13850372694E+03  0.00000000000E+00 0. -1.
         11    1    1    2    0    0 -0.37615963398E+02  0.20847720522E+02 -0.21533138088E+03  0.21958413364E+03  0.00000000000E+00 0.  1.
</event>
<event>
 7    1  0.4966153E-006  0.8058964E+02  0.7561462E-02  0.1327386E+00
         -1   -1    0    0    0  501 -0.00000000000E+00  0.00000000000E+00  0.20717105308E+03  0.20717105308E+03  0.00000000000E+00 0.  1.
          1   -1    0    0  501    0  0.00000000000E+00 -0.00000000000E+00 -0.72741913675E+02  0.72741913675E+02  0.00000000000E+00 0. -1.
         23    2    1    2    0    0 -0.51456508147E+02  0.21754730907E+02  0.62738832616E+02  0.15068012761E+03  0.12508916496E+03 0.  0.
          5    1    3    3  502    0 -0.14643210069E+02  0.45326591918E+02 -0.23968391643E+02  0.53487192242E+02  0.41800000000E+01 0. -1.
         -5    1    3    3    0  502 -0.36813298078E+02 -0.23571861011E+02  0.86707224259E+02  0.97192935369E+02  0.41800000000E+01 0. -1.
        -11    1    1    2    0    0  0.54080320350E+02 -0.70787494398E+01 -0.14774398136E+01  0.54561640107E+02  0.00000000000E+00 0. -1.
         11    1    1    2    0    0 -0.26238122032E+01 -0.14675981468E+02  0.73167746599E+02  0.74671199032E+02  0.00000000000E+00 0.  1.
</event>
<event>
 7    1  0.4966153E-006  0.9117417E+02  0.7561462E-02  0.1300033E+00
          2   -1    0    0  501    0  0.00000000000E+00  0.00000000000E+00  0.67713210216E+02  0.67713210216E+02  0.00000000000E+00 0. -1.
         -2   -1    0    0    0  501 -0.00000000000E+00 -0.00000000000E+00 -0.22716930524E+03  0.22716930524E+03  0.00000000000E+00 0.  1.
         23    2    1    2    0    0 -0.64327882815E+01 -0.27763789961E+02 -0.15251276686E+03  0.19930000657E+03  0.12509252481E+03 0.  0.
          5    1    3    3  502    0 -0.45590337915E+02 -0.58465245237E+02 -0.11480892213E+03  0.13673048238E+03  0.41800000000E+01 0. -1.
         -5    1    3    3    0  502  0.39157549634E+02  0.30701455276E+02 -0.37703844734E+02  0.62569524188E+02  0.41800000000E+01 0. -1.
        -11    1    1    2    0    0 -0.16295645526E+02  0.31172488702E+02 -0.41299019680E+02  0.54248328468E+02  0.00000000000E+00 0.  1.
         11    1    1    2    0    0  0.22728433808E+02 -0.34086987407E+01  0.34355691524E+02  0.41334180414E+02  0.00000000000E+00 0. -1.
</event>
<event>
 7    1  0.4966153E-006  0.1090878E+03  0.7561462E-02  0.1262268E+00
          1   -1    0    0  501    0  0.00000000000E+00  0.00000000000E+00  0.16646034606E+03  0.16646034606E+03  0.00000000000E+00 0. -1.
         -1   -1    0    0    0  501 -0.00000000000E+00 -0.00000000000E+00 -0.10507028850E+03  0.10507028850E+03  0.00000000000E+00 0.  1.
         23    2    1    2    0    0  0.27295296518E+01  0.76855737684E+02  0.12311759512E+02  0.14735485917E+03  0.12509044868E+03 0.  0.
          5    1    3    3  502    0  0.44992553150E+02  0.23688925066E+02  0.48405489248E+02  0.70328221925E+02  0.41800000000E+01 0.  1.
         -5    1    3    3    0  502 -0.42263023498E+02  0.53166812618E+02 -0.36093729736E+02  0.77026637246E+02  0.41800000000E+01 0.  1.
        -11    1    1    2    0    0 -0.29928095016E+02 -0.60166615063E+02  0.19087021968E+01  0.67226152527E+02  0.00000000000E+00 0.  1.
         11    1    1    2    0    0  0.27198565364E+02 -0.16689122621E+02  0.47169595851E+02  0.56949622865E+02  0.00000000000E+00 0. -1.
</event>
<event>
 6    1  0.4966153E-006  0.1359817E+03  0.7561462E-02  0.1218840E+00
         -2   -1    0    0    0  501 -0.00000000000E+00  0.00000000000E+00  0.89848329211E+03  0.89848329211E+03  0.00000000000E+00 0.  1.
          2   -1    0    0  501    0  0.00000000000E+00 -0.00000000000E+00 -0.19422284259E+03  0.19422284259E+03  0.00000000000E+00 0. -1.
          5    1    1    2  502    0 -0.39608983745E+00 -0.75327488098E+02  0.12530423988E+03  0.14626350291E+03  0.41800000000E+01 0. -1.
         -5    1    1    2    0  502 -0.63501482041E+02  0.70681925927E+02  0.74194307402E+03  0.74801428486E+03  0.41800000000E+01 0.  1.
        -11    1    1    2    0    0 -0.15366312082E+02 -0.13089514409E+02 -0.50163599911E+01  0.20799586583E+02  0.00000000000E+00 0.  1.
         11    1    1    2    0    0  0.79263883961E+02  0.17735076580E+02 -0.15797050439E+03  0.17762876034E+03  0.00000000000E+00 0. -1.
</event>
<event>
 7    1  0.4966153E-006  0.9815061E+02  0.7561462E-02  0.1284234E+00
          2   -1    0    0  501    0  0.00000000000E+00  0.00000000000E+00  0.61183749448E+02  0.61183749448E+02  0.00000000000E+00 0. -1.
         -2   -1    0    0    0  501 -0.00000000000E+00 -0.00000000000E+00 -0.24215343697E+03  0.24215343697E+03  0.00000000000E+00 0.  1.
         23    2    1    2    0    0  0.44072133239E+02  0.38123879314E+02 -0.85097289520E+02  0.16213428799E+03  0.12510074162E+03 0.  0.
          5    1    3    3  502    0  0.85105300178E+02  0.54744576891E+01 -0.53981385707E+02  0.10101655413E+03  0.41800000000E+01 0. -1.
         -5    1    3    3    0  502 -0.41033166940E+02  0.32649421625E+02 -0.31115903813E+02  0.61117733855E+02  0.41800000000E+01 0. -1.
        -11    1    1    2    0    0 -0.24602214095E+02 -0.22699550161E+02 -0.10835193485E+03  0.11340493950E+03  0.00000000000E+00 0.  1.
         11    1    1    2    0    0 -0.19469919143E+02 -0.15424329153E+02  0.12479536847E+02  0.27797958939E+02  0.00000000000E+00 0. -1.
</event>
<event>
 7    1  0.4966153E-006  0.1055295E+03  0.7561462E-02  0.1269080E+00
          2   -1    0    0  501    0  0.00000000000E+00  0.00000000000E+00  0.31348977087E+03  0.31348977087E+03  0.00000000000E+00 0. -1.
         -2   -1    0    0    0  501 -0.00000000000E+00 -0.00000000000E+00 -0.18164539057E+03  0.18164539057E+03  0.00000000000E+00 0.  1.
         23    2    1    2    0    0 -0.30069075804E+02  0.67567938101E+02 -0.13817839338E+03  0.20052263049E+03  0.12508589594E+03 0.  0.
          5    1    3    3  502    0 -0.32033961932E+02  0.81754831918E+02 -0.15490444470E+03  0.17810919866E+03  0.41800000000E+01 0. -1.
         -5    1    3    3    0  502  0.19648861280E+01 -0.14186893818E+02  0.16726051319E+02  0.22413431830E+02  0.41800000000E+01 0. -1.
        -11    1    1    2    0    0  0.45564663678E+02 -0.77446721827E+02  0.16394543349E+03  0.18695517768E+03  0.00000000000E+00 0.  1.
         11    1    1    2    0    0 -0.15495587874E+02  0.98787837260E+01  0.10607734018E+03  0.10765735326E+03  0.00000000000E+00 0. -1.
</event>
<event>
 7    1  0.4966153E-006  0.1045366E+03  0.7561462E-02  0.1271035E+00
          4   -1    0    0  501    0  0.00000000000E+00  0.00000000000E+00  0.38803208367E+03  0.38803208367E+03  0.00000000000E+00 0.  1.
         -4   -1    0    0    0  501 -0.00000000000E+00 -0.00000000000E+00 -0.77262991894E+02  0.77262991894E+02  0.00000000000E+00 0. -1.
         23    2    1    2    0    0  0.38985637212E+02 -0.27216532580E+02 -0.49579584291E+01  0.13391393397E+03  0.12509093014E+03 0.  0.
          5    1    3    3  502    0  0.12761553163E+02 -0.64208391792E+02 -0.39666223869E+02  0.76658049360E+02  0.41800000000E+01 0.  1.
         -5    1    3    3    0  502  0.26224084049E+02  0.36991859212E+02  0.34708265440E+02  0.57255884606E+02  0.41800000000E+01 0.  1.
        -11    1    1    2    0    0  0.27335163064E+02  0.37608277097E+01  0.12717206329E+03  0.13013104413E+03  0.00000000000E+00 0.  1.
         11    1    1    2    0    0 -0.66320800276E+02  0.23455704871E+02  0.18855498692E+03  0.20125009747E+03  0.00000000000E+00 0. -1.
</event>
<event>
 6    1  0.4966153E-006  0.1402806E+03  0.7561462E-02  0.1212952E+00
         -1   -1    0    0    0  501 -0.00000000000E+00  0.00000000000E+00  0.63164035922E+02  0.63164035922E+02  0.00000000000E+00 0.  1.
          1   -1    0    0  501    0  0.00000000000E+00 -0.00000000000E+00 -0.41558526149E+03  0.41558526149E+03  0.00000000000E+00 0. -1.
          5    1    1    2  502    0 -0.61106120339E+02 -0.14356733994E+02 -0.72557448950E+02  0.96031919444E+02  0.41800000000E+01 0. -1.
         -5    1    1    2    0  502  0.96196390597E+02 -0.42133988813E+02 -0.31250081036E+02  0.10964970835E+03  0.41800000000E+01 0.  1.
        -11    1    1    2    0    0 -0.26175194376E+02 -0.21609337761E+02 -0.64807755479E+02  0.73158386049E+02  0.00000000000E+00 0. -1.
         11    1    1    2    0    0 -0.89150758822E+01  0.78100060568E+02 -0.18380594010E+03  0.19990928357E+03  0.00000000000E+00 0.  1.
</event>
<event>
 7    1  0.6259186E-006  0.1956658E+03  0.7561462E-02  0.1153448E+00
         -1   -1    0    0    0  501 -0.00000000000E+00  0.00000000000E+00  0.22315575091E+02  0.22315575091E+02  0.00000000000E+00 0.  1.
          1   -1    0    0  501    0  0.00000000000E+00 -0.00000000000E+00 -0.18969554873E+04  0.18969554873E+04  0.00000000000E+00 0. -1.
         23    2    1    2    0    0  0.13749216970E+03 -0.98430989920E+02 -0.77782842801E+03  0.80576527501E+03  0.12509140053E+03 0.  0.
          5    1    3    3  502    0  0.13968037995E+03 -0.46599292526E+02 -0.44131904971E+03  0.46525485343E+03  0.41800000000E+01 0.  1.
         -5    1    3    3    0  502 -0.21882102484E+01 -0.51831697395E+02 -0.33650937830E+03  0.34051042158E+03  0.41800000000E+01 0.  1.
        -11    1    1    2    0    0 -0.76399847978E+02  0.31946775281E+00 -0.41776792763E+03  0.42469645653E+03  0.00000000000E+00 0. -1.
         11    1    1    2    0    0 -0.61092321719E+02  0.98111522168E+02 -0.67904355661E+03  0.68880933089E+03  0.00000000000E+00 0.  1.
</event>
<event>
 7    1  0.4966153E-006  0.1282464E+03  0.7561462E-02  0.1230081E+00
         -2   -1    0    0    0  501 -0.00000000000E+00  0.00000000000E+00  0.55055793032E+02  0.55055793032E+02  0.00000000000E+00 0.  1.
          2   -1    0    0  501    0  0.00000000000E+00 -0.00000000000E+00 -0.44961737086E+03  0.44961737086E+03  0.00000000000E+00 0. -1.
         23    2    1    2    0    0 -0.86608028029E+02  0.31484948960E+02 -0.11634015771E+03  0.19409908235E+03  0.12508864434E+03 0.  0.
          5    1    3    3  502    0 -0.80947072160E+02 -0.79374809444E+01 -0.12859920851E+03  0.15221912142E+03  0.41800000000E+01 0. -1.
         -5    1    3    3    0  502 -0.56609558687E+01  0.39422429905E+02  0.12259050801E+02  0.41879960930E+02  0.41800000000E+01 0. -1.
        -11    1    1    2    0    0  0.16851074568E+02 -0.57984718567E+02 -0.15717715544E+03  0.16837709017E+03  0.00000000000E+00 0. -1.
         11    1    1    2    0    0  0.69756953462E+02  0.26499769606E+02 -0.12104426468E+03  0.14219699138E+03  0.00000000000E+00 0.  1.
</event>
<event>
 7    1  0.4966153E-006  0.7319436E+02  0.7561462E-02  0.1349555E+00
          1   -1    0    0  501    0  0.00000000000E+00  0.00000000000E+00  0.17743183278E+03  0.17743183278E+03  0.00000000000E+00 0. -1.
         -1   -1    0    0    0  501 -0.00000000000E+00 -0.00000000000E+00 -0.13328040490E+03  0.13328040490E+03  0.00000000000E+00 0.  1.
         23    2    1    2    0    0 -0.49496980108E+02  0.89338399605E+00 -0.10278396963E+01  0.13453392489E+03  0.12509025269E+03 0.  0.
          5    1    3    3  502    0  0.60646669766E+01  0.23052495830E+02 -0.51017398291E+02  0.56466318083E+02  0.41800000000E+01 0.  1.
         -5    1    3    3    0  502 -0.55561647085E+02 -0.22159111834E+02  0.49989558595E+02  0.78067606807E+02  0.41800000000E+01 0.  1.
        -11    1    1    2    0    0  0.32290859065E+02 -0.18821615599E+02  0.10497213683E+03  0.11142756528E+03  0.00000000000E+00 0. -1.
         11    1    1    2    0    0  0.17206121044E+02  0.17928231603E+02 -0.59792869252E+02  0.64750747510E+02  0.00000000000E+00 0.  1.
</event>
<event>
 7    1  0.4966153E-006  0.1561460E+03  0.7561462E-02  0.1193118E+00
          1   -1    0    0  501    0  0.00000000000E+00  0.00000000000E+00  0.42854106596E+03  0.42854106596E+03  0.00000000000E+00 0. -1.
         -1   -1    0    0    0  501 -0.00000000000E+00 -0.00000000000E+00 -0.64613225490E+02  0.64613225490E+02  0.00000000000E+00 0.  1.
         23    2    1    2    0    0 -0.65453190282E+02  0.10116126503E+03  0.14027141028E+03  0.22325097796E+03  0.12508880429E+03 0.  0.
          5    1    3    3  502    0 -0.46399848301E+02  0.13018365765E+03  0.11815165381E+03  0.18187362739E+03  0.41800000000E+01 0.  1.
         -5    1    3    3    0  502 -0.19053341981E+02 -0.29022392623E+02  0.22119756465E+02  0.41377350571E+02  0.41800000000E+01 0.  1.
        -11    1    1    2    0    0  0.76584869689E+02 -0.10238182342E+03  0.15777494463E+03  0.20307686522E+03  0.00000000000E+00 0.  1.
         11    1    1    2    0    0 -0.11131679407E+02  0.12205583978E+01  0.65881485564E+02  0.66826448277E+02  0.00000000000E+00 0. -1.
</event>
<event>
 6    1  0.4966153E-006  0.1260858E+03  0.7561462E-02  0.1233382E+00
          4   -1    0    0  501    0  0.00000000000E+00  0.00000000000E+00  0.66769378951E+03  0.66769378951E+03  0.00000000000E+00 0. -1.
         -4   -1    0    0    0  501 -0.00000000000E+00 -0.00000000000E+00 -0.37482144213E+02  0.37482144213E+02  0.00000000000E+00 0.  1.
          5    1    1    2  502    0 -0.55770988107E+02 -0.34822259036E+02  0.61793820044E+02  0.90326858876E+02  0.41800000000E+01 0. -1.
         -5    1    1    2    0  502  0.47484111717E+02  0.74699092763E+02  0.90055033765E+02  0.12634111299E+03  0.41800000000E+01 0.  1.
        -11    1    1    2    0    0  0.46810055563E+02 -0.35815915457E+02  0.32684629323E+03  0.33211814239E+03  0.00000000000E+00 0.  1.
         11    1    1    2    0    0 -0.38523179173E+02 -0.40609182693E+01  0.15151649825E+03  0.15638981947E+03  0.00000000000E+00 0. -1.
</event>
<event>
 7    1  0.4966153E-006  0.1028584E+03  0.7561462E-02  0.1274397E+00
          2   -1    0    0  501    0  0.00000000000E+00  0.00000000000E+00  0.39777043877E+03  0.39777043877E+03  0.00000000000E+00 0.  1.
         -2   -1    0    0    0  501 -0.00000000000E+00 -0.00000000000E+00 -0.36091657011E+02  0.36091657011E+02  0.00000000000E+00 0. -1.
         23    2    1    2    0    0 -0.17350773241E+02 -0.67847797674E+02  0.20242084763E+03  0.24804419538E+03  0.12508936935E+03 0.  0.
          5    1    3    3  502    0 -0.40986073010E+02 -0.83443002431E+02  0.81248498782E+02  0.12353697337E+03  0.41800000000E+01 0.  1.
         -5    1    3    3    0  502  0.23635299768E+02  0.15595204757E+02  0.12117234885E+03  0.12450722201E+03  0.41800000000E+01 0.  1.
        -11    1    1    2    0    0  0.30178254960E+02  0.24632727540E+02  0.11957732935E+03  0.12576261779E+03  0.00000000000E+00 0.  1.
         11    1    1    2    0    0 -0.12827481719E+02  0.43215070134E+02  0.39680604771E+02  0.60055282606E+02  0.00000000000E+00 0. -1.
</event>
<event>
 7    1  0.4966153E-006  0.8974193E+02  0.7561462E-02  0.1303478E+00
          2   -1    0    0  501    0  0.00000000000E+00  0.00000000000E+00  0.80372243038E+02  0.80372243038E+02  0.00000000000E+00 0. -1.
         -2   -1    0    0    0  501 -0.00000000000E+00 -0.00000000000E+00 -0.18009558395E+03  0.18009558395E+03  0.00000000000E+00 0.  1.
         23    2    1    2    0    0  0.47005541051E+02 -0.97972406556E+00 -0.79478432175E+02  0.15548359917E+03  0.12509135734E+03 0.  0.
          5    1    3    3  502    0 -0.18893433606E+01 -0.36317004118E+02 -0.87150932040E+02  0.94526460644E+02  0.41800000000E+01 0.  1.
         -5    1    3    3    0  502  0.48894884412E+02  0.35337280053E+02  0.76724998648E+01  0.60957138527E+02  0.41800000000E+01 0.  1.
        -11    1    1    2    0    0 -0.28330414254E+02  0.34130676843E+02  0.20821348099E+02  0.49000449082E+02  0.00000000000E+00 0. -1.
         11    1    1    2    0    0 -0.18675126797E+02 -0.33150952778E+02 -0.41066256836E+02  0.55983778735E+02  0.00000000000E+00 0.  1.
</event>
<event>
 7    1  0.4966153E-006  0.9614752E+02  0.7561462E-02  0.1288612E+00
          1   -1    0    0  501    0  0.00000000000E+00  0.00000000000E+00  0.23795325080E+02  0.23795325080E+02  0.00000000000E+00 0. -1.
         -1   -1    0    0    0  501 -0.00000000000E+00 -0.00000000000E+00 -0.59837648472E+03  0.59837648472E+03  0.00000000000E+00 0.  1.
         23    2    1    2    0    0 -0.19375337849E+02 -0.60610878944E+02 -0.33584448610E+03  0.35919985529E+03  0.11038086262E+03 0.  0.
          5    1    3    3  502    0 -0.22630021228E+02 -0.92306197665E+02 -0.24348332712E+03  0.26140802393E+03  0.41800000000E+01 0. -1.
         -5    1    3    3    0  502  0.32546833798E+01  0.31695318722E+02 -0.92361158984E+02  0.97791831365E+02  0.41800000000E+01 0.  1.
        -11    1    1    2    0    0  0.57175816627E+01  0.39319419277E+02 -0.23385922372E+03  0.23721054781E+03  0.00000000000E+00 0.  1.
         11    1    1    2    0    0  0.13657756186E+02  0.21291459666E+02 -0.48774498222E+01  0.25761406707E+02  0.00000000000E+00 0. -1.
</event>
<event>
 6    1  0.4966153E-006  0.7638386E+02  0.7561462E-02  0.1339638E+00
          1   -1    0    0  501    0  0.00000000000E+00  0.00000000000E+00  0.30701698407E+03  0.30701698407E+03  0.00000000000E+00 0. -1.
         -1   -1    0    0    0  501 -0.00000000000E+00 -0.00000000000E+00 -0.14463400680E+03  0.14463400680E+03  0.00000000000E+00 0.  1.
          5    1    1    2  502    0 -0.12494517193E+02 -0.24089706782E+02  0.88170905740E+02  0.92347214099E+02  0.41800000000E+01 0. -1.
         -5    1    1    2    0  502  0.25356006923E+02 -0.89517201796E+01 -0.12961348446E+03  0.13243937532E+03  0.41800000000E+01 0.  1.
        -11    1    1    2    0    0  0.16901433783E+02 -0.26558059080E+02  0.84948050370E+02  0.90593378498E+02  0.00000000000E+00 0.  1.
         11    1    1    2    0    0 -0.29762923513E+02  0.59599486041E+02  0.11887750562E+03  0.13627102295E+03  0.00000000000E+00 0. -1.
</event>
<event>
 6    1  0.4966153E-006  0.1106752E+03  0.7561462E-02  0.1259325E+00
          2   -1    0    0  501    0  0.00000000000E+00  0.00000000000E+00  0.60528593038E+03  0.60528593038E+03  0.00000000000E+00 0. -1.
         -2   -1    0    0    0  501 -0.00000000000E+00 -0.00000000000E+00 -0.26841397584E+02  0.26841397584E+02  0.00000000000E+00 0.  1.
          5    1    1    2  502    0  0.39410823812E+02  0.31662540041E+02  0.21830709659E+03  0.22412315877E+03  0.41800000000E+01 0. -1.
         -5    1    1    2    0  502 -0.70319032054E+02 -0.48197870890E+02  0.11008061784E+03  0.13929470862E+03  0.41800000000E+01 0.  1.
        -11    1    1    2    0    0  0.33335597158E+02  0.45388405427E+02  0.90829000188E+02  0.10687037316E+03  0.00000000000E+00 0. -1.
         11    1    1    2    0    0 -0.24273889164E+01 -0.28853074578E+02  0.15922781818E+03  0.16183908740E+03  0.00000000000E+00 0.  1.
</event>
<event>
 6    1  0.4966153E-006  0.1594589E+03  0.7561462E-02  0.1189309E+00
          2   -1    0    0  501    0  0.00000000000E+00  0.00000000000E+00  0.58144415090E+03  0.58144415090E+03  0.00000000000E+00 0. -1.
         -2   -1    0    0    0  501 -0.00000000000E+00 -0.00000000000E+00 -0.10723004726E+03  0.10723004726E+03  0.00000000000E+00 0.  1.
          5    1    1    2  502    0 -0.12968643314E+03  0.10273142890E+02  0.40007926187E+02  0.13616980195E+03  0.41800000000E+01 0. -1.
         -5    1    1    2    0  502  0.36813663065E+02  0.39472414116E+02 -0.34016859570E+02  0.63936972085E+02  0.41800000000E+01 0.  1.
        -11    1    1    2    0    0  0.32140636802E+02 -0.64551478616E+02  0.31365398969E+03  0.32183651001E+03  0.00000000000E+00 0.  1.
         11    1    1    2    0    0  0.60732133272E+02  0.14805921609E+02  0.15456904733E+03  0.16673091411E+03  0.00000000000E+00 0. -1.
</event>
<event>
 7    1  0.4966153E-006  0.9969917E+02  0.7561462E-02  0.1280930E+00
          2   -1    0    0  501    0  0.00000000000E+00  0.00000000000E+00  0.40981766620E+03  0.40981766620E+03  0.00000000000E+00 0.  1.
         -2   -1    0    0    0  501 -0.00000000000E+00 -0.00000000000E+00 -0.48996739347E+02  0.48996739347E+02  0.00000000000E+00 0. -1.
         23    2    1    2    0    0 -0.72974847035E+02 -0.52315783045E+02  0.16925910625E+03  0.22882601787E+03  0.12510168646E+03 0.  0.
          5    1    3    3  502    0 -0.32737613673E+02 -0.44509798627E+01 -0.13261792372E+02  0.35845642799E+02  0.41800000000E+01 0. -1.
         -5    1    3    3    0  502 -0.40237233362E+02 -0.47864803183E+02  0.18252089862E+03  0.19298037508E+03  0.41800000000E+01 0. -1.
        -11    1    1    2    0    0  0.57034833519E+02  0.96053109525E+01  0.16997851540E+03  0.17954924096E+03  0.00000000000E+00 0.  1.
         11    1    1    2    0    0  0.15940013515E+02  0.42710472093E+02  0.21583305211E+02  0.50439146713E+02  0.00000000000E+00 0. -1.
</event>
<event>
 7    1  0.4966153E-006  0.1166998E+03  0.7561462E-02  0.1248643E+00
          2   -1    0    0  501    0  0.00000000000E+00  0.00000000000E+00  0.10605985412E+03  0.10605985412E+03  0.00000000000E+00 0.  1.
         -2   -1    0    0    0  501 -0.00000000000E+00 -0.00000000000E+00 -0.13603602553E+03  0.13603602553E+03  0.00000000000E+00 0. -1.
         23    2    1    2    0    0  0.16005518231E+02  0.46905531190E+02 -0.27846179791E+02  0.13740450539E+03  0.12509309695E+03 0.  0.
          5    1    3    3  502    0  0.64027036228E+02  0.41124678430E+01 -0.33861724460E+02  0.72666791200E+02  0.41800000000E+01 0.  1.
         -5    1    3    3    0  502 -0.48021517997E+02  0.42793063347E+02  0.60155446686E+01  0.64737714194E+02  0.41800000000E+01 0.  1.
        -11    1    1    2    0    0 -0.48134621407E+02 -0.53374342898E+02 -0.24722438947E+01  0.71915744087E+02  0.00000000000E+00 0. -1.
         11    1    1    2    0    0  0.32129103175E+02  0.64688117071E+01  0.34225227678E+00  0.32775630160E+02  0.00000000000E+00 0.  1.
</event>
<event>
 7    1  0.4966153E-006  0.1391769E+03  0.7561462E-02  0.1214441E+00
          1   -1    0    0  501    0  0.00000000000E+00  0.00000000000E+00  0.52972613785E+02  0.52972613785E+02  0.00000000000E+00 0. -1.
         -1   -1    0    0    0  501 -0.00000000000E+00 -0.00000000000E+00 -0.58455818292E+03  0.58455818292E+03  0.00000000000E+00 0.  1.
         23    2    1    2    0    0  0.11869729434E+03 -0.41968509754E+02 -0.39336264986E+03  0.43155894273E+03  0.12513410104E+03 0.  0.
          5    1    3    3  502    0  0.84162970226E+02 -0.59885166245E+02 -0.13390623496E+03  0.16916852797E+03  0.41800000000E+01 0. -1.
         -5    1    3    3    0  502  0.34534324119E+02  0.17916656491E+02 -0.25945641491E+03  0.26239041476E+03  0.41800000000E+01 0. -1.
        -11    1    1    2    0    0 -0.80014860986E+02  0.52567667555E+02 -0.13531472355E+03  0.16575829409E+03  0.00000000000E+00 0.  1.
         11    1    1    2    0    0 -0.38682433359E+02 -0.10599157800E+02 -0.29081957229E+01  0.40213559890E+02  0.00000000000E+00 0. -1.
</event>
<event>
 7    1  0.4966153E-006  0.9681022E+02  0.7561462E-02  0.1287150E+00
         -1   -1    0    0    0  501 -0.00000000000E+00  0.00000000000E+00  0.84300896349E+02  0.84300896349E+02  0.00000000000E+00 0.  1.
          1   -1    0    0  501    0  0.00000000000E+00 -0.00000000000E+00 -0.18152199545E+03  0.18152199545E+03  0.00000000000E+00 0. -1.
         23    2    1    2    0    0  0.53963132895E+02 -0.10888039599E+02 -0.27689386346E+02  0.13944436139E+03  0.12508980249E+03 0.  0.
          5    1    3    3  502    0  0.50415578744E+02 -0.37750625669E+02 -0.66655203296E+02  0.91799939242E+02  0.41800000000E+01 0.  1.
         -5    1    3    3    0  502  0.35475541513E+01  0.26862586069E+02  0.38965816950E+02  0.47644422144E+02  0.41800000000E+01 0.  1.
        -11    1    1    2    0    0 -0.36566890192E+02  0.49027962080E+02 -0.27651662328E+02  0.67122968897E+02  0.00000000000E+00 0.  1.
         11    1    1    2    0    0 -0.17396242703E+02 -0.38139922480E+02 -0.41880050429E+02  0.59255561519E+02  0.00000000000E+00 0. -1.
</event>
<event>
 7    1  0.4966153E-006  0.9824465E+02  0.7561462E-02  0.1284031E+00
         -1   -1    0    0    0  501 -0.00000000000E+00  0.00000000000E+00  0.18566875836E+02  0.18566875836E+02  0.00000000000E+00 0.  1.
          1   -1    0    0  501    0  0.00000000000E+00 -0.00000000000E+00 -0.71459452284E+03  0.71459452284E+03  0.00000000000E+00 0. -1.
         23    2    1    2    0    0 -0.32439204981E+02  0.13660417736E+02 -0.35265980344E+03  0.37584192957E+03  0.12509720231E+03 0.  0.
          5    1    3    3  502    0  0.31906680753E+02  0.32912631537E+02 -0.24190893534E+03  0.24624922941E+03  0.41800000000E+01 0. -1.
         -5    1    3    3    0  502 -0.64345885734E+02 -0.19252213801E+02 -0.11075086810E+03  0.12959270015E+03  0.41800000000E+01 0. -1.
        -11    1    1    2    0    0 -0.21905995943E+02 -0.18407455043E+02 -0.40559559149E+02  0.49636527858E+02  0.00000000000E+00 0.  1.
         11    1    1    2    0    0  0.54345200925E+02  0.47470373078E+01 -0.30280828442E+03  0.30768294125E+03  0.00000000000E+00 0. -1.
</event>
<event>
 7    1  0.4966153E-006  0.1234725E+03  0.7561462E-02  0.1237476E+00
         -2   -1    0    0    0  501 -0.00000000000E+00  0.00000000000E+00  0.47957487448E+02  0.47957487448E+02  0.00000000000E+00 0.  1.
          2   -1    0    0  501    0  0.00000000000E+00 -0.00000000000E+00 -0.37075321476E+03  0.37075321476E+03  0.00000000000E+00 0. -1.
         23    2    1    2    0    0  0.67077837004E+02 -0.25907357865E+02 -0.13568620405E+03  0.19805888074E+03  0.12508375939E+03 0.  0.
          5    1    3    3  502    0 -0.16772366368E+02  0.33391959465E+02 -0.58406104316E+02  0.69462800489E+02  0.41800000000E+01 0. -1.
         -5    1    3    3    0  502  0.83850203372E+02 -0.59299317330E+02 -0.77280099739E+02  0.12859608025E+03  0.41800000000E+01 0. -1.
        -11    1    1    2    0    0  0.17870359329E+02  0.87433382649E+01 -0.75634344554E+01  0.21283825956E+02  0.00000000000E+00 0.  1.
         11    1    1    2    0    0 -0.84948196332E+02  0.17164019600E+02 -0.17954608880E+03  0.19936799551E+03  0.00000000000E+00 0. -1.
</event>
<event>
 7    1  0.4966153E-006  0.9579265E+02  0.7561462E-02  0.1289401E+00
          1   -1    0    0  501    0  0.00000000000E+00  0.00000000000E+00  0.76565485121E+02  0.76565485121E+02  0.00000000000E+00 0. -1.
         -1   -1    0    0    0  501 -0.00000000000E+00 -0.00000000000E+00 -0.39291414599E+03  0.39291414599E+03  0.00000000000E+00 0.  1.
         23    2    1    2    0    0 -0.51658417815E+02  0.34690318321E+02 -0.33122619959E+03  0.35948563225E+03  0.12508842547E+03 0.  0.
          5    1    3    3  502    0 -0.20897208029E+02 -0.39053043221E+02 -0.49212269125E+02  0.66341188719E+02  0.41800000000E+01 0. -1.
         -5    1    3    3    0  502 -0.30761209786E+02  0.73743361543E+02 -0.28201393046E+03  0.29314444353E+03  0.41800000000E+01 0. -1.
        -11    1    1    2    0    0  0.23744402831E+02 -0.16074941248E+01  0.49264514310E+02  0.54711727019E+02  0.00000000000E+00 0. -1.
         11    1    1    2    0    0  0.27914014985E+02 -0.33082824196E+02 -0.34386975585E+02  0.55282271835E+02  0.00000000000E+00 0.  1.
</event>
<event>
 6    1  0.4966153E-006  0.1051059E+03  0.7561462E-02  0.1269911E+00
         -1   -1    0    0    0  501 -0.00000000000E+00  0.00000000000E+00  0.21853624702E+03  0.21853624702E+03  0.00000000000E+00 0.  1.
          1   -1    0    0  501    0  0.00000000000E+00 -0.00000000000E+00 -0.35767976309E+03  0.35767976309E+03  0.00000000000E+00 0. -1.
          5    1    1    2  502    0 -0.21908439633E+02  0.62778460909E+02 -0.11449574765E+03  0.13246834909E+03  0.41800000000E+01 0. -1.
         -5    1    1    2    0  502  0.36728636258E+02 -0.53394762422E+02  0.19506161979E+03  0.20558818374E+03  0.41800000000E+01 0.  1.
        -11    1    1    2    0    0 -0.22517136411E+01  0.33696121715E+02 -0.15967018067E+03  0.16320252887E+03  0.00000000000E+00 0. -1.
         11    1    1    2    0    0 -0.12568482984E+02 -0.43079820202E+02 -0.60039207536E+02  0.74956948408E+02  0.00000000000E+00 0.  1.
</event>
<event>
 7    1  0.4966153E-006  0.1108125E+03  0.7561462E-02  0.1259073E+00
          1   -1    0    0  501    0  0.00000000000E+00  0.00000000000E+00  0.20946333835E+03  0.20946333835E+03  0.00000000000E+00 0. -1.
         -1   -1    0    0    0  501 -0.00000000000E+00 -0.00000000000E+00 -0.12458074277E+03  0.12458074277E+03  0.00000000000E+00 0.  1.
         23    2    1    2    0    0 -0.49239072613E+02 -0.60313867586E+02 -0.47953937667E+02  0.15494952218E+03  0.12509006911E+03 0.  0.
          5    1    3    3  502    0  0.28759758912E+02 -0.22570259568E+02 -0.56874721358E+02  0.67740288450E+02  0.41800000000E+01 0.  1.
         -5    1    3    3    0  502 -0.77998831525E+02 -0.37743608018E+02  0.89207836911E+01  0.87209233726E+02  0.41800000000E+01 0.  1.
        -11    1    1    2    0    0  0.13118185370E+01  0.48757982533E+02  0.14478470003E+02  0.50879149189E+02  0.00000000000E+00 0.  1.
         11    1    1    2    0    0  0.47927254076E+02  0.11555885054E+02  0.11835806325E+03  0.12821540976E+03  0.00000000000E+00 0. -1.
</event>
<event>
 7    1  0.4966153E-006  0.1178059E+03  0.7561462E-02  0.1246761E+00
          1   -1    0    0  501    0  0.00000000000E+00  0.00000000000E+00  0.95177726203E+03  0.95177726203E+03  0.00000000000E+00 0. -1.
         -1   -1    0    0    0  501 -0.00000000000E+00 -0.00000000000E+00 -0.20862836243E+02  0.20862836243E+02  0.00000000000E+00 0.  1.
         23    2    1    2    0    0  0.15404420412E+02  0.76337866742E+02  0.35598062689E+03  0.38527010228E+03  0.12508428729E+03 0.  0.
          5    1    3    3  502    0 -0.60921449767E+01  0.91620502060E+02  0.34387841388E+03  0.35595121374E+03  0.41800000000E+01 0.  1.
         -5    1    3    3    0  502  0.21496565389E+02 -0.15282635319E+02  0.12102213003E+02  0.29318888543E+02  0.41800000000E+01 0.  1.
        -11    1    1    2    0    0  0.31924791399E+02 -0.58050614001E+02  0.39068999513E+03  0.39626725626E+03  0.00000000000E+00 0. -1.
         11    1    1    2    0    0 -0.47329211811E+02 -0.18287252741E+02  0.18424380377E+03  0.19110273973E+03  0.00000000000E+00 0.  1.
</event>
<event>
 7    1  0.4966153E-006  0.1023229E+03  0.7561462E-02  0.1275486E+00
          2   -1    0    0  501    0  0.00000000000E+00  0.00000000000E+00  0.22037562050E+03  0.22037562050E+03  0.00000000000E+00 0. -1.
         -2   -1    0    0    0  501 -0.00000000000E+00 -0.00000000000E+00 -0.56515495391E+02  0.56515495391E+02  0.00000000000E+00 0.  1.
         23    2    1    2    0    0  0.24630507812E+02 -0.85273995082E+01  0.75122787410E+02  0.14822428776E+03  0.12509047860E+03 0.  0.
          5    1    3    3  502    0  0.34120551784E+02  0.53933617260E+02  0.31172949204E+02  0.71149647131E+02  0.41800000000E+01 0. -1.
         -5    1    3    3    0  502 -0.94900439718E+01 -0.62461016769E+02  0.43949838206E+02  0.77074640633E+02  0.41800000000E+01 0. -1.
        -11    1    1    2    0    0  0.16192453992E+02 -0.21341798531E+02  0.30665952911E+00  0.26791080062E+02  0.00000000000E+00 0.  1.
         11    1    1    2    0    0 -0.40822961804E+02  0.29869198040E+02  0.88430678170E+02  0.10187574806E+03  0.00000000000E+00 0. -1.
</event>
<event>
 7    1  0.4966153E-006  0.1881754E+03  0.7561462E-02  0.1160117E+00
         -2   -1    0    0    0  501 -0.00000000000E+00  0.00000000000E+00  0.12078253046E+03  0.12078253046E+03  0.00000000000E+00 0.  1.
          2   -1    0    0  501    0  0.00000000000E+00 -0.00000000000E+00 -0.33812727700E+03  0.33812727700E+03  0.00000000000E+00 0. -1.
         23    2    1    2    0    0 -0.23656251989E+01  0.15787423287E+03 -0.41260339934E+02  0.20562168263E+03  0.12509193071E+03 0.  0.
          5    1    3    3  502    0  0.15442998459E+02  0.17459125558E+03 -0.43800492634E+02  0.18071122899E+03  0.41800000000E+01 0. -1.
         -5    1    3    3    0  502 -0.17808623658E+02 -0.16717022712E+02  0.25401527003E+01  0.24910453643E+02  0.41800000000E+01 0. -1.
        -11    1    1    2    0    0  0.39115862087E+02 -0.10325251497E+03 -0.78107858524E+02  0.13524780988E+03  0.00000000000E+00 0. -1.
         11    1    1    2    0    0 -0.36750236888E+02 -0.54621717899E+02 -0.97976548083E+02  0.11804031494E+03  0.00000000000E+00 0.  1.
</event>
<event>
 7    1  0.4966153E-006  0.1046674E+03  0.7561462E-02  0.1270776E+00
         -1   -1    0    0    0  501 -0.00000000000E+00  0.00000000000E+00  0.41290899507E+02  0.41290899507E+02  0.00000000000E+00 0.  1.
          1   -1    0    0  501    0  0.00000000000E+00 -0.00000000000E+00 -0.32052204539E+03  0.32052204539E+03  0.00000000000E+00 0. -1.
         23    2    1    2    0    0 -0.17467434317E+02 -0.39839807578E+02 -0.10142453735E+03  0.15889902856E+03  0.11432253922E+03 0.  0.
          5    1    3    3  502    0 -0.19172324964E+02  0.33146858630E+02 -0.68748585250E+02  0.78804394899E+02  0.41800000000E+01 0. -1.
         -5    1    3    3    0  502  0.17048906477E+01 -0.72986666208E+02 -0.32675952095E+02  0.80094633663E+02  0.41800000000E+01 0.  1.
        -11    1    1    2    0    0 -0.57043471540E+01 -0.26662251518E+02 -0.53383201969E+02  0.59943152110E+02  0.00000000000E+00 0.  1.
         11    1    1    2    0    0  0.23171781471E+02  0.66502059096E+02 -0.12442340657E+03  0.14297076422E+03  0.00000000000E+00 0. -1.
</event>
<event>
 7    1  0.4966153E-006  0.9094994E+02  0.7561462E-02  0.1300567E+00
          1   -1    0    0  501    0  0.00000000000E+00  0.00000000000E+00  0.27973528975E+03  0.27973528975E+03  0.00000000000E+00 0. -1.
         -1   -1    0    0    0  501 -0.00000000000E+00 -0.00000000000E+00 -0.71023989401E+02  0.71023989401E+02  0.00000000000E+00 0.  1.
         23    2    1    2    0    0  0.47468329396E+02  0.27593993965E+02  0.26482487594E+02  0.13915592494E+03  0.12509347904E+03 0.  0.
          5    1    3    3  502    0  0.38417313994E+01  0.32798669992E+02  0.69790521309E+02  0.77322059711E+02  0.41800000000E+01 0. -1.
         -5    1    3    3    0  502  0.43626597996E+02 -0.52046760274E+01 -0.43308033715E+02  0.61833865232E+02  0.41800000000E+01 0. -1.
        -11    1    1    2    0    0 -0.94326610086E+01 -0.56137515350E+02  0.12386097770E+03  0.13631558062E+03  0.00000000000E+00 0. -1.
         11    1    1    2    0    0 -0.38035668387E+02  0.28543521386E+02  0.58367835056E+02  0.75287773588E+02  0.00000000000E+00 0.  1.
</event>
<event>
 7    1  0.4966153E-006  0.1123995E+03  0.7561462E-02  0.1256190E+00
          2   -1    0    0  501    0  0.00000000000E+00  0.00000000000E+00  0.49249800801E+03  0.49249800801E+03  0.00000000000E+00 0.  1.
         -2   -1    0    0    0  501 -0.00000000000E+00 -0.00000000000E+00 -0.29570042918E+02  0.29570042918E+02  0.00000000000E+00 0. -1.
         23    2    1    2    0    0  0.23543500765E+02 -0.33317298881E+02  0.18782347131E+03  0.22932384242E+03  0.12508968579E+03 0.  0.
          5    1    3    3  502    0 -0.13339276055E+02 -0.71038179970E+02  0.72613412038E+02  0.10254042767E+03  0.41800000000E+01 0.  1.
         -5    1    3    3    0  502  0.36882776821E+02  0.37720881089E+02  0.11521005928E+03  0.12678341474E+03  0.41800000000E+01 0.  1.
        -11    1    1    2    0    0  0.32849571783E+02  0.27395560480E+02  0.13445508857E+03  0.14109493947E+03  0.00000000000E+00 0.  1.
         11    1    1    2    0    0 -0.56393072548E+02  0.59217384005E+01  0.14064940521E+03  0.15164926905E+03  0.00000000000E+00 0. -1.
</event>
<event>
 7    1  0.4966153E-006  0.1239636E+03  0.7561462E-02  0.1236698E+00
          1   -1    0    0  501    0  0.00000000000E+00  0.00000000000E+00  0.20730814357E+03  0.20730814357E+03  0.00000000000E+00 0. -1.
         -1   -1    0    0    0  501 -0.00000000000E+00 -0.00000000000E+00 -0.87010375139E+02  0.87010375139E+02  0.00000000000E+00 0.  1.
         23    2    1    2    0    0 -0.25289095747E+02  0.67612928807E+02  0.25444666755E+02  0.14664975586E+03  0.12509066041E+03 0.  0.
          5    1    3    3  502    0 -0.19507455287E+02  0.10370867058E+03  0.79517948540E+01  0.10590907708E+03  0.41800000000E+01 0. -1.
         -5    1    3    3    0  502 -0.57816404600E+01 -0.36095741774E+02  0.17492871901E+02  0.40740678787E+02  0.41800000000E+01 0. -1.
        -11    1    1    2    0    0 -0.27357296041E+02 -0.31285350650E+02  0.64835441703E+02  0.77011877739E+02  0.00000000000E+00 0. -1.
         11    1    1    2    0    0  0.52646391787E+02 -0.36327578157E+02  0.30017659971E+02  0.70656885107E+02  0.00000000000E+00 0.  1.
</event>
<event>
 7    1  0.4966153E-006  0.1004813E+03  0.7561462E-02  0.1279287E+00
         -2   -1    0    0    0  501 -0.00000000000E+00  0.00000000000E+00  0.14273519072E+03  0.14273519072E+03  0.00000000000E+00 0.  1.
          2   -1    0    0  501    0  0.00000000000E+00 -0.00000000000E+00 -0.11079203765E+03  0.11079203765E+03  0.00000000000E+00 0. -1.
         23    2    1    2    0    0  0.54375421244E+02  0.17437673929E+01  0.48453279764E+02  0.14475721496E+03  0.12508878368E+03 0.  0.
          5    1    3    3  502    0 -0.34474290164E+02 -0.16010292887E+02  0.37217814662E+02  0.53361449464E+02  0.41800000000E+01 0. -1.
         -5    1    3    3    0  502  0.88849711408E+02  0.17754060280E+02  0.11235465102E+02  0.91395765492E+02  0.41800000000E+01 0. -1.
        -11    1    1    2    0    0 -0.41020971878E+01 -0.18560940199E+02  0.31799604213E+02  0.37047949073E+02  0.00000000000E+00 0.  1.
         11    1    1    2    0    0 -0.50273324057E+02  0.16817172806E+02 -0.48309730911E+02  0.71722064343E+02  0.00000000000E+00 0. -1.
</event>
<event>
 7    1  0.4966153E-006  0.9993216E+02  0.7561462E-02  0.1280439E+00
          1   -1    0    0  501    0  0.00000000000E+00  0.00000000000E+00  0.42327585438E+03  0.42327585438E+03  0.00000000000E+00 0. -1.
         -1   -1    0    0    0  501 -0.00000000000E+00 -0.00000000000E+00 -0.30549062002E+02  0.30549062002E+02  0.00000000000E+00 0.  1.
         23    2    1    2    0    0 -0.22763120656E+02  0.22270381189E+02  0.18971465351E+03  0.22946162040E+03  0.12508739321E+03 0.  0.
          5    1    3    3  502    0 -0.20495567703E+02 -0.51042378153E+02  0.71993462394E+02  0.90696878063E+02  0.41800000000E+01 0. -1.
         -5    1    3    3    0  502 -0.22675529523E+01  0.73312759342E+02  0.11772119111E+03  0.13876474234E+03  0.41800000000E+01 0. -1.
        -11    1    1    2    0    0  0.37551766370E+02  0.72246685284E+01  0.31034330858E+02  0.49248966331E+02  0.00000000000E+00 0.  1.
         11    1    1    2    0    0 -0.14788645715E+02 -0.29495049717E+02  0.17197780802E+03  0.17511432966E+03  0.00000000000E+00 0. -1.
</event>
<event>
 7    1  0.4966153E-006  0.1327372E+03  0.7561462E-02  0.1223450E+00
         -4   -1    0    0    0  501 -0.00000000000E+00  0.00000000000E+00  0.20436591084E+03  0.20436591084E+03  0.00000000000E+00 0.  1.
          4   -1    0    0  501    0  0.00000000000E+00 -0.00000000000E+00 -0.23326855989E+03  0.23326855989E+03  0.00000000000E+00 0. -1.
         23    2    1    2    0    0  0.95366174185E+02 -0.62236244999E+02  0.13508380967E+03  0.21648074869E+03  0.12509285172E+03 0.  0.
          5    1    3    3  502    0  0.26880206032E+02 -0.32341297122E+02 -0.18113258331E+02  0.45978989802E+02  0.41800000000E+01 0. -1.
         -5    1    3    3    0  502  0.68485968154E+02 -0.29894947877E+02  0.15319706800E+03  0.17050175889E+03  0.41800000000E+01 0. -1.
        -11    1    1    2    0    0 -0.97237318019E+02  0.11858472596E+02 -0.10690968304E+03  0.14500137833E+03  0.00000000000E+00 0.  1.
         11    1    1    2    0    0  0.18711438332E+01  0.50377772403E+02 -0.57076775676E+02  0.76152343714E+02  0.00000000000E+00 0. -1.
</event>
<event>
 7    1  0.4966153E-006  0.1407147E+03  0.7561462E-02  0.1212370E+00
          1   -1    0    0  501    0  0.00000000000E+00  0.00000000000E+00  0.67193882993E+03  0.67193882993E+03  0.00000000000E+00 0. -1.
         -1   -1    0    0    0  501 -0.00000000000E+00 -0.00000000000E+00 -0.36356987263E+02  0.36356987263E+02  0.00000000000E+00 0.  1.
         23    2    1    2    0    0  0.77855043391E+02 -0.81694592494E+02  0.33550963505E+03  0.37543341861E+03  0.12509245531E+03 0.  0.
          5    1    3    3  502    0  0.94034194276E+02 -0.71699845224E+02  0.33571929095E+03  0.35596097008E+03  0.41800000000E+01 0. -1.
         -5    1    3    3    0  502 -0.16179150885E+02 -0.99947472701E+01 -0.20965590725E+00  0.19472448535E+02  0.41800000000E+01 0. -1.
        -11    1    1    2    0    0  0.16600234187E+02  0.33962878341E+02  0.68080748658E+02  0.77871902623E+02  0.00000000000E+00 0.  1.
         11    1    1    2    0    0 -0.94455277578E+02  0.47731714153E+02  0.23199145897E+03  0.25499049596E+03  0.00000000000E+00 0. -1.
</event>
<event>
 7    1  0.4966153E-006  0.1099945E+03  0.7561462E-02  0.1260580E+00
          2   -1    0    0  501    0  0.00000000000E+00  0.00000000000E+00  0.20857448226E+03  0.20857448226E+03  0.00000000000E+00 0. -1.
         -2   -1    0    0    0  501 -0.00000000000E+00 -0.00000000000E+00 -0.75194703842E+02  0.75194703842E+02  0.00000000000E+00 0.  1.
         23    2    1    2    0    0  0.46225030310E+02  0.43192193979E+02  0.76793799683E+02  0.15983519337E+03  0.12509069639E+03 0.  0.
          5    1    3    3  502    0 -0.29848984042E+02  0.53928190726E+02  0.45714683684E+02  0.76853863323E+02  0.41800000000E+01 0.  1.
         -5    1    3    3    0  502  0.76074014352E+02 -0.10735996746E+02  0.31079115999E+02  0.82981330051E+02  0.41800000000E+01 0.  1.
        -11    1    1    2    0    0 -0.42395558128E+02 -0.47784188049E+01  0.70912233998E+02  0.82757244794E+02  0.00000000000E+00 0. -1.
         11    1    1    2    0    0 -0.38294721819E+01 -0.38413775174E+02 -0.14326255265E+02  0.41176747932E+02  0.00000000000E+00 0.  1.
</event>
<event>
 7    1  0.4966153E-006  0.1304921E+03  0.7561462E-02  0.1226727E+00
          1   -1    0    0  501    0  0.00000000000E+00  0.00000000000E+00  0.94633363644E+02  0.94633363644E+02  0.00000000000E+00 0. -1.
         -1   -1    0    0    0  501 -0.00000000000E+00 -0.00000000000E+00 -0.34661127900E+03  0.34661127900E+03  0.00000000000E+00 0.  1.
         23    2    1    2    0    0 -0.57768716179E+02 -0.83406852334E+02 -0.25866252399E+03  0.30471129028E+03  0.12509493004E+03 0.  0.
          5    1    3    3  502    0  0.13143597328E+02 -0.80939471963E+02 -0.18472195180E+03  0.20214753065E+03  0.41800000000E+01 0.  1.
         -5    1    3    3    0  502 -0.70912313508E+02 -0.24673803705E+01 -0.73940572198E+02  0.10256375963E+03  0.41800000000E+01 0.  1.
        -11    1    1    2    0    0  0.62703018053E+02  0.72663390268E+02  0.37872966536E+02  0.10317944734E+03  0.00000000000E+00 0.  1.
         11    1    1    2    0    0 -0.49343018738E+01  0.10743462066E+02 -0.31188357895E+02  0.33353905023E+02  0.00000000000E+00 0. -1.
</event>
<event>
 7    1  0.4966153E-006  0.1530972E+03  0.7561462E-02  0.1196718E+00
         -2   -1    0    0    0  501 -0.00000000000E+00  0.00000000000E+00  0.38054601716E+02  0.38054601716E+02  0.00000000000E+00 0.  1.
          2   -1    0    0  501    0  0.00000000000E+00 -0.00000000000E+00 -0.72070297203E+03  0.72070297203E+03  0.00000000000E+00 0. -1.
         23    2    1    2    0    0 -0.11323023965E+03 -0.54646761900E+02 -0.36001957526E+03  0.40133447714E+03  0.12509161528E+03 0.  0.
          5    1    3    3  502    0  0.13007069716E+02 -0.14567536530E+02 -0.25989999441E+01  0.20140113800E+02  0.41800000000E+01 0. -1.
         -5    1    3    3    0  502 -0.12623730937E+03 -0.40079225370E+02 -0.35742057531E+03  0.38119436334E+03  0.41800000000E+01 0. -1.
        -11    1    1    2    0    0  0.10301374202E+03  0.51207252290E+01 -0.22288700350E+03  0.24559452193E+03  0.00000000000E+00 0. -1.
         11    1    1    2    0    0  0.10216497628E+02  0.49526036671E+02 -0.99741791562E+02  0.11182857469E+03  0.00000000000E+00 0.  1.
</event>
<event>
 7    1  0.4966153E-006  0.1636618E+03  0.7561462E-02  0.1184624E+00
          3   -1    0    0  501    0  0.00000000000E+00  0.00000000000E+00  0.12197556689E+03  0.12197556689E+03  0.00000000000E+00 0. -1.
         -3   -1    0    0    0  501 -0.00000000000E+00 -0.00000000000E+00 -0.36221039145E+03  0.36221039145E+03  0.00000000000E+00 0.  1.
         23    2    1    2    0    0  0.14463677448E+03 -0.72225679781E+00 -0.24799881624E+03  0.31316569566E+03  0.12509605068E+03 0.  0.
          5    1    3    3  502    0  0.48685642342E+02  0.53369339738E+02 -0.54933360467E+02  0.90850012033E+02  0.41800000000E+01 0. -1.
         -5    1    3    3    0  502  0.95951132134E+02 -0.54091596536E+02 -0.19306545577E+03  0.22231568362E+03  0.41800000000E+01 0. -1.
        -11    1    1    2    0    0 -0.12272341535E+03 -0.12931867603E+01  0.42516883291E+02  0.12988608229E+03  0.00000000000E+00 0. -1.
         11    1    1    2    0    0 -0.21913359126E+02  0.20154435581E+01 -0.34752891621E+02  0.41134180397E+02  0.00000000000E+00 0.  1.
</event>
<event>
 7    1  0.4966153E-006  0.1480821E+03  0.7561462E-02  0.1202850E+00
          3   -1    0    0  501    0  0.00000000000E+00  0.00000000000E+00  0.18177695991E+03  0.18177695991E+03  0.00000000000E+00 0. -1.
         -3   -1    0    0    0  501 -0.00000000000E+00 -0.00000000000E+00 -0.19483500339E+03  0.19483500339E+03  0.00000000000E+00 0.  1.
         23    2    1    2    0    0 -0.99289239172E+02 -0.65935680402E+02 -0.10341875333E+03  0.20136653789E+03  0.12508867685E+03 0.  0.
          5    1    3    3  502    0 -0.69638327766E+02  0.10997255897E+02 -0.20777368820E+01  0.70655684285E+02  0.41800000000E+01 0.  1.
         -5    1    3    3    0  502 -0.29650911406E+02 -0.76932936299E+02 -0.10134101645E+03  0.13071085361E+03  0.41800000000E+01 0.  1.
        -11    1    1    2    0    0  0.69945935052E+02  0.83390974141E+02  0.43378095292E+02  0.11716717778E+03  0.00000000000E+00 0.  1.
         11    1    1    2    0    0  0.29343304120E+02 -0.17455293739E+02  0.46982614564E+02  0.58078247627E+02  0.00000000000E+00 0. -1.
</event>
<event>
 6    1  0.4966153E-006  0.1021985E+03  0.7561462E-02  0.1275740E+00
          1   -1    0    0  501    0  0.00000000000E+00  0.00000000000E+00  0.44701968983E+03  0.44701968983E+03  0.00000000000E+00 0. -1.
         -1   -1    0    0    0  501 -0.00000000000E+00 -0.00000000000E+00 -0.47057147228E+02  0.47057147228E+02  0.00000000000E+00 0.  1.
          5    1    1    2  502    0  0.43599024077E+01 -0.29209875085E+02  0.16498975051E+03  0.16766429472E+03  0.41800000000E+01 0. -1.
         -5    1    1    2    0  502  0.23166331073E+02 -0.45718097175E+02 -0.98528694047E+01  0.52358139198E+02  0.41800000000E+01 0.  1.
        -11    1    1    2    0    0 -0.84687641767E+01 -0.22411897425E+02  0.48586510871E+02  0.54172522107E+02  0.00000000000E+00 0.  1.
         11    1    1    2    0    0 -0.19057469304E+02  0.97339869686E+02  0.19623915062E+03  0.21988188103E+03  0.00000000000E+00 0. -1.
</event>
<event>
 7    1  0.4966153E-006  0.1303238E+03  0.7561462E-02  0.1226976E+00
          3   -1    0    0  501    0  0.00000000000E+00  0.00000000000E+00  0.21258926855E+03  0.21258926855E+03  0.00000000000E+00 0. -1.
         -3   -1    0    0    0  501 -0.00000000000E+00 -0.00000000000E+00 -0.20601510327E+03  0.20601510327E+03  0.00000000000E+00 0.  1.
         23    2    1    2    0    0  0.18208684440E+02 -0.11255080500E+03 -0.13472720476E+03  0.21632706388E+03  0.12508692566E+03 0.  0.
          5    1    3    3  502    0  0.44773164165E+02 -0.10075934117E+03 -0.40345402737E+02  0.11748321150E+03  0.41800000000E+01 0. -1.
         -5    1    3    3    0  502 -0.26564479725E+02 -0.11791463834E+02 -0.94381802018E+02  0.98843852387E+02  0.41800000000E+01 0. -1.
        -11    1    1    2    0    0 -0.31170124355E+02  0.83785385715E+02  0.43314850734E+02  0.99336517988E+02  0.00000000000E+00 0.  1.
         11    1    1    2    0    0  0.12961439915E+02  0.28765419286E+02  0.97986519301E+02  0.10294078995E+03  0.00000000000E+00 0. -1.
</event>
<event>
 7    1  0.4966153E-006  0.1206944E+03  0.7561462E-02  0.1241956E+00
          1   -1    0    0  501    0  0.00000000000E+00  0.00000000000E+00  0.10875366747E+03  0.10875366747E+03  0.00000000000E+00 0. -1.
         -1   -1    0    0    0  501 -0.00000000000E+00 -0.00000000000E+00 -0.21974559883E+03  0.21974559883E+03  0.00000000000E+00 0.  1.
         23    2    1    2    0    0  0.70738217673E+02  0.71960375366E+02 -0.11084248155E+03  0.19523096045E+03  0.12508749394E+03 0.  0.
          5    1    3    3  502    0  0.76151859625E+02  0.33945341679E+02 -0.12812036703E+03  0.15291727435E+03  0.41800000000E+01 0.  1.
         -5    1    3    3    0  502 -0.54136419516E+01  0.38015033687E+02  0.17277885477E+02  0.42313686107E+02  0.41800000000E+01 0.  1.
        -11    1    1    2    0    0 -0.22041786000E+02  0.97983530941E+01  0.25101694775E+02  0.34812973645E+02  0.00000000000E+00 0. -1.
         11    1    1    2    0    0 -0.48696431674E+02 -0.81758728460E+02 -0.25251144585E+02  0.98455332207E+02  0.00000000000E+00 0.  1.
</event>
<event>
 7    1  0.4966153E-006  0.1699409E+03  0.7561462E-02  0.1177910E+00
          2   -1    0    0  501    0  0.00000000000E+00  0.00000000000E+00  0.15663313919E+03  0.15663313919E+03  0.00000000000E+00 0. -1.
         -2   -1    0    0    0  501 -0.00000000000E+00 -0.00000000000E+00 -0.28324602994E+03  0.28324602994E+03  0.00000000000E+00 0.  1.
         23    2    1    2    0    0 -0.16058437701E+03  0.55070799731E+00 -0.15073310029E+03  0.25329033719E+03  0.12509149442E+03 0.  0.
          5    1    3    3  502    0 -0.47743259897E+02  0.36911399200E+02  0.12322795986E+01  0.60505050777E+02  0.41800000000E+01 0. -1.
         -5    1    3    3    0  502 -0.11284111711E+03 -0.36360691203E+02 -0.15196537988E+03  0.19278528642E+03  0.41800000000E+01 0. -1.
        -11    1    1    2    0    0  0.11862158199E+03  0.28946610581E+01 -0.25650582963E+02  0.12139773961E+03  0.00000000000E+00 0.  1.
         11    1    1    2    0    0  0.41962795021E+02 -0.34453690554E+01  0.49770792494E+02  0.65191092331E+02  0.00000000000E+00 0. -1.
</event>
<event>
 7    1  0.4966153E-006  0.1911528E+03  0.7561462E-02  0.1157426E+00
          1   -1    0    0  501    0  0.00000000000E+00  0.00000000000E+00  0.17928491494E+03  0.17928491494E+03  0.00000000000E+00 0. -1.
         -1   -1    0    0    0  501 -0.00000000000E+00 -0.00000000000E+00 -0.21442489189E+03  0.21442489189E+03  0.00000000000E+00 0.  1.
         23    2    1    2    0    0 -0.15646265484E+03  0.34932709434E+02 -0.57381200652E+02  0.21128131275E+03  0.12508530842E+03 0.  0.
          5    1    3    3  502    0  0.51533996381E+01  0.39922767570E+02 -0.20570950990E+02  0.45398472694E+02  0.41800000000E+01 0.  1.
         -5    1    3    3    0  502 -0.16161605448E+03 -0.49900581362E+01 -0.36810249662E+02  0.16588284005E+03  0.41800000000E+01 0.  1.
        -11    1    1    2    0    0  0.57791401694E+02 -0.54567166680E+02  0.41964954254E+00  0.79483318345E+02  0.00000000000E+00 0.  1.
         11    1    1    2    0    0  0.98671253143E+02  0.19634457246E+02  0.21821574158E+02  0.10294517573E+03  0.00000000000E+00 0. -1.
</event>
<event>
 7    1  0.4966153E-006  0.8777236E+02  0.7561462E-02  0.1308338E+00
          3   -1    0    0  501    0  0.00000000000E+00  0.00000000000E+00  0.16381215838E+02  0.16381215838E+02  0.00000000000E+00 0. -1.
         -3   -1    0    0    0  501 -0.00000000000E+00 -0.00000000000E+00 -0.80461163476E+03  0.80461163476E+03  0.00000000000E+00 0.  1.
         23    2    1    2    0    0  0.53536406976E+01  0.26987728724E+02 -0.53545724036E+03  0.55056239818E+03  0.12508996389E+03 0.  0.
          5    1    3    3  502    0 -0.29563683398E+02 -0.14072310021E+02 -0.38667623363E+02  0.50839932946E+02  0.41800000000E+01 0. -1.
         -5    1    3    3    0  502  0.34917324096E+02  0.41060038745E+02 -0.49678961699E+03  0.49972246523E+03  0.41800000000E+01 0. -1.
        -11    1    1    2    0    0 -0.18811378368E+01 -0.57618260421E+02 -0.20958581553E+03  0.21736976948E+03  0.00000000000E+00 0.  1.
         11    1    1    2    0    0 -0.34725028608E+01  0.30630531696E+02 -0.43187363041E+02  0.53060682945E+02  0.00000000000E+00 0. -1.
</event>
<event>
 7    1  0.4966153E-006  0.1159804E+03  0.7561462E-02  0.1249879E+00
          4   -1    0    0  501    0  0.00000000000E+00  0.00000000000E+00  0.60903610253E+02  0.60903610253E+02  0.00000000000E+00 0. -1.
         -4   -1    0    0    0  501 -0.00000000000E+00 -0.00000000000E+00 -0.26536253971E+03  0.26536253971E+03  0.00000000000E+00 0.  1.
         23    2    1    2    0    0  0.79217051577E+02 -0.14116439355E+02 -0.15650909431E+03  0.21591178320E+03  0.12509271123E+03 0.  0.
          5    1    3    3  502    0  0.88990979502E+02  0.24931724855E+02 -0.14803525380E+03  0.17456487076E+03  0.41800000000E+01 0.  1.
         -5    1    3    3    0  502 -0.97739279247E+01 -0.39048164211E+02 -0.84738405100E+01  0.41346912440E+02  0.41800000000E+01 0.  1.
        -11    1    1    2    0    0 -0.14026020253E+02 -0.20753470002E+02 -0.16608294407E+02  0.30054470622E+02  0.00000000000E+00 0. -1.
         11    1    1    2    0    0 -0.65191031325E+02  0.34869909358E+02 -0.31341540739E+02  0.80299896138E+02  0.00000000000E+00 0.  1.
</event>
<event>
 7    1  0.4966153E-006  0.1219885E+03  0.7561462E-02  0.1239852E+00
          2   -1    0    0  501    0  0.00000000000E+00  0.00000000000E+00  0.48279350963E+03  0.48279350963E+03  0.00000000000E+00 0. -1.
         -2   -1    0    0    0  501 -0.00000000000E+00 -0.00000000000E+00 -0.32084329514E+02  0.32084329514E+02  0.00000000000E+00 0.  1.
         23    2    1    2    0    0  0.27938003020E+02  0.26155865711E+02  0.22346847649E+03  0.25894693944E+03  0.12510274233E+03 0.  0.
          5    1    3    3  502    0 -0.39955900826E+02 -0.19251699892E+02  0.48780005083E+02  0.66061057026E+02  0.41800000000E+01 0.  1.
         -5    1    3    3    0  502  0.67893903846E+02  0.45407565603E+02  0.17468847141E+03  0.19288588242E+03  0.41800000000E+01 0.  1.
        -11    1    1    2    0    0 -0.18343127425E+02 -0.70204486203E+02  0.13510887960E+03  0.15336084752E+03  0.00000000000E+00 0. -1.
         11    1    1    2    0    0 -0.95948755952E+01  0.44048620492E+02  0.92131824026E+02  0.10257005218E+03  0.00000000000E+00 0.  1.
</event>
<event>
 7    1  0.4966153E-006  0.7860153E+02  0.7561462E-02  0.1333068E+00
          2   -1    0    0  501    0  0.00000000000E+00  0.00000000000E+00  0.73571176279E+02  0.73571176279E+02  0.00000000000E+00 0. -1.
         -2   -1    0    0    0  501 -0.00000000000E+00 -0.00000000000E+00 -0.19289124450E+03  0.19289124450E+03  0.00000000000E+00 0.  1.
         23    2    1    2    0    0 -0.29648927937E+00 -0.43680230591E+02 -0.92256611494E+02  0.16147852023E+03  0.12512385736E+03 0.  0.
          5    1    3    3  502    0 -0.25927932668E+02 -0.60801801718E+01  0.24294360705E+02  0.36289318613E+02  0.41800000000E+01 0.  1.
         -5    1    3    3    0  502  0.25631443389E+02 -0.37600050419E+02 -0.11655097220E+03  0.12518920162E+03  0.41800000000E+01 0.  1.
        -11    1    1    2    0    0  0.31417171664E+02  0.62428883084E+00 -0.39448183723E+02  0.50433992614E+02  0.00000000000E+00 0.  1.
         11    1    1    2    0    0 -0.31120682384E+02  0.43055941760E+02  0.12384726995E+02  0.54549907934E+02  0.00000000000E+00 0. -1.
</event>
<event>
 7    1  0.4966153E-006  0.9072743E+02  0.7561462E-02  0.1301100E+00
          2   -1    0    0  501    0  0.00000000000E+00  0.00000000000E+00  0.59250105280E+02  0.59250105280E+02  0.00000000000E+00 0.  1.
         -2   -1    0    0    0  501 -0.00000000000E+00 -0.00000000000E+00 -0.26476477492E+03  0.26476477492E+03  0.00000000000E+00 0. -1.
         23    2    1    2    0    0 -0.55850465659E+02 -0.14127995113E+02 -0.14729345938E+03  0.20164704306E+03  0.12508913636E+03 0.  0.
          5    1    3    3  502    0 -0.68324763504E+02  0.20903602901E+01 -0.16214944148E+03  0.17601862596E+03  0.41800000000E+01 0.  1.
         -5    1    3    3    0  502  0.12474297845E+02 -0.16218355403E+02  0.14855982096E+02  0.25628417094E+02  0.41800000000E+01 0.  1.
        -11    1    1    2    0    0 -0.10886498724E+02  0.22335452589E+02  0.98113289769E+01  0.26714237274E+02  0.00000000000E+00 0.  1.
         11    1    1    2    0    0  0.66736964383E+02 -0.82074574768E+01 -0.68032539233E+02  0.95653599869E+02  0.00000000000E+00 0. -1.
</event>
<event>
 7    1  0.4966153E-006  0.2494251E+03  0.7561462E-02  0.1113669E+00
         -2   -1    0    0    0  501 -0.00000000000E+00  0.00000000000E+00  0.37833889978E+02  0.37833889978E+02  0.00000000000E+00 0.  1.
          2   -1    0    0  501    0  0.00000000000E+00 -0.00000000000E+00 -0.19880195487E+04  0.19880195487E+04  0.00000000000E+00 0. -1.
         23    2    1    2    0    0  0.20204419075E+03  0.11998143995E+03 -0.13323210684E+04  0.13586551917E+04  0.12508836708E+03 0.  0.
          5    1    3    3  502    0  0.20509847804E+03  0.13655287201E+03 -0.11877629252E+04  0.12130582473E+04  0.41800000000E+01 0. -1.
         -5    1    3    3    0  502 -0.30542872930E+01 -0.16571432063E+02 -0.14455814325E+03  0.14559694438E+03  0.41800000000E+01 0. -1.
        -11    1    1    2    0    0 -0.35780031504E+02 -0.18707184103E+02 -0.37694835450E+02  0.55236491661E+02  0.00000000000E+00 0.  1.
         11    1    1    2    0    0 -0.16626415925E+03 -0.10127425584E+03 -0.58016975483E+03  0.61196175531E+03  0.00000000000E+00 0. -1.
</event>
<event>
 7    1  0.4966153E-006  0.1144788E+03  0.7561462E-02  0.1252494E+00
         -2   -1    0    0    0  501 -0.00000000000E+00  0.00000000000E+00  0.15968011286E+03  0.15968011286E+03  0.00000000000E+00 0.  1.
          2   -1    0    0  501    0  0.00000000000E+00 -0.00000000000E+00 -0.10125284533E+03  0.10125284533E+03  0.00000000000E+00 0. -1.
         23    2    1    2    0    0 -0.64680907850E+02  0.27512189641E+02  0.62009292776E+02  0.15631050314E+03  0.12508909058E+03 0.  0.
          5    1    3    3  502    0 -0.74868510626E+02  0.61000689510E+02  0.70991314060E+02  0.11993171839E+03  0.41800000000E+01 0.  1.
         -5    1    3    3    0  502  0.10187602776E+02 -0.33488499868E+02 -0.89820212842E+01  0.36378784753E+02  0.41800000000E+01 0.  1.
        -11    1    1    2    0    0  0.75331609749E+01 -0.38171900314E+02  0.17661636157E+02  0.42729098746E+02  0.00000000000E+00 0.  1.
         11    1    1    2    0    0  0.57147746875E+02  0.10659710673E+02 -0.21243661398E+02  0.61893356300E+02  0.00000000000E+00 0. -1.
</event>
<event>
 7    1  0.4966153E-006  0.2773905E+03  0.7561462E-02  0.1097123E+00
         -1   -1    0    0    0  501 -0.00000000000E+00  0.00000000000E+00  0.13566418825E+03  0.13566418825E+03  0.00000000000E+00 0.  1.
          1   -1    0    0  501    0  0.00000000000E+00 -0.00000000000E+00 -0.14088321379E+04  0.14088321379E+04  0.00000000000E+00 0. -1.
         23    2    1    2    0    0  0.22893142460E+03  0.10554042453E+03 -0.39421305822E+02  0.27984271519E+03  0.11493270863E+03 0.  0.
          5    1    3    3  502    0  0.33573100278E+02 -0.24982717133E+02 -0.67974214109E+01  0.42602424291E+02  0.41800000000E+01 0. -1.
         -5    1    3    3    0  502  0.19535832433E+03  0.13052314166E+03 -0.32623884411E+02  0.23724029090E+03  0.41800000000E+01 0.  1.
        -11    1    1    2    0    0 -0.18564025330E+02 -0.59584274783E+02 -0.26062005945E+03  0.26798829121E+03  0.00000000000E+00 0.  1.
         11    1    1    2    0    0 -0.21036739927E+03 -0.45956149742E+02 -0.97312658433E+03  0.99666531971E+03  0.00000000000E+00 0. -1.
</event>
<event>
 7    1  0.4966153E-006  0.1117565E+03  0.7561462E-02  0.1257351E+00
         -1   -1    0    0    0  501 -0.00000000000E+00  0.00000000000E+00  0.51898882351E+02  0.51898882351E+02  0.00000000000E+00 0.  1.
          1   -1    0    0  501    0  0.00000000000E+00 -0.00000000000E+00 -0.34954722910E+03  0.34954722910E+03  0.00000000000E+00 0. -1.
         23    2    1    2    0    0  0.11851838300E+01 -0.27484452591E+02 -0.54947063721E+02  0.13936748106E+03  0.12508922884E+03 0.  0.
          5    1    3    3  502    0  0.16169437389E+02  0.47093397747E+02 -0.33726342334E+02  0.60284138744E+02  0.41800000000E+01 0.  1.
         -5    1    3    3    0  502 -0.14984253559E+02 -0.74577850338E+02 -0.21220721388E+02  0.79083342317E+02  0.41800000000E+01 0.  1.
        -11    1    1    2    0    0 -0.28053912099E+02 -0.25527967371E+02 -0.72911429419E+02  0.82187442119E+02  0.00000000000E+00 0.  1.
         11    1    1    2    0    0  0.26868728269E+02  0.53012419962E+02 -0.16978985361E+03  0.17989118827E+03  0.00000000000E+00 0. -1.
</event>
<event>
 7    1  0.4966153E-006  0.1109828E+03  0.7561462E-02  0.1258761E+00
         -1   -1    0    0    0  501 -0.00000000000E+00  0.00000000000E+00  0.10719877441E+04  0.10719877441E+04  0.00000000000E+00 0.  1.
          1   -1    0    0  501    0  0.00000000000E+00 -0.00000000000E+00 -0.13334992174E+02  0.13334992174E+02  0.00000000000E+00 0. -1.
         23    2    1    2    0    0 -0.47419997967E+02 -0.25748528998E+01  0.67570578757E+03  0.68882495148E+03  0.12508483658E+03 0.  0.
          5    1    3    3  502    0  0.26785610832E+02 -0.31609844181E+02  0.11183664517E+03  0.11933800233E+03  0.41800000000E+01 0.  1.
         -5    1    3    3    0  502 -0.74205608799E+02  0.29034991281E+02  0.56386914240E+03  0.56948694915E+03  0.41800000000E+01 0.  1.
        -11    1    1    2    0    0  0.51155213856E+02 -0.35503499383E+02  0.27527494682E+03  0.28222978354E+03  0.00000000000E+00 0.  1.
         11    1    1    2    0    0 -0.37352158888E+01  0.38078352283E+02  0.10767201752E+03  0.11426800124E+03  0.00000000000E+00 0. -1.
</event>
<event>
 7    1  0.4966153E-006  0.1147641E+03  0.7561462E-02  0.1251993E+00
         -1   -1    0    0    0  501 -0.00000000000E+00  0.00000000000E+00  0.10170734719E+03  0.10170734719E+03  0.00000000000E+00 0. -1.
          1   -1    0    0  501    0  0.00000000000E+00 -0.00000000000E+00 -0.22417672558E+03  0.22417672558E+03  0.00000000000E+00 0.  1.
         23    2    1    2    0    0  0.31414437551E+02 -0.60132348060E+02  0.19563098597E+02  0.14364230732E+03  0.12509049307E+03 0.  0.
          5    1    3    3  502    0  0.74458015645E+02 -0.31514789347E+02 -0.13589356324E+02  0.82093367860E+02  0.41800000000E+01 0.  1.
         -5    1    3    3    0  502 -0.43043578094E+02 -0.28617558714E+02  0.33152454920E+02  0.61548939464E+02  0.41800000000E+01 0.  1.
        -11    1    1    2    0    0 -0.25894800147E+02  0.75798632460E+02 -0.14472715999E+03  0.16541440141E+03  0.00000000000E+00 0.  1.
         11    1    1    2    0    0 -0.55196374034E+01 -0.15666284400E+02  0.26946830035E+01  0.16827364038E+02  0.00000000000E+00 0. -1.
</event>
<event>
 7    1  0.4966153E-006  0.9597199E+02  0.7561462E-02  0.1289002E+00
          1   -1    0    0  501    0  0.00000000000E+00  0.00000000000E+00  0.30350238220E+02  0.30350238220E+02  0.00000000000E+00 0. -1.
         -1   -1    0    0    0  501 -0.00000000000E+00 -0.00000000000E+00 -0.47253982630E+03  0.47253982630E+03  0.00000000000E+00 0.  1.
         23    2    1    2    0    0 -0.34412653542E+02  0.24700948749E+02 -0.30672354715E+03  0.33394748665E+03  0.12508885589E+03 0.  0.
          5    1    3    3  502    0 -0.42242279270E+02  0.61827801413E+02 -0.10735096792E+03  0.13095338827E+03  0.41800000000E+01 0.  1.
         -5    1    3    3    0  502  0.78296257286E+01 -0.37126852664E+02 -0.19937257923E+03  0.20299409837E+03  0.41800000000E+01 0.  1.
        -11    1    1    2    0    0  0.51489182425E+02 -0.35803706184E+01 -0.29284861924E+02  0.59342717316E+02  0.00000000000E+00 0. -1.
         11    1    1    2    0    0 -0.17076528883E+02 -0.21120578131E+02 -0.10618117900E+03  0.10959986055E+03  0.00000000000E+00 0.  1.
</event>
<event>
 7    1  0.4966153E-006  0.1100463E+03  0.7561462E-02  0.1260484E+00
         -1   -1    0    0    0  501 -0.00000000000E+00  0.00000000000E+00  0.11684641860E+03  0.11684641860E+03  0.00000000000E+00 0.  1.
          1   -1    0    0  501    0  0.00000000000E+00 -0.00000000000E+00 -0.12921241314E+03  0.12921241314E+03  0.00000000000E+00 0. -1.
         23    2    1    2    0    0 -0.17603173488E+02 -0.55751134541E+02 -0.64364219168E+01  0.13822784037E+03  0.12508975820E+03 0.  0.
          5    1    3    3  502    0  0.45054577049E+02 -0.58398994853E+02  0.61303159700E+01  0.74131037271E+02  0.41800000000E+01 0.  1.
         -5    1    3    3    0  502 -0.62657750538E+02  0.26478603122E+01 -0.12566737887E+02  0.64096803101E+02  0.41800000000E+01 0.  1.
        -11    1    1    2    0    0 -0.16398787950E+02 -0.18209432519E+01 -0.32049348899E+02  0.36047147535E+02  0.00000000000E+00 0. -1.
         11    1    1    2    0    0  0.34001961438E+02  0.57572077793E+02  0.26119776278E+02  0.71783843836E+02  0.00000000000E+00 0.  1.
</event>
<event>
 7    1  0.4966153E-006  0.1297199E+03  0.7561462E-02  0.1227872E+00
          1   -1    0    0  501    0  0.00000000000E+00  0.00000000000E+00  0.79255333262E+03  0.79255333262E+03  0.00000000000E+00 0.  1.
         -1   -1    0    0    0  501 -0.00000000000E+00 -0.00000000000E+00 -0.39719588299E+02  0.39719588299E+02  0.00000000000E+00 0. -1.
         23    2    1    2    0    0  0.19925651300E+01  0.12795909714E+03  0.26558839406E+03  0.32025471992E+03  0.12509352388E+03 0.  0.
          5    1    3    3  502    0  0.12492215915E+02  0.32125252990E+02 -0.30067926150E+01  0.34851119638E+02  0.41800000000E+01 0. -1.
         -5    1    3    3    0  502 -0.10499650785E+02  0.95833844153E+02  0.26859518667E+03  0.28540360028E+03  0.41800000000E+01 0. -1.
        -11    1    1    2    0    0 -0.37733093595E+01 -0.28856386175E+02  0.22404618224E+02  0.36727316869E+02  0.00000000000E+00 0. -1.
         11    1    1    2    0    0  0.17807442296E+01 -0.99102710968E+02  0.46484073204E+03  0.47529088413E+03  0.00000000000E+00 0.  1.
</event>
<event>
 7    1  0.4966153E-006  0.1182257E+03  0.7561462E-02  0.1246053E+00
         -1   -1    0    0    0  501 -0.00000000000E+00  0.00000000000E+00  0.84407558409E+03  0.84407558409E+03  0.00000000000E+00 0.  1.
          1   -1    0    0  501    0  0.00000000000E+00 -0.00000000000E+00 -0.34234296991E+02  0.34234296991E+02  0.00000000000E+00 0. -1.
         23    2    1    2    0    0  0.29405894903E+01  0.77387436766E+02  0.70043908990E+03  0.71572200244E+03  0.12508238756E+03 0.  0.
          5    1    3    3  502    0  0.28915029295E+02 -0.14900443771E+02  0.37493379503E+03  0.37636541446E+03  0.41800000000E+01 0. -1.
         -5    1    3    3    0  502 -0.25974439805E+02  0.92287880537E+02  0.32550529487E+03  0.33935658798E+03  0.41800000000E+01 0. -1.
        -11    1    1    2    0    0  0.24783544575E+02 -0.75992529992E+02  0.43328859647E+02  0.90920178039E+02  0.00000000000E+00 0. -1.
         11    1    1    2    0    0 -0.27724134065E+02 -0.13949067739E+01  0.66073337546E+02  0.71667700598E+02  0.00000000000E+00 0.  1.
</event>
<event>
 7    1  0.4966153E-006  0.1209407E+03  0.7561462E-02  0.1241553E+00
          1   -1    0    0  501    0  0.00000000000E+00  0.00000000000E+00  0.13613846131E+03  0.13613846131E+03  0.00000000000E+00 0. -1.
         -1   -1    0    0    0  501 -0.00000000000E+00 -0.00000000000E+00 -0.11673093135E+03  0.11673093135E+03  0.00000000000E+00 0.  1.
         23    2    1    2    0    0  0.66407091325E+02  0.83197229737E+01 -0.11711077190E+01  0.14187039048E+03  0.12508683637E+03 0.  0.
          5    1    3    3  502    0  0.13799480264E+01  0.58780984765E+02  0.54045716555E+01  0.59192822380E+02  0.41800000000E+01 0.  1.
         -5    1    3    3    0  502  0.65027143299E+02 -0.50461261791E+02 -0.65756793744E+01  0.82677568097E+02  0.41800000000E+01 0.  1.
        -11    1    1    2    0    0 -0.46072173690E+02 -0.41234916877E+02  0.33355961363E+02  0.70253709630E+02  0.00000000000E+00 0. -1.
         11    1    1    2    0    0 -0.20334917636E+02  0.32915193904E+02 -0.12777323681E+02  0.40745292555E+02  0.00000000000E+00 0.  1.
</event>
<event>
 7    1  0.4966153E-006  0.1209245E+03  0.7561462E-02  0.1241580E+00
         -1   -1    0    0    0  501 -0.00000000000E+00  0.00000000000E+00  0.70840597139E+03  0.70840597139E+03  0.00000000000E+00 0.  1.
          1   -1    0    0  501    0  0.00000000000E+00 -0.00000000000E+00 -0.34965768132E+02  0.34965768132E+02  0.00000000000E+00 0. -1.
         23    2    1    2    0    0  0.40605548908E+02  0.10003014172E+03  0.45566531503E+03  0.48469901377E+03  0.12508962695E+03 0.  0.
          5    1    3    3  502    0  0.14838939196E+02  0.33628899266E+02  0.37575663125E+03  0.37757332441E+03  0.41800000000E+01 0.  1.
         -5    1    3    3    0  502  0.25766609712E+02  0.66401242457E+02  0.79908683782E+02  0.10712568935E+03  0.41800000000E+01 0.  1.
        -11    1    1    2    0    0 -0.46516608338E+02 -0.15884641335E+02  0.46079793627E+02  0.67375544987E+02  0.00000000000E+00 0. -1.
         11    1    1    2    0    0  0.59110594300E+01 -0.84145500387E+02  0.17169509460E+03  0.19129718077E+03  0.00000000000E+00 0.  1.
</event>
<event>
 7    1  0.4966153E-006  0.1450916E+03  0.7561462E-02  0.1206637E+00
         -2   -1    0    0    0  501 -0.00000000000E+00  0.00000000000E+00  0.23602902982E+02  0.23602902982E+02  0.00000000000E+00 0.  1.
          2   -1    0    0  501    0  0.00000000000E+00 -0.00000000000E+00 -0.91855576560E+03  0.91855576560E+03  0.00000000000E+00 0. -1.
         23    2    1    2    0    0  0.78159099086E+01 -0.97680801032E+02 -0.53808717489E+03  0.56106330641E+03  0.12510634946E+03 0.  0.
          5    1    3    3  502    0 -0.24490164168E+02 -0.11695813784E+03 -0.37314859559E+03  0.39183711021E+03  0.41800000000E+01 0.  1.
         -5    1    3    3    0  502  0.32306074077E+02  0.19277336805E+02 -0.16493857931E+03  0.16922619620E+03  0.41800000000E+01 0.  1.
        -11    1    1    2    0    0  0.40938229631E+02  0.39959415200E+02 -0.13161008482E+03  0.14350577666E+03  0.00000000000E+00 0.  1.
         11    1    1    2    0    0 -0.48754139540E+02  0.57721385832E+02 -0.22525560291E+03  0.23758958552E+03  0.00000000000E+00 0. -1.
</event>
<event>
 7    1  0.4966153E-006  0.1643338E+03  0.7561462E-02  0.1183889E+00
         -1   -1    0    0    0  501 -0.00000000000E+00  0.00000000000E+00  0.67404459983E+02  0.67404459983E+02  0.00000000000E+00 0.  1.
          1   -1    0    0  501    0  0.00000000000E+00 -0.00000000000E+00 -0.59273843600E+03  0.59273843600E+03  0.00000000000E+00 0. -1.
         23    2    1    2    0    0  0.14836824027E+03  0.66726172330E+01 -0.14628462327E+03  0.24311349071E+03  0.12508924742E+03 0.  0.
          5    1    3    3  502    0  0.83460707058E+02  0.25746815900E+02 -0.15172047359E+03  0.17511471285E+03  0.41800000000E+01 0.  1.
         -5    1    3    3    0  502  0.64907533211E+02 -0.19074198667E+02  0.54358503135E+01  0.67998777863E+02  0.41800000000E+01 0.  1.
        -11    1    1    2    0    0 -0.11047640833E+03  0.36172682191E+02 -0.23981721268E+03  0.26650665138E+03  0.00000000000E+00 0.  1.
         11    1    1    2    0    0 -0.37891831942E+02 -0.42845299424E+02 -0.13923214006E+03  0.15052275388E+03  0.00000000000E+00 0. -1.
</event>
<event>
 7    1  0.4966153E-006  0.1155332E+03  0.7561462E-02  0.1250653E+00
         -2   -1    0    0    0  501 -0.00000000000E+00  0.00000000000E+00  0.48757642211E+02  0.48757642211E+02  0.00000000000E+00 0.  1.
          2   -1    0    0  501    0  0.00000000000E+00 -0.00000000000E+00 -0.51796049121E+03  0.51796049121E+03  0.00000000000E+00 0. -1.
         23    2    1    2    0    0  0.30939978406E+02 -0.87951085395E+02 -0.13025555364E+03  0.20324282152E+03  0.12509380305E+03 0.  0.
          5    1    3    3  502    0 -0.74343164725E+01 -0.70383480452E+01 -0.11099977812E+03  0.11154922925E+03  0.41800000000E+01 0.  1.
         -5    1    3    3    0  502  0.38374294878E+02 -0.80912737350E+02 -0.19255775520E+02  0.91693592272E+02  0.41800000000E+01 0.  1.
        -11    1    1    2    0    0 -0.40566360013E+02  0.10400737531E+03 -0.27361424159E+03  0.29551297245E+03  0.00000000000E+00 0.  1.
         11    1    1    2    0    0  0.96263816070E+01 -0.16056289913E+02 -0.65333053772E+02  0.67962339452E+02  0.00000000000E+00 0. -1.
</event>
<event>
 7    1  0.4966153E-006  0.8854297E+02  0.7561462E-02  0.1306419E+00
         -1   -1    0    0    0  501 -0.00000000000E+00  0.00000000000E+00  0.14344244268E+03  0.14344244268E+03  0.00000000000E+00 0.  1.
          1   -1    0    0  501    0  0.00000000000E+00 -0.00000000000E+00 -0.10318551449E+03  0.10318551449E+03  0.00000000000E+00 0. -1.
         23    2    1    2    0    0  0.14754664684E+02  0.28764440470E+02  0.60404537187E+02  0.14261731142E+03  0.12508355703E+03 0.  0.
          5    1    3    3  502    0 -0.89640545077E+01  0.75048439635E+02  0.45646021986E+02  0.88394877046E+02  0.41800000000E+01 0.  1.
         -5    1    3    3    0  502  0.23718719192E+02 -0.46283999165E+02  0.14758515201E+02  0.54222434377E+02  0.41800000000E+01 0.  1.
        -11    1    1    2    0    0 -0.17376152720E+02  0.27479043887E+01 -0.54530443098E+02  0.57297913455E+02  0.00000000000E+00 0. -1.
         11    1    1    2    0    0  0.26214880360E+01 -0.31512344859E+02  0.34382834091E+02  0.46712732292E+02  0.00000000000E+00 0.  1.
</event>
<event>
 7    1  0.4966153E-006  0.1755828E+03  0.7561462E-02  0.1172148E+00
         -3   -1    0    0    0  501 -0.00000000000E+00  0.00000000000E+00  0.22164488271E+03  0.22164488271E+03  0.00000000000E+00 0.  1.
          3   -1    0    0  501    0  0.00000000000E+00 -0.00000000000E+00 -0.23231289363E+03  0.23231289363E+03  0.00000000000E+00 0. -1.
         23    2    1    2    0    0  0.53273864682E+02 -0.16286784312E+03  0.10372639361E+03  0.22859359607E+03  0.11014457977E+03 0.  0.
          5    1    3    3  502    0  0.18435527305E+02 -0.59945347351E+02 -0.17989613407E+02  0.65378986888E+02  0.41800000000E+01 0. -1.
         -5    1    3    3    0  502  0.34838337377E+02 -0.10292249577E+03  0.12171600701E+03  0.16321460918E+03  0.41800000000E+01 0.  1.
        -11    1    1    2    0    0 -0.62528812672E-01  0.86462372903E+02 -0.12542118375E+02  0.87367331259E+02  0.00000000000E+00 0. -1.
         11    1    1    2    0    0 -0.53211335869E+02  0.76405470214E+02 -0.10185228615E+03  0.13799684901E+03  0.00000000000E+00 0.  1.
</event>
<event>
 7    1  0.4966153E-006  0.1107339E+03  0.7561462E-02  0.1259217E+00
          4   -1    0    0  501    0  0.00000000000E+00  0.00000000000E+00  0.58104721270E+02  0.58104721270E+02  0.00000000000E+00 0. -1.
         -4   -1    0    0    0  501 -0.00000000000E+00 -0.00000000000E+00 -0.34683117410E+03  0.34683117410E+03  0.00000000000E+00 0.  1.
         23    2    1    2    0    0 -0.37836412236E+02 -0.20374892214E+02 -0.27019376833E+03  0.30083810804E+03  0.12510861075E+03 0.  0.
          5    1    3    3  502    0 -0.27010822316E+02 -0.66559951453E+02 -0.94323780601E+02  0.11863498492E+03  0.41800000000E+01 0.  1.
         -5    1    3    3    0  502 -0.10825589920E+02  0.46185059239E+02 -0.17586998773E+03  0.18220312313E+03  0.41800000000E+01 0.  1.
        -11    1    1    2    0    0  0.39646168447E+00  0.52535798384E+02 -0.14891823173E+02  0.54607084624E+02  0.00000000000E+00 0.  1.
         11    1    1    2    0    0  0.37439950551E+02 -0.32160906170E+02 -0.36408613309E+01  0.49490702705E+02  0.00000000000E+00 0. -1.
</event>
<event>
 7    1  0.4966153E-006  0.1812376E+03  0.7561462E-02  0.1166611E+00
         -2   -1    0    0    0  501 -0.00000000000E+00  0.00000000000E+00  0.28783385265E+02  0.28783385265E+02  0.00000000000E+00 0.  1.
          2   -1    0    0  501    0  0.00000000000E+00 -0.00000000000E+00 -0.14065900406E+04  0.14065900406E+04  0.00000000000E+00 0. -1.
         23    2    1    2    0    0 -0.47898722398E+02 -0.14915765254E+03 -0.50105271281E+03  0.53967438481E+03  0.12510926298E+03 0.  0.
          5    1    3    3  502    0 -0.24647772310E+02 -0.15367455675E+03 -0.48815487725E+03  0.51238270721E+03  0.41800000000E+01 0.  1.
         -5    1    3    3    0  502 -0.23250950088E+02  0.45169042100E+01 -0.12897835564E+02  0.27291677594E+02  0.41800000000E+01 0.  1.
        -11    1    1    2    0    0 -0.78888988595E+01  0.11909621096E+03 -0.60396771640E+03  0.61564855611E+03  0.00000000000E+00 0.  1.
         11    1    1    2    0    0  0.55787621257E+02  0.30061441581E+02 -0.27278622609E+03  0.28005048491E+03  0.00000000000E+00 0. -1.
</event>
<event>
 7    1  0.4966153E-006  0.1070976E+03  0.7561462E-02  0.1266041E+00
         -1   -1    0    0    0  501 -0.00000000000E+00  0.00000000000E+00  0.97567533399E+02  0.97567533399E+02  0.00000000000E+00 0.  1.
          1   -1    0    0  501    0  0.00000000000E+00 -0.00000000000E+00 -0.25099291679E+03  0.25099291679E+03  0.00000000000E+00 0. -1.
         23    2    1    2    0    0  0.63662614973E+02  0.27804791971E+02  0.15546328301E+02  0.14393590631E+03  0.12509924779E+03 0.  0.
          5    1    3    3  502    0  0.75178852534E+02  0.43838740602E+02  0.52578551684E+02  0.10176282004E+03  0.41800000000E+01 0. -1.
         -5    1    3    3    0  502 -0.11516237560E+02 -0.16033948631E+02 -0.37032223383E+02  0.42173086263E+02  0.41800000000E+01 0. -1.
        -11    1    1    2    0    0 -0.26393120078E+02  0.28833047032E+02 -0.27647385490E+02  0.47878171572E+02  0.00000000000E+00 0.  1.
         11    1    1    2    0    0 -0.37269494895E+02 -0.56637839003E+02 -0.14132432620E+03  0.15674637231E+03  0.00000000000E+00 0. -1.
</event>
<event>
 7    1  0.4966153E-006  0.1516161E+03  0.7561462E-02  0.1198501E+00
          3   -1    0    0  501    0  0.00000000000E+00  0.00000000000E+00  0.12300638447E+03  0.12300638447E+03  0.00000000000E+00 0. -1.
         -3   -1    0    0    0  501 -0.00000000000E+00 -0.00000000000E+00 -0.20114230461E+03  0.20114230461E+03  0.00000000000E+00 0.  1.
         23    2    1    2    0    0  0.79860981620E+02 -0.11178592360E+02 -0.42241211848E+02  0.14443871937E+03  0.11214047602E+03 0.  0.
          5    1    3    3  502    0  0.10675395361E+03 -0.87163614481E+01 -0.46390105669E+02  0.11679852684E+03  0.41800000000E+01 0. -1.
         -5    1    3    3    0  502 -0.26892971987E+02 -0.24622309118E+01  0.41488938210E+01  0.27640192534E+02  0.41800000000E+01 0.  1.
        -11    1    1    2    0    0 -0.72779075388E+02  0.74996491931E+02  0.31657730218E+01  0.10455280836E+03  0.00000000000E+00 0.  1.
         11    1    1    2    0    0 -0.70819062320E+01 -0.63817899571E+02 -0.39060481315E+02  0.75157161350E+02  0.00000000000E+00 0. -1.
</event>
<event>
 7    1  0.4966153E-006  0.1325748E+03  0.7561462E-02  0.1223684E+00
          3   -1    0    0  501    0  0.00000000000E+00  0.00000000000E+00  0.43311432696E+03  0.43311432696E+03  0.00000000000E+00 0. -1.
         -3   -1    0    0    0  501 -0.00000000000E+00 -0.00000000000E+00 -0.70389950263E+02  0.70389950263E+02  0.00000000000E+00 0.  1.
         23    2    1    2    0    0  0.19859783693E+02 -0.12313712325E+03  0.11273262937E+03  0.20955816190E+03  0.12509522519E+03 0.  0.
          5    1    3    3  502    0  0.21777434164E+02 -0.10623416108E+03  0.14000736326E+03  0.17714256345E+03  0.41800000000E+01 0.  1.
         -5    1    3    3    0  502 -0.19176504708E+01 -0.16902962166E+02 -0.27274733897E+02  0.32415598444E+02  0.41800000000E+01 0.  1.
        -11    1    1    2    0    0 -0.41931327577E+02  0.70441592767E+02  0.20639956772E+03  0.22208339825E+03  0.00000000000E+00 0. -1.
         11    1    1    2    0    0  0.22071543884E+02  0.52695530480E+02  0.43592179607E+02  0.71862717071E+02  0.00000000000E+00 0.  1.
</event>
<event>
 7    1  0.4966153E-006  0.9496440E+02  0.7561462E-02  0.1291256E+00
         -1   -1    0    0    0  501 -0.00000000000E+00  0.00000000000E+00  0.13237180854E+03  0.13237180854E+03  0.00000000000E+00 0.  1.
          1   -1    0    0  501    0  0.00000000000E+00 -0.00000000000E+00 -0.10193844581E+03  0.10193844581E+03  0.00000000000E+00 0. -1.
         23    2    1    2    0    0 -0.41798790573E+01  0.32393477943E+02 -0.24366395428E+01  0.12930514323E+03  0.12508826505E+03 0.  0.
          5    1    3    3  502    0 -0.20376860014E+02  0.59555672054E+02 -0.43998975515E+02  0.76912136520E+02  0.41800000000E+01 0.  1.
         -5    1    3    3    0  502  0.16196980956E+02 -0.27162194111E+02  0.41562335972E+02  0.52393006713E+02  0.41800000000E+01 0.  1.
        -11    1    1    2    0    0 -0.42533424470E+02 -0.15163107027E+02 -0.33865681126E+00  0.45156690537E+02  0.00000000000E+00 0. -1.
         11    1    1    2    0    0  0.46713303527E+02 -0.17230370917E+02  0.33208659086E+02  0.59848420586E+02  0.00000000000E+00 0.  1.
</event>
<event>
 7    1  0.4966153E-006  0.1884998E+03  0.7561462E-02  0.1159821E+00
         -2   -1    0    0    0  501 -0.00000000000E+00  0.00000000000E+00  0.11911313774E+03  0.11911313774E+03  0.00000000000E+00 0. -1.
          2   -1    0    0  501    0  0.00000000000E+00 -0.00000000000E+00 -0.38029277309E+03  0.38029277309E+03  0.00000000000E+00 0.  1.
         23    2    1    2    0    0  0.16523305469E+03  0.21875598146E+02 -0.47897694699E+02  0.21382846991E+03  0.12509165133E+03 0.  0.
          5    1    3    3  502    0  0.81512089512E+02 -0.51889281902E+02 -0.23630527961E+02  0.99562003619E+02  0.41800000000E+01 0. -1.
         -5    1    3    3    0  502  0.83720965175E+02  0.73764880047E+02 -0.24267166737E+02  0.11426646630E+03  0.41800000000E+01 0. -1.
        -11    1    1    2    0    0 -0.94152212118E+02  0.33433574254E+00 -0.51124669224E+02  0.10713768072E+03  0.00000000000E+00 0. -1.
         11    1    1    2    0    0 -0.71080842568E+02 -0.22209933888E+02 -0.16215727142E+03  0.17843976020E+03  0.00000000000E+00 0.  1.
</event>
<event>
 7    1  0.4966153E-006  0.1908499E+03  0.7561462E-02  0.1157697E+00
         -2   -1    0    0    0  501 -0.00000000000E+00  0.00000000000E+00  0.11439700201E+03  0.11439700201E+03  0.00000000000E+00 0.  1.
          2   -1    0    0  501    0  0.00000000000E+00 -0.00000000000E+00 -0.36592361470E+03  0.36592361470E+03  0.00000000000E+00 0. -1.
         23    2    1    2    0    0 -0.71805245070E+02 -0.15716849926E+03 -0.14221384491E+03  0.25637826569E+03  0.12508839697E+03 0.  0.
          5    1    3    3  502    0 -0.52682542098E+02 -0.47283230187E+01 -0.10763546403E+02  0.54139944696E+02  0.41800000000E+01 0. -1.
         -5    1    3    3    0  502 -0.19122702972E+02 -0.15244017624E+03 -0.13145029850E+03  0.20223832099E+03  0.41800000000E+01 0. -1.
        -11    1    1    2    0    0  0.58806759762E+02  0.14737311315E+03 -0.56103401137E+02  0.16829931994E+03  0.00000000000E+00 0.  1.
         11    1    1    2    0    0  0.12998485308E+02  0.97953861069E+01 -0.53209366642E+02  0.55643031080E+02  0.00000000000E+00 0. -1.
</event>
<event>
 7    1  0.4966153E-006  0.7569894E+02  0.7561462E-02  0.1341720E+00
         -1   -1    0    0    0  501 -0.00000000000E+00  0.00000000000E+00  0.12061305275E+03  0.12061305275E+03  0.00000000000E+00 0.  1.
          1   -1    0    0  501    0  0.00000000000E+00 -0.00000000000E+00 -0.13138975600E+03  0.13138975600E+03  0.00000000000E+00 0. -1.
         23    2    1    2    0    0  0.54857409736E+01  0.61701473286E+02 -0.21391940932E+02  0.14121024680E+03  0.12508218700E+03 0.  0.
          5    1    3    3  502    0  0.11653119590E+02  0.32245109019E+02  0.51630578913E+02  0.62118687452E+02  0.41800000000E+01 0. -1.
         -5    1    3    3    0  502 -0.61673786167E+01  0.29456364266E+02 -0.73022519845E+02  0.79091559343E+02  0.41800000000E+01 0. -1.
        -11    1    1    2    0    0  0.20836246835E+02 -0.55709403102E+02 -0.26321560968E+02  0.65042381168E+02  0.00000000000E+00 0. -1.
         11    1    1    2    0    0 -0.26321987809E+02 -0.59920701835E+01  0.36936798655E+02  0.45750180788E+02  0.00000000000E+00 0.  1.
</event>
<event>
 7    1  0.4966153E-006  0.1067632E+03  0.7561462E-02  0.1266684E+00
         -2   -1    0    0    0  501 -0.00000000000E+00  0.00000000000E+00  0.46422193522E+03  0.46422193522E+03  0.00000000000E+00 0.  1.
          2   -1    0    0  501    0  0.00000000000E+00 -0.00000000000E+00 -0.99071741849E+02  0.99071741849E+02  0.00000000000E+00 0. -1.
         23    2    1    2    0    0  0.32480197542E+02 -0.21724202118E+02  0.42558661301E+03  0.44530856595E+03  0.12509536181E+03 0.  0.
          5    1    3    3  502    0  0.68429082823E+02 -0.47200396757E+02  0.32359209458E+03  0.33412532515E+03  0.41800000000E+01 0.  1.
         -5    1    3    3    0  502 -0.35948885280E+02  0.25476194639E+02  0.10199451842E+03  0.11118324080E+03  0.41800000000E+01 0.  1.
        -11    1    1    2    0    0  0.25034732319E+02  0.15479441795E+01  0.80131708696E+01  0.26331442438E+02  0.00000000000E+00 0.  1.
         11    1    1    2    0    0 -0.57514929862E+02  0.20176257939E+02 -0.68449590508E+02  0.91653668678E+02  0.00000000000E+00 0. -1.
</event>
<event>
 7    1  0.4966153E-006  0.9845673E+02  0.7561462E-02  0.1283575E+00
         -1   -1    0    0    0  501 -0.00000000000E+00  0.00000000000E+00  0.10228317726E+03  0.10228317726E+03  0.00000000000E+00 0.  1.
          1   -1    0    0  501    0  0.00000000000E+00 -0.00000000000E+00 -0.15129128709E+03  0.15129128709E+03  0.00000000000E+00 0. -1.
         23    2    1    2    0    0 -0.50449232796E+02 -0.29254155879E+02  0.78920069100E+01  0.13824471897E+03  0.12509351632E+03 0.  0.
          5    1    3    3  502    0  0.20232785876E+02  0.11370368047E+02  0.43267934855E+02  0.49277149679E+02  0.41800000000E+01 0. -1.
         -5    1    3    3    0  502 -0.70682018672E+02 -0.40624523925E+02 -0.35375927945E+02  0.88967569292E+02  0.41800000000E+01 0. -1.
        -11    1    1    2    0    0 -0.13825802764E+02  0.23372593654E+02  0.29399608611E+01  0.27314361169E+02  0.00000000000E+00 0.  1.
         11    1    1    2    0    0  0.64275035559E+02  0.58815622242E+01 -0.59840077602E+02  0.88015384211E+02  0.00000000000E+00 0. -1.
</event>
<event>
 7    1  0.4966153E-006  0.1655368E+03  0.7561462E-02  0.1182584E+00
         -1   -1    0    0    0  501 -0.00000000000E+00  0.00000000000E+00  0.91815608938E+02  0.91815608938E+02  0.00000000000E+00 0.  1.
          1   -1    0    0  501    0  0.00000000000E+00 -0.00000000000E+00 -0.33604763703E+03  0.33604763703E+03  0.00000000000E+00 0. -1.
         23    2    1    2    0    0 -0.13342861167E+03  0.29818208139E+02 -0.11983041529E+03  0.22079603597E+03  0.12529661258E+03 0.  0.
          5    1    3    3  502    0 -0.10031266222E+03 -0.38215425184E+02 -0.86879726951E+02  0.13816152966E+03  0.41800000000E+01 0. -1.
         -5    1    3    3    0  502 -0.33115949450E+02  0.68033633323E+02 -0.32950688338E+02  0.82634506310E+02  0.41800000000E+01 0. -1.
        -11    1    1    2    0    0  0.70314879273E+02  0.13123555792E+02 -0.10710694972E+03  0.12879560801E+03  0.00000000000E+00 0. -1.
         11    1    1    2    0    0  0.63113732397E+02 -0.42941763932E+02 -0.17294663084E+02  0.78271601989E+02  0.00000000000E+00 0.  1.
</event>
<event>
 7    1  0.4966153E-006  0.1004109E+03  0.7561462E-02  0.1279434E+00
         -1   -1    0    0    0  501 -0.00000000000E+00  0.00000000000E+00  0.67681676367E+02  0.67681676367E+02  0.00000000000E+00 0.  1.
          1   -1    0    0  501    0  0.00000000000E+00 -0.00000000000E+00 -0.28712861162E+03  0.28712861162E+03  0.00000000000E+00 0. -1.
         23    2    1    2    0    0 -0.42453488811E+01  0.85623276682E+02 -0.13512529206E+03  0.20311363373E+03  0.12508770985E+03 0.  0.
          5    1    3    3  502    0  0.53214033202E+00  0.20098041974E+02 -0.13573424337E+03  0.13727881005E+03  0.41800000000E+01 0.  1.
         -5    1    3    3    0  502 -0.47774892131E+01  0.65525234709E+02  0.60895131449E+00  0.65834823677E+02  0.41800000000E+01 0.  1.
        -11    1    1    2    0    0 -0.34003304333E+02 -0.22921049399E+02 -0.63083054026E+02  0.75240088492E+02  0.00000000000E+00 0. -1.
         11    1    1    2    0    0  0.38248653214E+02 -0.62702227284E+02 -0.21238589165E+02  0.76456565766E+02  0.00000000000E+00 0.  1.
</event>
<event>
 6    1  0.4966153E-006  0.9225166E+02  0.7561462E-02  0.1297489E+00
         -2   -1    0    0    0  501 -0.00000000000E+00  0.00000000000E+00  0.36955509814E+02  0.36955509814E+02  0.00000000000E+00 0.  1.
          2   -1    0    0  501    0  0.00000000000E+00 -0.00000000000E+00 -0.45196639935E+03  0.45196639935E+03  0.00000000000E+00 0. -1.
          5    1    1    2  502    0 -0.30411798459E+02 -0.31898303217E+02 -0.14809052434E+03  0.15456602160E+03  0.41800000000E+01 0. -1.
         -5    1    1    2    0  502  0.76701281452E+02  0.92142169031E+01 -0.53076433066E+02  0.93822004437E+02  0.41800000000E+01 0.  1.
        -11    1    1    2    0    0 -0.74480022886E+01  0.22841944455E+02 -0.86401077919E+00  0.24041083153E+02  0.00000000000E+00 0.  1.
         11    1    1    2    0    0 -0.38841480705E+02 -0.15785814099E+00 -0.21297992136E+03  0.21649279998E+03  0.00000000000E+00 0. -1.
</event>
<event>
 6    1  0.4966153E-006  0.1698396E+03  0.7561462E-02  0.1178015E+00
         -1   -1    0    0    0  501 -0.00000000000E+00  0.00000000000E+00  0.11919471719E+03  0.11919471719E+03  0.00000000000E+00 0.  1.
          1   -1    0    0  501    0  0.00000000000E+00 -0.00000000000E+00 -0.76329830824E+03  0.76329830824E+03  0.00000000000E+00 0. -1.
          5    1    1    2  502    0  0.39222983202E+02  0.93876698723E+02 -0.45996263010E+03  0.47109910896E+03  0.41800000000E+01 0. -1.
         -5    1    1    2    0  502 -0.75718096599E+01 -0.13402023010E+03  0.58760431801E+02  0.14659132008E+03  0.41800000000E+01 0.  1.
        -11    1    1    2    0    0 -0.50775837798E+02  0.58210502047E+02 -0.20094101511E+03  0.21527642650E+03  0.00000000000E+00 0.  1.
         11    1    1    2    0    0  0.19124664256E+02 -0.18066970666E+02 -0.41960377640E+02  0.49526169886E+02  0.00000000000E+00 0. -1.
</event>
<event>
 7    1  0.4966153E-006  0.1166429E+03  0.7561462E-02  0.1248740E+00
         -1   -1    0    0    0  501 -0.00000000000E+00  0.00000000000E+00  0.11261141353E+03  0.11261141353E+03  0.00000000000E+00 0.  1.
          1   -1    0    0  501    0  0.00000000000E+00 -0.00000000000E+00 -0.20205567234E+03  0.20205567234E+03  0.00000000000E+00 0. -1.
         23    2    1    2    0    0  0.91684486711E+02  0.26356274828E+02 -0.42013998008E+01  0.15737326863E+03  0.12509194855E+03 0.  0.
          5    1    3    3  502    0 -0.17270049288E+02  0.21041987316E+02  0.32133620907E+02  0.42320938378E+02  0.41800000000E+01 0.  1.
         -5    1    3    3    0  502  0.10895453600E+03  0.53142875127E+01 -0.36335020708E+02  0.11505233025E+03  0.41800000000E+01 0.  1.
        -11    1    1    2    0    0 -0.51287699564E+02 -0.22481653990E+02  0.70807882065E+01  0.56444578608E+02  0.00000000000E+00 0.  1.
         11    1    1    2    0    0 -0.40396787148E+02 -0.38746208385E+01 -0.92323647213E+02  0.10084923863E+03  0.00000000000E+00 0. -1.
</event>
<event>
 7    1  0.4966153E-006  0.8283728E+02  0.7561462E-02  0.1321187E+00
         -2   -1    0    0    0  501 -0.00000000000E+00  0.00000000000E+00  0.26801321764E+02  0.26801321764E+02  0.00000000000E+00 0.  1.
          2   -1    0    0  501    0  0.00000000000E+00 -0.00000000000E+00 -0.48496051831E+03  0.48496051831E+03  0.00000000000E+00 0. -1.
         23    2    1    2    0    0  0.24862642764E+02  0.18338510617E+02 -0.22241044605E+03  0.25703735326E+03  0.12508933800E+03 0.  0.
          5    1    3    3  502    0  0.18401300560E+02  0.58604188058E+02 -0.48543225975E+02  0.78402652431E+02  0.41800000000E+01 0. -1.
         -5    1    3    3    0  502  0.64613422041E+01 -0.40265677441E+02 -0.17386722008E+03  0.17863470083E+03  0.41800000000E+01 0. -1.
        -11    1    1    2    0    0  0.12355058252E+02  0.10353245432E+02 -0.19352413847E+01  0.16235218342E+02  0.00000000000E+00 0.  1.
         11    1    1    2    0    0 -0.37217701017E+02 -0.28691756049E+02 -0.23381350911E+03  0.23848926847E+03  0.00000000000E+00 0. -1.
</event>
<event>
 7    1  0.4966153E-006  0.1319938E+03  0.7561462E-02  0.1224527E+00
          2   -1    0    0  501    0  0.00000000000E+00  0.00000000000E+00  0.19843877138E+03  0.19843877138E+03  0.00000000000E+00 0. -1.
         -2   -1    0    0    0  501 -0.00000000000E+00 -0.00000000000E+00 -0.12497368390E+03  0.12497368390E+03  0.00000000000E+00 0.  1.
         23    2    1    2    0    0  0.39741245593E+02 -0.94191165621E+02 -0.12291862352E+02  0.16202341055E+03  0.12509657630E+03 0.  0.
          5    1    3    3  502    0  0.82739740433E+02 -0.40520805431E+02 -0.11519326377E+01  0.92231229356E+02  0.41800000000E+01 0.  1.
         -5    1    3    3    0  502 -0.42998494840E+02 -0.53670360191E+02 -0.11139929714E+02  0.69792181192E+02  0.41800000000E+01 0.  1.
        -11    1    1    2    0    0 -0.17132121803E+02  0.27034797258E+02 -0.17253124471E+02  0.36360145273E+02  0.00000000000E+00 0.  1.
         11    1    1    2    0    0 -0.22609123790E+02  0.67156368364E+02  0.10301007430E+03  0.12502889945E+03  0.00000000000E+00 0. -1.
</event>
<event>
 7    1  0.4966153E-006  0.1206663E+03  0.7561462E-02  0.1242002E+00
          2   -1    0    0  501    0  0.00000000000E+00  0.00000000000E+00  0.11539275839E+03  0.11539275839E+03  0.00000000000E+00 0. -1.
         -2   -1    0    0    0  501 -0.00000000000E+00 -0.00000000000E+00 -0.17604599608E+03  0.17604599608E+03  0.00000000000E+00 0.  1.
         23    2    1    2    0    0 -0.24709767641E+02 -0.84634548434E+02 -0.90495435219E+02  0.17779291014E+03  0.12508923093E+03 0.  0.
          5    1    3    3  502    0  0.10263211193E+02 -0.10886479182E+03 -0.73321573164E+02  0.13172092428E+03  0.41800000000E+01 0.  1.
         -5    1    3    3    0  502 -0.34972978834E+02  0.24230243385E+02 -0.17173862055E+02  0.46071985857E+02  0.41800000000E+01 0.  1.
        -11    1    1    2    0    0  0.73049314316E+01  0.48488872688E+02 -0.17067116227E+02  0.51921279396E+02  0.00000000000E+00 0.  1.
         11    1    1    2    0    0  0.17404836209E+02  0.36145675746E+02  0.46909313757E+02  0.61724564930E+02  0.00000000000E+00 0. -1.
</event>
<event>
 7    1  0.4966153E-006  0.1574022E+03  0.7561462E-02  0.1191661E+00
         -2   -1    0    0    0  501 -0.00000000000E+00  0.00000000000E+00  0.37553219169E+03  0.37553219169E+03  0.00000000000E+00 0.  1.
          2   -1    0    0  501    0  0.00000000000E+00 -0.00000000000E+00 -0.80117197414E+02  0.80117197414E+02  0.00000000000E+00 0. -1.
         23    2    1    2    0    0 -0.10152792611E+03  0.78244049151E+02  0.21068515121E+03  0.27652683281E+03  0.12509518502E+03 0.  0.
          5    1    3    3  502    0 -0.92001245238E+02  0.10713843495E+03  0.13744074832E+03  0.19710480732E+03  0.41800000000E+01 0. -1.
         -5    1    3    3    0  502 -0.95266808747E+01 -0.28894385796E+02  0.73244402889E+02  0.79422025494E+02  0.41800000000E+01 0. -1.
        -11    1    1    2    0    0  0.23604281939E+02 -0.57528962967E+02  0.32650395164E-01  0.62183155050E+02  0.00000000000E+00 0. -1.
         11    1    1    2    0    0  0.77923644173E+02 -0.20715086184E+02  0.84697192666E+02  0.11693940124E+03  0.00000000000E+00 0.  1.
</event>
<event>
 7    1  0.4966153E-006  0.1816759E+03  0.7561462E-02  0.1166191E+00
          2   -1    0    0  501    0  0.00000000000E+00  0.00000000000E+00  0.46149015513E+03  0.46149015513E+03  0.00000000000E+00 0. -1.
         -2   -1    0    0    0  501 -0.00000000000E+00 -0.00000000000E+00 -0.88727524542E+02  0.88727524542E+02  0.00000000000E+00 0.  1.
         23    2    1    2    0    0 -0.14127970020E+03 -0.73705673915E+02  0.11226860187E+03  0.23161151010E+03  0.12508865891E+03 0.  0.
          5    1    3    3  502    0 -0.98793388866E+02 -0.92007953981E+02  0.31895635529E+02  0.13878184768E+03  0.41800000000E+01 0. -1.
         -5    1    3    3    0  502 -0.42486311339E+02  0.18302280065E+02  0.80372966340E+02  0.92829662420E+02  0.41800000000E+01 0. -1.
        -11    1    1    2    0    0  0.29750010548E+02  0.63150989366E+02  0.80032470352E+02  0.10619937333E+03  0.00000000000E+00 0.  1.
         11    1    1    2    0    0  0.11152968966E+03  0.10554684549E+02  0.18046155837E+03  0.21240679624E+03  0.00000000000E+00 0. -1.
</event>
<event>
 7    1  0.4966153E-006  0.1575950E+03  0.7561462E-02  0.1191439E+00
         -2   -1    0    0    0  501 -0.00000000000E+00  0.00000000000E+00  0.56635678445E+02  0.56635678445E+02  0.00000000000E+00 0. -1.
          2   -1    0    0  501    0  0.00000000000E+00 -0.00000000000E+00 -0.52408253293E+03  0.52408253293E+03  0.00000000000E+00 0.  1.
         23    2    1    2    0    0 -0.90295567208E+02 -0.97054210426E+02 -0.27593109175E+03  0.33069430033E+03  0.12509174096E+03 0.  0.
          5    1    3    3  502    0 -0.62038256552E+02 -0.35701183635E+01 -0.36764805637E+02  0.72322986350E+02  0.41800000000E+01 0. -1.
         -5    1    3    3    0  502 -0.28257310656E+02 -0.93484092062E+02 -0.23916628611E+03  0.25837131398E+03  0.41800000000E+01 0. -1.
        -11    1    1    2    0    0  0.13192015095E+02  0.73300681683E+02 -0.59588553867E+02  0.95382466677E+02  0.00000000000E+00 0. -1.
         11    1    1    2    0    0  0.77103552113E+02  0.23753528742E+02 -0.13192720887E+03  0.15464144437E+03  0.00000000000E+00 0.  1.
</event>
<event>
 7    1  0.4966153E-006  0.2373723E+03  0.7561462E-02  0.1121556E+00
          1   -1    0    0  501    0  0.00000000000E+00  0.00000000000E+00  0.29243227828E+03  0.29243227828E+03  0.00000000000E+00 0. -1.
         -1   -1    0    0    0  501 -0.00000000000E+00 -0.00000000000E+00 -0.37388337126E+03  0.37388337126E+03  0.00000000000E+00 0.  1.
         23    2    1    2    0    0 -0.13503826256E+03 -0.18685293895E+03 -0.25335007929E+03  0.36466808870E+03  0.12508876485E+03 0.  0.
          5    1    3    3  502    0 -0.74666175315E+02 -0.16265997665E+03 -0.11792320867E+03  0.21437504818E+03  0.41800000000E+01 0. -1.
         -5    1    3    3    0  502 -0.60372087244E+02 -0.24192962300E+02 -0.13542687062E+03  0.15029304052E+03  0.41800000000E+01 0. -1.
        -11    1    1    2    0    0  0.18620384799E+02  0.26414457384E+02  0.73608407250E+02  0.80390546128E+02  0.00000000000E+00 0. -1.
         11    1    1    2    0    0  0.11641787776E+03  0.16043848157E+03  0.98290579056E+02  0.22125701472E+03  0.00000000000E+00 0.  1.
</event>
<event>
 7    1  0.4966153E-006  0.9251601E+02  0.7561462E-02  0.1296871E+00
          1   -1    0    0  501    0  0.00000000000E+00  0.00000000000E+00  0.12888992749E+03  0.12888992749E+03  0.00000000000E+00 0. -1.
         -1   -1    0    0    0  501 -0.00000000000E+00 -0.00000000000E+00 -0.97013587642E+02  0.97013587642E+02  0.00000000000E+00 0.  1.
         23    2    1    2    0    0 -0.22504144414E+02 -0.13139549815E+02  0.24004958783E+02  0.13000707533E+03  0.12508603961E+03 0.  0.
          5    1    3    3  502    0 -0.53349396732E+02 -0.51343813589E+02 -0.22000160339E+01  0.74193381080E+02  0.41800000000E+01 0. -1.
         -5    1    3    3    0  502  0.30845252317E+02  0.38204263774E+02  0.26204974816E+02  0.55813694253E+02  0.41800000000E+01 0. -1.
        -11    1    1    2    0    0  0.29156263201E+02 -0.14921735349E+02  0.40672299932E+02  0.52220511788E+02  0.00000000000E+00 0. -1.
         11    1    1    2    0    0 -0.66521187869E+01  0.28061285164E+02 -0.32800918864E+02  0.43675928013E+02  0.00000000000E+00 0.  1.
</event>
<event>
 7    1  0.4966153E-006  0.1381064E+03  0.7561462E-02  0.1215900E+00
         -1   -1    0    0    0  501 -0.00000000000E+00  0.00000000000E+00  0.11590287734E+03  0.11590287734E+03  0.00000000000E+00 0.  1.
          1   -1    0    0  501    0  0.00000000000E+00 -0.00000000000E+00 -0.26099701257E+03  0.26099701257E+03  0.00000000000E+00 0. -1.
         23    2    1    2    0    0 -0.95783237076E+02 -0.68424454937E+02 -0.32758388818E+01  0.17181549018E+03  0.12511393610E+03 0.  0.
          5    1    3    3  502    0  0.16889786996E+02 -0.29237454270E+02  0.32655246183E+02  0.47158574408E+02  0.41800000000E+01 0. -1.
         -5    1    3    3    0  502 -0.11267302407E+03 -0.39187000667E+02 -0.35931085065E+02  0.12465691577E+03  0.41800000000E+01 0. -1.
        -11    1    1    2    0    0  0.94246653220E+02  0.54612723021E+02 -0.15260525727E+03  0.18749225505E+03  0.00000000000E+00 0. -1.
         11    1    1    2    0    0  0.15365838561E+01  0.13811731916E+02  0.10786960918E+02  0.17592144676E+02  0.00000000000E+00 0.  1.
</event>
<event>
 7    1  0.4966153E-006  0.9932053E+02  0.7561462E-02  0.1281731E+00
          1   -1    0    0  501    0  0.00000000000E+00  0.00000000000E+00  0.12220186952E+03  0.12220186952E+03  0.00000000000E+00 0. -1.
         -1   -1    0    0    0  501 -0.00000000000E+00 -0.00000000000E+00 -0.10838376205E+03  0.10838376205E+03  0.00000000000E+00 0.  1.
         23    2    1    2    0    0 -0.11745738737E+02 -0.32173803025E+02 -0.13103375805E+02  0.13035350246E+03  0.12508885308E+03 0.  0.
          5    1    3    3  502    0 -0.50418688185E+02  0.40673101621E+01 -0.45442640494E+02  0.68125568660E+02  0.41800000000E+01 0. -1.
         -5    1    3    3    0  502  0.38672949448E+02 -0.36241113187E+02  0.32339264689E+02  0.62227933797E+02  0.41800000000E+01 0. -1.
        -11    1    1    2    0    0  0.49823508153E+02  0.10536463344E+02  0.47574935723E+01  0.51147167757E+02  0.00000000000E+00 0.  1.
         11    1    1    2    0    0 -0.38077769416E+02  0.21637339681E+02  0.22163989696E+02  0.49084961357E+02  0.00000000000E+00 0. -1.
</event>
<event>
 7    1  0.4966153E-006  0.9497665E+02  0.7561462E-02  0.1291229E+00
          1   -1    0    0  501    0  0.00000000000E+00  0.00000000000E+00  0.14421963362E+04  0.14421963362E+04  0.00000000000E+00 0. -1.
         -1   -1    0    0    0  501 -0.00000000000E+00 -0.00000000000E+00 -0.10597314030E+02  0.10597314030E+02  0.00000000000E+00 0.  1.
         23    2    1    2    0    0 -0.58306225028E+02 -0.55937018788E+01  0.81107171848E+03  0.82274882376E+03  0.12508952433E+03 0.  0.
          5    1    3    3  502    0 -0.60097959038E+02 -0.21778108247E+02  0.80013054641E+03  0.80269073396E+03  0.41800000000E+01 0.  1.
         -5    1    3    3    0  502  0.17917340102E+01  0.16184406368E+02  0.10941172071E+02  0.20058089803E+02  0.41800000000E+01 0.  1.
        -11    1    1    2    0    0  0.75561268512E+02 -0.20048770879E+02  0.44931344560E+03  0.45606362594E+03  0.00000000000E+00 0.  1.
         11    1    1    2    0    0 -0.17255043484E+02  0.25642472758E+02  0.17121385805E+03  0.17398120049E+03  0.00000000000E+00 0. -1.
</event>
<event>
 7    1  0.4966153E-006  0.1362381E+03  0.7561462E-02  0.1218482E+00
          1   -1    0    0  501    0  0.00000000000E+00  0.00000000000E+00  0.53130964615E+02  0.53130964615E+02  0.00000000000E+00 0. -1.
         -1   -1    0    0    0  501 -0.00000000000E+00 -0.00000000000E+00 -0.49673126995E+03  0.49673126995E+03  0.00000000000E+00 0.  1.
         23    2    1    2    0    0 -0.10612179797E+03 -0.43965068319E+02 -0.18484860772E+03  0.25101784198E+03  0.12508471521E+03 0.  0.
          5    1    3    3  502    0 -0.10128192641E+03 -0.26824520631E+01 -0.18298204027E+03  0.20920115589E+03  0.41800000000E+01 0. -1.
         -5    1    3    3    0  502 -0.48398715673E+01 -0.41282616256E+02 -0.18665674549E+01  0.41816686093E+02  0.41800000000E+01 0. -1.
        -11    1    1    2    0    0  0.37481645937E+02 -0.13438318514E+02 -0.16299180814E+03  0.16778495674E+03  0.00000000000E+00 0.  1.
         11    1    1    2    0    0  0.68640152037E+02  0.57403386833E+02 -0.95759889469E+02  0.13105943584E+03  0.00000000000E+00 0. -1.
</event>
<event>
 7    1  0.4966153E-006  0.9742029E+02  0.7561462E-02  0.1285816E+00
          1   -1    0    0  501    0  0.00000000000E+00  0.00000000000E+00  0.63436227249E+02  0.63436227249E+02  0.00000000000E+00 0. -1.
         -1   -1    0    0    0  501 -0.00000000000E+00 -0.00000000000E+00 -0.27686056251E+03  0.27686056251E+03  0.00000000000E+00 0.  1.
         23    2    1    2    0    0  0.65107383747E+02 -0.33864040222E+02 -0.10908237738E+03  0.18147261974E+03  0.12509037543E+03 0.  0.
          5    1    3    3  502    0  0.20539322469E+02 -0.41694603399E+02 -0.12491714311E+03  0.13334942355E+03  0.41800000000E+01 0.  1.
         -5    1    3    3    0  502  0.44568061278E+02  0.78305631767E+01  0.15834765732E+02  0.48123196190E+02  0.41800000000E+01 0.  1.
        -11    1    1    2    0    0 -0.53644040759E+01 -0.20965589807E+02 -0.65363497929E+02  0.68852884097E+02  0.00000000000E+00 0.  1.
         11    1    1    2    0    0 -0.59742979671E+02  0.54829630029E+02 -0.38978459958E+02  0.89971285918E+02  0.00000000000E+00 0. -1.
</event>
<event>
 7    1  0.4966153E-006  0.1365316E+03  0.7561462E-02  0.1218074E+00
          1   -1    0    0  501    0  0.00000000000E+00  0.00000000000E+00  0.70273569909E+02  0.70273569909E+02  0.00000000000E+00 0. -1.
         -1   -1    0    0    0  501 -0.00000000000E+00 -0.00000000000E+00 -0.34841530490E+03  0.34841530490E+03  0.00000000000E+00 0.  1.
         23    2    1    2    0    0 -0.62440928789E+02  0.73367186576E+02 -0.22696620881E+03  0.27648472422E+03  0.12509408113E+03 0.  0.
          5    1    3    3  502    0 -0.24810901895E+02 -0.29543239191E+02 -0.23540911931E+02  0.45387561835E+02  0.41800000000E+01 0. -1.
         -5    1    3    3    0  502 -0.37630026894E+02  0.10291042577E+03 -0.20342529687E+03  0.23109716239E+03  0.41800000000E+01 0. -1.
        -11    1    1    2    0    0  0.29521266621E+02 -0.84771244819E+02 -0.13303521641E+02  0.90744987845E+02  0.00000000000E+00 0. -1.
         11    1    1    2    0    0  0.32919662169E+02  0.11404058243E+02 -0.37872004543E+02  0.51459162739E+02  0.00000000000E+00 0.  1.
</event>
<event>
 7    1  0.4966153E-006  0.6849363E+02  0.7561462E-02  0.1365292E+00
         -1   -1    0    0    0  501 -0.00000000000E+00  0.00000000000E+00  0.10168238992E+03  0.10168238992E+03  0.00000000000E+00 0.  1.
          1   -1    0    0  501    0  0.00000000000E+00 -0.00000000000E+00 -0.13160838182E+03  0.13160838182E+03  0.00000000000E+00 0. -1.
         23    2    1    2    0    0  0.32491595416E+02 -0.24939816095E+02  0.45746953879E+01  0.13170273716E+03  0.12508790884E+03 0.  0.
          5    1    3    3  502    0  0.23928318232E+02 -0.11146182364E+02 -0.59629988788E+02  0.65345311673E+02  0.41800000000E+01 0. -1.
         -5    1    3    3    0  502  0.85632771842E+01 -0.13793633731E+02  0.64204684176E+02  0.66357425491E+02  0.41800000000E+01 0. -1.
        -11    1    1    2    0    0 -0.76582637718E+00 -0.30023788063E+02 -0.21157727231E+02  0.36737770227E+02  0.00000000000E+00 0.  1.
         11    1    1    2    0    0 -0.31725769039E+02  0.54963604157E+02 -0.13342960065E+02  0.64850264351E+02  0.00000000000E+00 0. -1.
</event>
<event>
 7    1  0.4966153E-006  0.1102734E+03  0.7561462E-02  0.1260064E+00
         -2   -1    0    0    0  501 -0.00000000000E+00  0.00000000000E+00  0.11394634802E+04  0.11394634802E+04  0.00000000000E+00 0.  1.
          2   -1    0    0  501    0  0.00000000000E+00 -0.00000000000E+00 -0.13711950882E+02  0.13711950882E+02  0.00000000000E+00 0. -1.
         23    2    1    2    0    0  0.33161953530E+02  0.25916168674E+02  0.87249710813E+03  0.88242285258E+03  0.12509006396E+03 0.  0.
          5    1    3    3  502    0  0.62710618881E+02  0.59852072395E+02  0.57290341643E+03  0.57943997899E+03  0.41800000000E+01 0.  1.
         -5    1    3    3    0  502 -0.29548665351E+02 -0.33935903722E+02  0.29959369169E+03  0.30298287359E+03  0.41800000000E+01 0.  1.
        -11    1    1    2    0    0 -0.58669208481E+02 -0.13521608022E+02  0.21411569028E+03  0.22241951068E+03  0.00000000000E+00 0.  1.
         11    1    1    2    0    0  0.25507254950E+02 -0.12394560651E+02  0.39138730961E+02  0.48333067874E+02  0.00000000000E+00 0. -1.
</event>
<event>
 7    1  0.4966153E-006  0.9857717E+02  0.7561462E-02  0.1283317E+00
          2   -1    0    0  501    0  0.00000000000E+00  0.00000000000E+00  0.54579457007E+03  0.54579457007E+03  0.00000000000E+00 0.  1.
         -2   -1    0    0    0  501 -0.00000000000E+00 -0.00000000000E+00 -0.23638374162E+02  0.23638374162E+02  0.00000000000E+00 0. -1.
         23    2    1    2    0    0 -0.18168986913E+02  0.17408951367E+02  0.31855335481E+03  0.34315710110E+03  0.12508945799E+03 0.  0.
          5    1    3    3  502    0  0.31210016397E+01  0.64487483131E+02  0.10442166446E+03  0.12284027247E+03  0.41800000000E+01 0. -1.
         -5    1    3    3    0  502 -0.21289988552E+02 -0.47078531764E+02  0.21413169035E+03  0.22031682863E+03  0.41800000000E+01 0. -1.
        -11    1    1    2    0    0  0.17415773561E+02 -0.47461918011E+02  0.55176827106E+02  0.74835987863E+02  0.00000000000E+00 0. -1.
         11    1    1    2    0    0  0.75321335205E+00  0.30052966643E+02  0.14842601399E+03  0.15143985527E+03  0.00000000000E+00 0.  1.
</event>
<event>
 7    1  0.4966153E-006  0.1890148E+03  0.7561462E-02  0.1159353E+00
         -2   -1    0    0    0  501 -0.00000000000E+00  0.00000000000E+00  0.26825747873E+02  0.26825747873E+02  0.00000000000E+00 0.  1.
          2   -1    0    0  501    0  0.00000000000E+00 -0.00000000000E+00 -0.16763459155E+04  0.16763459155E+04  0.00000000000E+00 0. -1.
         23    2    1    2    0    0  0.15621586360E+03 -0.56114325714E+02 -0.11636565056E+04  0.11820727593E+04  0.12508929462E+03 0.  0.
          5    1    3    3  502    0  0.71818138491E+02  0.36595228635E+02 -0.53111561842E+03  0.53721348485E+03  0.41800000000E+01 0. -1.
         -5    1    3    3    0  502  0.84397725106E+02 -0.92709554348E+02 -0.63254088715E+03  0.64485927441E+03  0.41800000000E+01 0. -1.
        -11    1    1    2    0    0 -0.10812176085E+03  0.16103195866E+02 -0.40121669679E+03  0.41584187604E+03  0.00000000000E+00 0. -1.
         11    1    1    2    0    0 -0.48094102743E+02  0.40011129848E+02 -0.84646965273E+02  0.10525702808E+03  0.00000000000E+00 0.  1.
</event>
<event>
 7    1  0.4966153E-006  0.1147565E+03  0.7561462E-02  0.1252007E+00
          1   -1    0    0  501    0  0.00000000000E+00  0.00000000000E+00  0.22313800143E+03  0.22313800143E+03  0.00000000000E+00 0. -1.
         -1   -1    0    0    0  501 -0.00000000000E+00 -0.00000000000E+00 -0.85872658748E+02  0.85872658748E+02  0.00000000000E+00 0.  1.
         23    2    1    2    0    0 -0.93073628177E+00  0.81559215162E+02  0.48114760317E+02  0.15689720013E+03  0.12509568098E+03 0.  0.
          5    1    3    3  502    0  0.54262109142E+02  0.10867775099E+02  0.36360651158E+02  0.66347979448E+02  0.41800000000E+01 0. -1.
         -5    1    3    3    0  502 -0.55192845424E+02  0.70691440063E+02  0.11754109159E+02  0.90549220683E+02  0.41800000000E+01 0. -1.
        -11    1    1    2    0    0 -0.84736124135E+01 -0.17029814236E+02  0.84635045036E+02  0.86746224866E+02  0.00000000000E+00 0. -1.
         11    1    1    2    0    0  0.94043486953E+01 -0.64529400926E+02  0.45155373309E+01  0.65367235184E+02  0.00000000000E+00 0.  1.
</event>
<event>
 7    1  0.5439896E-006  0.1625531E+03  0.7561462E-02  0.1185844E+00
          2   -1    0    0  501    0  0.00000000000E+00  0.00000000000E+00  0.33144976387E+03  0.33144976387E+03  0.00000000000E+00 0. -1.
         -2   -1    0    0    0  501 -0.00000000000E+00 -0.00000000000E+00 -0.89841717631E+02  0.89841717631E+02  0.00000000000E+00 0.  1.
         23    2    1    2    0    0  0.70352526822E+02  0.11239932677E+03  0.15473788552E+03  0.23911168694E+03  0.12508996335E+03 0.  0.
          5    1    3    3  502    0 -0.28615670379E+02  0.73386007395E+01  0.35476991682E+01  0.30046134883E+02  0.41800000000E+01 0.  1.
         -5    1    3    3    0  502  0.98968197201E+02  0.10506072603E+03  0.15119018635E+03  0.20906555206E+03  0.41800000000E+01 0.  1.
        -11    1    1    2    0    0 -0.62887033718E+02 -0.32800619621E+02  0.10652784230E+02  0.71722670539E+02  0.00000000000E+00 0.  1.
         11    1    1    2    0    0 -0.74654931041E+01 -0.79598707149E+02  0.76217376497E+02  0.11045712402E+03  0.00000000000E+00 0. -1.
</event>
<event>
 6    1  0.4966153E-006  0.1036158E+03  0.7561462E-02  0.1272871E+00
         -1   -1    0    0    0  501 -0.00000000000E+00  0.00000000000E+00  0.29735775961E+02  0.29735775961E+02  0.00000000000E+00 0.  1.
          1   -1    0    0  501    0  0.00000000000E+00 -0.00000000000E+00 -0.54923473470E+03  0.54923473470E+03  0.00000000000E+00 0. -1.
          5    1    1    2  502    0  0.59556147191E+02 -0.14918049154E+02 -0.20841514651E+03  0.21731044281E+03  0.41800000000E+01 0. -1.
         -5    1    1    2    0  502 -0.38595594001E+02 -0.35679767695E+02 -0.26927891069E+02  0.59205146875E+02  0.41800000000E+01 0.  1.
        -11    1    1    2    0    0 -0.20079156399E+02  0.70367946313E+02 -0.26498013188E+03  0.27489869166E+03  0.00000000000E+00 0. -1.
         11    1    1    2    0    0 -0.88139679119E+00 -0.19770129463E+02 -0.19175789283E+02  0.27556229312E+02  0.00000000000E+00 0.  1.
</event>
<event>
 7    1  0.4966153E-006  0.8325341E+02  0.7561462E-02  0.1320064E+00
         -1   -1    0    0    0  501 -0.00000000000E+00  0.00000000000E+00  0.78242658204E+02  0.78242658204E+02  0.00000000000E+00 0.  1.
          1   -1    0    0  501    0  0.00000000000E+00 -0.00000000000E+00 -0.15339432983E+03  0.15339432983E+03  0.00000000000E+00 0. -1.
         23    2    1    2    0    0  0.12988697674E+02  0.88012195733E+01 -0.34633114628E+02  0.13074356099E+03  0.12509299892E+03 0.  0.
          5    1    3    3  502    0 -0.28151432036E+02  0.18599225219E+02 -0.68453426289E+02  0.76431526709E+02  0.41800000000E+01 0. -1.
         -5    1    3    3    0  502  0.41140129710E+02 -0.97980056455E+01  0.33820311661E+02  0.54312034283E+02  0.41800000000E+01 0. -1.
        -11    1    1    2    0    0  0.34988498610E+02 -0.20602975507E+02 -0.70348281759E+01  0.41208815103E+02  0.00000000000E+00 0.  1.
         11    1    1    2    0    0 -0.47977196284E+02  0.11801755934E+02 -0.33483728822E+02  0.59684611938E+02  0.00000000000E+00 0. -1.
</event>
<event>
 7    1  0.4966153E-006  0.3854787E+03  0.7561462E-02  0.1048927E+00
          1   -1    0    0  501    0  0.00000000000E+00  0.00000000000E+00  0.22753856501E+03  0.22753856501E+03  0.00000000000E+00 0. -1.
         -1   -1    0    0    0  501 -0.00000000000E+00 -0.00000000000E+00 -0.69067101512E+03  0.69067101512E+03  0.00000000000E+00 0.  1.
         23    2    1    2    0    0 -0.27806788505E+03  0.25522366447E+03 -0.29252264713E+03  0.49363702658E+03  0.12508855792E+03 0.  0.
          5    1    3    3  502    0 -0.10876655511E+03  0.14794478694E+03 -0.76617220971E+02  0.19901129225E+03  0.41800000000E+01 0.  1.
         -5    1    3    3    0  502 -0.16930132994E+03  0.10727887753E+03 -0.21590542616E+03  0.29462573433E+03  0.41800000000E+01 0.  1.
        -11    1    1    2    0    0  0.12305394878E+03 -0.58211842407E+02 -0.80704489376E+02  0.15825330174E+03  0.00000000000E+00 0.  1.
         11    1    1    2    0    0  0.15501393627E+03 -0.19701182206E+03 -0.89905313597E+02  0.26631925181E+03  0.00000000000E+00 0. -1.
</event>
<event>
 7    1  0.4966153E-006  0.6705884E+02  0.7561462E-02  0.1370390E+00
         -3   -1    0    0    0  501 -0.00000000000E+00  0.00000000000E+00  0.52607468479E+03  0.52607468479E+03  0.00000000000E+00 0.  1.
          3   -1    0    0  501    0  0.00000000000E+00 -0.00000000000E+00 -0.65094733184E+02  0.65094733184E+02  0.00000000000E+00 0. -1.
         23    2    1    2    0    0 -0.13156113426E+02 -0.25404658512E+02  0.48754599985E+03  0.50261403572E+03  0.11874883973E+03 0.  0.
          5    1    3    3  502    0 -0.25708315088E+02  0.16507054742E+02  0.30201206123E+02  0.43162316576E+02  0.41800000000E+01 0. -1.
         -5    1    3    3    0  502  0.12552201662E+02 -0.41911713255E+02  0.45734479372E+03  0.45945171914E+03  0.41800000000E+01 0.  1.
        -11    1    1    2    0    0 -0.84809778041E+01  0.34744341968E+02 -0.45818523685E+02  0.58124292649E+02  0.00000000000E+00 0. -1.
         11    1    1    2    0    0  0.21637091231E+02 -0.93396834558E+01  0.19252475441E+02  0.30431089606E+02  0.00000000000E+00 0.  1.
</event>
<event>
 7    1  0.4966153E-006  0.1781035E+03  0.7561462E-02  0.1169651E+00
         -1   -1    0    0    0  501 -0.00000000000E+00  0.00000000000E+00  0.56032253202E+02  0.56032253202E+02  0.00000000000E+00 0. -1.
          1   -1    0    0  501    0  0.00000000000E+00 -0.00000000000E+00 -0.83202295873E+03  0.83202295873E+03  0.00000000000E+00 0.  1.
         23    2    1    2    0    0 -0.14720295568E+03 -0.85100409909E+02 -0.24720782045E+03  0.32506999243E+03  0.12509198040E+03 0.  0.
          5    1    3    3  502    0 -0.15473762819E+01 -0.14876806582E+02 -0.11532440601E+03  0.11636539335E+03  0.41800000000E+01 0.  1.
         -5    1    3    3    0  502 -0.14565557940E+03 -0.70223603327E+02 -0.13188341444E+03  0.20870459908E+03  0.41800000000E+01 0.  1.
        -11    1    1    2    0    0  0.12155584966E+03  0.41697624167E+02 -0.26606971767E+03  0.29547861362E+03  0.00000000000E+00 0. -1.
         11    1    1    2    0    0  0.25647106024E+02  0.43402785742E+02 -0.26271316741E+03  0.26750660587E+03  0.00000000000E+00 0.  1.
</event>
<event>
 7    1  0.4966153E-006  0.2074464E+03  0.7561462E-02  0.1143604E+00
          3   -1    0    0  501    0  0.00000000000E+00  0.00000000000E+00  0.27755758450E+02  0.27755758450E+02  0.00000000000E+00 0. -1.
         -3   -1    0    0    0  501 -0.00000000000E+00 -0.00000000000E+00 -0.20989053976E+04  0.20989053976E+04  0.00000000000E+00 0.  1.
         23    2    1    2    0    0 -0.10645241703E+03  0.16292963320E+03 -0.14640663508E+04  0.14822334271E+04  0.12508984864E+03 0.  0.
          5    1    3    3  502    0 -0.93932313155E+02  0.53841856694E+02 -0.48140948933E+03  0.49345191640E+03  0.41800000000E+01 0. -1.
         -5    1    3    3    0  502 -0.12520103871E+02  0.10908777651E+03 -0.98265686149E+03  0.98878151066E+03  0.41800000000E+01 0. -1.
        -11    1    1    2    0    0  0.22247633816E+02 -0.58001118708E+02 -0.84955052193E+02  0.10524470474E+03  0.00000000000E+00 0. -1.
         11    1    1    2    0    0  0.84204783211E+02 -0.10492851450E+03 -0.52212823614E+03  0.53918302425E+03  0.00000000000E+00 0.  1.
</event>
<event>
 7    1  0.4966153E-006  0.1873874E+03  0.7561462E-02  0.1160839E+00
          1   -1    0    0  501    0  0.00000000000E+00  0.00000000000E+00  0.24400319923E+03  0.24400319923E+03  0.00000000000E+00 0. -1.
         -1   -1    0    0    0  501 -0.00000000000E+00 -0.00000000000E+00 -0.22874373645E+03  0.22874373645E+03  0.00000000000E+00 0.  1.
         23    2    1    2    0    0 -0.55472647332E+02 -0.17260498995E+03 -0.10674158186E+03  0.24476600999E+03  0.12508771799E+03 0.  0.
          5    1    3    3  502    0 -0.36076004871E+02 -0.15494453055E+03 -0.13300936254E+03  0.20740841014E+03  0.41800000000E+01 0.  1.
         -5    1    3    3    0  502 -0.19396642461E+02 -0.17660459405E+02  0.26267780678E+02  0.37357599855E+02  0.41800000000E+01 0.  1.
        -11    1    1    2    0    0 -0.47410262535E+01  0.69548455389E+02  0.24594432260E+02  0.73921249145E+02  0.00000000000E+00 0. -1.
         11    1    1    2    0    0  0.60213673585E+02  0.10305653456E+03  0.97406612379E+02  0.15405967655E+03  0.00000000000E+00 0.  1.
</event>
<event>
 7    1  0.4966153E-006  0.9128386E+02  0.7561462E-02  0.1299772E+00
          2   -1    0    0  501    0  0.00000000000E+00  0.00000000000E+00  0.68827309494E+02  0.68827309494E+02  0.00000000000E+00 0. -1.
         -2   -1    0    0    0  501 -0.00000000000E+00 -0.00000000000E+00 -0.18762192047E+03  0.18762192047E+03  0.00000000000E+00 0.  1.
         23    2    1    2    0    0 -0.16447870086E+02 -0.27968541493E+02 -0.64884038766E+02  0.14460380317E+03  0.12509016613E+03 0.  0.
          5    1    3    3  502    0 -0.41602117062E+02 -0.43153258888E+02  0.12807709550E+02  0.61436550364E+02  0.41800000000E+01 0.  1.
         -5    1    3    3    0  502  0.25154246976E+02  0.15184717395E+02 -0.77691748316E+02  0.83167252809E+02  0.41800000000E+01 0.  1.
        -11    1    1    2    0    0  0.39605887923E+02 -0.16311153630E+02 -0.71823635490E+01  0.43431168958E+02  0.00000000000E+00 0. -1.
         11    1    1    2    0    0 -0.23158017837E+02  0.44279695123E+02 -0.46728208661E+02  0.68414257834E+02  0.00000000000E+00 0.  1.
</event>
<event>
 7    1  0.4966153E-006  0.1184703E+03  0.7561462E-02  0.1245642E+00
         -2   -1    0    0    0  501 -0.00000000000E+00  0.00000000000E+00  0.76892131694E+02  0.76892131694E+02  0.00000000000E+00 0.  1.
          2   -1    0    0  501    0  0.00000000000E+00 -0.00000000000E+00 -0.31722983529E+03  0.31722983529E+03  0.00000000000E+00 0. -1.
         23    2    1    2    0    0 -0.87634151969E+02  0.11638570820E+02 -0.25875654556E+02  0.14509961925E+03  0.11211221649E+03 0.  0.
          5    1    3    3  502    0 -0.34906622863E+02 -0.29592238523E+02 -0.55268616273E+02  0.71876736467E+02  0.41800000000E+01 0. -1.
         -5    1    3    3    0  502 -0.52727529106E+02  0.41230809343E+02  0.29392961717E+02  0.73222882784E+02  0.41800000000E+01 0.  1.
        -11    1    1    2    0    0  0.27681461992E+02 -0.46834238246E+02 -0.11980498856E+03  0.13157866276E+03  0.00000000000E+00 0. -1.
         11    1    1    2    0    0  0.59952689976E+02  0.35195667426E+02 -0.94657060487E+02  0.11744368498E+03  0.00000000000E+00 0.  1.
</event>
<event>
 7    1  0.4966153E-006  0.1284901E+03  0.7561462E-02  0.1229713E+00
          4   -1    0    0  501    0  0.00000000000E+00  0.00000000000E+00  0.11412400662E+03  0.11412400662E+03  0.00000000000E+00 0. -1.
         -4   -1    0    0    0  501 -0.00000000000E+00 -0.00000000000E+00 -0.27984188252E+03  0.27984188252E+03  0.00000000000E+00 0.  1.
         23    2    1    2    0    0 -0.67571064343E+01  0.98773038669E+02 -0.19930573955E+03  0.25529402854E+03  0.12510192458E+03 0.  0.
          5    1    3    3  502    0 -0.47927482314E+02  0.20236521072E+02 -0.21281753589E+02  0.56364401725E+02  0.41800000000E+01 0. -1.
         -5    1    3    3    0  502  0.41170375879E+02  0.78536517597E+02 -0.17802398596E+03  0.19892962681E+03  0.41800000000E+01 0. -1.
        -11    1    1    2    0    0  0.13562184049E+02  0.31032881048E+01  0.33818240404E+02  0.36568246024E+02  0.00000000000E+00 0. -1.
         11    1    1    2    0    0 -0.68050776150E+01 -0.10187632677E+03 -0.23037675639E+00  0.10210361459E+03  0.00000000000E+00 0.  1.
</event>
<event>
 7    1  0.4966153E-006  0.1649560E+03  0.7561462E-02  0.1183212E+00
          1   -1    0    0  501    0  0.00000000000E+00  0.00000000000E+00  0.45624928009E+02  0.45624928009E+02  0.00000000000E+00 0. -1.
         -1   -1    0    0    0  501 -0.00000000000E+00 -0.00000000000E+00 -0.70904326195E+03  0.70904326195E+03  0.00000000000E+00 0.  1.
         23    2    1    2    0    0 -0.79293435969E+02  0.11853314890E+03 -0.38205349838E+03  0.42655553406E+03  0.12508873507E+03 0.  0.
          5    1    3    3  502    0 -0.75487937030E+02  0.12385137881E+02 -0.21804252875E+03  0.23111001065E+03  0.41800000000E+01 0. -1.
         -5    1    3    3    0  502 -0.38054989392E+01  0.10614801102E+03 -0.16401096963E+03  0.19544552342E+03  0.41800000000E+01 0. -1.
        -11    1    1    2    0    0  0.35291094312E+02 -0.83851156237E+02 -0.24493141572E+03  0.26128122042E+03  0.00000000000E+00 0.  1.
         11    1    1    2    0    0  0.44002341657E+02 -0.34681992660E+02 -0.36433419845E+02  0.66831435476E+02  0.00000000000E+00 0. -1.
</event>
<event>
 7    1  0.4966153E-006  0.1211937E+03  0.7561462E-02  0.1241141E+00
          2   -1    0    0  501    0  0.00000000000E+00  0.00000000000E+00  0.19510924106E+03  0.19510924106E+03  0.00000000000E+00 0. -1.
         -2   -1    0    0    0  501 -0.00000000000E+00 -0.00000000000E+00 -0.11078591935E+03  0.11078591935E+03  0.00000000000E+00 0.  1.
         23    2    1    2    0    0 -0.55501159452E+02  0.81430656601E+02  0.43142058474E+02  0.16498424479E+03  0.12508890153E+03 0.  0.
          5    1    3    3  502    0 -0.48177472282E+02  0.86039390960E+02 -0.20345673314E+02  0.10077333206E+03  0.41800000000E+01 0.  1.
         -5    1    3    3    0  502 -0.73236871697E+01 -0.46087343589E+01  0.63487731788E+02  0.64210912731E+02  0.41800000000E+01 0.  1.
        -11    1    1    2    0    0  0.52816689925E+02 -0.10118676166E+03  0.29859160756E+02  0.11798276548E+03  0.00000000000E+00 0. -1.
         11    1    1    2    0    0  0.26844695267E+01  0.19756105061E+02  0.11322102478E+02  0.22928150129E+02  0.00000000000E+00 0.  1.
</event>
<event>
 7    1  0.4966153E-006  0.9461106E+02  0.7561462E-02  0.1292054E+00
          2   -1    0    0  501    0  0.00000000000E+00  0.00000000000E+00  0.10175742594E+03  0.10175742594E+03  0.00000000000E+00 0. -1.
         -2   -1    0    0    0  501 -0.00000000000E+00 -0.00000000000E+00 -0.11977203735E+03  0.11977203735E+03  0.00000000000E+00 0.  1.
         23    2    1    2    0    0  0.14628892208E+02 -0.31596058405E+02 -0.18163555274E+02  0.12439146449E+03  0.11802968399E+03 0.  0.
          5    1    3    3  502    0  0.56290223244E+02 -0.50940755939E+02 -0.39820894151E+01  0.76137239801E+02  0.41800000000E+01 0. -1.
         -5    1    3    3    0  502 -0.41661331035E+02  0.19344697533E+02 -0.14181465859E+02  0.48254224687E+02  0.41800000000E+01 0.  1.
        -11    1    1    2    0    0  0.18763875014E+02  0.27685259170E+02  0.35209615134E+02  0.48562059046E+02  0.00000000000E+00 0. -1.
         11    1    1    2    0    0 -0.33392767223E+02  0.39107992353E+01 -0.35060671264E+02  0.48575939754E+02  0.00000000000E+00 0.  1.
</event>
<event>
 7    1  0.4966153E-006  0.1384031E+03  0.7561462E-02  0.1215494E+00
          2   -1    0    0  501    0  0.00000000000E+00  0.00000000000E+00  0.41515119780E+03  0.41515119780E+03  0.00000000000E+00 0. -1.
         -2   -1    0    0    0  501 -0.00000000000E+00 -0.00000000000E+00 -0.57880189294E+02  0.57880189294E+02  0.00000000000E+00 0.  1.
         23    2    1    2    0    0  0.27157517630E+02  0.10325438744E+03  0.15694346418E+03  0.22732736049E+03  0.12508988205E+03 0.  0.
          5    1    3    3  502    0 -0.20847231333E+02  0.79110122157E+02  0.26353323017E+02  0.86052242946E+02  0.41800000000E+01 0. -1.
         -5    1    3    3    0  502  0.48004748963E+02  0.24144265286E+02  0.13059014116E+03  0.14127511755E+03  0.41800000000E+01 0. -1.
        -11    1    1    2    0    0  0.12307230797E+02  0.13190809567E+02  0.15884046964E+02  0.24036812078E+02  0.00000000000E+00 0.  1.
         11    1    1    2    0    0 -0.39464748427E+02 -0.11644519701E+03  0.18444349736E+03  0.22166721452E+03  0.00000000000E+00 0. -1.
</event>
<event>
 7    1  0.4966153E-006  0.7430143E+02  0.7561462E-02  0.1346048E+00
         -3   -1    0    0    0  501 -0.00000000000E+00  0.00000000000E+00  0.32757067617E+03  0.32757067617E+03  0.00000000000E+00 0.  1.
          3   -1    0    0  501    0  0.00000000000E+00 -0.00000000000E+00 -0.53254586246E+02  0.53254586246E+02  0.00000000000E+00 0. -1.
         23    2    1    2    0    0  0.16298225953E+02 -0.18097392546E+02  0.26171155849E+03  0.28735145075E+03  0.11612393643E+03 0.  0.
          5    1    3    3  502    0 -0.19194053135E+02  0.20468192767E+02  0.21547647546E+03  0.21733601282E+03  0.41800000000E+01 0. -1.
         -5    1    3    3    0  502  0.35492279088E+02 -0.38565585313E+02  0.46235083034E+02  0.70015437930E+02  0.41800000000E+01 0.  1.
        -11    1    1    2    0    0 -0.40410806707E+02  0.15958480873E+02 -0.23964462110E+02  0.49618563610E+02  0.00000000000E+00 0.  1.
         11    1    1    2    0    0  0.24112580754E+02  0.21389116727E+01  0.36568993540E+02  0.43855248059E+02  0.00000000000E+00 0. -1.
</event>
<event>
 7    1  0.4966153E-006  0.1064930E+03  0.7561462E-02  0.1267206E+00
          2   -1    0    0  501    0  0.00000000000E+00  0.00000000000E+00  0.49714867107E+03  0.49714867107E+03  0.00000000000E+00 0. -1.
         -2   -1    0    0    0  501 -0.00000000000E+00 -0.00000000000E+00 -0.27943263718E+02  0.27943263718E+02  0.00000000000E+00 0.  1.
         23    2    1    2    0    0 -0.46299429687E+02  0.54373330831E+01  0.27082756995E+03  0.30194186879E+03  0.12509243662E+03 0.  0.
          5    1    3    3  502    0  0.28555307200E+02  0.21505160869E+02  0.17771741121E+03  0.18132520002E+03  0.41800000000E+01 0.  1.
         -5    1    3    3    0  502 -0.74854736887E+02 -0.16067827786E+02  0.93110158742E+02  0.12061666877E+03  0.41800000000E+01 0.  1.
        -11    1    1    2    0    0  0.70233284624E+02  0.11271381323E+02  0.11980396572E+03  0.13932963973E+03  0.00000000000E+00 0.  1.
         11    1    1    2    0    0 -0.23933854937E+02 -0.16708714406E+02  0.78573871681E+02  0.83820426271E+02  0.00000000000E+00 0. -1.
</event>
<event>
 6    1  0.4966153E-006  0.9905254E+02  0.7561462E-02  0.1282301E+00
          1   -1    0    0  501    0  0.00000000000E+00  0.00000000000E+00  0.46623605759E+03  0.46623605759E+03  0.00000000000E+00 0. -1.
         -1   -1    0    0    0  501 -0.00000000000E+00 -0.00000000000E+00 -0.33748656016E+02  0.33748656016E+02  0.00000000000E+00 0.  1.
          5    1    1    2  502    0  0.50843258771E+02 -0.61620024826E+00  0.19988087045E+03  0.20628924217E+03  0.41800000000E+01 0. -1.
         -5    1    1    2    0  502 -0.53121108741E+02  0.57233241874E+01  0.13457606210E+02  0.55255662140E+02  0.41800000000E+01 0.  1.
        -11    1    1    2    0    0  0.47248341362E+02 -0.98845527480E+01  0.10134869886E+03  0.11225715525E+03  0.00000000000E+00 0. -1.
         11    1    1    2    0    0 -0.44970491392E+02  0.47774288088E+01  0.11780022606E+03  0.12618265404E+03  0.00000000000E+00 0.  1.
</event>
<event>
 7    1  0.4966153E-006  0.1535951E+03  0.7561462E-02  0.1196124E+00
          1   -1    0    0  501    0  0.00000000000E+00  0.00000000000E+00  0.91375042173E+03  0.91375042173E+03  0.00000000000E+00 0. -1.
         -1   -1    0    0    0  501 -0.00000000000E+00 -0.00000000000E+00 -0.31555083671E+02  0.31555083671E+02  0.00000000000E+00 0.  1.
         23    2    1    2    0    0  0.10635446431E+03  0.54537725323E+02  0.54653296061E+03  0.57326485311E+03  0.12509468098E+03 0.  0.
          5    1    3    3  502    0  0.85991053773E+02  0.77510624366E+02  0.51914447761E+03  0.53191241690E+03  0.41800000000E+01 0. -1.
         -5    1    3    3    0  502  0.20363410539E+02 -0.22972899044E+02  0.27388483004E+02  0.41352436210E+02  0.41800000000E+01 0. -1.
        -11    1    1    2    0    0  0.11694126893E+02  0.18252790314E+02  0.49736559689E+02  0.54255343772E+02  0.00000000000E+00 0. -1.
         11    1    1    2    0    0 -0.11804859121E+03 -0.72790515636E+02  0.28592581776E+03  0.31778530852E+03  0.00000000000E+00 0.  1.
</event>
<event>
 7    1  0.4966153E-006  0.5260921E+02  0.7561462E-02  0.1431756E+00
         -2   -1    0    0    0  501 -0.00000000000E+00  0.00000000000E+00  0.57547955968E+03  0.57547955968E+03  0.00000000000E+00 0.  1.
          2   -1    0    0  501    0  0.00000000000E+00 -0.00000000000E+00 -0.31828941091E+02  0.31828941091E+02  0.00000000000E+00 0. -1.
         23    2    1    2    0    0 -0.91539357800E+00  0.14757844624E+02  0.47356255421E+03  0.49002893792E+03  0.12509290680E+03 0.  0.
          5    1    3    3  502    0 -0.59022865376E+01  0.24088645897E+02  0.47737070023E+03  0.47803279980E+03  0.41800000000E+01 0.  1.
         -5    1    3    3    0  502  0.49868929596E+01 -0.93308012725E+01 -0.38081460209E+01  0.11996138124E+02  0.41800000000E+01 0.  1.
        -11    1    1    2    0    0  0.14026119243E+02  0.23988089952E+02  0.71126989977E+02  0.76362354493E+02  0.00000000000E+00 0.  1.
         11    1    1    2    0    0 -0.13110725665E+02 -0.38745934576E+02 -0.10389255902E+01  0.40917208360E+02  0.00000000000E+00 0. -1.
</event>
<event>
 7    1  0.4966153E-006  0.1352556E+03  0.7561462E-02  0.1219859E+00
         -1   -1    0    0    0  501 -0.00000000000E+00  0.00000000000E+00  0.12025111089E+03  0.12025111089E+03  0.00000000000E+00 0.  1.
          1   -1    0    0  501    0  0.00000000000E+00 -0.00000000000E+00 -0.20059274500E+03  0.20059274500E+03  0.00000000000E+00 0. -1.
         23    2    1    2    0    0  0.10684719840E+03  0.70483880510E+01 -0.16390085527E+02  0.16547186025E+03  0.12508516320E+03 0.  0.
          5    1    3    3  502    0 -0.14145119349E+01  0.47154814918E+02  0.61737007776E+01  0.47761536776E+02  0.41800000000E+01 0.  1.
         -5    1    3    3    0  502  0.10826171034E+03 -0.40106426867E+02 -0.22563786305E+02  0.11771032348E+03  0.41800000000E+01 0.  1.
        -11    1    1    2    0    0 -0.66419963424E+02 -0.96246772613E+01  0.13044624380E+02  0.68369643694E+02  0.00000000000E+00 0.  1.
         11    1    1    2    0    0 -0.40427234977E+02  0.25762892103E+01 -0.76996172958E+02  0.87002351946E+02  0.00000000000E+00 0. -1.
</event>
<event>
 7    1  0.4966153E-006  0.8807632E+02  0.7561462E-02  0.1307578E+00
          1   -1    0    0  501    0  0.00000000000E+00  0.00000000000E+00  0.25308471679E+03  0.25308471679E+03  0.00000000000E+00 0. -1.
         -1   -1    0    0    0  501 -0.00000000000E+00 -0.00000000000E+00 -0.93163798313E+02  0.93163798313E+02  0.00000000000E+00 0.  1.
         23    2    1    2    0    0  0.18182032001E+02 -0.55348927217E+02 -0.16953198883E+02  0.13903041959E+03  0.12509179265E+03 0.  0.
          5    1    3    3  502    0 -0.15663811369E+02 -0.10041892761E+02  0.48686241251E+02  0.52287829215E+02  0.41800000000E+01 0. -1.
         -5    1    3    3    0  502  0.33845843370E+02 -0.45307034455E+02 -0.65639440134E+02  0.86742590379E+02  0.41800000000E+01 0. -1.
        -11    1    1    2    0    0  0.29672903082E+02  0.40622002497E+02  0.50471829199E+02  0.71260324213E+02  0.00000000000E+00 0.  1.
         11    1    1    2    0    0 -0.47854935083E+02  0.14726924720E+02  0.12640228816E+03  0.13595777130E+03  0.00000000000E+00 0. -1.
</event>
<event>
 7    1  0.4966153E-006  0.1042645E+03  0.7561462E-02  0.1271576E+00
         -1   -1    0    0    0  501 -0.00000000000E+00  0.00000000000E+00  0.41315677969E+03  0.41315677969E+03  0.00000000000E+00 0.  1.
          1   -1    0    0  501    0  0.00000000000E+00 -0.00000000000E+00 -0.46969273898E+02  0.46969273898E+02  0.00000000000E+00 0. -1.
         23    2    1    2    0    0 -0.39133835382E+02  0.50627662270E+02  0.31268972795E+03  0.33763479733E+03  0.11012616921E+03 0.  0.
          5    1    3    3  502    0  0.27281046031E+02 -0.93480807482E+01  0.33377768901E+02  0.44307899330E+02  0.41800000000E+01 0. -1.
         -5    1    3    3    0  502 -0.66414881413E+02  0.59975743019E+02  0.27931195905E+03  0.29332689800E+03  0.41800000000E+01 0.  1.
        -11    1    1    2    0    0  0.17968211087E+02 -0.62846645487E+02  0.67797538550E+02  0.94175706486E+02  0.00000000000E+00 0. -1.
         11    1    1    2    0    0  0.21165624295E+02  0.12218983217E+02 -0.14299760706E+02  0.28315549772E+02  0.00000000000E+00 0.  1.
</event>
<event>
 7    1  0.4966153E-006  0.1836361E+03  0.7561462E-02  0.1164330E+00
         -2   -1    0    0    0  501 -0.00000000000E+00  0.00000000000E+00  0.19201716291E+03  0.19201716291E+03  0.00000000000E+00 0.  1.
          2   -1    0    0  501    0  0.00000000000E+00 -0.00000000000E+00 -0.20289667458E+03  0.20289667458E+03  0.00000000000E+00 0. -1.
         23    2    1    2    0    0 -0.70168053177E+02  0.13733242917E+03  0.51845837996E+02  0.20522665175E+03  0.12508491468E+03 0.  0.
          5    1    3    3  502    0 -0.10255586555E+03  0.12240631916E+03  0.28149380845E+02  0.16220626551E+03  0.41800000000E+01 0. -1.
         -5    1    3    3    0  502  0.32387812374E+02  0.14926110012E+02  0.23696457150E+02  0.43020386237E+02  0.41800000000E+01 0. -1.
        -11    1    1    2    0    0  0.67829606462E+02 -0.50022214198E+02 -0.38744589560E+01  0.84368767078E+02  0.00000000000E+00 0. -1.
         11    1    1    2    0    0  0.23384467147E+01 -0.87310214976E+02 -0.58850890712E+02  0.10531841866E+03  0.00000000000E+00 0.  1.
</event>
<event>
 7    1  0.4966153E-006  0.1523493E+03  0.7561462E-02  0.1197616E+00
         -3   -1    0    0    0  501 -0.00000000000E+00  0.00000000000E+00  0.54427840079E+02  0.54427840079E+02  0.00000000000E+00 0.  1.
          3   -1    0    0  501    0  0.00000000000E+00 -0.00000000000E+00 -0.49459537105E+03  0.49459537105E+03  0.00000000000E+00 0. -1.
         23    2    1    2    0    0  0.97094752524E+02 -0.58320629292E+02 -0.15557833291E+03  0.22952379066E+03  0.12509143072E+03 0.  0.
          5    1    3    3  502    0  0.12446377289E+03 -0.61715636493E+02 -0.11561306627E+03  0.18078690230E+03  0.41800000000E+01 0.  1.
         -5    1    3    3    0  502 -0.27369020366E+02  0.33950072010E+01 -0.39965266637E+02  0.48736888361E+02  0.41800000000E+01 0.  1.
        -11    1    1    2    0    0 -0.25284726432E+02 -0.19497331591E+02 -0.30185201135E+02  0.43938703867E+02  0.00000000000E+00 0.  1.
         11    1    1    2    0    0 -0.71810026093E+02  0.77817960883E+02 -0.25440399693E+03  0.27556071660E+03  0.00000000000E+00 0. -1.
</event>
<event>
 7    1  0.4966153E-006  0.8787860E+02  0.7561462E-02  0.1308072E+00
          1   -1    0    0  501    0  0.00000000000E+00  0.00000000000E+00  0.32900981621E+03  0.32900981621E+03  0.00000000000E+00 0. -1.
         -1   -1    0    0    0  501 -0.00000000000E+00 -0.00000000000E+00 -0.56235133535E+02  0.56235133535E+02  0.00000000000E+00 0.  1.
         23    2    1    2    0    0  0.28256246486E+01 -0.38389039180E+02  0.45318577972E+02  0.13850461496E+03  0.12509217550E+03 0.  0.
          5    1    3    3  502    0 -0.38397268273E+02 -0.29486318187E+02  0.73138431054E+02  0.87809428128E+02  0.41800000000E+01 0.  1.
         -5    1    3    3    0  502  0.41222892922E+02 -0.89027209925E+01 -0.27819853082E+02  0.50695186827E+02  0.41800000000E+01 0.  1.
        -11    1    1    2    0    0  0.36227688063E+02  0.14619880586E+02  0.16363555984E+03  0.16823430903E+03  0.00000000000E+00 0. -1.
         11    1    1    2    0    0 -0.39053312711E+02  0.23769158593E+02  0.63820544856E+02  0.78506025754E+02  0.00000000000E+00 0.  1.
</event>
<event>
 6    1  0.4966153E-006  0.1018853E+03  0.7561462E-02  0.1276381E+00
          1   -1    0    0  501    0  0.00000000000E+00  0.00000000000E+00  0.15615652276E+03  0.15615652276E+03  0.00000000000E+00 0. -1.
         -1   -1    0    0    0  501 -0.00000000000E+00 -0.00000000000E+00 -0.20569845388E+03  0.20569845388E+03  0.00000000000E+00 0.  1.
          5    1    1    2  502    0 -0.32498253201E+02 -0.59295781256E+01  0.17418086685E+01  0.33343704882E+02  0.41800000000E+01 0. -1.
         -5    1    1    2    0  502  0.58957141542E+02  0.39184281226E+02 -0.16360743482E+03  0.17831493926E+03  0.41800000000E+01 0.  1.
        -11    1    1    2    0    0  0.27214864637E+02 -0.36797169572E+02  0.55795173769E+02  0.72164963532E+02  0.00000000000E+00 0.  1.
         11    1    1    2    0    0 -0.53673752979E+02  0.35424664710E+01  0.56528521259E+02  0.78031368969E+02  0.00000000000E+00 0. -1.
</event>
<event>
 7    1  0.4966153E-006  0.1555089E+03  0.7561462E-02  0.1193863E+00
         -1   -1    0    0    0  501 -0.00000000000E+00  0.00000000000E+00  0.11426661293E+03  0.11426661293E+03  0.00000000000E+00 0.  1.
          1   -1    0    0  501    0  0.00000000000E+00 -0.00000000000E+00 -0.28077485063E+03  0.28077485063E+03  0.00000000000E+00 0. -1.
         23    2    1    2    0    0 -0.11946526801E+03  0.64166496585E+01  0.56804724572E+00  0.17309058778E+03  0.12508759029E+03 0.  0.
          5    1    3    3  502    0 -0.13697399652E+03  0.24713865286E+02 -0.19369981547E+02  0.14058918680E+03  0.41800000000E+01 0. -1.
         -5    1    3    3    0  502  0.17508728504E+02 -0.18297215627E+02  0.19938028792E+02  0.32501400980E+02  0.41800000000E+01 0. -1.
        -11    1    1    2    0    0  0.95920902871E+02 -0.40958015809E+02 -0.12022627615E+03  0.15916260913E+03  0.00000000000E+00 0. -1.
         11    1    1    2    0    0  0.23544365143E+02  0.34541366151E+02 -0.46850008793E+02  0.62788266654E+02  0.00000000000E+00 0.  1.
</event>
<event>
 7    1  0.4966153E-006  0.7089241E+02  0.7561462E-02  0.1357084E+00
          2   -1    0    0  501    0  0.00000000000E+00  0.00000000000E+00  0.34697511830E+03  0.34697511830E+03  0.00000000000E+00 0. -1.
         -2   -1    0    0    0  501 -0.00000000000E+00 -0.00000000000E+00 -0.33841710294E+02  0.33841710294E+02  0.00000000000E+00 0.  1.
         23    2    1    2    0    0 -0.15695323399E+02  0.48762316708E+01  0.16194400941E+03  0.20427807361E+03  0.12342426164E+03 0.  0.
          5    1    3    3  502    0  0.24372604150E+02  0.14731940725E+01  0.16196573634E+03  0.16384921813E+03  0.41800000000E+01 0. -1.
         -5    1    3    3    0  502 -0.40067927549E+02  0.34030375983E+01 -0.21726932905E-01  0.40428855475E+02  0.41800000000E+01 0.  1.
        -11    1    1    2    0    0  0.39270591388E+02  0.18476674609E+02  0.35152872093E+02  0.55850615654E+02  0.00000000000E+00 0.  1.
         11    1    1    2    0    0 -0.23575267989E+02 -0.23352906280E+02  0.11603652651E+03  0.12068813933E+03  0.00000000000E+00 0. -1.
</event>
<event>
 7    1  0.4966153E-006  0.8578529E+02  0.7561462E-02  0.1313392E+00
          1   -1    0    0  501    0  0.00000000000E+00  0.00000000000E+00  0.20566690821E+03  0.20566690821E+03  0.00000000000E+00 0.  1.
         -1   -1    0    0    0  501 -0.00000000000E+00 -0.00000000000E+00 -0.60724373345E+02  0.60724373345E+02  0.00000000000E+00 0. -1.
         23    2    1    2    0    0  0.38472304593E+01 -0.11486998969E+02  0.61188009161E+02  0.13977870200E+03  0.12508941098E+03 0.  0.
          5    1    3    3  502    0 -0.95111867571E+01 -0.42041893965E+02 -0.23067933410E+02  0.49067152694E+02  0.41800000000E+01 0.  1.
         -5    1    3    3    0  502  0.13358417216E+02  0.30554894995E+02  0.84255942571E+02  0.90711549304E+02  0.41800000000E+01 0.  1.
        -11    1    1    2    0    0  0.42889194108E+02  0.19710082188E+02  0.36766888736E+02  0.59831216087E+02  0.00000000000E+00 0.  1.
         11    1    1    2    0    0 -0.46736424568E+02 -0.82230832192E+01  0.46987636967E+02  0.66781363469E+02  0.00000000000E+00 0. -1.
</event>
<event>
 7    1  0.4966153E-006  0.1405406E+03  0.7561462E-02  0.1212603E+00
         -1   -1    0    0    0  501 -0.00000000000E+00  0.00000000000E+00  0.14166104904E+03  0.14166104904E+03  0.00000000000E+00 0.  1.
          1   -1    0    0  501    0  0.00000000000E+00 -0.00000000000E+00 -0.18782443356E+03  0.18782443356E+03  0.00000000000E+00 0. -1.
         23    2    1    2    0    0  0.35749967966E+02  0.81911056315E+02  0.58485734417E+02  0.16389398874E+03  0.12431080829E+03 0.  0.
          5    1    3    3  502    0 -0.33031974086E+02 -0.12800824624E+02  0.93386616456E+01  0.36873505724E+02  0.41800000000E+01 0. -1.
         -5    1    3    3    0  502  0.68781942051E+02  0.94711880939E+02  0.49147072772E+02  0.12702048302E+03  0.41800000000E+01 0.  1.
        -11    1    1    2    0    0  0.57643273561E+01  0.18633473457E+02 -0.14289794450E+02  0.24179165171E+02  0.00000000000E+00 0.  1.
         11    1    1    2    0    0 -0.41514295322E+02 -0.10054452977E+03 -0.90359324483E+02  0.14141232869E+03  0.00000000000E+00 0. -1.
</event>
<event>
 7    1  0.4966153E-006  0.9743038E+02  0.7561462E-02  0.1285794E+00
          1   -1    0    0  501    0  0.00000000000E+00  0.00000000000E+00  0.20178889207E+03  0.20178889207E+03  0.00000000000E+00 0. -1.
         -1   -1    0    0    0  501 -0.00000000000E+00 -0.00000000000E+00 -0.10521725894E+03  0.10521725894E+03  0.00000000000E+00 0.  1.
         23    2    1    2    0    0 -0.57525825626E+02  0.30854636829E+02 -0.41660735404E+02  0.14712053637E+03  0.12509039180E+03 0.  0.
          5    1    3    3  502    0  0.15513423779E+02  0.37765445885E+02  0.24873741128E+02  0.47990317960E+02  0.41800000000E+01 0. -1.
         -5    1    3    3    0  502 -0.73039249405E+02 -0.69108090566E+01 -0.66534476532E+02  0.99130218414E+02  0.41800000000E+01 0. -1.
        -11    1    1    2    0    0  0.15123913479E+02 -0.34607226910E+02  0.66190958609E+02  0.76207846807E+02  0.00000000000E+00 0.  1.
         11    1    1    2    0    0  0.42401912147E+02  0.37525900812E+01  0.72041409916E+02  0.83677767829E+02  0.00000000000E+00 0. -1.
</event>
<event>
 7    1  0.4966153E-006  0.9260334E+02  0.7561462E-02  0.1296667E+00
          2   -1    0    0  501    0  0.00000000000E+00  0.00000000000E+00  0.36545395669E+03  0.36545395669E+03  0.00000000000E+00 0. -1.
         -2   -1    0    0    0  501 -0.00000000000E+00 -0.00000000000E+00 -0.39163458123E+02  0.39163458123E+02  0.00000000000E+00 0.  1.
         23    2    1    2    0    0  0.41168807014E+02 -0.64923803371E+01  0.13677734515E+03  0.18998235556E+03  0.12509289190E+03 0.  0.
          5    1    3    3  502    0 -0.29063349483E+02 -0.23240460756E+02  0.10408096694E+03  0.11061246485E+03  0.41800000000E+01 0.  1.
         -5    1    3    3    0  502  0.70232156496E+02  0.16748080419E+02  0.32696378210E+02  0.79369890713E+02  0.41800000000E+01 0.  1.
        -11    1    1    2    0    0 -0.16989032840E+01  0.29634655926E+02  0.13207236837E+02  0.32488924407E+02  0.00000000000E+00 0.  1.
         11    1    1    2    0    0 -0.39469903730E+02 -0.23142275589E+02  0.17630591657E+03  0.18214613484E+03  0.00000000000E+00 0. -1.
</event>
<event>
 7    1  0.4966153E-006  0.1404412E+03  0.7561462E-02  0.1212737E+00
          1   -1    0    0  501    0  0.00000000000E+00  0.00000000000E+00  0.13921623587E+03  0.13921623587E+03  0.00000000000E+00 0. -1.
         -1   -1    0    0    0  501 -0.00000000000E+00 -0.00000000000E+00 -0.21231645870E+03  0.21231645870E+03  0.00000000000E+00 0.  1.
         23    2    1    2    0    0  0.72921169032E+01 -0.12857847032E+03 -0.68524669161E+02  0.19216475780E+03  0.12508423505E+03 0.  0.
          5    1    3    3  502    0  0.18080022251E+02  0.20215183448E+01 -0.57657298619E+02  0.60603714614E+02  0.41800000000E+01 0. -1.
         -5    1    3    3    0  502 -0.10787905348E+02 -0.13059998867E+03 -0.10867370543E+02  0.13156104318E+03  0.41800000000E+01 0. -1.
        -11    1    1    2    0    0  0.82650267424E+01  0.70332670966E+02  0.42753668984E+02  0.82721650636E+02  0.00000000000E+00 0. -1.
         11    1    1    2    0    0 -0.15557143646E+02  0.58245799354E+02 -0.47329222659E+02  0.76646286135E+02  0.00000000000E+00 0.  1.
</event>
<event>
 7    1  0.5762822E-006  0.1943909E+03  0.7561462E-02  0.1154560E+00
          1   -1    0    0  501    0  0.00000000000E+00  0.00000000000E+00  0.74620878531E+03  0.74620878531E+03  0.00000000000E+00 0. -1.
         -1   -1    0    0    0  501 -0.00000000000E+00 -0.00000000000E+00 -0.57324451835E+02  0.57324451835E+02  0.00000000000E+00 0.  1.
         23    2    1    2    0    0 -0.14868315844E+02 -0.17394950408E+03  0.31551522747E+03  0.38167599873E+03  0.12508881827E+03 0.  0.
          5    1    3    3  502    0  0.40664265102E+02 -0.32740812061E+02  0.35838993768E+02  0.63462186418E+02  0.41800000000E+01 0. -1.
         -5    1    3    3    0  502 -0.55532580946E+02 -0.14120869202E+03  0.27967623370E+03  0.31821381231E+03  0.41800000000E+01 0. -1.
        -11    1    1    2    0    0 -0.23061249450E+02  0.81144672012E+02  0.10084132331E+03  0.13147338707E+03  0.00000000000E+00 0.  1.
         11    1    1    2    0    0  0.37929565294E+02  0.92804832066E+02  0.27252778271E+03  0.29038385135E+03  0.00000000000E+00 0. -1.
</event>
<event>
 7    1  0.4966153E-006  0.1059061E+03  0.7561462E-02  0.1268345E+00
          2   -1    0    0  501    0  0.00000000000E+00  0.00000000000E+00  0.27503454731E+03  0.27503454731E+03  0.00000000000E+00 0. -1.
         -2   -1    0    0    0  501 -0.00000000000E+00 -0.00000000000E+00 -0.56260983028E+02  0.56260983028E+02  0.00000000000E+00 0.  1.
         23    2    1    2    0    0  0.18675703806E+02  0.43502701062E+01  0.46038417179E+02  0.13474899337E+03  0.12518006469E+03 0.  0.
          5    1    3    3  502    0 -0.43262820606E+02  0.35061880666E+02  0.31013100492E+02  0.63877162780E+02  0.41800000000E+01 0.  1.
         -5    1    3    3    0  502  0.61938524412E+02 -0.30711610560E+02  0.15025316687E+02  0.70871830589E+02  0.41800000000E+01 0.  1.
        -11    1    1    2    0    0  0.33334445990E+02 -0.88918788123E+01  0.34540853235E+02  0.48819272224E+02  0.00000000000E+00 0.  1.
         11    1    1    2    0    0 -0.52010149796E+02  0.45416087061E+01  0.13819429387E+03  0.14772726475E+03  0.00000000000E+00 0. -1.
</event>
<event>
 7    1  0.4966153E-006  0.6343085E+02  0.7561462E-02  0.1383973E+00
          3   -1    0    0  501    0  0.00000000000E+00  0.00000000000E+00  0.11762227251E+03  0.11762227251E+03  0.00000000000E+00 0. -1.
         -3   -1    0    0    0  501 -0.00000000000E+00 -0.00000000000E+00 -0.12824887729E+03  0.12824887729E+03  0.00000000000E+00 0.  1.
         23    2    1    2    0    0  0.17230446518E+02  0.48099529198E+02 -0.39199694563E+02  0.14068836662E+03  0.12508456120E+03 0.  0.
          5    1    3    3  502    0  0.65348171413E+01 -0.12157714438E+02  0.38837126620E+02  0.41428355743E+02  0.41800000000E+01 0.  1.
         -5    1    3    3    0  502  0.10695629377E+02  0.60257243636E+02 -0.78036821183E+02  0.99260010874E+02  0.41800000000E+01 0.  1.
        -11    1    1    2    0    0 -0.91176651516E+01 -0.24322855295E+02  0.59744908843E+02  0.65147426965E+02  0.00000000000E+00 0. -1.
         11    1    1    2    0    0 -0.81127813664E+01 -0.23776673903E+02 -0.31171819061E+02  0.40035356212E+02  0.00000000000E+00 0.  1.
</event>
<event>
 7    1  0.4966153E-006  0.8883328E+02  0.7561462E-02  0.1305702E+00
          1   -1    0    0  501    0  0.00000000000E+00  0.00000000000E+00  0.21058079402E+03  0.21058079402E+03  0.00000000000E+00 0. -1.
         -1   -1    0    0    0  501 -0.00000000000E+00 -0.00000000000E+00 -0.79850628037E+02  0.79850628037E+02  0.00000000000E+00 0.  1.
         23    2    1    2    0    0  0.33974934896E+02  0.10185636912E+02  0.31092893368E+01  0.13005749826E+03  0.12508893545E+03 0.  0.
          5    1    3    3  502    0  0.54948542973E+01  0.40585771788E+02 -0.48490551107E+02  0.63609781026E+02  0.41800000000E+01 0. -1.
         -5    1    3    3    0  502  0.28480080598E+02 -0.30400134877E+02  0.51599840444E+02  0.66447717231E+02  0.41800000000E+01 0. -1.
        -11    1    1    2    0    0 -0.50610215010E+02 -0.37265921505E+02  0.66605512912E+02  0.91577492427E+02  0.00000000000E+00 0.  1.
         11    1    1    2    0    0  0.16635280114E+02  0.27080284593E+02  0.61015363731E+02  0.68796431371E+02  0.00000000000E+00 0. -1.
</event>
<event>
 7    1  0.4966153E-006  0.2515715E+03  0.7561462E-02  0.1112316E+00
          1   -1    0    0  501    0  0.00000000000E+00  0.00000000000E+00  0.11305834902E+04  0.11305834902E+04  0.00000000000E+00 0. -1.
         -1   -1    0    0    0  501 -0.00000000000E+00 -0.00000000000E+00 -0.64333392467E+02  0.64333392467E+02  0.00000000000E+00 0.  1.
         23    2    1    2    0    0 -0.24252704552E+03  0.37689438102E+02  0.57266049455E+03  0.63547396039E+03  0.12508897141E+03 0.  0.
          5    1    3    3  502    0 -0.24795688279E+03  0.37199151394E+02  0.57571295055E+03  0.62795642080E+03  0.41800000000E+01 0.  1.
         -5    1    3    3    0  502  0.54298372777E+01  0.49028670774E+00 -0.30524560009E+01  0.75175395945E+01  0.41800000000E+01 0.  1.
        -11    1    1    2    0    0  0.20776969512E+03 -0.34334853308E+02  0.32490941332E+03  0.38718633141E+03  0.00000000000E+00 0.  1.
         11    1    1    2    0    0  0.34757350393E+02 -0.33545847939E+01  0.16868018984E+03  0.17225659085E+03  0.00000000000E+00 0. -1.
</event>
<event>
 7    1  0.4966153E-006  0.1088037E+03  0.7561462E-02  0.1262801E+00
          2   -1    0    0  501    0  0.00000000000E+00  0.00000000000E+00  0.19647778240E+03  0.19647778240E+03  0.00000000000E+00 0. -1.
         -2   -1    0    0    0  501 -0.00000000000E+00 -0.00000000000E+00 -0.76737025745E+02  0.76737025745E+02  0.00000000000E+00 0.  1.
         23    2    1    2    0    0 -0.43783083891E+02 -0.12535699782E+02  0.26503696523E+02  0.13573521918E+03  0.12508997399E+03 0.  0.
          5    1    3    3  502    0 -0.26912302996E+00  0.50373517865E+02  0.30479876718E+02  0.59025918155E+02  0.41800000000E+01 0.  1.
         -5    1    3    3    0  502 -0.43513960861E+02 -0.62909217647E+02 -0.39761801948E+01  0.76709301025E+02  0.41800000000E+01 0.  1.
        -11    1    1    2    0    0  0.63910789013E+02  0.22805286173E+02  0.37940018484E+02  0.77743906721E+02  0.00000000000E+00 0.  1.
         11    1    1    2    0    0 -0.20127705122E+02 -0.10269586391E+02  0.55297041653E+02  0.59735682249E+02  0.00000000000E+00 0. -1.
</event>
<event>
 7    1  0.4966153E-006  0.1687111E+03  0.7561462E-02  0.1179199E+00
          1   -1    0    0  501    0  0.00000000000E+00  0.00000000000E+00  0.23539229081E+03  0.23539229081E+03  0.00000000000E+00 0. -1.
         -1   -1    0    0    0  501 -0.00000000000E+00 -0.00000000000E+00 -0.17277718543E+03  0.17277718543E+03  0.00000000000E+00 0.  1.
         23    2    1    2    0    0  0.10067127782E+03 -0.92084311358E+02 -0.69707385251E+02  0.19779002659E+03  0.12509016142E+03 0.  0.
          5    1    3    3  502    0 -0.17108577463E+02 -0.59289871396E+02 -0.14227828263E+02  0.63465705464E+02  0.41800000000E+01 0. -1.
         -5    1    3    3    0  502  0.11777985528E+03 -0.32794439962E+02 -0.55479556988E+02  0.13432432113E+03  0.41800000000E+01 0. -1.
        -11    1    1    2    0    0 -0.65035258613E+02  0.12755018476E+02  0.21849504140E+02  0.69783065212E+02  0.00000000000E+00 0.  1.
         11    1    1    2    0    0 -0.35636019208E+02  0.79329292881E+02  0.11047298648E+03  0.14059638444E+03  0.00000000000E+00 0. -1.
</event>
<event>
 7    1  0.4966153E-006  0.1763874E+03  0.7561462E-02  0.1171346E+00
         -2   -1    0    0    0  501 -0.00000000000E+00  0.00000000000E+00  0.26891514162E+03  0.26891514162E+03  0.00000000000E+00 0. -1.
          2   -1    0    0  501    0  0.00000000000E+00 -0.00000000000E+00 -0.12396692423E+03  0.12396692423E+03  0.00000000000E+00 0.  1.
         23    2    1    2    0    0  0.21584198904E+02  0.14410527999E+03  0.98416301104E+02  0.21579077509E+03  0.12509069081E+03 0.  0.
          5    1    3    3  502    0 -0.22684308588E+02  0.13953237763E+03  0.96185820745E+02  0.17103522086E+03  0.41800000000E+01 0.  1.
         -5    1    3    3    0  502  0.44268507492E+02  0.45729023594E+01  0.22304803587E+01  0.44755554227E+02  0.41800000000E+01 0.  1.
        -11    1    1    2    0    0 -0.44945111014E+02 -0.40690034140E+02 -0.16163887308E+01  0.60649440186E+02  0.00000000000E+00 0.  1.
         11    1    1    2    0    0  0.23360912110E+02 -0.10341524585E+03  0.48148305014E+02  0.11644185057E+03  0.00000000000E+00 0. -1.
</event>
<event>
 7    1  0.4966153E-006  0.1026984E+03  0.7561462E-02  0.1274722E+00
          2   -1    0    0  501    0  0.00000000000E+00  0.00000000000E+00  0.12356539903E+03  0.12356539903E+03  0.00000000000E+00 0. -1.
         -2   -1    0    0    0  501 -0.00000000000E+00 -0.00000000000E+00 -0.18298902567E+03  0.18298902567E+03  0.00000000000E+00 0.  1.
         23    2    1    2    0    0 -0.42968966837E+02  0.64847064879E+02 -0.10213391927E+03  0.17924699739E+03  0.12508666865E+03 0.  0.
          5    1    3    3  502    0 -0.58354343498E+02  0.58976063324E+02 -0.78466803547E+01  0.83441286201E+02  0.41800000000E+01 0. -1.
         -5    1    3    3    0  502  0.15385376661E+02  0.58710015545E+01 -0.94287238911E+02  0.95805711185E+02  0.41800000000E+01 0. -1.
        -11    1    1    2    0    0  0.17905592250E+02  0.13918217051E+02  0.38327511024E+02  0.44534538293E+02  0.00000000000E+00 0. -1.
         11    1    1    2    0    0  0.25063374587E+02 -0.78765281929E+02  0.43827816063E+01  0.82772889026E+02  0.00000000000E+00 0.  1.
</event>
<event>
 7    1  0.4966153E-006  0.8193991E+02  0.7561462E-02  0.1323635E+00
         -2   -1    0    0    0  501 -0.00000000000E+00  0.00000000000E+00  0.10613096768E+03  0.10613096768E+03  0.00000000000E+00 0. -1.
          2   -1    0    0  501    0  0.00000000000E+00 -0.00000000000E+00 -0.11711216109E+03  0.11711216109E+03  0.00000000000E+00 0.  1.
         23    2    1    2    0    0  0.15949429466E+02  0.77042116902E+01  0.37160527051E+02  0.13167339741E+03  0.12507293727E+03 0.  0.
          5    1    3    3  502    0  0.48435041672E+02  0.41409898222E+02  0.52036065919E+02  0.82376923278E+02  0.41800000000E+01 0. -1.
         -5    1    3    3    0  502 -0.32485612206E+02 -0.33705686532E+02 -0.14875538868E+02  0.49296474129E+02  0.41800000000E+01 0. -1.
        -11    1    1    2    0    0 -0.12822490000E+02 -0.28888660182E+02 -0.59467557339E+02  0.67345091230E+02  0.00000000000E+00 0.  1.
         11    1    1    2    0    0 -0.31269394665E+01  0.21184448492E+02  0.11325836884E+02  0.24224640130E+02  0.00000000000E+00 0. -1.
</event>
<event>
 7    1  0.4966153E-006  0.1678127E+03  0.7561462E-02  0.1180148E+00
          2   -1    0    0  501    0  0.00000000000E+00  0.00000000000E+00  0.83684648862E+03  0.83684648862E+03  0.00000000000E+00 0.  1.
         -2   -1    0    0    0  501 -0.00000000000E+00 -0.00000000000E+00 -0.40405918922E+02  0.40405918922E+02  0.00000000000E+00 0. -1.
         23    2    1    2    0    0  0.31222065697E+02 -0.13701336829E+03  0.30784963992E+03  0.36078525465E+03  0.12508844350E+03 0.  0.
          5    1    3    3  502    0 -0.21714093229E+01  0.18523853087E+02  0.68434613018E+01  0.20301564330E+02  0.41800000000E+01 0. -1.
         -5    1    3    3    0  502  0.33393475020E+02 -0.15553722138E+03  0.30100617862E+03  0.34048369032E+03  0.41800000000E+01 0. -1.
        -11    1    1    2    0    0 -0.22373585378E+02  0.24339263289E+01  0.24915668217E+02  0.33575167055E+02  0.00000000000E+00 0. -1.
         11    1    1    2    0    0 -0.88484803185E+01  0.13457944196E+03  0.46367526156E+03  0.48289198584E+03  0.00000000000E+00 0.  1.
</event>
<event>
 7    1  0.4966153E-006  0.1039989E+03  0.7561462E-02  0.1272105E+00
          1   -1    0    0  501    0  0.00000000000E+00  0.00000000000E+00  0.12593320013E+03  0.12593320013E+03  0.00000000000E+00 0. -1.
         -1   -1    0    0    0  501 -0.00000000000E+00 -0.00000000000E+00 -0.12325723219E+03  0.12325723219E+03  0.00000000000E+00 0.  1.
         23    2    1    2    0    0 -0.46226764968E+02  0.24546175448E+02 -0.23847540432E+02  0.13767794074E+03  0.12508829542E+03 0.  0.
          5    1    3    3  502    0  0.35093826024E+02 -0.15424988790E+02  0.11630658460E+02  0.40277183621E+02  0.41800000000E+01 0. -1.
         -5    1    3    3    0  502 -0.81320590992E+02  0.39971164239E+02 -0.35478198891E+02  0.97400757115E+02  0.41800000000E+01 0. -1.
        -11    1    1    2    0    0  0.91265684661E+01 -0.38138471849E+02 -0.25057537863E+02  0.46537269910E+02  0.00000000000E+00 0.  1.
         11    1    1    2    0    0  0.37100196502E+02  0.13592296401E+02  0.51581046227E+02  0.64975221675E+02  0.00000000000E+00 0. -1.
</event>
<event>
 7    1  0.4966153E-006  0.1131977E+03  0.7561462E-02  0.1254760E+00
         -3   -1    0    0    0  501 -0.00000000000E+00  0.00000000000E+00  0.37589993061E+03  0.37589993061E+03  0.00000000000E+00 0.  1.
          3   -1    0    0  501    0  0.00000000000E+00 -0.00000000000E+00 -0.56580970005E+02  0.56580970005E+02  0.00000000000E+00 0. -1.
         23    2    1    2    0    0 -0.42917563693E+02  0.72466411488E+02  0.24795784506E+03  0.29021382616E+03  0.12509066272E+03 0.  0.
          5    1    3    3  502    0  0.29719371460E+02  0.26119430406E+02  0.16781262939E+03  0.17246453742E+03  0.41800000000E+01 0. -1.
         -5    1    3    3    0  502 -0.72636935153E+02  0.46346981081E+02  0.80145215666E+02  0.11774928874E+03  0.41800000000E+01 0. -1.
        -11    1    1    2    0    0  0.55947901869E+02 -0.62884485520E+02  0.86083975922E+02  0.12039550304E+03  0.00000000000E+00 0.  1.
         11    1    1    2    0    0 -0.13030338177E+02 -0.95819259672E+01 -0.14722860378E+02  0.21871571410E+02  0.00000000000E+00 0. -1.
</event>
<event>
 7    1  0.4966153E-006  0.1037515E+03  0.7561462E-02  0.1272599E+00
          1   -1    0    0  501    0  0.00000000000E+00  0.00000000000E+00  0.25741216177E+03  0.25741216177E+03  0.00000000000E+00 0. -1.
         -1   -1    0    0    0  501 -0.00000000000E+00 -0.00000000000E+00 -0.53445374984E+02  0.53445374984E+02  0.00000000000E+00 0.  1.
         23    2    1    2    0    0 -0.19393521799E+02  0.38602149174E+02  0.97462837119E+02  0.16435675653E+03  0.12509158321E+03 0.  0.
          5    1    3    3  502    0 -0.54522318307E+01 -0.45089832303E+02  0.21605984546E+02  0.50468909016E+02  0.41800000000E+01 0.  1.
         -5    1    3    3    0  502 -0.13941289968E+02  0.83691981477E+02  0.75856852573E+02  0.11388784752E+03  0.41800000000E+01 0.  1.
        -11    1    1    2    0    0 -0.90124163215E+00  0.17376936652E+02 -0.66568088071E+01  0.18630170889E+02  0.00000000000E+00 0.  1.
         11    1    1    2    0    0  0.20294763431E+02 -0.55979085826E+02  0.11316075847E+03  0.12787060933E+03  0.00000000000E+00 0. -1.
</event>
<event>
 7    1  0.4966153E-006  0.6857294E+02  0.7561462E-02  0.1365014E+00
          2   -1    0    0  501    0  0.00000000000E+00  0.00000000000E+00  0.65969610906E+02  0.65969610906E+02  0.00000000000E+00 0. -1.
         -2   -1    0    0    0  501 -0.00000000000E+00 -0.00000000000E+00 -0.28144605214E+03  0.28144605214E+03  0.00000000000E+00 0.  1.
         23    2    1    2    0    0  0.72802428621E+01  0.35365166808E+02 -0.21240937701E+03  0.24913535396E+03  0.12508790587E+03 0.  0.
          5    1    3    3  502    0 -0.57730336374E+01 -0.12020132787E+02 -0.19694526367E+03  0.19744042339E+03  0.41800000000E+01 0. -1.
         -5    1    3    3    0  502  0.13053276500E+02  0.47385299595E+02 -0.15464113343E+02  0.51694930570E+02  0.41800000000E+01 0. -1.
        -11    1    1    2    0    0 -0.27133007222E+02 -0.44398088892E+02 -0.32723238018E+02  0.61467069920E+02  0.00000000000E+00 0.  1.
         11    1    1    2    0    0  0.19852764360E+02  0.90329220832E+01  0.29656173790E+02  0.36813239166E+02  0.00000000000E+00 0. -1.
</event>
<event>
 7    1  0.4966153E-006  0.7195723E+02  0.7561462E-02  0.1353561E+00
         -1   -1    0    0    0  501 -0.00000000000E+00  0.00000000000E+00  0.39531135905E+02  0.39531135905E+02  0.00000000000E+00 0.  1.
          1   -1    0    0  501    0  0.00000000000E+00 -0.00000000000E+00 -0.31081517824E+03  0.31081517824E+03  0.00000000000E+00 0. -1.
         23    2    1    2    0    0 -0.12475630112E+02  0.16143774350E+02 -0.13562612321E+03  0.18562917077E+03  0.12508989146E+03 0.  0.
          5    1    3    3  502    0 -0.29673575622E+02  0.70016861215E+01  0.14618793033E+02  0.34069432171E+02  0.41800000000E+01 0. -1.
         -5    1    3    3    0  502  0.17197945509E+02  0.91420882286E+01 -0.15024491624E+03  0.15155973859E+03  0.41800000000E+01 0. -1.
        -11    1    1    2    0    0  0.48974180292E+02 -0.25954220648E+02 -0.85980756416E+02  0.10229751893E+03  0.00000000000E+00 0.  1.
         11    1    1    2    0    0 -0.36498550180E+02  0.98104462976E+01 -0.49677162709E+02  0.62419624451E+02  0.00000000000E+00 0. -1.
</event>
<event>
 7    1  0.4966153E-006  0.1473186E+03  0.7561462E-02  0.1203807E+00
         -2   -1    0    0    0  501 -0.00000000000E+00  0.00000000000E+00  0.19686861117E+03  0.19686861117E+03  0.00000000000E+00 0.  1.
          2   -1    0    0  501    0  0.00000000000E+00 -0.00000000000E+00 -0.12556775601E+03  0.12556775601E+03  0.00000000000E+00 0. -1.
         23    2    1    2    0    0 -0.10190394416E+03  0.33378622033E+02  0.78065071324E+02  0.18231858294E+03  0.12508942433E+03 0.  0.
          5    1    3    3  502    0 -0.12628649778E+03  0.13934844439E+02  0.40717906253E+02  0.13348363083E+03  0.41800000000E+01 0.  1.
         -5    1    3    3    0  502  0.24382553623E+02  0.19443777594E+02  0.37347165071E+02  0.48834952105E+02  0.41800000000E+01 0.  1.
        -11    1    1    2    0    0  0.10262410670E+02 -0.42718789223E+02 -0.17677649659E+02  0.47357273179E+02  0.00000000000E+00 0. -1.
         11    1    1    2    0    0  0.91641533485E+02  0.93401671899E+01  0.10913433487E+02  0.92760511065E+02  0.00000000000E+00 0.  1.
</event>
<event>
 7    1  0.4966153E-006  0.1763519E+03  0.7561462E-02  0.1171381E+00
         -1   -1    0    0    0  501 -0.00000000000E+00  0.00000000000E+00  0.43624249688E+03  0.43624249688E+03  0.00000000000E+00 0.  1.
          1   -1    0    0  501    0  0.00000000000E+00 -0.00000000000E+00 -0.78690839975E+02  0.78690839975E+02  0.00000000000E+00 0. -1.
         23    2    1    2    0    0  0.85182465826E+02  0.11746859209E+03  0.23845339988E+03  0.30588060889E+03  0.12509196763E+03 0.  0.
          5    1    3    3  502    0  0.75451002725E+02  0.11510251733E+02  0.56483046073E+02  0.95042867175E+02  0.41800000000E+01 0.  1.
         -5    1    3    3    0  502  0.97314631016E+01  0.10595834036E+03  0.18197035381E+03  0.21083774171E+03  0.41800000000E+01 0.  1.
        -11    1    1    2    0    0 -0.54406143768E+02 -0.12650117199E+03  0.83090126168E+02  0.16083079326E+03  0.00000000000E+00 0. -1.
         11    1    1    2    0    0 -0.30776322059E+02  0.90325798991E+01  0.36008130852E+02  0.48221934703E+02  0.00000000000E+00 0.  1.
</event>
<event>
 7    1  0.4966153E-006  0.8460703E+02  0.7561462E-02  0.1316463E+00
          2   -1    0    0  501    0  0.00000000000E+00  0.00000000000E+00  0.16965240937E+03  0.16965240937E+03  0.00000000000E+00 0. -1.
         -2   -1    0    0    0  501 -0.00000000000E+00 -0.00000000000E+00 -0.58892734296E+02  0.58892734296E+02  0.00000000000E+00 0.  1.
         23    2    1    2    0    0  0.16277413493E+01 -0.23773845120E+02  0.61180385925E+02  0.14127490346E+03  0.12509082089E+03 0.  0.
          5    1    3    3  502    0  0.45569053980E+02 -0.55690855284E+02  0.27011619436E+02  0.76974736294E+02  0.41800000000E+01 0.  1.
         -5    1    3    3    0  502 -0.43941312631E+02  0.31917010164E+02  0.34168766490E+02  0.64300167162E+02  0.41800000000E+01 0.  1.
        -11    1    1    2    0    0 -0.16997170829E+02  0.21049305412E+02 -0.75160699991E+01  0.28079679178E+02  0.00000000000E+00 0.  1.
         11    1    1    2    0    0  0.15369429480E+02  0.27245397077E+01  0.57095359147E+02  0.59190561032E+02  0.00000000000E+00 0. -1.
</event>
<event>
 7    1  0.4966153E-006  0.9070325E+02  0.7561462E-02  0.1301158E+00
          4   -1    0    0  501    0  0.00000000000E+00  0.00000000000E+00  0.48076175576E+02  0.48076175576E+02  0.00000000000E+00 0. -1.
         -4   -1    0    0    0  501 -0.00000000000E+00 -0.00000000000E+00 -0.30183556266E+03  0.30183556266E+03  0.00000000000E+00 0.  1.
         23    2    1    2    0    0  0.42917971202E+02  0.17680630678E+02 -0.17481515236E+03  0.21991548372E+03  0.12509166852E+03 0.  0.
          5    1    3    3  502    0 -0.25357062456E+02  0.50153264440E+02 -0.90300119264E+02  0.10644207105E+03  0.41800000000E+01 0.  1.
         -5    1    3    3    0  502  0.68275033658E+02 -0.32472633762E+02 -0.84515033098E+02  0.11347341267E+03  0.41800000000E+01 0.  1.
        -11    1    1    2    0    0 -0.21866199087E+02 -0.17933301522E+02 -0.97755136691E+02  0.10176345472E+03  0.00000000000E+00 0.  1.
         11    1    1    2    0    0 -0.21051772115E+02  0.25267084432E+00  0.18810901966E+02  0.28232799800E+02  0.00000000000E+00 0. -1.
</event>
<event>
 7    1  0.4966153E-006  0.1357860E+03  0.7561462E-02  0.1219114E+00
         -2   -1    0    0    0  501 -0.00000000000E+00  0.00000000000E+00  0.37761925312E+03  0.37761925312E+03  0.00000000000E+00 0.  1.
          2   -1    0    0  501    0  0.00000000000E+00 -0.00000000000E+00 -0.85673361457E+02  0.85673361457E+02  0.00000000000E+00 0. -1.
         23    2    1    2    0    0  0.11308561519E+03 -0.21603419164E+01  0.26778236141E+03  0.31646116948E+03  0.12508898940E+03 0.  0.
          5    1    3    3  502    0  0.12102515335E+03 -0.20392067158E+02  0.26940807920E+03  0.29607618899E+03  0.41800000000E+01 0. -1.
         -5    1    3    3    0  502 -0.79395381575E+01  0.18231725242E+02 -0.16257177947E+01  0.20384980495E+02  0.41800000000E+01 0. -1.
        -11    1    1    2    0    0 -0.17995941552E+02  0.24858341437E+02 -0.22939304174E+02  0.38314523713E+02  0.00000000000E+00 0. -1.
         11    1    1    2    0    0 -0.95089673639E+02 -0.22697999521E+02  0.47102834432E+02  0.10851692138E+03  0.00000000000E+00 0.  1.
</event>
<event>
 7    1  0.4966153E-006  0.1334858E+03  0.7561462E-02  0.1222373E+00
         -1   -1    0    0    0  501 -0.00000000000E+00  0.00000000000E+00  0.75240419463E+03  0.75240419463E+03  0.00000000000E+00 0.  1.
          1   -1    0    0  501    0  0.00000000000E+00 -0.00000000000E+00 -0.35423113215E+02  0.35423113215E+02  0.00000000000E+00 0. -1.
         23    2    1    2    0    0  0.94035061459E+02  0.55707711707E+02  0.51132831822E+03  0.53763480049E+03  0.12509431542E+03 0.  0.
          5    1    3    3  502    0 -0.14527160940E+02  0.20228212052E+02  0.26367889558E+03  0.26488535510E+03  0.41800000000E+01 0. -1.
         -5    1    3    3    0  502  0.10856222240E+03  0.35479499655E+02  0.24764942264E+03  0.27274944539E+03  0.41800000000E+01 0. -1.
        -11    1    1    2    0    0 -0.58542411597E+02  0.32286436586E+01  0.15209608482E+03  0.16300569657E+03  0.00000000000E+00 0.  1.
         11    1    1    2    0    0 -0.35492649862E+02 -0.58936355366E+02  0.53556678376E+02  0.87186810796E+02  0.00000000000E+00 0. -1.
</event>
<event>
 7    1  0.4966153E-006  0.1940103E+03  0.7561462E-02  0.1154893E+00
          1   -1    0    0  501    0  0.00000000000E+00  0.00000000000E+00  0.71595881539E+02  0.71595881539E+02  0.00000000000E+00 0. -1.
         -1   -1    0    0    0  501 -0.00000000000E+00 -0.00000000000E+00 -0.57792157732E+03  0.57792157732E+03  0.00000000000E+00 0.  1.
         23    2    1    2    0    0 -0.16179207649E+03 -0.40131161916E+02 -0.32947700886E+03  0.38985903356E+03  0.12509108885E+03 0.  0.
          5    1    3    3  502    0 -0.26325702552E+01  0.25792382351E+02 -0.96920592581E+02  0.10041539264E+03  0.41800000000E+01 0. -1.
         -5    1    3    3    0  502 -0.15915950624E+03 -0.65923544268E+02 -0.23255641628E+03  0.28944364092E+03  0.41800000000E+01 0. -1.
        -11    1    1    2    0    0  0.38020661847E+02 -0.28862282505E+02 -0.35292930276E+02  0.59364913932E+02  0.00000000000E+00 0.  1.
         11    1    1    2    0    0  0.12377141465E+03  0.68993444421E+02 -0.14155575665E+03  0.20029351137E+03  0.00000000000E+00 0. -1.
</event>
<event>
 6    1  0.4966153E-006  0.1068906E+03  0.7561462E-02  0.1266439E+00
          3   -1    0    0  501    0  0.00000000000E+00  0.00000000000E+00  0.10617625050E+03  0.10617625050E+03  0.00000000000E+00 0. -1.
         -3   -1    0    0    0  501 -0.00000000000E+00 -0.00000000000E+00 -0.14866383651E+03  0.14866383651E+03  0.00000000000E+00 0.  1.
          5    1    1    2  502    0 -0.51980927839E+02  0.23790652539E+02 -0.27527410089E+02  0.63586497886E+02  0.41800000000E+01 0. -1.
         -5    1    1    2    0  502  0.47555560555E+02 -0.72193916404E+02  0.66306631260E+01  0.86803980317E+02  0.41800000000E+01 0.  1.
        -11    1    1    2    0    0  0.43232349941E+01 -0.10319669519E+02 -0.41080439456E+02  0.42576853403E+02  0.00000000000E+00 0.  1.
         11    1    1    2    0    0  0.10213228958E+00  0.58722933384E+02  0.19489600412E+02  0.61872755397E+02  0.00000000000E+00 0. -1.
</event>
<event>
 7    1  0.4966153E-006  0.1279975E+03  0.7561462E-02  0.1230458E+00
          2   -1    0    0  501    0  0.00000000000E+00  0.00000000000E+00  0.91286212890E+02  0.91286212890E+02  0.00000000000E+00 0. -1.
         -2   -1    0    0    0  501 -0.00000000000E+00 -0.00000000000E+00 -0.18219334289E+03  0.18219334289E+03  0.00000000000E+00 0.  1.
         23    2    1    2    0    0 -0.65656812072E+02  0.65495483112E+00 -0.51496493445E+02  0.15036869319E+03  0.12509040378E+03 0.  0.
          5    1    3    3  502    0 -0.57506413291E+01  0.57631821152E+02 -0.27007795904E+02  0.64042096503E+02  0.41800000000E+01 0. -1.
         -5    1    3    3    0  502 -0.59906170743E+02 -0.56976866321E+02 -0.24488697541E+02  0.86326596690E+02  0.41800000000E+01 0. -1.
        -11    1    1    2    0    0  0.30728535962E+02  0.46943886907E+02 -0.29008574190E+02  0.63162242019E+02  0.00000000000E+00 0.  1.
         11    1    1    2    0    0  0.34928276111E+02 -0.47598841738E+02 -0.10402062368E+02  0.59948620571E+02  0.00000000000E+00 0. -1.
</event>
<event>
 7    1  0.4966153E-006  0.1354828E+03  0.7561462E-02  0.1219540E+00
         -1   -1    0    0    0  501 -0.00000000000E+00  0.00000000000E+00  0.50109096937E+02  0.50109096937E+02  0.00000000000E+00 0.  1.
          1   -1    0    0  501    0  0.00000000000E+00 -0.00000000000E+00 -0.57370487023E+03  0.57370487023E+03  0.00000000000E+00 0. -1.
         23    2    1    2    0    0 -0.40271214705E+02 -0.80780938222E+02 -0.10390032895E+03  0.18478508782E+03  0.12330012008E+03 0.  0.
          5    1    3    3  502    0 -0.68469668398E+02 -0.89170720669E+02 -0.49739809915E+02  0.12300826804E+03  0.41800000000E+01 0. -1.
         -5    1    3    3    0  502  0.28198453693E+02  0.83897824461E+01 -0.54160519039E+02  0.61776819785E+02  0.41800000000E+01 0.  1.
        -11    1    1    2    0    0 -0.25216958529E+02  0.50815672257E+02 -0.19365353219E+03  0.20179152131E+03  0.00000000000E+00 0. -1.
         11    1    1    2    0    0  0.65488173234E+02  0.29965265966E+02 -0.22604191216E+03  0.23723735804E+03  0.00000000000E+00 0.  1.
</event>
<event>
 7    1  0.4966153E-006  0.1018152E+03  0.7561462E-02  0.1276525E+00
         -1   -1    0    0    0  501 -0.00000000000E+00  0.00000000000E+00  0.24863815758E+02  0.24863815758E+02  0.00000000000E+00 0.  1.
          1   -1    0    0  501    0  0.00000000000E+00 -0.00000000000E+00 -0.68922731828E+03  0.68922731828E+03  0.00000000000E+00 0. -1.
         23    2    1    2    0    0 -0.68580395657E+02 -0.34036737558E+02 -0.37618021834E+03  0.40375421011E+03  0.12507651794E+03 0.  0.
          5    1    3    3  502    0 -0.14751004462E+02 -0.46622619223E+02 -0.40800558326E+02  0.63823339897E+02  0.41800000000E+01 0. -1.
         -5    1    3    3    0  502 -0.53829391195E+02  0.12585881665E+02 -0.33537966002E+03  0.33993087022E+03  0.41800000000E+01 0. -1.
        -11    1    1    2    0    0  0.22102827904E+02 -0.18603841779E+02 -0.17330020438E+03  0.17569177206E+03  0.00000000000E+00 0. -1.
         11    1    1    2    0    0  0.46477567753E+02  0.52640579336E+02 -0.11488307980E+03  0.13464515187E+03  0.00000000000E+00 0.  1.
</event>
<event>
 7    1  0.4966153E-006  0.1331828E+03  0.7561462E-02  0.1222808E+00
          1   -1    0    0  501    0  0.00000000000E+00  0.00000000000E+00  0.78546274801E+03  0.78546274801E+03  0.00000000000E+00 0. -1.
         -1   -1    0    0    0  501 -0.00000000000E+00 -0.00000000000E+00 -0.38345050743E+02  0.38345050743E+02  0.00000000000E+00 0.  1.
         23    2    1    2    0    0  0.29511155088E+02  0.12941524871E+03  0.32940186988E+03  0.37652745651E+03  0.12509244081E+03 0.  0.
          5    1    3    3  502    0  0.26916650763E+02  0.99817589164E+02  0.33068727399E+03  0.34649618003E+03  0.41800000000E+01 0. -1.
         -5    1    3    3    0  502  0.25945043248E+01  0.29597659546E+02 -0.12854041072E+01  0.30031276480E+02  0.41800000000E+01 0. -1.
        -11    1    1    2    0    0 -0.97542509187E+01 -0.30376820677E+02  0.21686262959E+02  0.38577074106E+02  0.00000000000E+00 0.  1.
         11    1    1    2    0    0 -0.19756904169E+02 -0.99038428033E+02  0.39602956442E+03  0.40870326814E+03  0.00000000000E+00 0. -1.
</event>
<event>
 7    1  0.4966153E-006  0.9015051E+02  0.7561462E-02  0.1302488E+00
          2   -1    0    0  501    0  0.00000000000E+00  0.00000000000E+00  0.79346824300E+02  0.79346824300E+02  0.00000000000E+00 0. -1.
         -2   -1    0    0    0  501 -0.00000000000E+00 -0.00000000000E+00 -0.16660781193E+03  0.16660781193E+03  0.00000000000E+00 0.  1.
         23    2    1    2    0    0 -0.20615658380E+02  0.37245688328E+02 -0.36768986430E+02  0.13715584116E+03  0.12509004649E+03 0.  0.
          5    1    3    3  502    0 -0.43554466314E+02 -0.28656010604E+02 -0.41966024975E+02  0.67058020638E+02  0.41800000000E+01 0.  1.
         -5    1    3    3    0  502  0.22938807934E+02  0.65901698932E+02  0.51970385448E+01  0.70097820517E+02  0.41800000000E+01 0.  1.
        -11    1    1    2    0    0  0.32511403863E+02 -0.29478374326E+02 -0.71228210768E+02  0.83662559984E+02  0.00000000000E+00 0.  1.
         11    1    1    2    0    0 -0.11895745483E+02 -0.77673140024E+01  0.20736209567E+02  0.25136235092E+02  0.00000000000E+00 0. -1.
</event>
<event>
 7    1  0.4966153E-006  0.1186492E+03  0.7561462E-02  0.1245342E+00
         -2   -1    0    0    0  501 -0.00000000000E+00  0.00000000000E+00  0.85169002007E+03  0.85169002007E+03  0.00000000000E+00 0.  1.
          2   -1    0    0  501    0  0.00000000000E+00 -0.00000000000E+00 -0.17091022741E+02  0.17091022741E+02  0.00000000000E+00 0. -1.
         23    2    1    2    0    0 -0.30574709160E+02 -0.45034186299E+02  0.45741476378E+03  0.47732420071E+03  0.12508891112E+03 0.  0.
          5    1    3    3  502    0 -0.78179119420E+02 -0.16109633869E+02  0.29140038543E+03  0.30216411443E+03  0.41800000000E+01 0.  1.
         -5    1    3    3    0  502  0.47604410260E+02 -0.28924552430E+02  0.16601437835E+03  0.17516008629E+03  0.41800000000E+01 0.  1.
        -11    1    1    2    0    0 -0.27815022608E+02  0.30615872945E+02  0.10835457529E+03  0.11598155520E+03  0.00000000000E+00 0. -1.
         11    1    1    2    0    0  0.58389731768E+02  0.14418313354E+02  0.26882965825E+03  0.27547528690E+03  0.00000000000E+00 0.  1.
</event>
<event>
 7    1  0.4966153E-006  0.9982774E+02  0.7561462E-02  0.1280659E+00
          3   -1    0    0  501    0  0.00000000000E+00  0.00000000000E+00  0.17986912751E+02  0.17986912751E+02  0.00000000000E+00 0. -1.
         -3   -1    0    0    0  501 -0.00000000000E+00 -0.00000000000E+00 -0.76160135975E+03  0.76160135975E+03  0.00000000000E+00 0.  1.
         23    2    1    2    0    0  0.75778432442E+00 -0.22955986713E+02 -0.54281573725E+03  0.55751503084E+03  0.12508610414E+03 0.  0.
          5    1    3    3  502    0 -0.49302087900E+02  0.23559827033E+00 -0.41884779487E+03  0.42176023882E+03  0.41800000000E+01 0. -1.
         -5    1    3    3    0  502  0.50059872224E+02 -0.23191584984E+02 -0.12396794238E+03  0.13575479203E+03  0.41800000000E+01 0. -1.
        -11    1    1    2    0    0  0.17481149374E+02 -0.32262481050E+02 -0.78477242750E+02  0.86632187417E+02  0.00000000000E+00 0.  1.
         11    1    1    2    0    0 -0.18238933699E+02  0.55218467763E+02 -0.12232146700E+03  0.13544105424E+03  0.00000000000E+00 0. -1.
</event>
<event>
 7    1  0.4966153E-006  0.1396500E+03  0.7561462E-02  0.1213801E+00
         -2   -1    0    0    0  501 -0.00000000000E+00  0.00000000000E+00  0.20070263993E+03  0.20070263993E+03  0.00000000000E+00 0.  1.
          2   -1    0    0  501    0  0.00000000000E+00 -0.00000000000E+00 -0.15718126273E+03  0.15718126273E+03  0.00000000000E+00 0. -1.
         23    2    1    2    0    0 -0.10833910139E+03  0.46625742871E+02  0.98484886572E+02  0.19813637531E+03  0.12508968601E+03 0.  0.
          5    1    3    3  502    0 -0.11158668388E+03  0.29947282745E+02  0.19509328313E+02  0.11724552894E+03  0.41800000000E+01 0. -1.
         -5    1    3    3    0  502  0.32475824911E+01  0.16678460127E+02  0.78975558259E+02  0.80890846371E+02  0.41800000000E+01 0. -1.
        -11    1    1    2    0    0  0.11792661159E+03 -0.22263393065E+02 -0.58181461985E+02  0.13336951267E+03  0.00000000000E+00 0. -1.
         11    1    1    2    0    0 -0.95875101936E+01 -0.24362349807E+02  0.32179526128E+01  0.26378014687E+02  0.00000000000E+00 0.  1.
</event>
<event>
 7    1  0.4966153E-006  0.9830640E+02  0.7561462E-02  0.1283898E+00
         -3   -1    0    0    0  501 -0.00000000000E+00  0.00000000000E+00  0.91145978381E+02  0.91145978381E+02  0.00000000000E+00 0.  1.
          3   -1    0    0  501    0  0.00000000000E+00 -0.00000000000E+00 -0.15316962047E+03  0.15316962047E+03  0.00000000000E+00 0. -1.
         23    2    1    2    0    0  0.59469847844E+01  0.14845747700E+02  0.27555983222E+01  0.12612192619E+03  0.12507351475E+03 0.  0.
          5    1    3    3  502    0  0.32615121078E+02  0.48363222789E+02 -0.35607185323E+02  0.68469639171E+02  0.41800000000E+01 0.  1.
         -5    1    3    3    0  502 -0.26668136294E+02 -0.33517475089E+02  0.38362783646E+02  0.57652287021E+02  0.41800000000E+01 0.  1.
        -11    1    1    2    0    0  0.33101387937E+02 -0.37444590164E+02 -0.50058494893E+02  0.70736497841E+02  0.00000000000E+00 0. -1.
         11    1    1    2    0    0 -0.39048372721E+02  0.22598842463E+02 -0.14720745515E+02  0.47457174814E+02  0.00000000000E+00 0.  1.
</event>
<event>
 7    1  0.4966153E-006  0.9975795E+02  0.7561462E-02  0.1280806E+00
         -2   -1    0    0    0  501 -0.00000000000E+00  0.00000000000E+00  0.32635342771E+03  0.32635342771E+03  0.00000000000E+00 0.  1.
          2   -1    0    0  501    0  0.00000000000E+00 -0.00000000000E+00 -0.41831354139E+02  0.41831354139E+02  0.00000000000E+00 0. -1.
         23    2    1    2    0    0 -0.47789121765E+01  0.41968320130E+02  0.21418547331E+03  0.25159447973E+03  0.12506073468E+03 0.  0.
          5    1    3    3  502    0 -0.58257539646E+02  0.38699644299E+02  0.16281370787E+03  0.17724948311E+03  0.41800000000E+01 0. -1.
         -5    1    3    3    0  502  0.53478627469E+02  0.32686758306E+01  0.51371765442E+02  0.74344996619E+02  0.41800000000E+01 0. -1.
        -11    1    1    2    0    0 -0.19049832746E+02 -0.47560469784E+02  0.75820254055E+02  0.91507405922E+02  0.00000000000E+00 0.  1.
         11    1    1    2    0    0  0.23828744922E+02  0.55921496541E+01 -0.54836537970E+01  0.25082896190E+02  0.00000000000E+00 0. -1.
</event>
<event>
 7    1  0.4966153E-006  0.9961485E+02  0.7561462E-02  0.1281108E+00
         -1   -1    0    0    0  501 -0.00000000000E+00  0.00000000000E+00  0.13343457350E+03  0.13343457350E+03  0.00000000000E+00 0.  1.
          1   -1    0    0  501    0  0.00000000000E+00 -0.00000000000E+00 -0.93956221707E+02  0.93956221707E+02  0.00000000000E+00 0. -1.
         23    2    1    2    0    0  0.14957912069E+01 -0.89092387127E+01  0.43717842588E+02  0.13286750558E+03  0.12514356696E+03 0.  0.
          5    1    3    3  502    0 -0.18356820435E+02  0.47577931440E+02  0.51197891986E+02  0.72383209105E+02  0.41800000000E+01 0. -1.
         -5    1    3    3    0  502  0.19852611642E+02 -0.56487170152E+02 -0.74800493983E+01  0.60484296473E+02  0.41800000000E+01 0. -1.
        -11    1    1    2    0    0  0.23908612378E+02  0.40788189181E+02  0.14788111817E+02  0.49537726770E+02  0.00000000000E+00 0.  1.
         11    1    1    2    0    0 -0.25404403585E+02 -0.31878950468E+02 -0.19027602613E+02  0.44985562858E+02  0.00000000000E+00 0. -1.
</event>
<event>
 7    1  0.4966153E-006  0.2522939E+03  0.7561462E-02  0.1111864E+00
          1   -1    0    0  501    0  0.00000000000E+00  0.00000000000E+00  0.31976323212E+03  0.31976323212E+03  0.00000000000E+00 0. -1.
         -1   -1    0    0    0  501 -0.00000000000E+00 -0.00000000000E+00 -0.22330255502E+03  0.22330255502E+03  0.00000000000E+00 0.  1.
         23    2    1    2    0    0  0.13042744815E+03 -0.20320463301E+03  0.13181918701E+02  0.27225949071E+03  0.12509206686E+03 0.  0.
          5    1    3    3  502    0 -0.81775556829E+01 -0.67357196538E+02 -0.28500143544E+02  0.73712922371E+02  0.41800000000E+01 0.  1.
         -5    1    3    3    0  502  0.13860500384E+03 -0.13584743648E+03  0.41682062245E+02  0.19854656834E+03  0.41800000000E+01 0.  1.
        -11    1    1    2    0    0 -0.35552054824E+02  0.74935646873E+02  0.73733342841E+02  0.11097704997E+03  0.00000000000E+00 0. -1.
         11    1    1    2    0    0 -0.94875393330E+02  0.12826898614E+03  0.95454155497E+01  0.15982924646E+03  0.00000000000E+00 0.  1.
</event>
<event>
 7    1  0.4966153E-006  0.1531412E+03  0.7561462E-02  0.1196665E+00
         -2   -1    0    0    0  501 -0.00000000000E+00  0.00000000000E+00  0.29916696217E+03  0.29916696217E+03  0.00000000000E+00 0.  1.
          2   -1    0    0  501    0  0.00000000000E+00 -0.00000000000E+00 -0.99737418261E+02  0.99737418261E+02  0.00000000000E+00 0. -1.
         23    2    1    2    0    0  0.80341148479E+02 -0.10196332552E+03  0.14498285105E+03  0.23134101046E+03  0.12508963239E+03 0.  0.
          5    1    3    3  502    0 -0.29203109870E+02 -0.80910464727E+01  0.63959959780E+01  0.31251685133E+02  0.41800000000E+01 0.  1.
         -5    1    3    3    0  502  0.10954425835E+03 -0.93872279052E+02  0.13858685507E+03  0.20008932533E+03  0.41800000000E+01 0.  1.
        -11    1    1    2    0    0 -0.73015067757E+02  0.80458944635E+02  0.89904803510E-01  0.10865012643E+03  0.00000000000E+00 0. -1.
         11    1    1    2    0    0 -0.73260807223E+01  0.21504380889E+02  0.54356788053E+02  0.58913243534E+02  0.00000000000E+00 0.  1.
</event>
<event>
 7    1  0.4966153E-006  0.1049718E+03  0.7561462E-02  0.1270175E+00
          2   -1    0    0  501    0  0.00000000000E+00  0.00000000000E+00  0.20989591701E+03  0.20989591701E+03  0.00000000000E+00 0. -1.
         -2   -1    0    0    0  501 -0.00000000000E+00 -0.00000000000E+00 -0.10235108679E+03  0.10235108679E+03  0.00000000000E+00 0.  1.
         23    2    1    2    0    0 -0.43328675866E+01  0.82683435972E+02  0.10088477130E+01  0.15001364809E+03  0.12509097695E+03 0.  0.
          5    1    3    3  502    0 -0.69637023726E+01 -0.58850910066E+01 -0.47748690132E+02  0.48790749699E+02  0.41800000000E+01 0.  1.
         -5    1    3    3    0  502  0.26308347860E+01  0.88568526978E+02  0.48757537845E+02  0.10122289840E+03  0.41800000000E+01 0.  1.
        -11    1    1    2    0    0  0.61667063635E+01 -0.96788033769E+02  0.11092889242E+03  0.14734711033E+03  0.00000000000E+00 0. -1.
         11    1    1    2    0    0 -0.18338387770E+01  0.14104597797E+02 -0.43929099152E+01  0.14886245370E+02  0.00000000000E+00 0.  1.
</event>
<event>
 7    1  0.4966153E-006  0.2106868E+03  0.7561462E-02  0.1141023E+00
         -1   -1    0    0    0  501 -0.00000000000E+00  0.00000000000E+00  0.55310740137E+02  0.55310740137E+02  0.00000000000E+00 0.  1.
          1   -1    0    0  501    0  0.00000000000E+00 -0.00000000000E+00 -0.89796735961E+03  0.89796735961E+03  0.00000000000E+00 0. -1.
         23    2    1    2    0    0  0.14512703431E+03 -0.12310933256E+03 -0.53159760661E+03  0.57831634154E+03  0.12504403899E+03 0.  0.
          5    1    3    3  502    0  0.58779667368E+02 -0.12035500642E+03 -0.24888086940E+03  0.28266506049E+03  0.41800000000E+01 0. -1.
         -5    1    3    3    0  502  0.86347366940E+02 -0.27543261437E+01 -0.28271673721E+03  0.29565128106E+03  0.41800000000E+01 0. -1.
        -11    1    1    2    0    0 -0.10969791500E+03  0.51937830764E+02 -0.23718424981E+03  0.26643486855E+03  0.00000000000E+00 0.  1.
         11    1    1    2    0    0 -0.35429119309E+02  0.71171501799E+02 -0.73874763052E+02  0.10852688966E+03  0.00000000000E+00 0. -1.
</event>
<event>
 7    1  0.4966153E-006  0.2000295E+03  0.7561462E-02  0.1149714E+00
          2   -1    0    0  501    0  0.00000000000E+00  0.00000000000E+00  0.37495302961E+02  0.37495302961E+02  0.00000000000E+00 0. -1.
         -2   -1    0    0    0  501 -0.00000000000E+00 -0.00000000000E+00 -0.12156122990E+04  0.12156122990E+04  0.00000000000E+00 0.  1.
         23    2    1    2    0    0 -0.30376597252E+02 -0.18046983624E+03 -0.62681141832E+03  0.66485420856E+03  0.12508583073E+03 0.  0.
          5    1    3    3  502    0  0.22398942836E+02 -0.46313263794E+02 -0.56231490650E+02  0.76328788698E+02  0.41800000000E+01 0.  1.
         -5    1    3    3    0  502 -0.52775540089E+02 -0.13415657244E+03 -0.57057992767E+03  0.58852541986E+03  0.41800000000E+01 0.  1.
        -11    1    1    2    0    0  0.62978759742E+02  0.11965366034E+03 -0.39126627831E+03  0.41397176613E+03  0.00000000000E+00 0.  1.
         11    1    1    2    0    0 -0.32602162489E+02  0.60816175900E+02 -0.16003929944E+03  0.17428162730E+03  0.00000000000E+00 0. -1.
</event>
<event>
 7    1  0.4966153E-006  0.1878176E+03  0.7561462E-02  0.1160445E+00
         -1   -1    0    0    0  501 -0.00000000000E+00  0.00000000000E+00  0.94429541563E+02  0.94429541563E+02  0.00000000000E+00 0.  1.
          1   -1    0    0  501    0  0.00000000000E+00 -0.00000000000E+00 -0.48492327735E+03  0.48492327735E+03  0.00000000000E+00 0. -1.
         23    2    1    2    0    0  0.47436846279E+02 -0.17702881890E+03 -0.22549182211E+03  0.31636026284E+03  0.12509115460E+03 0.  0.
          5    1    3    3  502    0  0.27728102515E+02 -0.39497619518E+02 -0.15116548347E+03  0.15873684326E+03  0.41800000000E+01 0.  1.
         -5    1    3    3    0  502  0.19708743764E+02 -0.13753119938E+03 -0.74326338646E+02  0.15762341958E+03  0.41800000000E+01 0.  1.
        -11    1    1    2    0    0 -0.19301334064E+02  0.14181823733E+03 -0.73278726518E+02  0.16079404745E+03  0.00000000000E+00 0.  1.
         11    1    1    2    0    0 -0.28135512215E+02  0.35210581570E+02 -0.91723187154E+02  0.10219850862E+03  0.00000000000E+00 0. -1.
</event>
<event>
 7    1  0.4966153E-006  0.1329202E+03  0.7561462E-02  0.1223186E+00
          2   -1    0    0  501    0  0.00000000000E+00  0.00000000000E+00  0.59969390611E+02  0.59969390611E+02  0.00000000000E+00 0. -1.
         -2   -1    0    0    0  501 -0.00000000000E+00 -0.00000000000E+00 -0.47056670130E+03  0.47056670130E+03  0.00000000000E+00 0.  1.
         23    2    1    2    0    0  0.11126632180E+03 -0.41668212432E+02 -0.32886273982E+03  0.37137029685E+03  0.12509500968E+03 0.  0.
          5    1    3    3  502    0 -0.51628894823E+01 -0.12269956416E+02  0.63082992524E+01  0.15312553599E+02  0.41800000000E+01 0. -1.
         -5    1    3    3    0  502  0.11642921128E+03 -0.29398256015E+02 -0.33517103907E+03  0.35605774325E+03  0.41800000000E+01 0. -1.
        -11    1    1    2    0    0 -0.78569016819E+02 -0.24951491527E+00 -0.68842940953E+02  0.10446292730E+03  0.00000000000E+00 0. -1.
         11    1    1    2    0    0 -0.32697304983E+02  0.41917727347E+02 -0.12891629917E+02  0.54702867758E+02  0.00000000000E+00 0.  1.
</event>
<event>
 7    1  0.4966153E-006  0.1422721E+03  0.7561462E-02  0.1210304E+00
          1   -1    0    0  501    0  0.00000000000E+00  0.00000000000E+00  0.11156420959E+04  0.11156420959E+04  0.00000000000E+00 0. -1.
         -1   -1    0    0    0  501 -0.00000000000E+00 -0.00000000000E+00 -0.19740511738E+02  0.19740511738E+02  0.00000000000E+00 0.  1.
         23    2    1    2    0    0 -0.84177091359E+02 -0.55644888951E+02  0.57993236624E+03  0.60178966737E+03  0.12508844057E+03 0.  0.
          5    1    3    3  502    0 -0.59838238164E+02  0.27043637323E+02  0.35138409841E+03  0.35749158043E+03  0.41800000000E+01 0.  1.
         -5    1    3    3    0  502 -0.24338853195E+02 -0.82688526274E+02  0.22854826783E+03  0.24429808694E+03  0.41800000000E+01 0.  1.
        -11    1    1    2    0    0  0.77292021161E+02  0.77547952554E+02  0.46458974857E+03  0.47731685070E+03  0.00000000000E+00 0.  1.
         11    1    1    2    0    0  0.68850701977E+01 -0.21903063602E+02  0.51379469353E+02  0.56276089574E+02  0.00000000000E+00 0. -1.
</event>
<event>
 7    1  0.4966153E-006  0.1027749E+03  0.7561462E-02  0.1274567E+00
          2   -1    0    0  501    0  0.00000000000E+00  0.00000000000E+00  0.49651567213E+02  0.49651567213E+02  0.00000000000E+00 0. -1.
         -2   -1    0    0    0  501 -0.00000000000E+00 -0.00000000000E+00 -0.25599595308E+03  0.25599595308E+03  0.00000000000E+00 0.  1.
         23    2    1    2    0    0  0.13977433954E+01 -0.20598709540E+02 -0.11270578275E+03  0.16963532298E+03  0.12508912350E+03 0.  0.
          5    1    3    3  502    0  0.30264218773E+02 -0.54409952589E+02 -0.10800442042E+03  0.12473489130E+03  0.41800000000E+01 0. -1.
         -5    1    3    3    0  502 -0.28866475378E+02  0.33811243049E+02 -0.47013623274E+01  0.44900431679E+02  0.41800000000E+01 0. -1.
        -11    1    1    2    0    0  0.46582477509E+02  0.79549927226E+00 -0.48053905254E+02  0.66930843713E+02  0.00000000000E+00 0.  1.
         11    1    1    2    0    0 -0.47980220905E+02  0.19803210268E+02 -0.45584697862E+02  0.69081353593E+02  0.00000000000E+00 0. -1.
</event>
<event>
 7    1  0.4966153E-006  0.1026257E+03  0.7561462E-02  0.1274869E+00
          2   -1    0    0  501    0  0.00000000000E+00  0.00000000000E+00  0.12177034970E+03  0.12177034970E+03  0.00000000000E+00 0. -1.
         -2   -1    0    0    0  501 -0.00000000000E+00 -0.00000000000E+00 -0.11983044181E+03  0.11983044181E+03  0.00000000000E+00 0.  1.
         23    2    1    2    0    0  0.16624522344E+02  0.46355217369E+02 -0.16795298933E+02  0.13545381424E+03  0.12506187591E+03 0.  0.
          5    1    3    3  502    0  0.58026659026E+02  0.27617562386E+02  0.29154992775E+02  0.70691646703E+02  0.41800000000E+01 0. -1.
         -5    1    3    3    0  502 -0.41402136682E+02  0.18737654982E+02 -0.45950291708E+02  0.64762167537E+02  0.41800000000E+01 0. -1.
        -11    1    1    2    0    0  0.22153103392E+02  0.11966560752E+02 -0.14031512982E+02  0.28824328660E+02  0.00000000000E+00 0.  1.
         11    1    1    2    0    0 -0.38777625736E+02 -0.58321778120E+02  0.32766719802E+02  0.77322648606E+02  0.00000000000E+00 0. -1.
</event>
<event>
 6    1  0.4966153E-006  0.9967365E+02  0.7561462E-02  0.1280984E+00
          2   -1    0    0  501    0  0.00000000000E+00  0.00000000000E+00  0.13747387587E+03  0.13747387587E+03  0.00000000000E+00 0. -1.
         -2   -1    0    0    0  501 -0.00000000000E+00 -0.00000000000E+00 -0.15832194488E+03  0.15832194488E+03  0.00000000000E+00 0.  1.
          5    1    1    2  502    0 -0.93564906270E+01 -0.51471836945E+02  0.72663799642E+02  0.89634781718E+02  0.41800000000E+01 0. -1.
         -5    1    1    2    0  502  0.13908743744E+02  0.62301051997E+02 -0.97971398503E+02  0.11700744232E+03  0.41800000000E+01 0.  1.
        -11    1    1    2    0    0  0.38358119274E+02  0.10397194781E+01  0.18324420530E+02  0.42523061021E+02  0.00000000000E+00 0.  1.
         11    1    1    2    0    0 -0.42910372391E+02 -0.11868934530E+02 -0.13864890686E+02  0.46630535697E+02  0.00000000000E+00 0. -1.
</event>
<event>
 7    1  0.4966153E-006  0.2002484E+03  0.7561462E-02  0.1149530E+00
          2   -1    0    0  501    0  0.00000000000E+00  0.00000000000E+00  0.11132100701E+04  0.11132100701E+04  0.00000000000E+00 0. -1.
         -2   -1    0    0    0  501 -0.00000000000E+00 -0.00000000000E+00 -0.45967793290E+02  0.45967793290E+02  0.00000000000E+00 0.  1.
         23    2    1    2    0    0 -0.16427533453E+03  0.48248180154E+02  0.29662803813E+03  0.36462272728E+03  0.12508903956E+03 0.  0.
          5    1    3    3  502    0  0.20176382081E+02 -0.18434007496E+01  0.33578867897E+02  0.39439793223E+02  0.41800000000E+01 0. -1.
         -5    1    3    3    0  502 -0.18445171661E+03  0.50091580903E+02  0.26304917023E+03  0.32518293406E+03  0.41800000000E+01 0. -1.
        -11    1    1    2    0    0  0.50170487847E+02  0.21842378757E+02  0.31310715554E+03  0.31785257307E+03  0.00000000000E+00 0. -1.
         11    1    1    2    0    0  0.11410484669E+03 -0.70090558911E+02  0.45750708318E+03  0.47670256308E+03  0.00000000000E+00 0.  1.
</event>
<event>
 7    1  0.4966153E-006  0.1055178E+03  0.7561462E-02  0.1269103E+00
         -2   -1    0    0    0  501 -0.00000000000E+00  0.00000000000E+00  0.14189126711E+03  0.14189126711E+03  0.00000000000E+00 0.  1.
          2   -1    0    0  501    0  0.00000000000E+00 -0.00000000000E+00 -0.12030148343E+03  0.12030148343E+03  0.00000000000E+00 0. -1.
         23    2    1    2    0    0  0.40148927176E+02 -0.58956669962E+02  0.25647349305E+02  0.14626311510E+03  0.12508911634E+03 0.  0.
          5    1    3    3  502    0  0.74253979502E+02 -0.13034840215E+02  0.42292405021E+02  0.86542939942E+02  0.41800000000E+01 0.  1.
         -5    1    3    3    0  502 -0.34105052325E+02 -0.45921829747E+02 -0.16645055717E+02  0.59720175160E+02  0.41800000000E+01 0.  1.
        -11    1    1    2    0    0 -0.16710639430E+02  0.50608827241E+02  0.39108967525E+02  0.66106052717E+02  0.00000000000E+00 0.  1.
         11    1    1    2    0    0 -0.23438287746E+02  0.83478427210E+01 -0.43166533157E+02  0.49823582723E+02  0.00000000000E+00 0. -1.
</event>
<event>
 7    1  0.4966153E-006  0.1041861E+03  0.7561462E-02  0.1271732E+00
         -2   -1    0    0    0  501 -0.00000000000E+00  0.00000000000E+00  0.63159210974E+02  0.63159210974E+02  0.00000000000E+00 0.  1.
          2   -1    0    0  501    0  0.00000000000E+00 -0.00000000000E+00 -0.26300072036E+03  0.26300072036E+03  0.00000000000E+00 0. -1.
         23    2    1    2    0    0  0.16953940460E+02 -0.65538132317E+02 -0.93143589077E+02  0.17002075952E+03  0.12509455462E+03 0.  0.
          5    1    3    3  502    0  0.14103014405E+02 -0.98703184804E+02 -0.93090830716E+02  0.13647193436E+03  0.41800000000E+01 0.  1.
         -5    1    3    3    0  502  0.28509260549E+01  0.33165052487E+02 -0.52758361871E-01  0.33548825155E+02  0.41800000000E+01 0.  1.
        -11    1    1    2    0    0  0.76695567707E+01  0.34852950855E+02  0.65222771578E+01  0.36277960026E+02  0.00000000000E+00 0.  1.
         11    1    1    2    0    0 -0.24623497230E+02  0.30685181462E+02 -0.11322019747E+03  0.11986121179E+03  0.00000000000E+00 0. -1.
</event>
<event>
 7    1  0.4966153E-006  0.1098024E+03  0.7561462E-02  0.1260936E+00
         -2   -1    0    0    0  501 -0.00000000000E+00  0.00000000000E+00  0.68543891995E+02  0.68543891995E+02  0.00000000000E+00 0.  1.
          2   -1    0    0  501    0  0.00000000000E+00 -0.00000000000E+00 -0.18924704479E+03  0.18924704479E+03  0.00000000000E+00 0. -1.
         23    2    1    2    0    0 -0.23973078663E+00  0.53369014298E+01 -0.50593448005E+02  0.13504154571E+03  0.12509189461E+03 0.  0.
          5    1    3    3  502    0  0.51701371354E+02  0.33978069406E+02 -0.42164260002E+02  0.74985586761E+02  0.41800000000E+01 0.  1.
         -5    1    3    3    0  502 -0.51941102140E+02 -0.28641167976E+02 -0.84291880032E+01  0.60055958946E+02  0.41800000000E+01 0.  1.
        -11    1    1    2    0    0 -0.48487180937E+02  0.35006198060E+01 -0.20836927996E+02  0.52890817942E+02  0.00000000000E+00 0.  1.
         11    1    1    2    0    0  0.48726911724E+02 -0.88375212358E+01 -0.49272776798E+02  0.69858573140E+02  0.00000000000E+00 0. -1.
</event>
<event>
 7    1  0.4966153E-006  0.9818727E+02  0.7561462E-02  0.1284155E+00
          1   -1    0    0  501    0  0.00000000000E+00  0.00000000000E+00  0.27504077495E+03  0.27504077495E+03  0.00000000000E+00 0. -1.
         -1   -1    0    0    0  501 -0.00000000000E+00 -0.00000000000E+00 -0.52121780728E+02  0.52121780728E+02  0.00000000000E+00 0.  1.
         23    2    1    2    0    0  0.20511724804E+02 -0.92012480873E+01  0.63652314904E+02  0.14214115246E+03  0.12508835362E+03 0.  0.
          5    1    3    3  502    0  0.69592168743E+02 -0.20414527787E+02  0.19928355546E+02  0.75328843412E+02  0.41800000000E+01 0. -1.
         -5    1    3    3    0  502 -0.49080443939E+02  0.11213279700E+02  0.43723959358E+02  0.66812309052E+02  0.41800000000E+01 0. -1.
        -11    1    1    2    0    0 -0.41560929498E+02 -0.12077694110E+02  0.30817186399E+02  0.53130787057E+02  0.00000000000E+00 0.  1.
         11    1    1    2    0    0  0.21049204694E+02  0.21278942198E+02  0.12844949292E+03  0.13189061616E+03  0.00000000000E+00 0. -1.
</event>
<event>
 7    1  0.4966153E-006  0.2192850E+03  0.7561462E-02  0.1134417E+00
         -2   -1    0    0    0  501 -0.00000000000E+00  0.00000000000E+00  0.11151131537E+03  0.11151131537E+03  0.00000000000E+00 0. -1.
          2   -1    0    0  501    0  0.00000000000E+00 -0.00000000000E+00 -0.49542645154E+03  0.49542645154E+03  0.00000000000E+00 0.  1.
         23    2    1    2    0    0  0.19485568367E+03  0.63800400008E+02 -0.17897984080E+03  0.29953154017E+03  0.12508449802E+03 0.  0.
          5    1    3    3  502    0  0.18506959516E+03  0.49502469853E+02 -0.95368759559E+02  0.21404187038E+03  0.41800000000E+01 0. -1.
         -5    1    3    3    0  502  0.97860885058E+01  0.14297930155E+02 -0.83611081239E+02  0.85489669791E+02  0.41800000000E+01 0. -1.
        -11    1    1    2    0    0 -0.13609503933E+03 -0.91671461122E+02 -0.14754365439E+03  0.22066863498E+03  0.00000000000E+00 0.  1.
         11    1    1    2    0    0 -0.58760644339E+02  0.27871061114E+02 -0.57391640979E+02  0.86737591765E+02  0.00000000000E+00 0. -1.
</event>
<event>
 7    1  0.4966153E-006  0.2460048E+03  0.7561462E-02  0.1115856E+00
         -2   -1    0    0    0  501 -0.00000000000E+00  0.00000000000E+00  0.11775220342E+03  0.11775220342E+03  0.00000000000E+00 0.  1.
          2   -1    0    0  501    0  0.00000000000E+00 -0.00000000000E+00 -0.61894846922E+03  0.61894846922E+03  0.00000000000E+00 0. -1.
         23    2    1    2    0    0 -0.23300579362E+03  0.61230410587E+02 -0.19399797167E+03  0.33365277936E+03  0.12509237036E+03 0.  0.
          5    1    3    3  502    0 -0.14005079385E+03  0.69411046963E+02 -0.18125393413E+03  0.23937957168E+03  0.41800000000E+01 0.  1.
         -5    1    3    3    0  502 -0.92954999774E+02 -0.81806363762E+01 -0.12744037537E+02  0.94273207685E+02  0.41800000000E+01 0.  1.
        -11    1    1    2    0    0  0.15614062108E+03 -0.53198729232E+02 -0.27203681326E+03  0.31814151900E+03  0.00000000000E+00 0. -1.
         11    1    1    2    0    0  0.76865172541E+02 -0.80316813545E+01 -0.35161480878E+02  0.84906374276E+02  0.00000000000E+00 0.  1.
</event>
<event>
 7    1  0.4966153E-006  0.9475334E+02  0.7561462E-02  0.1291733E+00
          3   -1    0    0  501    0  0.00000000000E+00  0.00000000000E+00  0.57421271915E+02  0.57421271915E+02  0.00000000000E+00 0. -1.
         -3   -1    0    0    0  501 -0.00000000000E+00 -0.00000000000E+00 -0.21375295446E+03  0.21375295446E+03  0.00000000000E+00 0.  1.
         23    2    1    2    0    0  0.49946476826E+01  0.67479328211E+01 -0.11778047435E+03  0.17201659817E+03  0.12508792430E+03 0.  0.
          5    1    3    3  502    0  0.34061018948E+02  0.44865840403E+02 -0.14865444342E+02  0.58408479541E+02  0.41800000000E+01 0.  1.
         -5    1    3    3    0  502 -0.29066371266E+02 -0.38117907582E+02 -0.10291503001E+03  0.11360811863E+03  0.41800000000E+01 0.  1.
        -11    1    1    2    0    0  0.30386241085E+02  0.23454377359E+02 -0.35910278495E+02  0.52564052033E+02  0.00000000000E+00 0.  1.
         11    1    1    2    0    0 -0.35380888768E+02 -0.30202310180E+02 -0.26409296951E+01  0.46593576165E+02  0.00000000000E+00 0. -1.
</event>
<event>
 7    1  0.4966153E-006  0.1501501E+03  0.7561462E-02  0.1200289E+00
         -2   -1    0    0    0  501 -0.00000000000E+00  0.00000000000E+00  0.43214454542E+02  0.43214454542E+02  0.00000000000E+00 0.  1.
          2   -1    0    0  501    0  0.00000000000E+00 -0.00000000000E+00 -0.66802133580E+03  0.66802133580E+03  0.00000000000E+00 0. -1.
         23    2    1    2    0    0 -0.70214195491E+02  0.10467431142E+03 -0.40218314104E+03  0.43964269913E+03  0.12509068407E+03 0.  0.
          5    1    3    3  502    0 -0.30785970791E+02  0.12199036607E+03 -0.34944676593E+03  0.37142958960E+03  0.41800000000E+01 0. -1.
         -5    1    3    3    0  502 -0.39428224701E+02 -0.17316054655E+02 -0.52736375113E+02  0.68213109531E+02  0.41800000000E+01 0. -1.
        -11    1    1    2    0    0  0.61875620251E+02 -0.61724527734E+02 -0.20774473483E+03  0.22538053278E+03  0.00000000000E+00 0. -1.
         11    1    1    2    0    0  0.83385752403E+01 -0.42949783685E+02 -0.14879005385E+02  0.46212558432E+02  0.00000000000E+00 0.  1.
</event>
<event>
 7    1  0.4966153E-006  0.8389756E+02  0.7561462E-02  0.1318341E+00
         -1   -1    0    0    0  501 -0.00000000000E+00  0.00000000000E+00  0.97477477766E+02  0.97477477766E+02  0.00000000000E+00 0.  1.
          1   -1    0    0  501    0  0.00000000000E+00 -0.00000000000E+00 -0.12492216373E+03  0.12492216373E+03  0.00000000000E+00 0. -1.
         23    2    1    2    0    0 -0.24224396537E+01  0.90100147372E+01 -0.58169871358E+00  0.12544043943E+03  0.12509163398E+03 0.  0.
          5    1    3    3  502    0 -0.43557936599E+02  0.36077854457E+02 -0.33681236107E+02  0.65960620742E+02  0.41800000000E+01 0.  1.
         -5    1    3    3    0  502  0.41135496945E+02 -0.27067839720E+02  0.33099537393E+02  0.59479818692E+02  0.41800000000E+01 0.  1.
        -11    1    1    2    0    0  0.14166833782E+02 -0.32470664441E+02 -0.50472220294E+02  0.61664319100E+02  0.00000000000E+00 0. -1.
         11    1    1    2    0    0 -0.11744394128E+02  0.23460649704E+02  0.23609233048E+02  0.35294882959E+02  0.00000000000E+00 0.  1.
</event>
<event>
 7    1  0.4966153E-006  0.3842194E+03  0.7561462E-02  0.1049385E+00
         -2   -1    0    0    0  501 -0.00000000000E+00  0.00000000000E+00  0.55180410414E+03  0.55180410414E+03  0.00000000000E+00 0.  1.
          2   -1    0    0  501    0  0.00000000000E+00 -0.00000000000E+00 -0.30010439128E+03  0.30010439128E+03  0.00000000000E+00 0. -1.
         23    2    1    2    0    0  0.24029940051E+03  0.29769721502E+03  0.38120172076E+02  0.40431497436E+03  0.12510002899E+03 0.  0.
          5    1    3    3  502    0  0.11843315368E+03  0.10923463459E+03  0.73384374898E+02  0.17709137801E+03  0.41800000000E+01 0. -1.
         -5    1    3    3    0  502  0.12186624684E+03  0.18846258042E+03 -0.35264202823E+02  0.22722359635E+03  0.41800000000E+01 0. -1.
        -11    1    1    2    0    0 -0.97921141868E+02 -0.13146967867E+03  0.41290028106E+02  0.16904937993E+03  0.00000000000E+00 0. -1.
         11    1    1    2    0    0 -0.14237825865E+03 -0.16622753635E+03  0.17228951268E+03  0.27854414113E+03  0.00000000000E+00 0.  1.
</event>
<event>
 7    1  0.4966153E-006  0.1512829E+03  0.7561462E-02  0.1198905E+00
          1   -1    0    0  501    0  0.00000000000E+00  0.00000000000E+00  0.16511752551E+03  0.16511752551E+03  0.00000000000E+00 0. -1.
         -1   -1    0    0    0  501 -0.00000000000E+00 -0.00000000000E+00 -0.49691426466E+03  0.49691426466E+03  0.00000000000E+00 0.  1.
         23    2    1    2    0    0 -0.61171568924E+02 -0.11566927837E+03 -0.43590115871E+03  0.47199475293E+03  0.12509150183E+03 0.  0.
          5    1    3    3  502    0 -0.24421629619E+02 -0.10823684028E+03 -0.16753762410E+03  0.20099243140E+03  0.41800000000E+01 0. -1.
         -5    1    3    3    0  502 -0.36749939305E+02 -0.74324380901E+01 -0.26836353460E+03  0.27100232154E+03  0.41800000000E+01 0. -1.
        -11    1    1    2    0    0 -0.14678715946E+02  0.54259141311E+02  0.15711702071E+02  0.58364173082E+02  0.00000000000E+00 0. -1.
         11    1    1    2    0    0  0.75850284870E+02  0.61410137063E+02  0.88392717486E+02  0.13167286415E+03  0.00000000000E+00 0.  1.
</event>
<event>
 7    1  0.4966153E-006  0.1403376E+03  0.7561462E-02  0.1212875E+00
         -3   -1    0    0    0  501 -0.00000000000E+00  0.00000000000E+00  0.23110762643E+02  0.23110762643E+02  0.00000000000E+00 0.  1.
          3   -1    0    0  501    0  0.00000000000E+00 -0.00000000000E+00 -0.10685530513E+04  0.10685530513E+04  0.00000000000E+00 0. -1.
         23    2    1    2    0    0  0.10795519629E+03 -0.26511748039E+02 -0.64765393814E+03  0.66895114216E+03  0.12523102581E+03 0.  0.
          5    1    3    3  502    0  0.36939111968E+02  0.43829176343E+02 -0.35616294534E+03  0.36077002470E+03  0.41800000000E+01 0. -1.
         -5    1    3    3    0  502  0.71016084322E+02 -0.70340924382E+02 -0.29149099280E+03  0.30818111746E+03  0.41800000000E+01 0. -1.
        -11    1    1    2    0    0 -0.62837917782E+02 -0.11842463245E+02 -0.97202385852E+02  0.11634926584E+03  0.00000000000E+00 0.  1.
         11    1    1    2    0    0 -0.45117278508E+02  0.38354211284E+02 -0.30058596463E+03  0.30636340591E+03  0.00000000000E+00 0. -1.
</event>
<event>
 7    1  0.4966153E-006  0.6182210E+02  0.7561462E-02  0.1390340E+00
         -2   -1    0    0    0  501 -0.00000000000E+00  0.00000000000E+00  0.14619668583E+03  0.14619668583E+03  0.00000000000E+00 0. -1.
          2   -1    0    0  501    0  0.00000000000E+00 -0.00000000000E+00 -0.92007215822E+02  0.92007215822E+02  0.00000000000E+00 0.  1.
         23    2    1    2    0    0 -0.43868600577E+02 -0.12074362332E+02  0.46170329439E+02  0.14089240541E+03  0.12509486896E+03 0.  0.
          5    1    3    3  502    0 -0.50945321816E+02 -0.47977249064E+01 -0.32955960318E+02  0.61008292056E+02  0.41800000000E+01 0. -1.
         -5    1    3    3    0  502  0.70767212383E+01 -0.72766374261E+01  0.79126289757E+02  0.79884113354E+02  0.41800000000E+01 0. -1.
        -11    1    1    2    0    0  0.70728290921E+01 -0.14367817379E+02  0.39175335175E+02  0.42322168821E+02  0.00000000000E+00 0. -1.
         11    1    1    2    0    0  0.36795771485E+02  0.26442179712E+02 -0.31156194611E+02  0.54989327417E+02  0.00000000000E+00 0.  1.
</event>
<event>
 7    1  0.4966153E-006  0.1136536E+03  0.7561462E-02  0.1253950E+00
         -2   -1    0    0    0  501 -0.00000000000E+00  0.00000000000E+00  0.16547528790E+02  0.16547528790E+02  0.00000000000E+00 0.  1.
          2   -1    0    0  501    0  0.00000000000E+00 -0.00000000000E+00 -0.96547065925E+03  0.96547065925E+03  0.00000000000E+00 0. -1.
         23    2    1    2    0    0  0.63588118308E+02  0.13045638687E+02 -0.54490179603E+03  0.56283117900E+03  0.12508929316E+03 0.  0.
          5    1    3    3  502    0  0.51818533252E+02  0.53077253919E+02 -0.16915825327E+03  0.18475481677E+03  0.41800000000E+01 0.  1.
         -5    1    3    3    0  502  0.11769585056E+02 -0.40031615232E+02 -0.37574354276E+03  0.37807636223E+03  0.41800000000E+01 0.  1.
        -11    1    1    2    0    0  0.15558828631E+02 -0.26562772874E+02 -0.92678946158E+02  0.97657795961E+02  0.00000000000E+00 0.  1.
         11    1    1    2    0    0 -0.79146946939E+02  0.13517134187E+02 -0.31134238827E+03  0.32152921308E+03  0.00000000000E+00 0. -1.
</event>
<event>
 7    1  0.4966153E-006  0.1077938E+03  0.7561462E-02  0.1264711E+00
          1   -1    0    0  501    0  0.00000000000E+00  0.00000000000E+00  0.45718480642E+02  0.45718480642E+02  0.00000000000E+00 0. -1.
         -1   -1    0    0    0  501 -0.00000000000E+00 -0.00000000000E+00 -0.36712961411E+03  0.36712961411E+03  0.00000000000E+00 0.  1.
         23    2    1    2    0    0  0.35346635562E+02 -0.36425966218E+02 -0.25836838271E+03  0.29151050739E+03  0.12509164269E+03 0.  0.
          5    1    3    3  502    0  0.50923428223E+01  0.37144150325E+02 -0.25863558951E+02  0.45738560759E+02  0.41800000000E+01 0.  1.
         -5    1    3    3    0  502  0.30254292740E+02 -0.73570116543E+02 -0.23250482376E+03  0.24577194663E+03  0.41800000000E+01 0.  1.
        -11    1    1    2    0    0 -0.30295238832E+02 -0.23329736536E+02 -0.62507855481E+01  0.38744682509E+02  0.00000000000E+00 0. -1.
         11    1    1    2    0    0 -0.50513967301E+01  0.59755702754E+02 -0.56791965215E+02  0.82592904862E+02  0.00000000000E+00 0.  1.
</event>
<event>
 7    1  0.4966153E-006  0.1309204E+03  0.7561462E-02  0.1226096E+00
         -1   -1    0    0    0  501 -0.00000000000E+00  0.00000000000E+00  0.13011770347E+03  0.13011770347E+03  0.00000000000E+00 0.  1.
          1   -1    0    0  501    0  0.00000000000E+00 -0.00000000000E+00 -0.18415818635E+03  0.18415818635E+03  0.00000000000E+00 0. -1.
         23    2    1    2    0    0  0.93608098384E+02  0.70256850785E+02  0.10860207985E+02  0.17164970565E+03  0.12508867322E+03 0.  0.
          5    1    3    3  502    0  0.10422182662E+03  0.46691583383E+02  0.49855386196E+02  0.12468089282E+03  0.41800000000E+01 0. -1.
         -5    1    3    3    0  502 -0.10613728235E+02  0.23565267402E+02 -0.38995178210E+02  0.46968812827E+02  0.41800000000E+01 0. -1.
        -11    1    1    2    0    0 -0.69872012477E+02 -0.33163858932E+02 -0.20331365762E+02  0.79970645243E+02  0.00000000000E+00 0.  1.
         11    1    1    2    0    0 -0.23736085907E+02 -0.37092991854E+02 -0.44569325104E+02  0.62655538934E+02  0.00000000000E+00 0. -1.
</event>
<event>
 7    1  0.4966153E-006  0.1611191E+03  0.7561462E-02  0.1187439E+00
          1   -1    0    0  501    0  0.00000000000E+00  0.00000000000E+00  0.39809119116E+03  0.39809119116E+03  0.00000000000E+00 0. -1.
         -1   -1    0    0    0  501 -0.00000000000E+00 -0.00000000000E+00 -0.78955665172E+02  0.78955665172E+02  0.00000000000E+00 0.  1.
         23    2    1    2    0    0  0.12206268542E+03 -0.29380043607E+02  0.85658704758E+02  0.19684491471E+03  0.12509204856E+03 0.  0.
          5    1    3    3  502    0 -0.50396246764E+01  0.34250320820E+02  0.13608878310E+02  0.37432021880E+02  0.41800000000E+01 0.  1.
         -5    1    3    3    0  502  0.12710231010E+03 -0.63630364428E+02  0.72049826448E+02  0.15941289283E+03  0.41800000000E+01 0.  1.
        -11    1    1    2    0    0 -0.25111088591E+02  0.40422967657E+02  0.35122357147E+02  0.59145270783E+02  0.00000000000E+00 0. -1.
         11    1    1    2    0    0 -0.96951596832E+02 -0.11042924050E+02  0.19835446408E+03  0.22105667084E+03  0.00000000000E+00 0.  1.
</event>
<event>
 7    1  0.4966153E-006  0.8696806E+02  0.7561462E-02  0.1310365E+00
         -2   -1    0    0    0  501 -0.00000000000E+00  0.00000000000E+00  0.29565139678E+03  0.29565139678E+03  0.00000000000E+00 0.  1.
          2   -1    0    0  501    0  0.00000000000E+00 -0.00000000000E+00 -0.52949438607E+02  0.52949438607E+02  0.00000000000E+00 0. -1.
         23    2    1    2    0    0 -0.28479024562E+02  0.53596786586E+02  0.15528445327E+03  0.20842183038E+03  0.12507089021E+03 0.  0.
          5    1    3    3  502    0  0.63943009961E+01  0.20121657738E+02  0.15834896795E+03  0.15980499443E+03  0.41800000000E+01 0. -1.
         -5    1    3    3    0  502 -0.34873325558E+02  0.33475128847E+02 -0.30645146820E+01  0.48616835942E+02  0.41800000000E+01 0. -1.
        -11    1    1    2    0    0  0.41518355621E+02  0.68290435956E+01  0.58169936384E+02  0.71792417350E+02  0.00000000000E+00 0.  1.
         11    1    1    2    0    0 -0.13039331060E+02 -0.60425830181E+02  0.29247568523E+02  0.68386587662E+02  0.00000000000E+00 0. -1.
</event>
<event>
 7    1  0.4966153E-006  0.1160862E+03  0.7561462E-02  0.1249697E+00
          1   -1    0    0  501    0  0.00000000000E+00  0.00000000000E+00  0.96438591879E+02  0.96438591879E+02  0.00000000000E+00 0. -1.
         -1   -1    0    0    0  501 -0.00000000000E+00 -0.00000000000E+00 -0.22002132107E+03  0.22002132107E+03  0.00000000000E+00 0.  1.
         23    2    1    2    0    0  0.71517098842E+02 -0.27059691181E+02 -0.13605838716E+03  0.20001535406E+03  0.12508930741E+03 0.  0.
          5    1    3    3  502    0  0.63155991848E+02 -0.73987660436E+02 -0.77845740664E+02  0.12466067922E+03  0.41800000000E+01 0. -1.
         -5    1    3    3    0  502  0.83611069940E+01  0.46927969255E+02 -0.58212646500E+02  0.75354674846E+02  0.41800000000E+01 0. -1.
        -11    1    1    2    0    0 -0.59792650326E+02  0.26212314589E+01 -0.29306770613E+02  0.66640218271E+02  0.00000000000E+00 0.  1.
         11    1    1    2    0    0 -0.11724448516E+02  0.24438459723E+02  0.41782428581E+02  0.49804340621E+02  0.00000000000E+00 0. -1.
</event>
<event>
 7    1  0.4966153E-006  0.1121485E+03  0.7561462E-02  0.1256642E+00
         -1   -1    0    0    0  501 -0.00000000000E+00  0.00000000000E+00  0.75575293508E+03  0.75575293508E+03  0.00000000000E+00 0.  1.
          1   -1    0    0  501    0  0.00000000000E+00 -0.00000000000E+00 -0.19969013284E+02  0.19969013284E+02  0.00000000000E+00 0. -1.
         23    2    1    2    0    0  0.12060996394E+02  0.33718603669E+02  0.55448185316E+03  0.56954360275E+03  0.12508948029E+03 0.  0.
          5    1    3    3  502    0 -0.51041449887E+02  0.36480348437E+02  0.20684758823E+03  0.21619306785E+03  0.41800000000E+01 0. -1.
         -5    1    3    3    0  502  0.63102446281E+02 -0.27617447689E+01  0.34763426494E+03  0.35335053491E+03  0.41800000000E+01 0. -1.
        -11    1    1    2    0    0 -0.47514374377E+02  0.23119987331E+01  0.91496632923E+02  0.10312417247E+03  0.00000000000E+00 0.  1.
         11    1    1    2    0    0  0.35453377983E+02 -0.36030602402E+02  0.89805435710E+02  0.10305417315E+03  0.00000000000E+00 0. -1.
</event>
<event>
 7    1  0.4966153E-006  0.7404155E+02  0.7561462E-02  0.1346865E+00
          2   -1    0    0  501    0  0.00000000000E+00  0.00000000000E+00  0.13271242289E+03  0.13271242289E+03  0.00000000000E+00 0. -1.
         -2   -1    0    0    0  501 -0.00000000000E+00 -0.00000000000E+00 -0.10885070091E+03  0.10885070091E+03  0.00000000000E+00 0.  1.
         23    2    1    2    0    0 -0.48353708067E+02  0.25392820285E+02  0.18625625129E+02  0.13775720539E+03  0.12508899759E+03 0.  0.
          5    1    3    3  502    0 -0.36772934827E+02  0.14038459346E+01  0.70306517982E+02  0.79465076543E+02  0.41800000000E+01 0. -1.
         -5    1    3    3    0  502 -0.11580773240E+02  0.23988974350E+02 -0.51680892853E+02  0.58292128845E+02  0.41800000000E+01 0. -1.
        -11    1    1    2    0    0  0.37455402140E+02 -0.46870676694E+02 -0.25129778795E+02  0.65048237989E+02  0.00000000000E+00 0.  1.
         11    1    1    2    0    0  0.10898305927E+02  0.21477856410E+02  0.30365875644E+02  0.38757680421E+02  0.00000000000E+00 0. -1.
</event>
<event>
 7    1  0.4966153E-006  0.2075706E+03  0.7561462E-02  0.1143504E+00
          1   -1    0    0  501    0  0.00000000000E+00  0.00000000000E+00  0.73452570480E+03  0.73452570480E+03  0.00000000000E+00 0. -1.
         -1   -1    0    0    0  501 -0.00000000000E+00 -0.00000000000E+00 -0.70662894995E+02  0.70662894995E+02  0.00000000000E+00 0.  1.
         23    2    1    2    0    0  0.19380786362E+03 -0.46923905493E+02  0.32085774817E+03  0.39794505014E+03  0.12508887826E+03 0.  0.
          5    1    3    3  502    0  0.18404234845E+03 -0.31065313807E+02  0.32812706338E+03  0.37752017412E+03  0.41800000000E+01 0.  1.
         -5    1    3    3    0  502  0.97655151742E+01 -0.15858591686E+02 -0.72693152133E+01  0.20424876023E+02  0.41800000000E+01 0.  1.
        -11    1    1    2    0    0 -0.16463692741E+03  0.13786173759E+02  0.31280403716E+03  0.35375378743E+03  0.00000000000E+00 0.  1.
         11    1    1    2    0    0 -0.29170936208E+02  0.33137731734E+02  0.30201024480E+02  0.53489762230E+02  0.00000000000E+00 0. -1.
</event>
<event>
 7    1  0.4966153E-006  0.1903111E+03  0.7561462E-02  0.1158181E+00
          1   -1    0    0  501    0  0.00000000000E+00  0.00000000000E+00  0.78605924251E+03  0.78605924251E+03  0.00000000000E+00 0. -1.
         -1   -1    0    0    0  501 -0.00000000000E+00 -0.00000000000E+00 -0.68511684399E+02  0.68511684399E+02  0.00000000000E+00 0.  1.
         23    2    1    2    0    0  0.32322204153E+02 -0.16141399660E+03  0.14687303955E+03  0.25361084733E+03  0.12509024326E+03 0.  0.
          5    1    3    3  502    0  0.78550368173E+02 -0.12154900610E+03  0.92919350670E+02  0.17203429702E+03  0.41800000000E+01 0.  1.
         -5    1    3    3    0  502 -0.46228164019E+02 -0.39864990502E+02  0.53953688882E+02  0.81576550309E+02  0.41800000000E+01 0.  1.
        -11    1    1    2    0    0  0.15803395250E+02  0.65039270504E+02  0.11815633400E+03  0.13579680878E+03  0.00000000000E+00 0.  1.
         11    1    1    2    0    0 -0.48125599404E+02  0.96374726095E+02  0.45251818456E+03  0.46516327081E+03  0.00000000000E+00 0. -1.
</event>
<event>
 7    1  0.4966153E-006  0.1332904E+03  0.7561462E-02  0.1222653E+00
         -2   -1    0    0    0  501 -0.00000000000E+00  0.00000000000E+00  0.16723410150E+03  0.16723410150E+03  0.00000000000E+00 0.  1.
          2   -1    0    0  501    0  0.00000000000E+00 -0.00000000000E+00 -0.30518833425E+03  0.30518833425E+03  0.00000000000E+00 0. -1.
         23    2    1    2    0    0  0.68893881489E+02  0.58842963978E+02  0.11828944565E+03  0.18587580559E+03  0.11112407856E+03 0.  0.
          5    1    3    3  502    0 -0.29116964408E+02  0.53939679639E+01  0.37723121863E+02  0.48139368814E+02  0.41800000000E+01 0. -1.
         -5    1    3    3    0  502  0.98010845896E+02  0.53448996014E+02  0.80566323785E+02  0.13773643678E+03  0.41800000000E+01 0.  1.
        -11    1    1    2    0    0 -0.55271194643E+02  0.87918660212E+01 -0.83359266264E+02  0.10040402949E+03  0.00000000000E+00 0. -1.
         11    1    1    2    0    0 -0.13622686846E+02 -0.67634829999E+02 -0.17288441214E+03  0.18614260067E+03  0.00000000000E+00 0.  1.
</event>
<event>
 7    1  0.4966153E-006  0.7134540E+02  0.7561462E-02  0.1355577E+00
          2   -1    0    0  501    0  0.00000000000E+00  0.00000000000E+00  0.72988771169E+03  0.72988771169E+03  0.00000000000E+00 0. -1.
         -2   -1    0    0    0  501 -0.00000000000E+00 -0.00000000000E+00 -0.16736103096E+02  0.16736103096E+02  0.00000000000E+00 0.  1.
         23    2    1    2    0    0  0.26986476326E+02  0.68532599243E+01  0.42861257190E+03  0.44736046034E+03  0.12508959832E+03 0.  0.
          5    1    3    3  502    0  0.20234600617E+02  0.30065671243E+02  0.27974752630E+02  0.45972196316E+02  0.41800000000E+01 0. -1.
         -5    1    3    3    0  502  0.67518757089E+01 -0.23212411319E+02  0.40063781927E+03  0.40138826402E+03  0.41800000000E+01 0. -1.
        -11    1    1    2    0    0 -0.14737695068E+02  0.35048693975E+02  0.63974866348E+02  0.74420387862E+02  0.00000000000E+00 0.  1.
         11    1    1    2    0    0 -0.12248781258E+02 -0.41901953899E+02  0.22056417034E+03  0.22484296658E+03  0.00000000000E+00 0. -1.
</event>
<event>
 7    1  0.4966153E-006  0.8878029E+02  0.7561462E-02  0.1305833E+00
          1   -1    0    0  501    0  0.00000000000E+00  0.00000000000E+00  0.29669100459E+03  0.29669100459E+03  0.00000000000E+00 0. -1.
         -1   -1    0    0    0  501 -0.00000000000E+00 -0.00000000000E+00 -0.41831911365E+02  0.41831911365E+02  0.00000000000E+00 0.  1.
         23    2    1    2    0    0 -0.56453692152E+01 -0.21677289321E+02  0.16591710572E+03  0.20899213522E+03  0.12508977397E+03 0.  0.
          5    1    3    3  502    0 -0.47731607186E+02 -0.10602551092E+01  0.13960448846E+02  0.49917902575E+02  0.41800000000E+01 0. -1.
         -5    1    3    3    0  502  0.42086237971E+02 -0.20617034212E+02  0.15195665687E+03  0.15907423265E+03  0.41800000000E+01 0. -1.
        -11    1    1    2    0    0 -0.31958838019E+02  0.30260771109E+02  0.15655549309E+02  0.46713786186E+02  0.00000000000E+00 0.  1.
         11    1    1    2    0    0  0.37604207234E+02 -0.85834817886E+01  0.73286438205E+02  0.82816994548E+02  0.00000000000E+00 0. -1.
</event>
<event>
 7    1  0.4966153E-006  0.1516632E+03  0.7561462E-02  0.1198444E+00
          2   -1    0    0  501    0  0.00000000000E+00  0.00000000000E+00  0.46456228073E+03  0.46456228073E+03  0.00000000000E+00 0. -1.
         -2   -1    0    0    0  501 -0.00000000000E+00 -0.00000000000E+00 -0.71083035787E+02  0.71083035787E+02  0.00000000000E+00 0.  1.
         23    2    1    2    0    0  0.11873967140E+03  0.44868299382E+02  0.99294758892E+02  0.20400826509E+03  0.12509056410E+03 0.  0.
          5    1    3    3  502    0 -0.98039731951E+01  0.31590257369E+02 -0.98935423987E+01  0.34776670805E+02  0.41800000000E+01 0. -1.
         -5    1    3    3    0  502  0.12854364459E+03  0.13278042012E+02  0.10918830129E+03  0.16923159428E+03  0.41800000000E+01 0. -1.
        -11    1    1    2    0    0 -0.10657605858E+03 -0.13973176356E+02  0.15550692375E+03  0.18903996734E+03  0.00000000000E+00 0.  1.
         11    1    1    2    0    0 -0.12163612815E+02 -0.30895123026E+02  0.13867756230E+03  0.14259708408E+03  0.00000000000E+00 0. -1.
</event>
<event>
 7    1  0.4966153E-006  0.1613889E+03  0.7561462E-02  0.1187138E+00
         -1   -1    0    0    0  501 -0.00000000000E+00  0.00000000000E+00  0.95812128509E+02  0.95812128509E+02  0.00000000000E+00 0.  1.
          1   -1    0    0  501    0  0.00000000000E+00 -0.00000000000E+00 -0.45926999976E+03  0.45926999976E+03  0.00000000000E+00 0. -1.
         23    2    1    2    0    0  0.11398543338E+03  0.61812999422E+02 -0.25728922432E+02  0.18199423003E+03  0.12508555630E+03 0.  0.
          5    1    3    3  502    0  0.10654841915E+03 -0.54035125303E+01  0.64980777315E+01  0.10696476516E+03  0.41800000000E+01 0.  1.
         -5    1    3    3    0  502  0.74370142338E+01  0.67216511952E+02 -0.32227000164E+02  0.75029464874E+02  0.41800000000E+01 0.  1.
        -11    1    1    2    0    0 -0.10058137347E+03 -0.77968861669E+02 -0.22567790615E+03  0.25908738565E+03  0.00000000000E+00 0.  1.
         11    1    1    2    0    0 -0.13404059913E+02  0.16155862247E+02 -0.11205104267E+03  0.11400051259E+03  0.00000000000E+00 0. -1.
</event>
<event>
 7    1  0.4966153E-006  0.1306054E+03  0.7561462E-02  0.1226560E+00
          1   -1    0    0  501    0  0.00000000000E+00  0.00000000000E+00  0.47229007715E+03  0.47229007715E+03  0.00000000000E+00 0. -1.
         -1   -1    0    0    0  501 -0.00000000000E+00 -0.00000000000E+00 -0.71437104083E+02  0.71437104083E+02  0.00000000000E+00 0.  1.
         23    2    1    2    0    0 -0.69930895885E+02  0.43025011650E+02  0.16033206543E+02  0.13958311326E+03  0.11173584908E+03 0.  0.
          5    1    3    3  502    0 -0.69355831896E+02 -0.22293363456E+02  0.12499003539E+02  0.74033255782E+02  0.41800000000E+01 0. -1.
         -5    1    3    3    0  502 -0.57506398894E+00  0.65318375106E+02  0.35342030033E+01  0.65549857483E+02  0.41800000000E+01 0.  1.
        -11    1    1    2    0    0  0.28699800395E+02 -0.68534634699E+02  0.25327163673E+03  0.26394544259E+03  0.00000000000E+00 0. -1.
         11    1    1    2    0    0  0.41231095490E+02  0.25509623048E+02  0.13154812980E+03  0.14019862538E+03  0.00000000000E+00 0.  1.
</event>
<event>
 7    1  0.4966153E-006  0.8872597E+02  0.7561462E-02  0.1305967E+00
          3   -1    0    0  501    0  0.00000000000E+00  0.00000000000E+00  0.90350243097E+02  0.90350243097E+02  0.00000000000E+00 0. -1.
         -3   -1    0    0    0  501 -0.00000000000E+00 -0.00000000000E+00 -0.23782503830E+03  0.23782503830E+03  0.00000000000E+00 0.  1.
         23    2    1    2    0    0  0.25369465740E+02  0.30343674760E+02 -0.17802398927E+03  0.22114372574E+03  0.12509060032E+03 0.  0.
          5    1    3    3  502    0 -0.39731683706E+02  0.41259286605E+02 -0.46391280059E+02  0.73827899108E+02  0.41800000000E+01 0.  1.
         -5    1    3    3    0  502  0.65101149446E+02 -0.10915611845E+02 -0.13163270921E+03  0.14731582663E+03  0.41800000000E+01 0.  1.
        -11    1    1    2    0    0 -0.34941930660E+02 -0.24191974186E+02  0.61101921319E+02  0.74428723771E+02  0.00000000000E+00 0. -1.
         11    1    1    2    0    0  0.95724649202E+01 -0.61517005737E+01 -0.30552727249E+02  0.32602831886E+02  0.00000000000E+00 0.  1.
</event>
<event>
 7    1  0.4966153E-006  0.1077311E+03  0.7561462E-02  0.1264830E+00
          2   -1    0    0  501    0  0.00000000000E+00  0.00000000000E+00  0.31157574445E+03  0.31157574445E+03  0.00000000000E+00 0. -1.
         -2   -1    0    0    0  501 -0.00000000000E+00 -0.00000000000E+00 -0.52801047264E+02  0.52801047264E+02  0.00000000000E+00 0.  1.
         23    2    1    2    0    0 -0.40932762654E+02  0.45931820965E+02  0.10021964917E+03  0.17168390494E+03  0.12508461895E+03 0.  0.
          5    1    3    3  502    0 -0.93064290199E+01  0.82765259353E+02  0.35407020104E+02  0.90597059828E+02  0.41800000000E+01 0. -1.
         -5    1    3    3    0  502 -0.31626333634E+02 -0.36833438388E+02  0.64812629070E+02  0.81086845108E+02  0.41800000000E+01 0. -1.
        -11    1    1    2    0    0 -0.91383435142E+01 -0.29126798871E+02  0.58105300031E+01  0.31074780668E+02  0.00000000000E+00 0.  1.
         11    1    1    2    0    0  0.50071106168E+02 -0.16805022094E+02  0.15274451801E+03  0.16161810611E+03  0.00000000000E+00 0. -1.
</event>
<event>
 7    1  0.4966153E-006  0.1413437E+03  0.7561462E-02  0.1211532E+00
         -1   -1    0    0    0  501 -0.00000000000E+00  0.00000000000E+00  0.17599423042E+03  0.17599423042E+03  0.00000000000E+00 0.  1.
          1   -1    0    0  501    0  0.00000000000E+00 -0.00000000000E+00 -0.15680223082E+03  0.15680223082E+03  0.00000000000E+00 0. -1.
         23    2    1    2    0    0 -0.22385340348E+02 -0.10274927385E+03  0.77801234377E+02  0.18099163514E+03  0.12508566337E+03 0.  0.
          5    1    3    3  502    0  0.31491934566E+02  0.11176612351E+02  0.17125875602E+01  0.33720379038E+02  0.41800000000E+01 0.  1.
         -5    1    3    3    0  502 -0.53877274914E+02 -0.11392588620E+03  0.76088646817E+02  0.14727125610E+03  0.41800000000E+01 0.  1.
        -11    1    1    2    0    0 -0.19436767656E+02  0.11607729990E+02 -0.45305840551E+02  0.50647275549E+02  0.00000000000E+00 0. -1.
         11    1    1    2    0    0  0.41822108005E+02  0.91141543861E+02 -0.13303394227E+02  0.10115755055E+03  0.00000000000E+00 0.  1.
</event>
<event>
 6    1  0.4966153E-006  0.1514620E+03  0.7561462E-02  0.1198688E+00
          1   -1    0    0  501    0  0.00000000000E+00  0.00000000000E+00  0.31824978451E+03  0.31824978451E+03  0.00000000000E+00 0. -1.
         -1   -1    0    0    0  501 -0.00000000000E+00 -0.00000000000E+00 -0.11858433099E+03  0.11858433099E+03  0.00000000000E+00 0.  1.
          5    1    1    2  502    0  0.84772579151E+02  0.30577614149E+02 -0.42379393647E+01  0.90315077330E+02  0.41800000000E+01 0. -1.
         -5    1    1    2    0  502 -0.61950943602E+02  0.60531370367E+02 -0.18190092487E+02  0.88602020724E+02  0.41800000000E+01 0.  1.
        -11    1    1    2    0    0 -0.38728050566E+01 -0.10335806319E+03  0.20498400917E+03  0.22960037426E+03  0.00000000000E+00 0. -1.
         11    1    1    2    0    0 -0.18948830493E+02  0.12249078671E+02  0.17109476205E+02  0.28316643186E+02  0.00000000000E+00 0.  1.
</event>
<event>
 7    1  0.4966153E-006  0.1051463E+03  0.7561462E-02  0.1269832E+00
          2   -1    0    0  501    0  0.00000000000E+00  0.00000000000E+00  0.11770020012E+03  0.11770020012E+03  0.00000000000E+00 0. -1.
         -2   -1    0    0    0  501 -0.00000000000E+00 -0.00000000000E+00 -0.11608824753E+03  0.11608824753E+03  0.00000000000E+00 0.  1.
         23    2    1    2    0    0 -0.21461337182E+02 -0.16081273097E+02 -0.32551963993E+02  0.13200829177E+03  0.12508941761E+03 0.  0.
          5    1    3    3  502    0 -0.44407696831E+02  0.42043363873E+02 -0.32499591460E+02  0.69378554530E+02  0.41800000000E+01 0.  1.
         -5    1    3    3    0  502  0.22946359650E+02 -0.58124636970E+02 -0.52372532953E-01  0.62629737242E+02  0.41800000000E+01 0.  1.
        -11    1    1    2    0    0  0.30342312173E+02  0.46029236706E+02 -0.48091031257E+00  0.55132366305E+02  0.00000000000E+00 0.  1.
         11    1    1    2    0    0 -0.88809749909E+01 -0.29947963609E+02  0.34644826893E+02  0.46647789568E+02  0.00000000000E+00 0. -1.
</event>
<event>
 7    1  0.4966153E-006  0.1058335E+03  0.7561462E-02  0.1268486E+00
          2   -1    0    0  501    0  0.00000000000E+00  0.00000000000E+00  0.63377353243E+03  0.63377353243E+03  0.00000000000E+00 0. -1.
         -2   -1    0    0    0  501 -0.00000000000E+00 -0.00000000000E+00 -0.30320715229E+02  0.30320715229E+02  0.00000000000E+00 0.  1.
         23    2    1    2    0    0  0.39836033994E+02 -0.73812277433E+02  0.29091125943E+03  0.32758662650E+03  0.12509386513E+03 0.  0.
          5    1    3    3  502    0  0.44575954880E+02 -0.78293516174E+02  0.30136701071E+03  0.31457342223E+03  0.41800000000E+01 0.  1.
         -5    1    3    3    0  502 -0.47399208861E+01  0.44812387407E+01 -0.10455751277E+02  0.13013204272E+02  0.41800000000E+01 0.  1.
        -11    1    1    2    0    0 -0.56203194132E+02  0.23672089495E+02  0.23459969421E+03  0.24239674787E+03  0.00000000000E+00 0. -1.
         11    1    1    2    0    0  0.16367160138E+02  0.50140187938E+02  0.77941863559E+02  0.94110873296E+02  0.00000000000E+00 0.  1.
</event>
<event>
 7    1  0.4966153E-006  0.1438680E+03  0.7561462E-02  0.1208217E+00
          1   -1    0    0  501    0  0.00000000000E+00  0.00000000000E+00  0.14078426765E+04  0.14078426765E+04  0.00000000000E+00 0. -1.
         -1   -1    0    0    0  501 -0.00000000000E+00 -0.00000000000E+00 -0.15396987110E+02  0.15396987110E+02  0.00000000000E+00 0.  1.
         23    2    1    2    0    0  0.74631475629E+02  0.65558654643E+02  0.74758133155E+03  0.76445681946E+03  0.12509431321E+03 0.  0.
          5    1    3    3  502    0  0.77855633756E+02  0.98542765384E+02  0.61746197482E+03  0.63011819452E+03  0.41800000000E+01 0.  1.
         -5    1    3    3    0  502 -0.32241581276E+01 -0.32984110741E+02  0.13011935673E+03  0.13433862495E+03  0.41800000000E+01 0.  1.
        -11    1    1    2    0    0 -0.38635717905E+02  0.14205997682E+02  0.12497847053E+03  0.13158323284E+03  0.00000000000E+00 0. -1.
         11    1    1    2    0    0 -0.35995757724E+02 -0.79764652325E+02  0.51988588729E+03  0.52719961129E+03  0.00000000000E+00 0.  1.
</event>
<event>
 7    1  0.4966153E-006  0.1803856E+03  0.7561462E-02  0.1167430E+00
         -2   -1    0    0    0  501 -0.00000000000E+00  0.00000000000E+00  0.11162796892E+03  0.11162796892E+03  0.00000000000E+00 0.  1.
          2   -1    0    0  501    0  0.00000000000E+00 -0.00000000000E+00 -0.56160340700E+03  0.56160340700E+03  0.00000000000E+00 0. -1.
         23    2    1    2    0    0  0.15342858900E+03 -0.23979696275E+02 -0.41618969773E+01  0.19255938600E+03  0.11378241513E+03 0.  0.
          5    1    3    3  502    0  0.15360590938E+03  0.31206666946E+01 -0.28000995000E+02  0.15622433254E+03  0.41800000000E+01 0. -1.
         -5    1    3    3    0  502 -0.17732037329E+00 -0.27100362970E+02  0.23839098022E+02  0.36335053463E+02  0.41800000000E+01 0.  1.
        -11    1    1    2    0    0 -0.90364077039E+02  0.58611170152E+02 -0.27308145358E+03  0.29355479211E+03  0.00000000000E+00 0. -1.
         11    1    1    2    0    0 -0.63064511965E+02 -0.34631473877E+02 -0.17273208753E+03  0.18711719781E+03  0.00000000000E+00 0.  1.
</event>
<event>
 7    1  0.4966153E-006  0.7769012E+02  0.7561462E-02  0.1335737E+00
          1   -1    0    0  501    0  0.00000000000E+00  0.00000000000E+00  0.99388543986E+02  0.99388543986E+02  0.00000000000E+00 0. -1.
         -1   -1    0    0    0  501 -0.00000000000E+00 -0.00000000000E+00 -0.13738267000E+03  0.13738267000E+03  0.00000000000E+00 0.  1.
         23    2    1    2    0    0  0.63806815746E+01 -0.30973500884E+02 -0.64473214149E+02  0.14423969069E+03  0.12509285420E+03 0.  0.
          5    1    3    3  502    0 -0.29362673300E+01 -0.53000305551E+02  0.19594094743E+02  0.56736716535E+02  0.41800000000E+01 0. -1.
         -5    1    3    3    0  502  0.93169489046E+01  0.22026804667E+02 -0.84067308893E+02  0.87502974151E+02  0.41800000000E+01 0. -1.
        -11    1    1    2    0    0  0.25679248677E+02  0.37194204448E+02 -0.70292996747E+01  0.45741050611E+02  0.00000000000E+00 0.  1.
         11    1    1    2    0    0 -0.32059930251E+02 -0.62207035639E+01  0.33508387812E+02  0.46790472687E+02  0.00000000000E+00 0. -1.
</event>
<event>
 7    1  0.4966153E-006  0.1288084E+03  0.7561462E-02  0.1229235E+00
         -2   -1    0    0    0  501 -0.00000000000E+00  0.00000000000E+00  0.45614607296E+02  0.45614607296E+02  0.00000000000E+00 0.  1.
          2   -1    0    0  501    0  0.00000000000E+00 -0.00000000000E+00 -0.51808893243E+03  0.51808893243E+03  0.00000000000E+00 0. -1.
         23    2    1    2    0    0 -0.65213267775E+02  0.86575473288E+02 -0.26320766329E+03  0.31092270671E+03  0.12508626089E+03 0.  0.
          5    1    3    3  502    0 -0.46986878152E+01  0.78862840330E+02 -0.22575833195E+03  0.23921898357E+03  0.41800000000E+01 0.  1.
         -5    1    3    3    0  502 -0.60514579960E+02  0.77126329578E+01 -0.37449331334E+02  0.71703723141E+02  0.41800000000E+01 0.  1.
        -11    1    1    2    0    0  0.37464124563E+02 -0.80728375200E+02 -0.77547119788E+02  0.11804315727E+03  0.00000000000E+00 0.  1.
         11    1    1    2    0    0  0.27749143212E+02 -0.58470980873E+01 -0.13171954206E+03  0.13473767575E+03  0.00000000000E+00 0. -1.
</event>
<event>
 7    1  0.4966153E-006  0.7101147E+02  0.7561462E-02  0.1356687E+00
          1   -1    0    0  501    0  0.00000000000E+00  0.00000000000E+00  0.16753197567E+03  0.16753197567E+03  0.00000000000E+00 0. -1.
         -1   -1    0    0    0  501 -0.00000000000E+00 -0.00000000000E+00 -0.76943840606E+02  0.76943840606E+02  0.00000000000E+00 0.  1.
         23    2    1    2    0    0 -0.23434069749E+02 -0.32669998468E+01  0.79331311346E+02  0.14999883037E+03  0.12508542377E+03 0.  0.
          5    1    3    3  502    0  0.31703535416E+02 -0.32153313551E+02 -0.44230817443E+01  0.45562986977E+02  0.41800000000E+01 0.  1.
         -5    1    3    3    0  502 -0.55137605165E+02  0.28886313704E+02  0.83754393090E+02  0.10443584339E+03  0.41800000000E+01 0.  1.
        -11    1    1    2    0    0  0.21365133757E+02 -0.80147618221E+01 -0.37769102994E+02  0.44127208029E+02  0.00000000000E+00 0.  1.
         11    1    1    2    0    0  0.20689359920E+01  0.11281761669E+02  0.49025926710E+02  0.50349777877E+02  0.00000000000E+00 0. -1.
</event>
<event>
 7    1  0.4966153E-006  0.9238028E+02  0.7561462E-02  0.1297188E+00
          1   -1    0    0  501    0  0.00000000000E+00  0.00000000000E+00  0.49317165625E+02  0.49317165625E+02  0.00000000000E+00 0. -1.
         -1   -1    0    0    0  501 -0.00000000000E+00 -0.00000000000E+00 -0.28285759068E+03  0.28285759068E+03  0.00000000000E+00 0.  1.
         23    2    1    2    0    0 -0.13903573011E+02 -0.44648110275E+02 -0.12969748941E+03  0.18576680112E+03  0.12450342383E+03 0.  0.
          5    1    3    3  502    0  0.42678893485E+02  0.69306225882E+01 -0.11602154072E+02  0.44962249250E+02  0.41800000000E+01 0. -1.
         -5    1    3    3    0  502 -0.56582466495E+02 -0.51578732863E+02 -0.11809533534E+03  0.14080455187E+03  0.41800000000E+01 0. -1.
        -11    1    1    2    0    0  0.25123041534E+02  0.80757806346E+01  0.85049376719E+01  0.27725789683E+02  0.00000000000E+00 0. -1.
         11    1    1    2    0    0 -0.11219468523E+02  0.36572329641E+02 -0.11234787332E+03  0.11868216550E+03  0.00000000000E+00 0.  1.
</event>
<event>
 7    1  0.4966153E-006  0.1256611E+03  0.7561462E-02  0.1234040E+00
         -1   -1    0    0    0  501 -0.00000000000E+00  0.00000000000E+00  0.86844122770E+02  0.86844122770E+02  0.00000000000E+00 0.  1.
          1   -1    0    0  501    0  0.00000000000E+00 -0.00000000000E+00 -0.24170416395E+03  0.24170416395E+03  0.00000000000E+00 0. -1.
         23    2    1    2    0    0  0.53519104498E+02  0.33342328779E+02 -0.42692293731E+01  0.14014693986E+03  0.12508770123E+03 0.  0.
          5    1    3    3  502    0  0.87413981821E+02 -0.42714697016E+01 -0.13063546023E+02  0.88586558269E+02  0.41800000000E+01 0. -1.
         -5    1    3    3    0  502 -0.33894877323E+02  0.37613798481E+02  0.87943166501E+01  0.51560381595E+02  0.41800000000E+01 0. -1.
        -11    1    1    2    0    0 -0.72944171624E+02 -0.49063466469E+02 -0.11118651513E+03  0.14174102110E+03  0.00000000000E+00 0.  1.
         11    1    1    2    0    0  0.19425067126E+02  0.15721137690E+02 -0.39404296680E+02  0.46660325759E+02  0.00000000000E+00 0. -1.
</event>
<event>
 7    1  0.4966153E-006  0.1431511E+03  0.7561462E-02  0.1209151E+00
          1   -1    0    0  501    0  0.00000000000E+00  0.00000000000E+00  0.65690422508E+03  0.65690422508E+03  0.00000000000E+00 0. -1.
         -1   -1    0    0    0  501 -0.00000000000E+00 -0.00000000000E+00 -0.35102248234E+02  0.35102248234E+02  0.00000000000E+00 0.  1.
         23    2    1    2    0    0  0.77109846410E+02 -0.67549977637E+02  0.28803383381E+03  0.33033305295E+03  0.12509000185E+03 0.  0.
          5    1    3    3  502    0  0.32049497724E+02  0.27145115984E+02  0.15632038885E+03  0.16191838684E+03  0.41800000000E+01 0.  1.
         -5    1    3    3    0  502  0.45060348686E+02 -0.94695093621E+02  0.13171344496E+03  0.16841466611E+03  0.41800000000E+01 0.  1.
        -11    1    1    2    0    0 -0.30387192834E+02  0.84219956313E+02  0.20621488612E+03  0.22481317085E+03  0.00000000000E+00 0.  1.
         11    1    1    2    0    0 -0.46722653575E+02 -0.16669978676E+02  0.12755325691E+03  0.13686024951E+03  0.00000000000E+00 0. -1.
</event>
<event>
 7    1  0.4966153E-006  0.2537055E+03  0.7561462E-02  0.1110985E+00
          1   -1    0    0  501    0  0.00000000000E+00  0.00000000000E+00  0.44930338084E+03  0.44930338084E+03  0.00000000000E+00 0. -1.
         -1   -1    0    0    0  501 -0.00000000000E+00 -0.00000000000E+00 -0.17474256969E+03  0.17474256969E+03  0.00000000000E+00 0.  1.
         23    2    1    2    0    0  0.23720249817E+03  0.74803621001E+02  0.62423997277E+02  0.28531600921E+03  0.12509141787E+03 0.  0.
          5    1    3    3  502    0  0.23033213016E+03  0.67357091892E+02  0.89458088687E+02  0.25614466624E+03  0.41800000000E+01 0. -1.
         -5    1    3    3    0  502  0.68703680074E+01  0.74465291092E+01 -0.27034091410E+02  0.29171342970E+02  0.41800000000E+01 0. -1.
        -11    1    1    2    0    0 -0.10115984963E+03  0.49274934128E-01  0.12454714277E+03  0.16045344613E+03  0.00000000000E+00 0. -1.
         11    1    1    2    0    0 -0.13604264854E+03 -0.74852895935E+02  0.87589671107E+02  0.17827649519E+03  0.00000000000E+00 0.  1.
</event>
<event>
 7    1  0.4966153E-006  0.1491298E+03  0.7561462E-02  0.1201546E+00
         -2   -1    0    0    0  501 -0.00000000000E+00  0.00000000000E+00  0.55429747661E+02  0.55429747661E+02  0.00000000000E+00 0. -1.
          2   -1    0    0  501    0  0.00000000000E+00 -0.00000000000E+00 -0.43529467416E+03  0.43529467416E+03  0.00000000000E+00 0.  1.
         23    2    1    2    0    0  0.67568189804E+02 -0.78514340005E+02 -0.14266345047E+03  0.21617181753E+03  0.12508969875E+03 0.  0.
          5    1    3    3  502    0  0.90875633518E+02 -0.94711217634E+02 -0.10140216714E+03  0.16591704980E+03  0.41800000000E+01 0. -1.
         -5    1    3    3    0  502 -0.23307443714E+02  0.16196877629E+02 -0.41261283326E+02  0.50254767725E+02  0.41800000000E+01 0. -1.
        -11    1    1    2    0    0 -0.33185557734E+02  0.94625768944E+02 -0.17064505562E+03  0.19792688649E+03  0.00000000000E+00 0.  1.
         11    1    1    2    0    0 -0.34382632070E+02 -0.16111428939E+02 -0.66556420407E+02  0.76625717797E+02  0.00000000000E+00 0. -1.
</event>
<event>
 6    1  0.4966153E-006  0.3127967E+03  0.7561462E-02  0.1079013E+00
         -2   -1    0    0    0  501 -0.00000000000E+00  0.00000000000E+00  0.66342984365E+03  0.66342984365E+03  0.00000000000E+00 0.  1.
          2   -1    0    0  501    0  0.00000000000E+00 -0.00000000000E+00 -0.17656678329E+03  0.17656678329E+03  0.00000000000E+00 0. -1.
          5    1    1    2  502    0 -0.19002671581E+03  0.63901232292E+01  0.30645421444E+02  0.19263333215E+03  0.41800000000E+01 0. -1.
         -5    1    1    2    0  502  0.27366752710E+03 -0.85902544621E+02  0.34097747218E+03  0.44559653443E+03  0.41800000000E+01 0.  1.
        -11    1    1    2    0    0 -0.24001627894E+02  0.85316980926E+02  0.22647615978E+02  0.91476663064E+02  0.00000000000E+00 0.  1.
         11    1    1    2    0    0 -0.59639183393E+02 -0.58045595346E+01  0.92592550757E+02  0.11029009730E+03  0.00000000000E+00 0. -1.
</event>
<event>
 7    1  0.4966153E-006  0.9879373E+02  0.7561462E-02  0.1282853E+00
          1   -1    0    0  501    0  0.00000000000E+00  0.00000000000E+00  0.27341512844E+03  0.27341512844E+03  0.00000000000E+00 0. -1.
         -1   -1    0    0    0  501 -0.00000000000E+00 -0.00000000000E+00 -0.42158939028E+02  0.42158939028E+02  0.00000000000E+00 0.  1.
         23    2    1    2    0    0 -0.29684925900E+02  0.10085489520E+02  0.13606760270E+03  0.18747296188E+03  0.12509519177E+03 0.  0.
          5    1    3    3  502    0 -0.17578561443E+01  0.57492767976E+02  0.11454495554E+03  0.12824401611E+03  0.41800000000E+01 0.  1.
         -5    1    3    3    0  502 -0.27927069756E+02 -0.47407278456E+02  0.21522647158E+02  0.59228945765E+02  0.41800000000E+01 0.  1.
        -11    1    1    2    0    0  0.50676923025E+02  0.14206466163E+02  0.49432213178E+02  0.72204694500E+02  0.00000000000E+00 0.  1.
         11    1    1    2    0    0 -0.20991997125E+02 -0.24291955683E+02  0.45756373535E+02  0.55896411095E+02  0.00000000000E+00 0. -1.
</event>
<event>
 7    1  0.4966153E-006  0.9572062E+02  0.7561462E-02  0.1289561E+00
          1   -1    0    0  501    0  0.00000000000E+00  0.00000000000E+00  0.24014573041E+03  0.24014573041E+03  0.00000000000E+00 0. -1.
         -1   -1    0    0    0  501 -0.00000000000E+00 -0.00000000000E+00 -0.99304495712E+02  0.99304495712E+02  0.00000000000E+00 0.  1.
         23    2    1    2    0    0 -0.30555173322E+01  0.52165264510E+02 -0.29827365481E+02  0.13880972985E+03  0.12509163985E+03 0.  0.
          5    1    3    3  502    0 -0.48555949250E+02  0.53302435726E+02  0.16119572308E+02  0.74000965353E+02  0.41800000000E+01 0.  1.
         -5    1    3    3    0  502  0.45500431918E+02 -0.11371712155E+01 -0.45946937789E+02  0.64808764494E+02  0.41800000000E+01 0.  1.
        -11    1    1    2    0    0 -0.23895193643E+02 -0.31562023901E+02  0.16677085446E+02  0.42956568892E+02  0.00000000000E+00 0.  1.
         11    1    1    2    0    0  0.26950710975E+02 -0.20603240610E+02  0.15399151473E+03  0.15768392739E+03  0.00000000000E+00 0. -1.
</event>
<event>
 6    1  0.4966153E-006  0.1265121E+03  0.7561462E-02  0.1232725E+00
          3   -1    0    0  501    0  0.00000000000E+00  0.00000000000E+00  0.39651381369E+03  0.39651381369E+03  0.00000000000E+00 0. -1.
         -3   -1    0    0    0  501 -0.00000000000E+00 -0.00000000000E+00 -0.75325449910E+02  0.75325449910E+02  0.00000000000E+00 0.  1.
          5    1    1    2  502    0 -0.14981909148E+02  0.60554638395E+01  0.11508034069E+03  0.11628449363E+03  0.41800000000E+01 0. -1.
         -5    1    1    2    0  502 -0.97681667451E+02  0.19441970735E+02 -0.48153794403E+01  0.99801596487E+02  0.41800000000E+01 0.  1.
        -11    1    1    2    0    0 -0.84520306534E+01 -0.12147210212E+02  0.35297923375E+01  0.15213512811E+02  0.00000000000E+00 0.  1.
         11    1    1    2    0    0  0.12111560725E+03 -0.13350224363E+02  0.20739361019E+03  0.24053966067E+03  0.00000000000E+00 0. -1.
</event>
<event>
 7    1  0.4966153E-006  0.1653163E+03  0.7561462E-02  0.1182822E+00
          1   -1    0    0  501    0  0.00000000000E+00  0.00000000000E+00  0.32975652600E+03  0.32975652600E+03  0.00000000000E+00 0.  1.
         -1   -1    0    0    0  501 -0.00000000000E+00 -0.00000000000E+00 -0.12025200146E+03  0.12025200146E+03  0.00000000000E+00 0. -1.
         23    2    1    2    0    0 -0.64312882117E+02 -0.13929301777E+03  0.37208287662E+02  0.20142395665E+03  0.12509381294E+03 0.  0.
          5    1    3    3  502    0 -0.42155409274E+02 -0.24918256894E+02  0.65089001359E+02  0.81560091685E+02  0.41800000000E+01 0.  1.
         -5    1    3    3    0  502 -0.22157472843E+02 -0.11437476088E+03 -0.27880713697E+02  0.11986386497E+03  0.41800000000E+01 0.  1.
        -11    1    1    2    0    0  0.15853013853E+02  0.10338971129E+03  0.15285589887E+03  0.18521791562E+03  0.00000000000E+00 0.  1.
         11    1    1    2    0    0  0.48459868265E+02  0.35903306482E+02  0.19440338006E+02  0.63366655193E+02  0.00000000000E+00 0. -1.
</event>
<event>
 7    1  0.4966153E-006  0.3499500E+02  0.7561462E-02  0.1548645E+00
         -1   -1    0    0    0  501 -0.00000000000E+00  0.00000000000E+00  0.37558489242E+02  0.37558489242E+02  0.00000000000E+00 0.  1.
          1   -1    0    0  501    0  0.00000000000E+00 -0.00000000000E+00 -0.42751114518E+03  0.42751114518E+03  0.00000000000E+00 0. -1.
         23    2    1    2    0    0 -0.33567710680E+02 -0.18128013049E+01 -0.31578839512E+03  0.34131968525E+03  0.12508692818E+03 0.  0.
          5    1    3    3  502    0 -0.24541144631E+02  0.15292703270E+01  0.41229102762E+00  0.24944915944E+02  0.41800000000E+01 0. -1.
         -5    1    3    3    0  502 -0.90265660483E+01 -0.33420716319E+01 -0.31620068614E+03  0.31637476931E+03  0.41800000000E+01 0. -1.
        -11    1    1    2    0    0  0.18354209927E+02 -0.30005532533E+01  0.20541223427E+02  0.27709604865E+02  0.00000000000E+00 0.  1.
         11    1    1    2    0    0  0.15213500752E+02  0.48133545582E+01 -0.94705484247E+02  0.96040344303E+02  0.00000000000E+00 0. -1.
</event>
<event>
 7    1  0.4966153E-006  0.1260688E+03  0.7561462E-02  0.1233408E+00
          1   -1    0    0  501    0  0.00000000000E+00  0.00000000000E+00  0.12223233209E+03  0.12223233209E+03  0.00000000000E+00 0. -1.
         -1   -1    0    0    0  501 -0.00000000000E+00 -0.00000000000E+00 -0.23279023422E+03  0.23279023422E+03  0.00000000000E+00 0.  1.
         23    2    1    2    0    0  0.50698800376E+02  0.78803609745E+02 -0.15213581386E+03  0.21811339773E+03  0.12509105141E+03 0.  0.
          5    1    3    3  502    0  0.51254847029E+02  0.10956246681E+03 -0.13925600605E+03  0.18450122248E+03  0.41800000000E+01 0. -1.
         -5    1    3    3    0  502 -0.55604665305E+00 -0.30758857063E+02 -0.12879807812E+02  0.33612175249E+02  0.41800000000E+01 0. -1.
        -11    1    1    2    0    0 -0.25160168156E+02 -0.10728180106E+02  0.56420998450E+02  0.62701331534E+02  0.00000000000E+00 0. -1.
         11    1    1    2    0    0 -0.25538632220E+02 -0.68075429639E+02 -0.14843086717E+02  0.74207837049E+02  0.00000000000E+00 0.  1.
</event>
<event>
 7    1  0.4966153E-006  0.1086441E+03  0.7561462E-02  0.1263102E+00
         -1   -1    0    0    0  501 -0.00000000000E+00  0.00000000000E+00  0.13071452509E+03  0.13071452509E+03  0.00000000000E+00 0.  1.
          1   -1    0    0  501    0  0.00000000000E+00 -0.00000000000E+00 -0.91576479438E+02  0.91576479438E+02  0.00000000000E+00 0. -1.
         23    2    1    2    0    0  0.10396931666E+01  0.77096248001E+01  0.24313722077E+02  0.12766944949E+03  0.12509121462E+03 0.  0.
          5    1    3    3  502    0  0.46673598852E+01 -0.58019671110E+02  0.33365723321E+01  0.58452301913E+02  0.41800000000E+01 0. -1.
         -5    1    3    3    0  502 -0.36276667185E+01  0.65729295910E+02  0.20977149745E+02  0.69217147572E+02  0.41800000000E+01 0. -1.
        -11    1    1    2    0    0 -0.20161399419E+02 -0.45969967687E+02  0.32058844156E+01  0.50299082005E+02  0.00000000000E+00 0.  1.
         11    1    1    2    0    0  0.19121706253E+02  0.38260342886E+02  0.11618439162E+02  0.44322473040E+02  0.00000000000E+00 0. -1.
</event>
<event>
 7    1  0.4966153E-006  0.1020007E+03  0.7561462E-02  0.1276144E+00
          1   -1    0    0  501    0  0.00000000000E+00  0.00000000000E+00  0.79751906213E+02  0.79751906213E+02  0.00000000000E+00 0. -1.
         -1   -1    0    0    0  501 -0.00000000000E+00 -0.00000000000E+00 -0.23434181234E+03  0.23434181234E+03  0.00000000000E+00 0.  1.
         23    2    1    2    0    0 -0.41969047533E+02  0.48799821276E+02 -0.14416432090E+03  0.20142971909E+03  0.12509099410E+03 0.  0.
          5    1    3    3  502    0 -0.49683905352E+02  0.72883617119E+02 -0.15097843077E+03  0.17490703546E+03  0.41800000000E+01 0.  1.
         -5    1    3    3    0  502  0.77148578193E+01 -0.24083795843E+02  0.68141098756E+01  0.26522683627E+02  0.41800000000E+01 0.  1.
        -11    1    1    2    0    0  0.10396034692E+02 -0.56594802851E+02  0.26592804164E+02  0.63389482411E+02  0.00000000000E+00 0. -1.
         11    1    1    2    0    0  0.31573012841E+02  0.77949815753E+01 -0.37018389394E+02  0.49274517054E+02  0.00000000000E+00 0.  1.
</event>
<event>
 6    1  0.4966153E-006  0.6581853E+02  0.7561462E-02  0.1374919E+00
          2   -1    0    0  501    0  0.00000000000E+00  0.00000000000E+00  0.17393676867E+03  0.17393676867E+03  0.00000000000E+00 0. -1.
         -2   -1    0    0    0  501 -0.00000000000E+00 -0.00000000000E+00 -0.12469455711E+03  0.12469455711E+03  0.00000000000E+00 0.  1.
          5    1    1    2  502    0 -0.19483427788E+02  0.88106550614E-01  0.51899020244E+02  0.55593096904E+02  0.41800000000E+01 0. -1.
         -5    1    1    2    0  502 -0.10414213677E+02  0.38516966703E+02 -0.95611512609E+02  0.10368725242E+03  0.41800000000E+01 0.  1.
        -11    1    1    2    0    0  0.25528597304E+02 -0.51769255280E+02  0.10575177687E+03  0.12047905787E+03  0.00000000000E+00 0. -1.
         11    1    1    2    0    0  0.43690441613E+01  0.13164182027E+02 -0.12797072947E+02  0.18871918592E+02  0.00000000000E+00 0.  1.
</event>
<event>
 7    1  0.4966153E-006  0.9493445E+02  0.7561462E-02  0.1291324E+00
         -2   -1    0    0    0  501 -0.00000000000E+00  0.00000000000E+00  0.20143803742E+03  0.20143803742E+03  0.00000000000E+00 0.  1.
          2   -1    0    0  501    0  0.00000000000E+00 -0.00000000000E+00 -0.89127937290E+02  0.89127937290E+02  0.00000000000E+00 0. -1.
         23    2    1    2    0    0 -0.70796113085E+02 -0.31134828691E+02  0.72007640396E+02  0.16375053817E+03  0.12509065229E+03 0.  0.
          5    1    3    3  502    0 -0.61041083971E+02 -0.12413884801E+02  0.10629287642E+03  0.12327110954E+03  0.41800000000E+01 0. -1.
         -5    1    3    3    0  502 -0.97550291141E+01 -0.18720943890E+02 -0.34285236028E+02  0.40479428635E+02  0.41800000000E+01 0. -1.
        -11    1    1    2    0    0  0.32212306643E+02  0.52664046657E+02 -0.69492855900E+01  0.62124287358E+02  0.00000000000E+00 0. -1.
         11    1    1    2    0    0  0.38583806442E+02 -0.21529217966E+02  0.47251745322E+02  0.64691149177E+02  0.00000000000E+00 0.  1.
</event>
<event>
 7    1  0.4966153E-006  0.1312323E+03  0.7561462E-02  0.1225639E+00
          1   -1    0    0  501    0  0.00000000000E+00  0.00000000000E+00  0.62553044993E+03  0.62553044993E+03  0.00000000000E+00 0. -1.
         -1   -1    0    0    0  501 -0.00000000000E+00 -0.00000000000E+00 -0.45813164525E+02  0.45813164525E+02  0.00000000000E+00 0.  1.
         23    2    1    2    0    0  0.26101361227E+02  0.11125391079E+03  0.18558455592E+03  0.25128481045E+03  0.12507483696E+03 0.  0.
          5    1    3    3  502    0  0.22737771977E+02  0.97597809734E+01  0.13582153741E+03  0.13812031720E+03  0.41800000000E+01 0. -1.
         -5    1    3    3    0  502  0.33635892494E+01  0.10149412982E+03  0.49763018504E+02  0.11316449324E+03  0.41800000000E+01 0. -1.
        -11    1    1    2    0    0  0.45190968904E+01 -0.10421784103E+03  0.22464469264E+03  0.24768330295E+03  0.00000000000E+00 0.  1.
         11    1    1    2    0    0 -0.30620458117E+02 -0.70360697578E+01  0.16948803684E+03  0.17237550106E+03  0.00000000000E+00 0. -1.
</event>
<event>
 7    1  0.4966153E-006  0.1766935E+03  0.7561462E-02  0.1171042E+00
         -1   -1    0    0    0  501 -0.00000000000E+00  0.00000000000E+00  0.80873332811E+02  0.80873332811E+02  0.00000000000E+00 0.  1.
          1   -1    0    0  501    0  0.00000000000E+00 -0.00000000000E+00 -0.52975739194E+03  0.52975739194E+03  0.00000000000E+00 0. -1.
         23    2    1    2    0    0  0.94306880236E+02  0.13496470587E+03 -0.13973711223E+03  0.24954763516E+03  0.12505319744E+03 0.  0.
          5    1    3    3  502    0 -0.98837275901E+00  0.21086787463E+02  0.21425390338E+02  0.30366910237E+02  0.41800000000E+01 0. -1.
         -5    1    3    3    0  502  0.95295252995E+02  0.11387791841E+03 -0.16116250256E+03  0.21918072492E+03  0.41800000000E+01 0. -1.
        -11    1    1    2    0    0 -0.29266801995E+01 -0.72659743181E+02 -0.90864373590E+02  0.11638014489E+03  0.00000000000E+00 0.  1.
         11    1    1    2    0    0 -0.91380200036E+02 -0.62304962694E+02 -0.21828257332E+03  0.24470294471E+03  0.00000000000E+00 0. -1.
</event>
<event>
 7    1  0.4966153E-006  0.1138448E+03  0.7561462E-02  0.1253611E+00
         -2   -1    0    0    0  501 -0.00000000000E+00  0.00000000000E+00  0.16749869637E+02  0.16749869637E+02  0.00000000000E+00 0.  1.
          2   -1    0    0  501    0  0.00000000000E+00 -0.00000000000E+00 -0.80365348945E+03  0.80365348945E+03  0.00000000000E+00 0. -1.
         23    2    1    2    0    0  0.34468090949E+02 -0.72525659291E+01 -0.46162241400E+03  0.47956446699E+03  0.12508467486E+03 0.  0.
          5    1    3    3  502    0 -0.21445768145E+02  0.45378785628E+02 -0.13720256626E+03  0.14615461589E+03  0.41800000000E+01 0.  1.
         -5    1    3    3    0  502  0.55913859094E+02 -0.52631351557E+02 -0.32441984774E+03  0.33340985110E+03  0.41800000000E+01 0.  1.
        -11    1    1    2    0    0 -0.58398254678E+02  0.31502661716E+02 -0.18702311859E+03  0.19844500682E+03  0.00000000000E+00 0.  1.
         11    1    1    2    0    0  0.23930163729E+02 -0.24250095787E+02 -0.13825808722E+03  0.14239388528E+03  0.00000000000E+00 0. -1.
</event>
<event>
 7    1  0.4966153E-006  0.1302067E+03  0.7561462E-02  0.1227149E+00
         -2   -1    0    0    0  501 -0.00000000000E+00  0.00000000000E+00  0.36287073480E+02  0.36287073480E+02  0.00000000000E+00 0.  1.
          2   -1    0    0  501    0  0.00000000000E+00 -0.00000000000E+00 -0.63493392897E+03  0.63493392897E+03  0.00000000000E+00 0. -1.
         23    2    1    2    0    0 -0.62946043984E+02  0.82348937944E+02 -0.28096587220E+03  0.32455071613E+03  0.12509114264E+03 0.  0.
          5    1    3    3  502    0 -0.60918536164E+01 -0.12475487932E+02  0.69712556980E+01  0.16087861438E+02  0.41800000000E+01 0.  1.
         -5    1    3    3    0  502 -0.56854190367E+02  0.94824425877E+02 -0.28793712789E+03  0.30846285469E+03  0.41800000000E+01 0.  1.
        -11    1    1    2    0    0  0.81743074229E+02 -0.44638146916E+02 -0.17974328779E+03  0.20244046989E+03  0.00000000000E+00 0. -1.
         11    1    1    2    0    0 -0.18797030245E+02 -0.37710791028E+02 -0.13793769551E+03  0.14422981643E+03  0.00000000000E+00 0.  1.
</event>
<event>
 7    1  0.6878895E-006  0.9407911E+02  0.7561462E-02  0.1293264E+00
         -2   -1    0    0    0  501 -0.00000000000E+00  0.00000000000E+00  0.38419476909E+03  0.38419476909E+03  0.00000000000E+00 0.  1.
          2   -1    0    0  501    0  0.00000000000E+00 -0.00000000000E+00 -0.27002531743E+02  0.27002531743E+02  0.00000000000E+00 0. -1.
         23    2    1    2    0    0  0.16760125036E+02  0.82877250517E+01  0.28826128425E+03  0.31478865939E+03  0.12509094254E+03 0.  0.
          5    1    3    3  502    0 -0.52235187479E+02 -0.10410122081E+02  0.14715461724E+03  0.15655299176E+03  0.41800000000E+01 0.  1.
         -5    1    3    3    0  502  0.68995312515E+02  0.18697847133E+02  0.14110666701E+03  0.15823566763E+03  0.41800000000E+01 0.  1.
        -11    1    1    2    0    0  0.98322569585E+01 -0.28225726598E+02  0.49739297735E+02  0.58028981191E+02  0.00000000000E+00 0.  1.
         11    1    1    2    0    0 -0.26592381994E+02  0.19938001546E+02  0.19191655367E+02  0.38379660258E+02  0.00000000000E+00 0. -1.
</event>
<event>
 7    1  0.4966153E-006  0.1832368E+03  0.7561462E-02  0.1164707E+00
          2   -1    0    0  501    0  0.00000000000E+00  0.00000000000E+00  0.40241729208E+03  0.40241729208E+03  0.00000000000E+00 0. -1.
         -2   -1    0    0    0  501 -0.00000000000E+00 -0.00000000000E+00 -0.10142353731E+03  0.10142353731E+03  0.00000000000E+00 0.  1.
         23    2    1    2    0    0 -0.15976451412E+02 -0.16175464210E+03  0.96994858673E+02  0.22689058149E+03  0.12510604351E+03 0.  0.
          5    1    3    3  502    0 -0.69246294948E+02 -0.10363646281E+03  0.46103377256E+02  0.13296074452E+03  0.41800000000E+01 0. -1.
         -5    1    3    3    0  502  0.53269843536E+02 -0.58118179281E+02  0.50891481417E+02  0.93929836974E+02  0.41800000000E+01 0. -1.
        -11    1    1    2    0    0  0.14351190133E+02  0.98725119217E+02  0.18651684912E+03  0.21152101746E+03  0.00000000000E+00 0. -1.
         11    1    1    2    0    0  0.16252612788E+01  0.63029522879E+02  0.17482046970E+02  0.65429230431E+02  0.00000000000E+00 0.  1.
</event>
<event>
 7    1  0.4966153E-006  0.1140553E+03  0.7561462E-02  0.1253239E+00
         -1   -1    0    0    0  501 -0.00000000000E+00  0.00000000000E+00  0.34672505254E+02  0.34672505254E+02  0.00000000000E+00 0. -1.
          1   -1    0    0  501    0  0.00000000000E+00 -0.00000000000E+00 -0.40604120504E+03  0.40604120504E+03  0.00000000000E+00 0.  1.
         23    2    1    2    0    0 -0.32964258554E+02 -0.18009395018E+02 -0.15156828535E+03  0.20007866436E+03  0.12509015212E+03 0.  0.
          5    1    3    3  502    0  0.63140683178E+01  0.50517876292E+02 -0.51663934307E+02  0.72653683952E+02  0.41800000000E+01 0. -1.
         -5    1    3    3    0  502 -0.39278326872E+02 -0.68527271309E+02 -0.99904351046E+02  0.12742498041E+03  0.41800000000E+01 0. -1.
        -11    1    1    2    0    0  0.57612084727E+02 -0.12254370438E+02 -0.13403975245E+03  0.14641030408E+03  0.00000000000E+00 0. -1.
         11    1    1    2    0    0 -0.24647826173E+02  0.30263765456E+02 -0.85760661980E+02  0.94224741856E+02  0.00000000000E+00 0.  1.
</event>
<event>
 7    1  0.4966153E-006  0.8380491E+02  0.7561462E-02  0.1318588E+00
         -1   -1    0    0    0  501 -0.00000000000E+00  0.00000000000E+00  0.57416443978E+02  0.57416443978E+02  0.00000000000E+00 0.  1.
          1   -1    0    0  501    0  0.00000000000E+00 -0.00000000000E+00 -0.26160469076E+03  0.26160469076E+03  0.00000000000E+00 0. -1.
         23    2    1    2    0    0 -0.18825595198E+02  0.80201638947E+01 -0.38031736218E+02  0.12890827653E+03  0.12145865443E+03 0.  0.
          5    1    3    3  502    0 -0.49609185359E+02 -0.22565508213E+02 -0.59088696660E+02  0.80493601646E+02  0.41800000000E+01 0. -1.
         -5    1    3    3    0  502  0.30783590161E+02  0.30585672108E+02  0.21056960443E+02  0.48414674889E+02  0.41800000000E+01 0.  1.
        -11    1    1    2    0    0 -0.22839916629E+02  0.87245128659E+01 -0.80305518835E+01  0.25734581401E+02  0.00000000000E+00 0.  1.
         11    1    1    2    0    0  0.41665511827E+02 -0.16744676761E+02 -0.15812595868E+03  0.16437827681E+03  0.00000000000E+00 0. -1.
</event>
<event>
 7    1  0.4966153E-006  0.1404091E+03  0.7561462E-02  0.1212780E+00
         -1   -1    0    0    0  501 -0.00000000000E+00  0.00000000000E+00  0.53663313155E+03  0.53663313155E+03  0.00000000000E+00 0.  1.
          1   -1    0    0  501    0  0.00000000000E+00 -0.00000000000E+00 -0.38994488953E+02  0.38994488953E+02  0.00000000000E+00 0. -1.
         23    2    1    2    0    0 -0.89560995305E+02  0.33808590264E+02  0.26956009202E+03  0.31220920129E+03  0.12509096493E+03 0.  0.
          5    1    3    3  502    0  0.26935276825E+02 -0.10901473477E+02  0.29470975589E+02  0.41597620891E+02  0.41800000000E+01 0. -1.
         -5    1    3    3    0  502 -0.11649627213E+03  0.44710063741E+02  0.24008911643E+03  0.27061158040E+03  0.41800000000E+01 0. -1.
        -11    1    1    2    0    0  0.35519966612E+02  0.27472572654E+02  0.48329296500E+02  0.65970684220E+02  0.00000000000E+00 0. -1.
         11    1    1    2    0    0  0.54041028692E+02 -0.61281162918E+02  0.17974925408E+03  0.19744773499E+03  0.00000000000E+00 0.  1.
</event>
<event>
 7    1  0.4966153E-006  0.1110780E+03  0.7561462E-02  0.1258587E+00
          1   -1    0    0  501    0  0.00000000000E+00  0.00000000000E+00  0.10200337145E+03  0.10200337145E+03  0.00000000000E+00 0. -1.
         -1   -1    0    0    0  501 -0.00000000000E+00 -0.00000000000E+00 -0.12312832546E+03  0.12312832546E+03  0.00000000000E+00 0.  1.
         23    2    1    2    0    0  0.22993181719E+02  0.66582888737E+01 -0.12405741906E+02  0.12796522866E+03  0.12509267804E+03 0.  0.
          5    1    3    3  502    0 -0.34215890885E+02  0.46225996050E+02 -0.46526804942E+01  0.57850581117E+02  0.41800000000E+01 0. -1.
         -5    1    3    3    0  502  0.57209072604E+02 -0.39567707176E+02 -0.77530614119E+01  0.70114647547E+02  0.41800000000E+01 0. -1.
        -11    1    1    2    0    0  0.84001166856E+01 -0.44701799296E+02 -0.13926418643E+02  0.47568455481E+02  0.00000000000E+00 0. -1.
         11    1    1    2    0    0 -0.31393298405E+02  0.38043510422E+02  0.52072065461E+01  0.49598012763E+02  0.00000000000E+00 0.  1.
</event>
<event>
 7    1  0.4966153E-006  0.8445493E+02  0.7561462E-02  0.1316864E+00
          2   -1    0    0  501    0  0.00000000000E+00  0.00000000000E+00  0.30924585498E+03  0.30924585498E+03  0.00000000000E+00 0. -1.
         -2   -1    0    0    0  501 -0.00000000000E+00 -0.00000000000E+00 -0.58886400145E+02  0.58886400145E+02  0.00000000000E+00 0.  1.
         23    2    1    2    0    0  0.47933871498E+02 -0.33030851605E+02  0.63803406872E+02  0.15200939501E+03  0.12508912122E+03 0.  0.
          5    1    3    3  502    0  0.44696136117E+02 -0.29507460555E+02 -0.27592782311E+02  0.60392622462E+02  0.41800000000E+01 0. -1.
         -5    1    3    3    0  502  0.32377353815E+01 -0.35233910502E+01  0.91396189183E+02  0.91616772547E+02  0.41800000000E+01 0. -1.
        -11    1    1    2    0    0 -0.53892347336E+02 -0.18486385699E+02  0.10535024957E+03  0.11976980689E+03  0.00000000000E+00 0. -1.
         11    1    1    2    0    0  0.59584758376E+01  0.51517237304E+02  0.81205798392E+02  0.96353053227E+02  0.00000000000E+00 0.  1.
</event>
<event>
 7    1  0.4966153E-006  0.1392726E+03  0.7561462E-02  0.1214311E+00
          1   -1    0    0  501    0  0.00000000000E+00  0.00000000000E+00  0.21074349327E+03  0.21074349327E+03  0.00000000000E+00 0. -1.
         -1   -1    0    0    0  501 -0.00000000000E+00 -0.00000000000E+00 -0.12338292238E+03  0.12338292238E+03  0.00000000000E+00 0.  1.
         23    2    1    2    0    0 -0.48656093929E+02 -0.10769925042E+03  0.30979447740E+02  0.17485382354E+03  0.12509032499E+03 0.  0.
          5    1    3    3  502    0 -0.65007417716E+02 -0.95335977689E+02 -0.22312886655E+02  0.11760208464E+03  0.41800000000E+01 0.  1.
         -5    1    3    3    0  502  0.16351323787E+02 -0.12363272734E+02  0.53292334394E+02  0.57251738904E+02  0.41800000000E+01 0.  1.
        -11    1    1    2    0    0  0.73572557448E+01  0.99849345024E+02  0.16774874625E+02  0.10151560142E+03  0.00000000000E+00 0.  1.
         11    1    1    2    0    0  0.41298838184E+02  0.78499053978E+01  0.39606248529E+02  0.57756990682E+02  0.00000000000E+00 0. -1.
</event>
<event>
 7    1  0.4966153E-006  0.1518584E+03  0.7561462E-02  0.1198208E+00
         -2   -1    0    0    0  501 -0.00000000000E+00  0.00000000000E+00  0.11014938016E+03  0.11014938016E+03  0.00000000000E+00 0.  1.
          2   -1    0    0  501    0  0.00000000000E+00 -0.00000000000E+00 -0.58561462383E+03  0.58561462383E+03  0.00000000000E+00 0. -1.
         23    2    1    2    0    0 -0.10166904787E+03  0.55605420302E+02  0.26633751746E+02  0.17258513808E+03  0.12509082737E+03 0.  0.
          5    1    3    3  502    0  0.18831444993E+02 -0.82082483427E+01 -0.19446253778E+02  0.28594192546E+02  0.41800000000E+01 0.  1.
         -5    1    3    3    0  502 -0.12050049287E+03  0.63813668645E+02  0.46080005524E+02  0.14399094553E+03  0.41800000000E+01 0.  1.
        -11    1    1    2    0    0 -0.16748772460E+00  0.19686582037E+02 -0.86454280315E+02  0.88667537179E+02  0.00000000000E+00 0. -1.
         11    1    1    2    0    0  0.10183653560E+03 -0.75292002339E+02 -0.41564471511E+03  0.43451132873E+03  0.00000000000E+00 0.  1.
</event>
<event>
 7    1  0.4966153E-006  0.1163007E+03  0.7561462E-02  0.1249328E+00
         -2   -1    0    0    0  501 -0.00000000000E+00  0.00000000000E+00  0.20831400287E+02  0.20831400287E+02  0.00000000000E+00 0.  1.
          2   -1    0    0  501    0  0.00000000000E+00 -0.00000000000E+00 -0.99061683326E+03  0.99061683326E+03  0.00000000000E+00 0. -1.
         23    2    1    2    0    0 -0.67006005119E+02  0.65347145095E+02 -0.55647392800E+03  0.57798779891E+03  0.12508640633E+03 0.  0.
          5    1    3    3  502    0 -0.27886800376E+02 -0.44198681882E+01 -0.41043887112E+03  0.41143012553E+03  0.41800000000E+01 0. -1.
         -5    1    3    3    0  502 -0.39119204743E+02  0.69767013283E+02 -0.14603505689E+03  0.16655767338E+03  0.41800000000E+01 0. -1.
        -11    1    1    2    0    0  0.89934534434E+01  0.19330286093E+02 -0.31098992912E+02  0.37705298373E+02  0.00000000000E+00 0.  1.
         11    1    1    2    0    0  0.58012551676E+02 -0.84677431188E+02 -0.38221251206E+03  0.39575513627E+03  0.00000000000E+00 0. -1.
</event>
<event>
 7    1  0.4966153E-006  0.7329352E+02  0.7561462E-02  0.1349238E+00
         -2   -1    0    0    0  501 -0.00000000000E+00  0.00000000000E+00  0.65812192177E+02  0.65812192177E+02  0.00000000000E+00 0.  1.
          2   -1    0    0  501    0  0.00000000000E+00 -0.00000000000E+00 -0.18416171978E+03  0.18416171978E+03  0.00000000000E+00 0. -1.
         23    2    1    2    0    0 -0.54700238979E+01 -0.70456426387E+01 -0.48175581122E+02  0.13434678134E+03  0.12509439955E+03 0.  0.
          5    1    3    3  502    0 -0.53525594817E+02 -0.31396361756E+02 -0.50717036575E+02  0.80252171503E+02  0.41800000000E+01 0. -1.
         -5    1    3    3    0  502  0.48055570919E+02  0.24350719118E+02  0.25414554531E+01  0.54094609840E+02  0.41800000000E+01 0. -1.
        -11    1    1    2    0    0  0.17497768035E+02  0.39658261594E+01 -0.90253250574E+02  0.92019285492E+02  0.00000000000E+00 0. -1.
         11    1    1    2    0    0 -0.12027744137E+02  0.30798164792E+01  0.20079304091E+02  0.23607845123E+02  0.00000000000E+00 0.  1.
</event>
<event>
 7    1  0.4966153E-006  0.1025394E+03  0.7561462E-02  0.1275045E+00
         -2   -1    0    0    0  501 -0.00000000000E+00  0.00000000000E+00  0.52796683876E+02  0.52796683876E+02  0.00000000000E+00 0.  1.
          2   -1    0    0  501    0  0.00000000000E+00 -0.00000000000E+00 -0.26041470627E+03  0.26041470627E+03  0.00000000000E+00 0. -1.
         23    2    1    2    0    0  0.10524527386E+02 -0.18245741306E+02 -0.68041524338E+02  0.14394616497E+03  0.12508867504E+03 0.  0.
          5    1    3    3  502    0 -0.57202877194E+02 -0.39878585517E+01 -0.32045958564E+02  0.65821638048E+02  0.41800000000E+01 0.  1.
         -5    1    3    3    0  502  0.67727404580E+02 -0.14257882755E+02 -0.35995565775E+02  0.78124526925E+02  0.41800000000E+01 0.  1.
        -11    1    1    2    0    0 -0.73082861645E+01 -0.29500579127E+02 -0.10735456510E+03  0.11157373285E+03  0.00000000000E+00 0. -1.
         11    1    1    2    0    0 -0.32162412219E+01  0.47746320433E+02 -0.32221932959E+02  0.57691492320E+02  0.00000000000E+00 0.  1.
</event>
<event>
 7    1  0.4966153E-006  0.1183220E+03  0.7561462E-02  0.1245891E+00
          1   -1    0    0  501    0  0.00000000000E+00  0.00000000000E+00  0.21462787888E+02  0.21462787888E+02  0.00000000000E+00 0. -1.
         -1   -1    0    0    0  501 -0.00000000000E+00 -0.00000000000E+00 -0.83450603466E+03  0.83450603466E+03  0.00000000000E+00 0.  1.
         23    2    1    2    0    0 -0.15994931990E+02  0.74655604607E+02 -0.51123800233E+03  0.53182026361E+03  0.12505678953E+03 0.  0.
          5    1    3    3  502    0  0.23938142087E+01 -0.25985552607E+02 -0.24744059658E+03  0.24884794660E+03  0.41800000000E+01 0.  1.
         -5    1    3    3    0  502 -0.18388746199E+02  0.10064115721E+03 -0.26379740576E+03  0.28297231701E+03  0.41800000000E+01 0.  1.
        -11    1    1    2    0    0  0.44750585987E+02 -0.61858301629E+02 -0.14150809839E+03  0.16079056669E+03  0.00000000000E+00 0. -1.
         11    1    1    2    0    0 -0.28755653997E+02 -0.12797302978E+02 -0.16029714605E+03  0.16335799225E+03  0.00000000000E+00 0.  1.
</event>
<event>
 7    1  0.4966153E-006  0.2207598E+03  0.7561462E-02  0.1133318E+00
          2   -1    0    0  501    0  0.00000000000E+00  0.00000000000E+00  0.26234345719E+03  0.26234345719E+03  0.00000000000E+00 0. -1.
         -2   -1    0    0    0  501 -0.00000000000E+00 -0.00000000000E+00 -0.19904575016E+03  0.19904575016E+03  0.00000000000E+00 0.  1.
         23    2    1    2    0    0  0.12419764988E+03 -0.15496846030E+03  0.12016260146E+02  0.23501465959E+03  0.12508884758E+03 0.  0.
          5    1    3    3  502    0 -0.22468970796E+02 -0.46788958002E+02 -0.25817329696E+01  0.52136349936E+02  0.41800000000E+01 0. -1.
         -5    1    3    3    0  502  0.14666662068E+03 -0.10817950230E+03  0.14597993116E+02  0.18287830965E+03  0.41800000000E+01 0. -1.
        -11    1    1    2    0    0 -0.81689913736E+02  0.54883324282E+02 -0.14213250314E+02  0.99435596116E+02  0.00000000000E+00 0. -1.
         11    1    1    2    0    0 -0.42507736143E+02  0.10008513602E+03  0.65494697193E+02  0.12693895164E+03  0.00000000000E+00 0.  1.
</event>
<event>
 7    1  0.4966153E-006  0.1832321E+03  0.7561462E-02  0.1164711E+00
         -1   -1    0    0    0  501 -0.00000000000E+00  0.00000000000E+00  0.99209538109E+02  0.99209538109E+02  0.00000000000E+00 0.  1.
          1   -1    0    0  501    0  0.00000000000E+00 -0.00000000000E+00 -0.40018947383E+03  0.40018947383E+03  0.00000000000E+00 0. -1.
         23    2    1    2    0    0 -0.12695409168E+03 -0.10214572577E+03 -0.16129964513E+03  0.26118231590E+03  0.12509011124E+03 0.  0.
          5    1    3    3  502    0 -0.70198824112E+02 -0.95742679380E+02 -0.16554445429E+03  0.20375714542E+03  0.41800000000E+01 0.  1.
         -5    1    3    3    0  502 -0.56755267566E+02 -0.64030463913E+01  0.42448091643E+01  0.57425170478E+02  0.41800000000E+01 0.  1.
        -11    1    1    2    0    0  0.16466581291E+02  0.74786342682E+02 -0.37544599953E+02  0.85286237675E+02  0.00000000000E+00 0.  1.
         11    1    1    2    0    0  0.11048751039E+03  0.27359383089E+02 -0.10213569064E+03  0.15293045837E+03  0.00000000000E+00 0. -1.
</event>
<event>
 7    1  0.4966153E-006  0.1168033E+03  0.7561462E-02  0.1248466E+00
         -1   -1    0    0    0  501 -0.00000000000E+00  0.00000000000E+00  0.81248962160E+02  0.81248962160E+02  0.00000000000E+00 0.  1.
          1   -1    0    0  501    0  0.00000000000E+00 -0.00000000000E+00 -0.22144505971E+03  0.22144505971E+03  0.00000000000E+00 0. -1.
         23    2    1    2    0    0  0.22217860367E+01  0.77841326490E+02 -0.54238210500E+02  0.15392319881E+03  0.12118728980E+03 0.  0.
          5    1    3    3  502    0  0.59836978902E+02  0.48632032582E+02 -0.42475681792E+02  0.88131688858E+02  0.41800000000E+01 0. -1.
         -5    1    3    3    0  502 -0.57615192866E+02  0.29209293908E+02 -0.11762528707E+02  0.65791509947E+02  0.41800000000E+01 0.  1.
        -11    1    1    2    0    0 -0.20900392527E+02 -0.14047761994E+02  0.13936397747E+02  0.28781751284E+02  0.00000000000E+00 0.  1.
         11    1    1    2    0    0  0.18678606491E+02 -0.63793564496E+02 -0.99894284795E+02  0.11998907178E+03  0.00000000000E+00 0. -1.
</event>
<event>
 7    1  0.4966153E-006  0.1130042E+03  0.7561462E-02  0.1255106E+00
          3   -1    0    0  501    0  0.00000000000E+00  0.00000000000E+00  0.66151742159E+02  0.66151742159E+02  0.00000000000E+00 0. -1.
         -3   -1    0    0    0  501 -0.00000000000E+00 -0.00000000000E+00 -0.36143743705E+03  0.36143743705E+03  0.00000000000E+00 0.  1.
         23    2    1    2    0    0 -0.41235450919E+02 -0.99385412834E+02 -0.18926045760E+03  0.25108929914E+03  0.12509393524E+03 0.  0.
          5    1    3    3  502    0 -0.93823093778E+01 -0.49963960025E+02  0.19029141227E+01  0.51044279923E+02  0.41800000000E+01 0.  1.
         -5    1    3    3    0  502 -0.31853141541E+02 -0.49421452809E+02 -0.19116337172E+03  0.20004501922E+03  0.41800000000E+01 0.  1.
        -11    1    1    2    0    0 -0.12744136925E+01  0.53456755495E+02 -0.10029126276E+03  0.11365555958E+03  0.00000000000E+00 0.  1.
         11    1    1    2    0    0  0.42509864611E+02  0.45928657340E+02 -0.57339745345E+01  0.62844320493E+02  0.00000000000E+00 0. -1.
</event>
<event>
 7    1  0.4966153E-006  0.6811785E+02  0.7561462E-02  0.1366613E+00
          2   -1    0    0  501    0  0.00000000000E+00  0.00000000000E+00  0.61128976174E+02  0.61128976174E+02  0.00000000000E+00 0. -1.
         -2   -1    0    0    0  501 -0.00000000000E+00 -0.00000000000E+00 -0.19611984034E+03  0.19611984034E+03  0.00000000000E+00 0.  1.
         23    2    1    2    0    0  0.73056826153E+00  0.32784615219E+02 -0.11854058715E+03  0.17542566686E+03  0.12508768551E+03 0.  0.
          5    1    3    3  502    0  0.12740083106E+02 -0.29252395355E+02  0.86680402727E+01  0.33325960957E+02  0.41800000000E+01 0. -1.
         -5    1    3    3    0  502 -0.12009514844E+02  0.62037010574E+02 -0.12720862742E+03  0.14209970590E+03  0.41800000000E+01 0. -1.
        -11    1    1    2    0    0  0.10062376909E+02 -0.26250868973E+02  0.25537647926E+02  0.37980666299E+02  0.00000000000E+00 0. -1.
         11    1    1    2    0    0 -0.10792945171E+02 -0.65337462453E+01 -0.41987924945E+02  0.43842483354E+02  0.00000000000E+00 0.  1.
</event>
<event>
 7    1  0.4966153E-006  0.9699045E+02  0.7561462E-02  0.1286755E+00
          2   -1    0    0  501    0  0.00000000000E+00  0.00000000000E+00  0.24799612505E+02  0.24799612505E+02  0.00000000000E+00 0. -1.
         -2   -1    0    0    0  501 -0.00000000000E+00 -0.00000000000E+00 -0.50448623913E+03  0.50448623913E+03  0.00000000000E+00 0.  1.
         23    2    1    2    0    0 -0.18690247725E+02 -0.12142813229E+02 -0.38342542685E+03  0.40392973124E+03  0.12508955413E+03 0.  0.
          5    1    3    3  502    0 -0.18720380649E+01 -0.61364213392E+02 -0.11449459795E+03  0.12998290877E+03  0.41800000000E+01 0. -1.
         -5    1    3    3    0  502 -0.16818209660E+02  0.49221400163E+02 -0.26893082890E+03  0.27394682247E+03  0.41800000000E+01 0. -1.
        -11    1    1    2    0    0 -0.70534714604E+01 -0.30033472247E+02 -0.35181398981E+02  0.46792005184E+02  0.00000000000E+00 0.  1.
         11    1    1    2    0    0  0.25743719185E+02  0.42176285476E+02 -0.61079800797E+02  0.78564115214E+02  0.00000000000E+00 0. -1.
</event>
<event>
 7    1  0.4966153E-006  0.1054633E+03  0.7561462E-02  0.1269210E+00
         -1   -1    0    0    0  501 -0.00000000000E+00  0.00000000000E+00  0.20664964989E+03  0.20664964989E+03  0.00000000000E+00 0.  1.
          1   -1    0    0  501    0  0.00000000000E+00 -0.00000000000E+00 -0.86394997016E+02  0.86394997016E+02  0.00000000000E+00 0. -1.
         23    2    1    2    0    0 -0.64378101634E+02  0.18076393058E+02  0.10468512647E+03  0.17628902951E+03  0.12509016855E+03 0.  0.
          5    1    3    3  502    0  0.14373393905E+02 -0.82008273829E+01  0.90336453860E+02  0.91934734014E+02  0.41800000000E+01 0.  1.
         -5    1    3    3    0  502 -0.78751495540E+02  0.26277220441E+02  0.14348672611E+02  0.84354295501E+02  0.41800000000E+01 0.  1.
        -11    1    1    2    0    0  0.33102990720E+02  0.35598681867E+02  0.23739933063E+02  0.54098600417E+02  0.00000000000E+00 0. -1.
         11    1    1    2    0    0  0.31275110914E+02 -0.53675074925E+02 -0.81704066622E+01  0.62657016972E+02  0.00000000000E+00 0.  1.
</event>
<event>
 7    1  0.4966153E-006  0.9091690E+02  0.7561462E-02  0.1300646E+00
          2   -1    0    0  501    0  0.00000000000E+00  0.00000000000E+00  0.23165352079E+03  0.23165352079E+03  0.00000000000E+00 0. -1.
         -2   -1    0    0    0  501 -0.00000000000E+00 -0.00000000000E+00 -0.55648925558E+02  0.55648925558E+02  0.00000000000E+00 0.  1.
         23    2    1    2    0    0  0.12866524670E+02  0.80723112485E+01  0.51132027352E+02  0.13598592505E+03  0.12508788080E+03 0.  0.
          5    1    3    3  502    0  0.23520891101E+02  0.62140213709E+02  0.10514238292E+02  0.67399258786E+02  0.41800000000E+01 0.  1.
         -5    1    3    3    0  502 -0.10654366431E+02 -0.54067902461E+02  0.40617789059E+02  0.68586666260E+02  0.41800000000E+01 0.  1.
        -11    1    1    2    0    0 -0.15228948297E+02  0.23679664213E+02  0.67143088151E+01  0.28943553796E+02  0.00000000000E+00 0.  1.
         11    1    1    2    0    0  0.23624236277E+01 -0.31751975461E+02  0.11815825906E+03  0.12237296750E+03  0.00000000000E+00 0. -1.
</event>
<event>
 7    1  0.4966153E-006  0.8780556E+02  0.7561462E-02  0.1308255E+00
         -1   -1    0    0    0  501 -0.00000000000E+00  0.00000000000E+00  0.54843908876E+02  0.54843908876E+02  0.00000000000E+00 0.  1.
          1   -1    0    0  501    0  0.00000000000E+00 -0.00000000000E+00 -0.26992396975E+03  0.26992396975E+03  0.00000000000E+00 0. -1.
         23    2    1    2    0    0 -0.10494029328E+02 -0.32458002876E+02 -0.60783978911E+02  0.14319746489E+03  0.12508866958E+03 0.  0.
          5    1    3    3  502    0 -0.74159619960E+01  0.48135125465E+02 -0.23952087155E+02  0.54434930651E+02  0.41800000000E+01 0. -1.
         -5    1    3    3    0  502 -0.30780673315E+01 -0.80593128342E+02 -0.36831891756E+02  0.88762534240E+02  0.41800000000E+01 0. -1.
        -11    1    1    2    0    0  0.15946351750E+02  0.32727667996E+01  0.68870184611E+01  0.17675637469E+02  0.00000000000E+00 0.  1.
         11    1    1    2    0    0 -0.54523224227E+01  0.29185236077E+02 -0.16118310043E+03  0.16389477627E+03  0.00000000000E+00 0. -1.
</event>
<event>
 7    1  0.4966153E-006  0.1081043E+03  0.7561462E-02  0.1264121E+00
          3   -1    0    0  501    0  0.00000000000E+00  0.00000000000E+00  0.51538177643E+03  0.51538177643E+03  0.00000000000E+00 0. -1.
         -3   -1    0    0    0  501 -0.00000000000E+00 -0.00000000000E+00 -0.41387238029E+02  0.41387238029E+02  0.00000000000E+00 0.  1.
         23    2    1    2    0    0 -0.47742421190E+02 -0.12058878716E+02  0.96589719209E+02  0.16553167567E+03  0.12508559652E+03 0.  0.
          5    1    3    3  502    0 -0.25868846475E+02 -0.59940577387E+02  0.13059207339E+02  0.66708959906E+02  0.41800000000E+01 0. -1.
         -5    1    3    3    0  502 -0.21873574715E+02  0.47881698672E+02  0.83530511870E+02  0.98822715768E+02  0.41800000000E+01 0. -1.
        -11    1    1    2    0    0  0.42762418077E+02 -0.32146772899E+02  0.14367796855E+03  0.15331470266E+03  0.00000000000E+00 0.  1.
         11    1    1    2    0    0  0.49800031138E+01  0.44205651615E+02  0.23372685064E+03  0.23792263612E+03  0.00000000000E+00 0. -1.
</event>
<event>
 7    1  0.4966153E-006  0.1168015E+03  0.7561462E-02  0.1248469E+00
          2   -1    0    0  501    0  0.00000000000E+00  0.00000000000E+00  0.33954349161E+03  0.33954349161E+03  0.00000000000E+00 0. -1.
         -2   -1    0    0    0  501 -0.00000000000E+00 -0.00000000000E+00 -0.29621970468E+03  0.29621970468E+03  0.00000000000E+00 0.  1.
         23    2    1    2    0    0 -0.45678704144E+02  0.33308782769E+02 -0.27091105454E+03  0.30371109049E+03  0.12510638671E+03 0.  0.
          5    1    3    3  502    0 -0.14169889814E+02 -0.46800352072E+02 -0.12440448799E+03  0.13373484125E+03  0.41800000000E+01 0.  1.
         -5    1    3    3    0  502 -0.31508814329E+02  0.80109134840E+02 -0.14650656655E+03  0.16997624924E+03  0.41800000000E+01 0.  1.
        -11    1    1    2    0    0  0.27880943396E+02  0.24956443689E+02  0.60753949950E+02  0.71352740106E+02  0.00000000000E+00 0.  1.
         11    1    1    2    0    0  0.17797760748E+02 -0.58265226458E+02  0.25348089153E+03  0.26069936569E+03  0.00000000000E+00 0. -1.
</event>
<event>
 7    1  0.4966153E-006  0.3001268E+03  0.7561462E-02  0.1085177E+00
         -2   -1    0    0    0  501 -0.00000000000E+00  0.00000000000E+00  0.44768695913E+02  0.44768695913E+02  0.00000000000E+00 0.  1.
          2   -1    0    0  501    0  0.00000000000E+00 -0.00000000000E+00 -0.25160865635E+04  0.25160865635E+04  0.00000000000E+00 0. -1.
         23    2    1    2    0    0 -0.22239888175E+03 -0.19136416989E+03 -0.79425548099E+03  0.85590389907E+03  0.12509279450E+03 0.  0.
          5    1    3    3  502    0 -0.31983170992E+02 -0.49573825761E+02 -0.32121339069E+03  0.32661292409E+03  0.41800000000E+01 0. -1.
         -5    1    3    3    0  502 -0.19041571076E+03 -0.14179034413E+03 -0.47304209031E+03  0.52929097498E+03  0.41800000000E+01 0. -1.
        -11    1    1    2    0    0  0.20011329095E+03  0.19685986141E+03 -0.16036835280E+04  0.16280663353E+04  0.00000000000E+00 0.  1.
         11    1    1    2    0    0  0.22285590801E+02 -0.54956915133E+01 -0.73378858580E+02  0.76885024999E+02  0.00000000000E+00 0. -1.
</event>
<event>
 7    1  0.4966153E-006  0.1481452E+03  0.7561462E-02  0.1202771E+00
         -2   -1    0    0    0  501 -0.00000000000E+00  0.00000000000E+00  0.33132109876E+02  0.33132109876E+02  0.00000000000E+00 0. -1.
          2   -1    0    0  501    0  0.00000000000E+00 -0.00000000000E+00 -0.75968060550E+03  0.75968060550E+03  0.00000000000E+00 0.  1.
         23    2    1    2    0    0 -0.87732383410E+02 -0.71725651893E+02 -0.33162986724E+03  0.37211221389E+03  0.12509032995E+03 0.  0.
          5    1    3    3  502    0 -0.35358536563E+02 -0.94570449157E+02 -0.14391343694E+03  0.17584750693E+03  0.41800000000E+01 0. -1.
         -5    1    3    3    0  502 -0.52373846847E+02  0.22844797264E+02 -0.18771643030E+03  0.19626470696E+03  0.41800000000E+01 0. -1.
        -11    1    1    2    0    0  0.55139282830E+02 -0.42229558825E+01 -0.98349845327E+02  0.11283113907E+03  0.00000000000E+00 0. -1.
         11    1    1    2    0    0  0.32593100580E+02  0.75948607776E+02 -0.29656878307E+03  0.30786936242E+03  0.00000000000E+00 0.  1.
</event>
<event>
 7    1  0.4966153E-006  0.1062522E+03  0.7561462E-02  0.1267672E+00
          1   -1    0    0  501    0  0.00000000000E+00  0.00000000000E+00  0.19452512455E+03  0.19452512455E+03  0.00000000000E+00 0. -1.
         -1   -1    0    0    0  501 -0.00000000000E+00 -0.00000000000E+00 -0.64397810691E+02  0.64397810691E+02  0.00000000000E+00 0.  1.
         23    2    1    2    0    0 -0.65542228068E+01 -0.74172735503E+01  0.44485473475E+02  0.13313879928E+03  0.12509599809E+03 0.  0.
          5    1    3    3  502    0  0.29513782792E+02  0.49339503757E+02  0.14816666391E+02  0.59518535001E+02  0.41800000000E+01 0.  1.
         -5    1    3    3    0  502 -0.36068005599E+02 -0.56756777308E+02  0.29668807083E+02  0.73620264276E+02  0.41800000000E+01 0.  1.
        -11    1    1    2    0    0 -0.38412456038E+02  0.16160461539E+02  0.21300687875E+02  0.46801673046E+02  0.00000000000E+00 0.  1.
         11    1    1    2    0    0  0.44966678844E+02 -0.87431879887E+01  0.64341152514E+02  0.78982462923E+02  0.00000000000E+00 0. -1.
</event>
<event>
 7    1  0.4966153E-006  0.1534919E+03  0.7561462E-02  0.1196247E+00
          2   -1    0    0  501    0  0.00000000000E+00  0.00000000000E+00  0.30940183959E+03  0.30940183959E+03  0.00000000000E+00 0. -1.
         -2   -1    0    0    0  501 -0.00000000000E+00 -0.00000000000E+00 -0.80313667933E+02  0.80313667933E+02  0.00000000000E+00 0.  1.
         23    2    1    2    0    0  0.82390003850E+02  0.76339571500E+02  0.10051570004E+03  0.19589508511E+03  0.12512248201E+03 0.  0.
          5    1    3    3  502    0 -0.25549878878E+01  0.81125754773E+02  0.35271612665E+02  0.88597263561E+02  0.41800000000E+01 0. -1.
         -5    1    3    3    0  502  0.84944991738E+02 -0.47861832726E+01  0.65244087373E+02  0.10729782155E+03  0.41800000000E+01 0. -1.
        -11    1    1    2    0    0 -0.29851252224E+01 -0.59224191656E+02  0.78567238771E+02  0.98433870482E+02  0.00000000000E+00 0. -1.
         11    1    1    2    0    0 -0.79404878628E+02 -0.17115379844E+02  0.50005232847E+02  0.95386551930E+02  0.00000000000E+00 0.  1.
</event>
<event>
 7    1  0.4966153E-006  0.1043356E+03  0.7561462E-02  0.1271434E+00
         -2   -1    0    0    0  501 -0.00000000000E+00  0.00000000000E+00  0.16315262861E+03  0.16315262861E+03  0.00000000000E+00 0.  1.
          2   -1    0    0  501    0  0.00000000000E+00 -0.00000000000E+00 -0.10622170773E+03  0.10622170773E+03  0.00000000000E+00 0. -1.
         23    2    1    2    0    0  0.38095124434E+02 -0.63775427027E+02  0.24244332574E+02  0.14749077948E+03  0.12508876358E+03 0.  0.
          5    1    3    3  502    0  0.21447587598E+02  0.33883853029E+01  0.63906667712E+02  0.67624069286E+02  0.41800000000E+01 0. -1.
         -5    1    3    3    0  502  0.16647536835E+02 -0.67163812330E+02 -0.39662335138E+02  0.79866710199E+02  0.41800000000E+01 0. -1.
        -11    1    1    2    0    0  0.80550246828E+01 -0.20016343379E+02  0.34146346808E+01  0.21844842753E+02  0.00000000000E+00 0.  1.
         11    1    1    2    0    0 -0.46150149116E+02  0.83791770406E+02  0.29271953625E+02  0.10003871411E+03  0.00000000000E+00 0. -1.
</event>
<event>
 7    1  0.4966153E-006  0.1201100E+03  0.7561462E-02  0.1242916E+00
          4   -1    0    0  501    0  0.00000000000E+00  0.00000000000E+00  0.11100802011E+03  0.11100802011E+03  0.00000000000E+00 0. -1.
         -4   -1    0    0    0  501 -0.00000000000E+00 -0.00000000000E+00 -0.21092624652E+03  0.21092624652E+03  0.00000000000E+00 0.  1.
         23    2    1    2    0    0  0.82977065191E+02 -0.21756049593E+02 -0.12168057588E+03  0.19445406672E+03  0.12509077695E+03 0.  0.
          5    1    3    3  502    0  0.45952896894E+02 -0.57334323725E+02 -0.12252532365E+03  0.14292942575E+03  0.41800000000E+01 0. -1.
         -5    1    3    3    0  502  0.37024168297E+02  0.35578274132E+02  0.84474777628E+00  0.51524640970E+02  0.41800000000E+01 0. -1.
        -11    1    1    2    0    0 -0.56828361137E+02  0.50659006348E+02  0.38203817053E+02  0.85178220169E+02  0.00000000000E+00 0.  1.
         11    1    1    2    0    0 -0.26148704054E+02 -0.28902956756E+02 -0.16441467591E+02  0.42301979735E+02  0.00000000000E+00 0. -1.
</event>
<event>
 7    1  0.4966153E-006  0.1056864E+03  0.7561462E-02  0.1268773E+00
          3   -1    0    0  501    0  0.00000000000E+00  0.00000000000E+00  0.47784527905E+03  0.47784527905E+03  0.00000000000E+00 0. -1.
         -3   -1    0    0    0  501 -0.00000000000E+00 -0.00000000000E+00 -0.26806432620E+02  0.26806432620E+02  0.00000000000E+00 0.  1.
         23    2    1    2    0    0  0.90591105635E+01  0.27728750261E+02  0.28028590034E+03  0.30831200668E+03  0.12508059984E+03 0.  0.
          5    1    3    3  502    0 -0.22191761997E+02 -0.40412124721E+02  0.15958797083E+03  0.16616680462E+03  0.41800000000E+01 0.  1.
         -5    1    3    3    0  502  0.31250872560E+02  0.68140874983E+02  0.12069792951E+03  0.14214520205E+03  0.41800000000E+01 0.  1.
        -11    1    1    2    0    0 -0.38338001146E+02 -0.42472160187E+02  0.14061412376E+03  0.15180915164E+03  0.00000000000E+00 0. -1.
         11    1    1    2    0    0  0.29278890583E+02  0.14743409925E+02  0.30138822336E+02  0.44530553351E+02  0.00000000000E+00 0.  1.
</event>
<event>
 7    1  0.4966153E-006  0.2493205E+03  0.7561462E-02  0.1113735E+00
          1   -1    0    0  501    0  0.00000000000E+00  0.00000000000E+00  0.37750786810E+03  0.37750786810E+03  0.00000000000E+00 0. -1.
         -1   -1    0    0    0  501 -0.00000000000E+00 -0.00000000000E+00 -0.20733171221E+03  0.20733171221E+03  0.00000000000E+00 0.  1.
         23    2    1    2    0    0  0.24656930622E+03  0.61784769457E+01  0.93167912942E+01  0.27671063803E+03  0.12508948099E+03 0.  0.
          5    1    3    3  502    0  0.21678264356E+03 -0.10231748960E+02 -0.35863814292E+02  0.22000701991E+03  0.41800000000E+01 0. -1.
         -5    1    3    3    0  502  0.29786662658E+02  0.16410225905E+02  0.45180605586E+02  0.56703618118E+02  0.41800000000E+01 0. -1.
        -11    1    1    2    0    0 -0.20218519478E+03  0.19287749484E+01  0.83882239077E+02  0.21890363906E+03  0.00000000000E+00 0.  1.
         11    1    1    2    0    0 -0.44384111434E+02 -0.81072518941E+01  0.76977125519E+02  0.89225303217E+02  0.00000000000E+00 0. -1.
</event>
<event>
 7    1  0.4966153E-006  0.1061539E+03  0.7561462E-02  0.1267863E+00
         -1   -1    0    0    0  501 -0.00000000000E+00  0.00000000000E+00  0.97867382165E+02  0.97867382165E+02  0.00000000000E+00 0.  1.
          1   -1    0    0  501    0  0.00000000000E+00 -0.00000000000E+00 -0.17189604123E+03  0.17189604123E+03  0.00000000000E+00 0. -1.
         23    2    1    2    0    0  0.23746039175E+02 -0.61997468411E+02 -0.13839911983E+02  0.14229074615E+03  0.12509017871E+03 0.  0.
          5    1    3    3  502    0  0.13857125875E+02  0.16624153925E+02 -0.50334778202E+02  0.54949474319E+02  0.41800000000E+01 0. -1.
         -5    1    3    3    0  502  0.98889133004E+01 -0.78621622336E+02  0.36494866219E+02  0.87341271833E+02  0.41800000000E+01 0. -1.
        -11    1    1    2    0    0 -0.31951547716E+02 -0.13706254646E+02 -0.96543844681E+01  0.36082820806E+02  0.00000000000E+00 0.  1.
         11    1    1    2    0    0  0.82055085410E+01  0.75703723056E+02 -0.50534362616E+02  0.91389856439E+02  0.00000000000E+00 0. -1.
</event>
<event>
 7    1  0.4966153E-006  0.1104569E+03  0.7561462E-02  0.1259726E+00
          2   -1    0    0  501    0  0.00000000000E+00  0.00000000000E+00  0.34196133516E+03  0.34196133516E+03  0.00000000000E+00 0. -1.
         -2   -1    0    0    0  501 -0.00000000000E+00 -0.00000000000E+00 -0.38208483313E+02  0.38208483313E+02  0.00000000000E+00 0.  1.
         23    2    1    2    0    0  0.23913854740E+02 -0.27369478510E+02  0.14461132208E+03  0.19460643831E+03  0.12505307096E+03 0.  0.
          5    1    3    3  502    0 -0.28708631715E+02  0.33923498245E+02  0.28023804667E+02  0.52704793863E+02  0.41800000000E+01 0. -1.
         -5    1    3    3    0  502  0.52622486455E+02 -0.61292976754E+02  0.11658751741E+03  0.14190164445E+03  0.41800000000E+01 0. -1.
        -11    1    1    2    0    0 -0.50665204846E+02  0.41170549416E+02  0.10612340213E+03  0.12459596142E+03  0.00000000000E+00 0. -1.
         11    1    1    2    0    0  0.26751350106E+02 -0.13801070907E+02  0.53018127633E+02  0.60967418745E+02  0.00000000000E+00 0.  1.
</event>
<event>
 7    1  0.4966153E-006  0.8778654E+02  0.7561462E-02  0.1308302E+00
          2   -1    0    0  501    0  0.00000000000E+00  0.00000000000E+00  0.94596013716E+02  0.94596013716E+02  0.00000000000E+00 0. -1.
         -2   -1    0    0    0  501 -0.00000000000E+00 -0.00000000000E+00 -0.15362135368E+03  0.15362135368E+03  0.00000000000E+00 0.  1.
         23    2    1    2    0    0 -0.43932291292E+02 -0.14385470835E+02 -0.62902793353E+02  0.14745227940E+03  0.12509366610E+03 0.  0.
          5    1    3    3  502    0  0.29133696375E+02 -0.38792429494E+02 -0.12739575961E+01  0.48710576043E+02  0.41800000000E+01 0.  1.
         -5    1    3    3    0  502 -0.73065987667E+02  0.24406958659E+02 -0.61628835757E+02  0.98741703355E+02  0.41800000000E+01 0.  1.
        -11    1    1    2    0    0  0.24811725862E+02 -0.15223809391E+01 -0.41869928777E+02  0.48693226632E+02  0.00000000000E+00 0.  1.
         11    1    1    2    0    0  0.19120565429E+02  0.15907851774E+02  0.45747382170E+02  0.52071861363E+02  0.00000000000E+00 0. -1.
</event>
<event>
 7    1  0.4966153E-006  0.8326388E+02  0.7561462E-02  0.1320036E+00
          1   -1    0    0  501    0  0.00000000000E+00  0.00000000000E+00  0.44472515347E+03  0.44472515347E+03  0.00000000000E+00 0. -1.
         -1   -1    0    0    0  501 -0.00000000000E+00 -0.00000000000E+00 -0.33789118615E+02  0.33789118615E+02  0.00000000000E+00 0.  1.
         23    2    1    2    0    0 -0.13532897241E+02  0.46753475236E+02  0.16772515085E+03  0.21482446365E+03  0.12509515259E+03 0.  0.
          5    1    3    3  502    0 -0.29205962353E+02  0.21570117879E+02 -0.72871739980E+01  0.37267056862E+02  0.41800000000E+01 0.  1.
         -5    1    3    3    0  502  0.15673065112E+02  0.25183357357E+02  0.17501232485E+03  0.17755740679E+03  0.41800000000E+01 0.  1.
        -11    1    1    2    0    0  0.21311910705E+02  0.22118318441E+02  0.99599426522E+02  0.10422793921E+03  0.00000000000E+00 0. -1.
         11    1    1    2    0    0 -0.77790134640E+01 -0.68871793677E+02  0.14361145748E+03  0.15946186922E+03  0.00000000000E+00 0.  1.
</event>
<event>
 7    1  0.4966153E-006  0.1003873E+03  0.7561462E-02  0.1279484E+00
          1   -1    0    0  501    0  0.00000000000E+00  0.00000000000E+00  0.86063904882E+02  0.86063904882E+02  0.00000000000E+00 0. -1.
         -1   -1    0    0    0  501 -0.00000000000E+00 -0.00000000000E+00 -0.14092468906E+03  0.14092468906E+03  0.00000000000E+00 0.  1.
         23    2    1    2    0    0  0.19937635532E+01 -0.17047923686E+02 -0.41071121387E+02  0.13277657934E+03  0.12509267050E+03 0.  0.
          5    1    3    3  502    0  0.11049634015E+02 -0.68763403952E+02 -0.39300971292E+02  0.80078329650E+02  0.41800000000E+01 0. -1.
         -5    1    3    3    0  502 -0.90558704619E+01  0.51715480266E+02 -0.17701500948E+01  0.52698249690E+02  0.41800000000E+01 0. -1.
        -11    1    1    2    0    0  0.31535200291E+01  0.47422687634E+02 -0.33040824271E+02  0.57883953385E+02  0.00000000000E+00 0.  1.
         11    1    1    2    0    0 -0.51472835822E+01 -0.30374763948E+02  0.19251161482E+02  0.36328061214E+02  0.00000000000E+00 0. -1.
</event>
<event>
 7    1  0.4966153E-006  0.8142803E+02  0.7561462E-02  0.1325047E+00
          1   -1    0    0  501    0  0.00000000000E+00  0.00000000000E+00  0.49998853295E+02  0.49998853295E+02  0.00000000000E+00 0.  1.
         -1   -1    0    0    0  501 -0.00000000000E+00 -0.00000000000E+00 -0.34377622184E+03  0.34377622184E+03  0.00000000000E+00 0. -1.
         23    2    1    2    0    0 -0.13266730437E+02  0.71757812913E+02 -0.15747178334E+03  0.21394052741E+03  0.12509195365E+03 0.  0.
          5    1    3    3  502    0 -0.33029257067E+02  0.51107750189E+02 -0.77827225798E+01  0.61489650532E+02  0.41800000000E+01 0. -1.
         -5    1    3    3    0  502  0.19762526630E+02  0.20650062724E+02 -0.14968906076E+03  0.15245087688E+03  0.41800000000E+01 0. -1.
        -11    1    1    2    0    0  0.87178837367E+01 -0.47467334474E+02 -0.14563206076E+03  0.15342048905E+03  0.00000000000E+00 0. -1.
         11    1    1    2    0    0  0.45488467005E+01 -0.24290478439E+02  0.93264755603E+01  0.26414058671E+02  0.00000000000E+00 0.  1.
</event>
<event>
 7    1  0.4966153E-006  0.1988478E+03  0.7561462E-02  0.1150715E+00
          2   -1    0    0  501    0  0.00000000000E+00  0.00000000000E+00  0.20432713425E+03  0.20432713425E+03  0.00000000000E+00 0. -1.
         -2   -1    0    0    0  501 -0.00000000000E+00 -0.00000000000E+00 -0.23418070071E+03  0.23418070071E+03  0.00000000000E+00 0.  1.
         23    2    1    2    0    0 -0.83189879507E+02 -0.16876505384E+03  0.11527904078E+02  0.22623481547E+03  0.12508836759E+03 0.  0.
          5    1    3    3  502    0  0.31848346695E+01 -0.90591888841E+02  0.49837247899E+02  0.10352901610E+03  0.41800000000E+01 0. -1.
         -5    1    3    3    0  502 -0.86374714177E+02 -0.78173165001E+02 -0.38309343821E+02  0.12270579937E+03  0.41800000000E+01 0. -1.
        -11    1    1    2    0    0  0.49922650748E+02  0.68658396658E+02 -0.61572406616E+02  0.10486852600E+03  0.00000000000E+00 0.  1.
         11    1    1    2    0    0  0.33267228760E+02  0.10010665718E+03  0.20190936076E+02  0.10740449349E+03  0.00000000000E+00 0. -1.
</event>
<event>
 7    1  0.4966153E-006  0.2266168E+03  0.7561462E-02  0.1129044E+00
          1   -1    0    0  501    0  0.00000000000E+00  0.00000000000E+00  0.12750474306E+03  0.12750474306E+03  0.00000000000E+00 0. -1.
         -1   -1    0    0    0  501 -0.00000000000E+00 -0.00000000000E+00 -0.81077851007E+03  0.81077851007E+03  0.00000000000E+00 0.  1.
         23    2    1    2    0    0  0.21467476212E+03 -0.52894538136E+02 -0.64789835403E+03  0.69591818833E+03  0.12508701786E+03 0.  0.
          5    1    3    3  502    0  0.65269205112E+02 -0.48398841018E+02 -0.38468769066E+03  0.39319792560E+03  0.41800000000E+01 0.  1.
         -5    1    3    3    0  502  0.14940555701E+03 -0.44956971182E+01 -0.26321066337E+03  0.30272026273E+03  0.41800000000E+01 0.  1.
        -11    1    1    2    0    0 -0.11901223035E+03  0.41306522759E+02 -0.64726740249E+02  0.14163223750E+03  0.00000000000E+00 0.  1.
         11    1    1    2    0    0 -0.95662531766E+02  0.11588015377E+02  0.29351327259E+02  0.10073282730E+03  0.00000000000E+00 0. -1.
</event>
<event>
 7    1  0.4966153E-006  0.1512438E+03  0.7561462E-02  0.1198953E+00
         -1   -1    0    0    0  501 -0.00000000000E+00  0.00000000000E+00  0.46945121219E+02  0.46945121219E+02  0.00000000000E+00 0.  1.
          1   -1    0    0  501    0  0.00000000000E+00 -0.00000000000E+00 -0.68099458431E+03  0.68099458431E+03  0.00000000000E+00 0. -1.
         23    2    1    2    0    0 -0.88954814073E+02  0.10112118802E+03 -0.25250207430E+03  0.31231913470E+03  0.12508993070E+03 0.  0.
          5    1    3    3  502    0 -0.45420764054E+02  0.26130361230E+02 -0.20843782516E+03  0.21496427829E+03  0.41800000000E+01 0. -1.
         -5    1    3    3    0  502 -0.43534050019E+02  0.74990826794E+02 -0.44064249144E+02  0.97354856411E+02  0.41800000000E+01 0. -1.
        -11    1    1    2    0    0  0.31775808005E+02 -0.10105116455E+03 -0.27506634264E+03  0.29475843107E+03  0.00000000000E+00 0. -1.
         11    1    1    2    0    0  0.57179006068E+02 -0.70023472191E-01 -0.10648104615E+03  0.12086213976E+03  0.00000000000E+00 0.  1.
</event>
<event>
 7    1  0.4966153E-006  0.1223960E+03  0.7561462E-02  0.1239196E+00
         -1   -1    0    0    0  501 -0.00000000000E+00  0.00000000000E+00  0.34167945127E+03  0.34167945127E+03  0.00000000000E+00 0.  1.
          1   -1    0    0  501    0  0.00000000000E+00 -0.00000000000E+00 -0.46643962125E+02  0.46643962125E+02  0.00000000000E+00 0. -1.
         23    2    1    2    0    0 -0.68830240816E+01 -0.55871367786E+02  0.21036771288E+03  0.25114043160E+03  0.12509179032E+03 0.  0.
          5    1    3    3  502    0 -0.57593221481E+02 -0.63365540732E+02  0.12976374691E+03  0.15552579633E+03  0.41800000000E+01 0. -1.
         -5    1    3    3    0  502  0.50710197399E+02  0.74941729459E+01  0.80603965971E+02  0.95614635275E+02  0.41800000000E+01 0. -1.
        -11    1    1    2    0    0 -0.33076498094E+02  0.58905074466E+02  0.48084376893E+02  0.82921467818E+02  0.00000000000E+00 0. -1.
         11    1    1    2    0    0  0.39959522175E+02 -0.30337066803E+01  0.36583399371E+02  0.54261513969E+02  0.00000000000E+00 0.  1.
</event>
<event>
 7    1  0.4966153E-006  0.1025066E+03  0.7561462E-02  0.1275111E+00
         -2   -1    0    0    0  501 -0.00000000000E+00  0.00000000000E+00  0.61764235054E+02  0.61764235054E+02  0.00000000000E+00 0.  1.
          2   -1    0    0  501    0  0.00000000000E+00 -0.00000000000E+00 -0.22693766786E+03  0.22693766786E+03  0.00000000000E+00 0. -1.
         23    2    1    2    0    0 -0.36512645007E+02 -0.19336449372E+02 -0.91555521804E+02  0.16042767026E+03  0.12509017664E+03 0.  0.
          5    1    3    3  502    0 -0.51650103942E+02  0.36872746184E+02 -0.77762870279E+02  0.10045829504E+03  0.41800000000E+01 0. -1.
         -5    1    3    3    0  502  0.15137458934E+02 -0.56209195556E+02 -0.13792651526E+02  0.59969375219E+02  0.41800000000E+01 0. -1.
        -11    1    1    2    0    0 -0.17790472445E+02  0.22469023258E+02  0.83945242938E+01  0.29863455160E+02  0.00000000000E+00 0.  1.
         11    1    1    2    0    0  0.54303117452E+02 -0.31325738856E+01 -0.82012435297E+02  0.98410777497E+02  0.00000000000E+00 0. -1.
</event>
<event>
 7    1  0.4966153E-006  0.7264656E+02  0.7561462E-02  0.1351318E+00
         -2   -1    0    0    0  501 -0.00000000000E+00  0.00000000000E+00  0.26500591043E+02  0.26500591043E+02  0.00000000000E+00 0.  1.
          2   -1    0    0  501    0  0.00000000000E+00 -0.00000000000E+00 -0.49085230585E+03  0.49085230585E+03  0.00000000000E+00 0. -1.
         23    2    1    2    0    0  0.31348856925E+02  0.29913368242E+02 -0.29179050507E+03  0.32041633395E+03  0.12508943913E+03 0.  0.
          5    1    3    3  502    0  0.31912354360E+02  0.79813323836E+01 -0.29586189121E+03  0.29771434480E+03  0.41800000000E+01 0. -1.
         -5    1    3    3    0  502 -0.56349743452E+00  0.21932035858E+02  0.40713861430E+01  0.22701989150E+02  0.41800000000E+01 0. -1.
        -11    1    1    2    0    0 -0.10474435416E+02 -0.55669551918E+02 -0.13735607065E+03  0.14857827215E+03  0.00000000000E+00 0. -1.
         11    1    1    2    0    0 -0.20874421509E+02  0.25756183676E+02 -0.35205139077E+02  0.48358290792E+02  0.00000000000E+00 0.  1.
</event>
<event>
 7    1  0.4966153E-006  0.1025051E+03  0.7561462E-02  0.1275115E+00
          1   -1    0    0  501    0  0.00000000000E+00  0.00000000000E+00  0.37541929997E+02  0.37541929997E+02  0.00000000000E+00 0. -1.
         -1   -1    0    0    0  501 -0.00000000000E+00 -0.00000000000E+00 -0.40027546967E+03  0.40027546967E+03  0.00000000000E+00 0.  1.
         23    2    1    2    0    0  0.43880238415E+02  0.73151347976E+01 -0.26452814028E+03  0.29664554490E+03  0.12666671144E+03 0.  0.
          5    1    3    3  502    0 -0.81382495053E+01  0.53035726836E+02 -0.59661265356E+02  0.80348978897E+02  0.41800000000E+01 0. -1.
         -5    1    3    3    0  502  0.52018487920E+02 -0.45720592038E+02 -0.20486687493E+03  0.21629656600E+03  0.41800000000E+01 0.  1.
        -11    1    1    2    0    0 -0.12304013956E+02  0.30297156800E+02 -0.83859986143E+02  0.90010020250E+02  0.00000000000E+00 0.  1.
         11    1    1    2    0    0 -0.31576224459E+02 -0.37612291598E+02 -0.14345413252E+02  0.51161834522E+02  0.00000000000E+00 0. -1.
</event>
<event>
 7    1  0.4966153E-006  0.9544499E+02  0.7561462E-02  0.1290177E+00
          1   -1    0    0  501    0  0.00000000000E+00  0.00000000000E+00  0.26085387953E+03  0.26085387953E+03  0.00000000000E+00 0. -1.
         -1   -1    0    0    0  501 -0.00000000000E+00 -0.00000000000E+00 -0.50520012517E+02  0.50520012517E+02  0.00000000000E+00 0.  1.
         23    2    1    2    0    0  0.23168195422E+02 -0.42397230567E+02  0.93393006985E+02  0.15914149024E+03  0.11945488573E+03 0.  0.
          5    1    3    3  502    0  0.58846691734E+02  0.71020801512E+00  0.11882822596E+02  0.60183979565E+02  0.41800000000E+01 0. -1.
         -5    1    3    3    0  502 -0.35678496312E+02 -0.43107438582E+02  0.81510184389E+02  0.98957510676E+02  0.41800000000E+01 0.  1.
        -11    1    1    2    0    0 -0.31053179044E+02 -0.15855967307E+01  0.47293348498E+01  0.31451242485E+02  0.00000000000E+00 0.  1.
         11    1    1    2    0    0  0.78849836224E+01  0.43982827297E+02  0.11221152518E+03  0.12078115932E+03  0.00000000000E+00 0. -1.
</event>
<event>
 7    1  0.4966153E-006  0.1275340E+03  0.7561462E-02  0.1231161E+00
          2   -1    0    0  501    0  0.00000000000E+00  0.00000000000E+00  0.44626130662E+03  0.44626130662E+03  0.00000000000E+00 0. -1.
         -2   -1    0    0    0  501 -0.00000000000E+00 -0.00000000000E+00 -0.45220534339E+02  0.45220534339E+02  0.00000000000E+00 0.  1.
         23    2    1    2    0    0 -0.91595123527E+01  0.91710444430E+02  0.16262300453E+03  0.22491873608E+03  0.12508994346E+03 0.  0.
          5    1    3    3  502    0 -0.64440893511E+02  0.67667128340E+02  0.11326654477E+03  0.14689537630E+03  0.41800000000E+01 0. -1.
         -5    1    3    3    0  502  0.55281381158E+02  0.24043316090E+02  0.49356459759E+02  0.78023359779E+02  0.41800000000E+01 0. -1.
        -11    1    1    2    0    0 -0.92072973548E+01 -0.77064283696E+02  0.22803215397E+03  0.24087827090E+03  0.00000000000E+00 0. -1.
         11    1    1    2    0    0  0.18366809707E+02 -0.14646160734E+02  0.10385613782E+02  0.25684833983E+02  0.00000000000E+00 0.  1.
</event>
<event>
 7    1  0.4966153E-006  0.1370780E+03  0.7561462E-02  0.1217316E+00
         -2   -1    0    0    0  501 -0.00000000000E+00  0.00000000000E+00  0.58203262307E+02  0.58203262307E+02  0.00000000000E+00 0. -1.
          2   -1    0    0  501    0  0.00000000000E+00 -0.00000000000E+00 -0.46026990384E+03  0.46026990384E+03  0.00000000000E+00 0.  1.
         23    2    1    2    0    0  0.11233643894E+03  0.42744326514E+02 -0.14679390747E+03  0.22725055341E+03  0.12509120588E+03 0.  0.
          5    1    3    3  502    0  0.79173535968E+02  0.57070296210E+02 -0.16090932931E+03  0.18824120741E+03  0.41800000000E+01 0.  1.
         -5    1    3    3    0  502  0.33162902974E+02 -0.14325969695E+02  0.14115421838E+02  0.39009345996E+02  0.41800000000E+01 0.  1.
        -11    1    1    2    0    0 -0.20007301836E+02  0.20142725320E+02 -0.48265971561E+02  0.55996656336E+02  0.00000000000E+00 0.  1.
         11    1    1    2    0    0 -0.92329137106E+02 -0.62887051834E+02 -0.20700676249E+03  0.23522595640E+03  0.00000000000E+00 0. -1.
</event>
<event>
 7    1  0.4966153E-006  0.1387986E+03  0.7561462E-02  0.1214955E+00
          1   -1    0    0  501    0  0.00000000000E+00  0.00000000000E+00  0.12478160878E+04  0.12478160878E+04  0.00000000000E+00 0. -1.
         -1   -1    0    0    0  501 -0.00000000000E+00 -0.00000000000E+00 -0.25932287705E+02  0.25932287705E+02  0.00000000000E+00 0.  1.
         23    2    1    2    0    0  0.11232437765E+03 -0.17884522488E+02  0.38790853751E+03  0.42315214183E+03  0.12509228473E+03 0.  0.
          5    1    3    3  502    0  0.11362621360E+03 -0.18090569876E+02  0.39683952729E+03  0.41320366401E+03  0.41800000000E+01 0. -1.
         -5    1    3    3    0  502 -0.13018359505E+01  0.20604738808E+00 -0.89309897785E+01  0.99484778128E+01  0.41800000000E+01 0. -1.
        -11    1    1    2    0    0  0.22363257839E+02  0.17751578006E+01  0.47776642162E+02  0.52781379507E+02  0.00000000000E+00 0.  1.
         11    1    1    2    0    0 -0.13468763548E+03  0.16109364687E+02  0.78619862038E+03  0.79781485413E+03  0.00000000000E+00 0. -1.
</event>
<event>
 7    1  0.4966153E-006  0.7332194E+02  0.7561462E-02  0.1349148E+00
         -2   -1    0    0    0  501 -0.00000000000E+00  0.00000000000E+00  0.50726460644E+02  0.50726460644E+02  0.00000000000E+00 0.  1.
          2   -1    0    0  501    0  0.00000000000E+00 -0.00000000000E+00 -0.38504710733E+03  0.38504710733E+03  0.00000000000E+00 0. -1.
         23    2    1    2    0    0 -0.33132013463E+02 -0.35538349021E+02 -0.69320671093E+02  0.15104365464E+03  0.12509246819E+03 0.  0.
          5    1    3    3  502    0 -0.26159910114E+02 -0.22272082467E+02 -0.10583623731E+03  0.11135155178E+03  0.41800000000E+01 0. -1.
         -5    1    3    3    0  502 -0.69721033493E+01 -0.13266266554E+02  0.36515566218E+02  0.39692102862E+02  0.41800000000E+01 0. -1.
        -11    1    1    2    0    0  0.60172336108E+02  0.34616143317E+02 -0.13344204681E+03  0.15041864003E+03  0.00000000000E+00 0. -1.
         11    1    1    2    0    0 -0.27040322645E+02  0.92220570422E+00 -0.13155792879E+03  0.13431127331E+03  0.00000000000E+00 0.  1.
</event>
<event>
 7    1  0.4966153E-006  0.5685309E+02  0.7561462E-02  0.1411533E+00
         -1   -1    0    0    0  501 -0.00000000000E+00  0.00000000000E+00  0.78341655442E+02  0.78341655442E+02  0.00000000000E+00 0.  1.
          1   -1    0    0  501    0  0.00000000000E+00 -0.00000000000E+00 -0.15108451269E+03  0.15108451269E+03  0.00000000000E+00 0. -1.
         23    2    1    2    0    0  0.86355209505E+01 -0.71982967294E+01 -0.11604732394E+02  0.11810734444E+03  0.11699695423E+03 0.  0.
          5    1    3    3  502    0 -0.27112629472E+02  0.54821495077E+00 -0.54839805129E+02  0.61321055463E+02  0.41800000000E+01 0. -1.
         -5    1    3    3    0  502  0.35748150422E+02 -0.77465116802E+01  0.43235072735E+02  0.56786288981E+02  0.41800000000E+01 0.  1.
        -11    1    1    2    0    0  0.19570065515E+02  0.82234344116E+01 -0.76357116230E+02  0.79252896078E+02  0.00000000000E+00 0.  1.
         11    1    1    2    0    0 -0.28205586466E+02 -0.10251376822E+01  0.15218991374E+02  0.32065927612E+02  0.00000000000E+00 0. -1.
</event>
<event>
 7    1  0.4966153E-006  0.9712811E+02  0.7561462E-02  0.1286454E+00
         -2   -1    0    0    0  501 -0.00000000000E+00  0.00000000000E+00  0.44165923745E+02  0.44165923745E+02  0.00000000000E+00 0.  1.
          2   -1    0    0  501    0  0.00000000000E+00 -0.00000000000E+00 -0.27896639920E+03  0.27896639920E+03  0.00000000000E+00 0. -1.
         23    2    1    2    0    0 -0.69145776468E+01 -0.20304225526E+02 -0.12154937566E+03  0.17573356907E+03  0.12509182074E+03 0.  0.
          5    1    3    3  502    0  0.54264957174E+02  0.12110532999E+02 -0.69006215536E+02  0.88716857300E+02  0.41800000000E+01 0.  1.
         -5    1    3    3    0  502 -0.61179534821E+02 -0.32414758525E+02 -0.52543160124E+02  0.87016711768E+02  0.41800000000E+01 0.  1.
        -11    1    1    2    0    0  0.26325028255E+02 -0.13929680096E+02 -0.25285413538E+01  0.29890410195E+02  0.00000000000E+00 0.  1.
         11    1    1    2    0    0 -0.19410450608E+02  0.34233905622E+02 -0.11072255844E+03  0.11750834368E+03  0.00000000000E+00 0. -1.
</event>
<event>
 6    1  0.4966153E-006  0.1463548E+03  0.7561462E-02  0.1205025E+00
         -1   -1    0    0    0  501 -0.00000000000E+00  0.00000000000E+00  0.21787559682E+03  0.21787559682E+03  0.00000000000E+00 0.  1.
          1   -1    0    0  501    0  0.00000000000E+00 -0.00000000000E+00 -0.18012080845E+03  0.18012080845E+03  0.00000000000E+00 0. -1.
          5    1    1    2  502    0  0.31385261665E+01  0.23664413279E+01 -0.38708217543E+02  0.39131175505E+02  0.41800000000E+01 0. -1.
         -5    1    1    2    0  502  0.91281100549E+02  0.93512307380E+02  0.13188791534E+03  0.18571129627E+03  0.41800000000E+01 0.  1.
        -11    1    1    2    0    0 -0.26334892621E+02  0.11776841832E+02 -0.32973961181E+02  0.43812129472E+02  0.00000000000E+00 0.  1.
         11    1    1    2    0    0 -0.68084734095E+02 -0.10765559054E+03 -0.22450948240E+02  0.12934180402E+03  0.00000000000E+00 0. -1.
</event>
<event>
 7    1  0.4966153E-006  0.1768595E+03  0.7561462E-02  0.1170877E+00
          2   -1    0    0  501    0  0.00000000000E+00  0.00000000000E+00  0.66748124916E+03  0.66748124916E+03  0.00000000000E+00 0. -1.
         -2   -1    0    0    0  501 -0.00000000000E+00 -0.00000000000E+00 -0.55740891451E+02  0.55740891451E+02  0.00000000000E+00 0.  1.
         23    2    1    2    0    0  0.11503919967E+03  0.95529280339E+02  0.22946821501E+03  0.30111127867E+03  0.12510987004E+03 0.  0.
          5    1    3    3  502    0 -0.20861612636E+02  0.21209194927E+02  0.81488632448E+02  0.86849907596E+02  0.41800000000E+01 0. -1.
         -5    1    3    3    0  502  0.13590081231E+03  0.74320085412E+02  0.14797958256E+03  0.21426137108E+03  0.41800000000E+01 0. -1.
        -11    1    1    2    0    0  0.23528144485E+01 -0.37860637800E+02  0.15797335975E+03  0.16246398377E+03  0.00000000000E+00 0. -1.
         11    1    1    2    0    0 -0.11739201412E+03 -0.57668642540E+02  0.22429878295E+03  0.25964687817E+03  0.00000000000E+00 0.  1.
</event>
<event>
 7    1  0.4966153E-006  0.1023143E+03  0.7561462E-02  0.1275503E+00
          2   -1    0    0  501    0  0.00000000000E+00  0.00000000000E+00  0.19434373721E+03  0.19434373721E+03  0.00000000000E+00 0.  1.
         -2   -1    0    0    0  501 -0.00000000000E+00 -0.00000000000E+00 -0.81150354261E+02  0.81150354261E+02  0.00000000000E+00 0. -1.
         23    2    1    2    0    0  0.58615905696E+01 -0.24607033615E+02 -0.21991362271E+00  0.12762153204E+03  0.12508933900E+03 0.  0.
          5    1    3    3  502    0  0.39115864383E+02  0.32755503362E+02  0.24479683452E+02  0.56742410496E+02  0.41800000000E+01 0. -1.
         -5    1    3    3    0  502 -0.33254273813E+02 -0.57362536976E+02 -0.24699597075E+02  0.70879121544E+02  0.41800000000E+01 0. -1.
        -11    1    1    2    0    0  0.24403587179E+01 -0.30840210032E+02  0.71394424825E+02  0.77808982782E+02  0.00000000000E+00 0.  1.
         11    1    1    2    0    0 -0.83019492875E+01  0.55447243647E+02  0.42018871749E+02  0.70063576650E+02  0.00000000000E+00 0. -1.
</event>
<event>
 7    1  0.4966153E-006  0.1410873E+03  0.7561462E-02  0.1211873E+00
          2   -1    0    0  501    0  0.00000000000E+00  0.00000000000E+00  0.84932430085E+03  0.84932430085E+03  0.00000000000E+00 0. -1.
         -2   -1    0    0    0  501 -0.00000000000E+00 -0.00000000000E+00 -0.30137655381E+02  0.30137655381E+02  0.00000000000E+00 0.  1.
         23    2    1    2    0    0  0.51552949392E+02  0.10068643604E+03  0.35444612775E+03  0.39252302183E+03  0.12508717037E+03 0.  0.
          5    1    3    3  502    0 -0.38755578340E+02  0.94326032125E+01  0.78994511212E+02  0.88592178309E+02  0.41800000000E+01 0.  1.
         -5    1    3    3    0  502  0.90308527732E+02  0.91253832823E+02  0.27545161654E+03  0.30393084352E+03  0.41800000000E+01 0.  1.
        -11    1    1    2    0    0 -0.98011026702E+01 -0.29532217743E+02  0.26116106766E+02  0.40623448043E+02  0.00000000000E+00 0. -1.
         11    1    1    2    0    0 -0.41751846721E+02 -0.71154218293E+02  0.43862441095E+03  0.44631548636E+03  0.00000000000E+00 0.  1.
</event>
<event>
 6    1  0.4966153E-006  0.2867356E+03  0.7561462E-02  0.1092066E+00
          2   -1    0    0  501    0  0.00000000000E+00  0.00000000000E+00  0.17175438568E+04  0.17175438568E+04  0.00000000000E+00 0. -1.
         -2   -1    0    0    0  501 -0.00000000000E+00 -0.00000000000E+00 -0.70499729736E+02  0.70499729736E+02  0.00000000000E+00 0.  1.
          5    1    1    2  502    0 -0.15524571000E+03  0.11318934963E+03  0.36453399890E+03  0.41208684534E+03  0.41800000000E+01 0. -1.
         -5    1    1    2    0  502 -0.39517801938E+01  0.96533790586E+02  0.46100651313E+02  0.10713137609E+03  0.41800000000E+01 0.  1.
        -11    1    1    2    0    0  0.65572281377E+02 -0.13172101856E+02  0.26366532982E+03  0.27201587178E+03  0.00000000000E+00 0.  1.
         11    1    1    2    0    0  0.93625208822E+02 -0.19655103836E+03  0.97274414704E+03  0.99680949334E+03  0.00000000000E+00 0. -1.
</event>
<event>
 6    1  0.4966153E-006  0.1162362E+03  0.7561462E-02  0.1249439E+00
         -2   -1    0    0    0  501 -0.00000000000E+00  0.00000000000E+00  0.21025425129E+03  0.21025425129E+03  0.00000000000E+00 0.  1.
          2   -1    0    0  501    0  0.00000000000E+00 -0.00000000000E+00 -0.92604476132E+02  0.92604476132E+02  0.00000000000E+00 0. -1.
          5    1    1    2  502    0 -0.25881429125E+02  0.85581539869E+02  0.24928696109E+02  0.92913726809E+02  0.41800000000E+01 0. -1.
         -5    1    1    2    0  502  0.37355994389E+02 -0.57528083333E+02  0.90928432270E+02  0.11397544860E+03  0.41800000000E+01 0.  1.
        -11    1    1    2    0    0  0.21417717607E+02  0.10261022976E+02  0.29894860983E+02  0.38179967695E+02  0.00000000000E+00 0.  1.
         11    1    1    2    0    0 -0.32892282872E+02 -0.38314479512E+02 -0.28102214201E+02  0.57789584319E+02  0.00000000000E+00 0. -1.
</event>
<event>
 7    1  0.4966153E-006  0.1704544E+03  0.7561462E-02  0.1177375E+00
          1   -1    0    0  501    0  0.00000000000E+00  0.00000000000E+00  0.74524826974E+03  0.74524826974E+03  0.00000000000E+00 0. -1.
         -1   -1    0    0    0  501 -0.00000000000E+00 -0.00000000000E+00 -0.53338154966E+02  0.53338154966E+02  0.00000000000E+00 0.  1.
         23    2    1    2    0    0  0.41936551878E+02 -0.14737158289E+03  0.22946200432E+03  0.30294904877E+03  0.12509299299E+03 0.  0.
          5    1    3    3  502    0 -0.10471546766E+02 -0.59888800132E+02  0.11144655608E+02  0.61951573197E+02  0.41800000000E+01 0.  1.
         -5    1    3    3    0  502  0.52408098644E+02 -0.87482782760E+02  0.21831734871E+03  0.24099747557E+03  0.41800000000E+01 0.  1.
        -11    1    1    2    0    0  0.13879711156E+02  0.10967373640E+03  0.30354918561E+03  0.32305275563E+03  0.00000000000E+00 0.  1.
         11    1    1    2    0    0 -0.55816263034E+02  0.37697846488E+02  0.15889892484E+03  0.17258462030E+03  0.00000000000E+00 0. -1.
</event>
<event>
 7    1  0.4966153E-006  0.9664739E+02  0.7561462E-02  0.1287508E+00
          3   -1    0    0  501    0  0.00000000000E+00  0.00000000000E+00  0.65950709640E+03  0.65950709640E+03  0.00000000000E+00 0. -1.
         -3   -1    0    0    0  501 -0.00000000000E+00 -0.00000000000E+00 -0.19465739115E+02  0.19465739115E+02  0.00000000000E+00 0.  1.
         23    2    1    2    0    0 -0.31749000545E+02 -0.10950642863E+02  0.36393927194E+03  0.38629933507E+03  0.12508983571E+03 0.  0.
          5    1    3    3  502    0 -0.44405878222E+02 -0.61591302158E+02  0.19015325413E+03  0.20479527089E+03  0.41800000000E+01 0. -1.
         -5    1    3    3    0  502  0.12656877677E+02  0.50640659295E+02  0.17378601781E+03  0.18150406418E+03  0.41800000000E+01 0. -1.
        -11    1    1    2    0    0  0.47836386432E+02  0.90511530531E+01  0.27150391131E+03  0.27583440158E+03  0.00000000000E+00 0. -1.
         11    1    1    2    0    0 -0.16087385886E+02  0.18994898097E+01  0.45981740314E+01  0.16839098866E+02  0.00000000000E+00 0.  1.
</event>
<event>
 7    1  0.4966153E-006  0.1431918E+03  0.7561462E-02  0.1209098E+00
         -1   -1    0    0    0  501 -0.00000000000E+00  0.00000000000E+00  0.86903689539E+02  0.86903689539E+02  0.00000000000E+00 0.  1.
          1   -1    0    0  501    0  0.00000000000E+00 -0.00000000000E+00 -0.29098313207E+03  0.29098313207E+03  0.00000000000E+00 0. -1.
         23    2    1    2    0    0  0.10561477550E+03  0.48372717373E+02 -0.12023279449E+03  0.20880152237E+03  0.12509096803E+03 0.  0.
          5    1    3    3  502    0  0.41675727694E+02 -0.41231700006E+02 -0.56547436387E+02  0.81559820538E+02  0.41800000000E+01 0. -1.
         -5    1    3    3    0  502  0.63939047810E+02  0.89604417379E+02 -0.63685358103E+02  0.12724170183E+03  0.41800000000E+01 0. -1.
        -11    1    1    2    0    0 -0.93169038351E+02 -0.35940191564E+02 -0.18688785988E+02  0.10159447721E+03  0.00000000000E+00 0.  1.
         11    1    1    2    0    0 -0.12445737153E+02 -0.12432525809E+02 -0.65157862058E+02  0.67490822037E+02  0.00000000000E+00 0. -1.
</event>
<event>
 7    1  0.4966153E-006  0.1245937E+03  0.7561462E-02  0.1235706E+00
          2   -1    0    0  501    0  0.00000000000E+00  0.00000000000E+00  0.25791335328E+03  0.25791335328E+03  0.00000000000E+00 0.  1.
         -2   -1    0    0    0  501 -0.00000000000E+00 -0.00000000000E+00 -0.10739611549E+03  0.10739611549E+03  0.00000000000E+00 0. -1.
         23    2    1    2    0    0 -0.44122775645E+01 -0.71556149301E+02 -0.33669013250E+02  0.14805639726E+03  0.12508934256E+03 0.  0.
          5    1    3    3  502    0  0.12004822062E+02  0.29181205089E+02  0.14666351423E+02  0.35046151675E+02  0.41800000000E+01 0. -1.
         -5    1    3    3    0  502 -0.16417099626E+02 -0.10073735439E+03 -0.48335364672E+02  0.11301024559E+03  0.41800000000E+01 0. -1.
        -11    1    1    2    0    0  0.45886387400E+02  0.22935439347E+02  0.83320138593E+02  0.97846003607E+02  0.00000000000E+00 0.  1.
         11    1    1    2    0    0 -0.41474109835E+02  0.48620709953E+02  0.10086611245E+03  0.11940706790E+03  0.00000000000E+00 0. -1.
</event>
<event>
 7    1  0.4966153E-006  0.9741819E+02  0.7561462E-02  0.1285821E+00
         -2   -1    0    0    0  501 -0.00000000000E+00  0.00000000000E+00  0.20692482957E+02  0.20692482957E+02  0.00000000000E+00 0.  1.
          2   -1    0    0  501    0  0.00000000000E+00 -0.00000000000E+00 -0.60899036047E+03  0.60899036047E+03  0.00000000000E+00 0. -1.
         23    2    1    2    0    0 -0.45471443137E+02 -0.20863813293E+02 -0.35986722942E+03  0.38425977774E+03  0.12509277808E+03 0.  0.
          5    1    3    3  502    0 -0.55157625455E+02 -0.62647972652E+02 -0.16834060836E+03  0.18794457945E+03  0.41800000000E+01 0.  1.
         -5    1    3    3    0  502  0.96861823178E+01  0.41784159358E+02 -0.19152662107E+03  0.19631519829E+03  0.41800000000E+01 0.  1.
        -11    1    1    2    0    0  0.27518575300E+02 -0.12542645709E+02 -0.27279239387E+02  0.40727715987E+02  0.00000000000E+00 0.  1.
         11    1    1    2    0    0  0.17952867837E+02  0.33406459002E+02 -0.20115140870E+03  0.20469534970E+03  0.00000000000E+00 0. -1.
</event>
<event>
 7    1  0.4966153E-006  0.1115411E+03  0.7561462E-02  0.1257742E+00
          1   -1    0    0  501    0  0.00000000000E+00  0.00000000000E+00  0.11389413318E+04  0.11389413318E+04  0.00000000000E+00 0. -1.
         -1   -1    0    0    0  501 -0.00000000000E+00 -0.00000000000E+00 -0.14605406351E+02  0.14605406351E+02  0.00000000000E+00 0.  1.
         23    2    1    2    0    0 -0.57942019354E+02 -0.34684648823E+02  0.55702964849E+03  0.57488177430E+03  0.12508686043E+03 0.  0.
          5    1    3    3  502    0 -0.43490984491E+02 -0.67421957877E+02  0.19273068810E+03  0.20880559540E+03  0.41800000000E+01 0.  1.
         -5    1    3    3    0  502 -0.14451034863E+02  0.32737309053E+02  0.36429896040E+03  0.36607617890E+03  0.41800000000E+01 0.  1.
        -11    1    1    2    0    0 -0.19677079281E+02 -0.38573258696E+01  0.45656191994E+02  0.49865361518E+02  0.00000000000E+00 0.  1.
         11    1    1    2    0    0  0.77619098635E+02  0.38541974693E+02  0.52165008493E+03  0.52879960230E+03  0.00000000000E+00 0. -1.
</event>
<event>
 7    1  0.4966153E-006  0.8332552E+02  0.7561462E-02  0.1319870E+00
         -4   -1    0    0    0  501 -0.00000000000E+00  0.00000000000E+00  0.22568990295E+03  0.22568990295E+03  0.00000000000E+00 0.  1.
          4   -1    0    0  501    0  0.00000000000E+00 -0.00000000000E+00 -0.73200619573E+02  0.73200619573E+02  0.00000000000E+00 0. -1.
         23    2    1    2    0    0 -0.32857521027E+02  0.58088747286E+02  0.10105999500E+03  0.17411013584E+03  0.12508915846E+03 0.  0.
          5    1    3    3  502    0  0.10896604848E+02  0.25455437167E+02  0.11438954811E+03  0.11776738256E+03  0.41800000000E+01 0.  1.
         -5    1    3    3    0  502 -0.43754125875E+02  0.32633310119E+02 -0.13329553114E+02  0.56342753275E+02  0.41800000000E+01 0.  1.
        -11    1    1    2    0    0  0.19455858708E+02  0.44396085442E+01  0.57191232527E+02  0.60572911768E+02  0.00000000000E+00 0.  1.
         11    1    1    2    0    0  0.13401662319E+02 -0.62528355830E+02 -0.57619441419E+01  0.64207474923E+02  0.00000000000E+00 0. -1.
</event>
<event>
 7    1  0.4966153E-006  0.1505019E+03  0.7561462E-02  0.1199858E+00
          3   -1    0    0  501    0  0.00000000000E+00  0.00000000000E+00  0.15674844177E+03  0.15674844177E+03  0.00000000000E+00 0. -1.
         -3   -1    0    0    0  501 -0.00000000000E+00 -0.00000000000E+00 -0.17969504507E+03  0.17969504507E+03  0.00000000000E+00 0.  1.
         23    2    1    2    0    0  0.16566392587E+02 -0.12601650177E+03 -0.26539787262E+02  0.18029518937E+03  0.12508953162E+03 0.  0.
          5    1    3    3  502    0  0.16990980801E+02 -0.14888396003E+03 -0.37594333942E+02  0.15455074677E+03  0.41800000000E+01 0.  1.
         -5    1    3    3    0  502 -0.42458821365E+00  0.22867458261E+02  0.11054546681E+02  0.25744442600E+02  0.41800000000E+01 0.  1.
        -11    1    1    2    0    0  0.19845146233E+01  0.29188798140E+02 -0.38998746144E+02  0.48752706960E+02  0.00000000000E+00 0. -1.
         11    1    1    2    0    0 -0.18550907210E+02  0.96827703632E+02  0.42591930106E+02  0.10739559050E+03  0.00000000000E+00 0.  1.
</event>
<event>
 7    1  0.5529063E-006  0.1095846E+03  0.7561462E-02  0.1261341E+00
          2   -1    0    0  501    0  0.00000000000E+00  0.00000000000E+00  0.68855350401E+03  0.68855350401E+03  0.00000000000E+00 0.  1.
         -2   -1    0    0    0  501 -0.00000000000E+00 -0.00000000000E+00 -0.27802753762E+02  0.27802753762E+02  0.00000000000E+00 0. -1.
         23    2    1    2    0    0 -0.70004018991E+02  0.47785097487E+02  0.32898529138E+03  0.36202549339E+03  0.12508859942E+03 0.  0.
          5    1    3    3  502    0 -0.37063776947E+02  0.63748881913E+00  0.11055094420E+02  0.38907807266E+02  0.41800000000E+01 0.  1.
         -5    1    3    3    0  502 -0.32940242043E+02  0.47147608668E+02  0.31793019696E+03  0.32311768612E+03  0.41800000000E+01 0.  1.
        -11    1    1    2    0    0  0.54324905649E+02  0.17486694531E+02  0.16318420631E+03  0.17287586601E+03  0.00000000000E+00 0.  1.
         11    1    1    2    0    0  0.15679113342E+02 -0.65271792018E+02  0.16858125256E+03  0.18145489837E+03  0.00000000000E+00 0. -1.
</event>
<event>
 7    1  0.4966153E-006  0.1007665E+03  0.7561462E-02  0.1278692E+00
          2   -1    0    0  501    0  0.00000000000E+00  0.00000000000E+00  0.11395982027E+03  0.11395982027E+03  0.00000000000E+00 0. -1.
         -2   -1    0    0    0  501 -0.00000000000E+00 -0.00000000000E+00 -0.13695235031E+03  0.13695235031E+03  0.00000000000E+00 0.  1.
         23    2    1    2    0    0  0.34364393779E+02  0.48406188092E+02 -0.14372229031E+02  0.13858950064E+03  0.12440425280E+03 0.  0.
          5    1    3    3  502    0  0.36229290820E+02  0.63972828691E+02  0.38632691702E+02  0.83156729086E+02  0.41800000000E+01 0. -1.
         -5    1    3    3    0  502 -0.18648970410E+01 -0.15566640599E+02 -0.53004920734E+02  0.55432771557E+02  0.41800000000E+01 0.  1.
        -11    1    1    2    0    0  0.18519902913E+02 -0.55317597538E+02 -0.87532438959E+01  0.58988496167E+02  0.00000000000E+00 0.  1.
         11    1    1    2    0    0 -0.52884296692E+02  0.69114094464E+01  0.13294288865E+00  0.53334173762E+02  0.00000000000E+00 0. -1.
</event>
<event>
 7    1  0.4966153E-006  0.1355813E+03  0.7561462E-02  0.1219401E+00
          4   -1    0    0  501    0  0.00000000000E+00  0.00000000000E+00  0.10950309734E+03  0.10950309734E+03  0.00000000000E+00 0. -1.
         -4   -1    0    0    0  501 -0.00000000000E+00 -0.00000000000E+00 -0.18907194791E+03  0.18907194791E+03  0.00000000000E+00 0.  1.
         23    2    1    2    0    0  0.85379755432E+02  0.36727293958E+02 -0.60336839701E+02  0.16711476197E+03  0.12509281628E+03 0.  0.
          5    1    3    3  502    0  0.10858409053E+03  0.43556401311E+02 -0.74510763872E+02  0.13876956130E+03  0.41800000000E+01 0. -1.
         -5    1    3    3    0  502 -0.23204335100E+02 -0.68291073528E+01  0.14173924171E+02  0.28345200671E+02  0.41800000000E+01 0. -1.
        -11    1    1    2    0    0 -0.52143990582E+02  0.26219145002E+02 -0.14397853210E+02  0.60114370125E+02  0.00000000000E+00 0.  1.
         11    1    1    2    0    0 -0.33235764850E+02 -0.62946438960E+02 -0.48341576550E+01  0.71345913149E+02  0.00000000000E+00 0. -1.
</event>
<event>
 7    1  0.4966153E-006  0.8126707E+02  0.7561462E-02  0.1325494E+00
          1   -1    0    0  501    0  0.00000000000E+00  0.00000000000E+00  0.16600757174E+03  0.16600757174E+03  0.00000000000E+00 0. -1.
         -1   -1    0    0    0  501 -0.00000000000E+00 -0.00000000000E+00 -0.73699191701E+02  0.73699191701E+02  0.00000000000E+00 0.  1.
         23    2    1    2    0    0 -0.13127860099E+02 -0.11914545015E+01  0.40117399759E+02  0.13202433760E+03  0.12508900703E+03 0.  0.
          5    1    3    3  502    0  0.41256132782E+02 -0.17689140703E+02 -0.19885956227E+02  0.49273703393E+02  0.41800000000E+01 0.  1.
         -5    1    3    3    0  502 -0.54383992881E+02  0.16497686202E+02  0.60003355987E+02  0.82750634205E+02  0.41800000000E+01 0.  1.
        -11    1    1    2    0    0  0.21614799945E+02 -0.24933278547E+02 -0.14131504567E+02  0.35896620692E+02  0.00000000000E+00 0.  1.
         11    1    1    2    0    0 -0.84869398469E+01  0.26124733049E+02  0.66322484845E+02  0.71785805148E+02  0.00000000000E+00 0. -1.
</event>
<event>
 7    1  0.4966153E-006  0.9192185E+02  0.7561462E-02  0.1298263E+00
         -1   -1    0    0    0  501 -0.00000000000E+00  0.00000000000E+00  0.12375291617E+03  0.12375291617E+03  0.00000000000E+00 0.  1.
          1   -1    0    0  501    0  0.00000000000E+00 -0.00000000000E+00 -0.10780796117E+03  0.10780796117E+03  0.00000000000E+00 0. -1.
         23    2    1    2    0    0  0.29688678758E+01  0.35477657361E+02  0.52590850166E+01  0.13016344244E+03  0.12508950965E+03 0.  0.
          5    1    3    3  502    0  0.32219303294E+02  0.65831113319E+02 -0.25608003407E+02  0.77749991795E+02  0.41800000000E+01 0.  1.
         -5    1    3    3    0  502 -0.29250435418E+02 -0.30353455958E+02  0.30867088424E+02  0.52413450645E+02  0.41800000000E+01 0.  1.
        -11    1    1    2    0    0  0.27521455078E+02 -0.15009868258E+02  0.42499546521E+02  0.52810397549E+02  0.00000000000E+00 0.  1.
         11    1    1    2    0    0 -0.30490322954E+02 -0.20467789103E+02 -0.31813676538E+02  0.48587037360E+02  0.00000000000E+00 0. -1.
</event>
<event>
 7    1  0.4966153E-006  0.9708901E+02  0.7561462E-02  0.1286539E+00
          2   -1    0    0  501    0  0.00000000000E+00  0.00000000000E+00  0.27076805444E+03  0.27076805444E+03  0.00000000000E+00 0. -1.
         -2   -1    0    0    0  501 -0.00000000000E+00 -0.00000000000E+00 -0.66396619950E+02  0.66396619950E+02  0.00000000000E+00 0.  1.
         23    2    1    2    0    0  0.85993153533E+01  0.16800123404E+02  0.16821458758E+02  0.12761687060E+03  0.12508761656E+03 0.  0.
          5    1    3    3  502    0 -0.47251015660E+02  0.37604576485E+02 -0.11308428262E+02  0.61580155921E+02  0.41800000000E+01 0. -1.
         -5    1    3    3    0  502  0.55850331013E+02 -0.20804453081E+02  0.28129887019E+02  0.66036714682E+02  0.41800000000E+01 0. -1.
        -11    1    1    2    0    0  0.31667428728E+02 -0.84589340960E+01  0.23266319315E+02  0.40195786132E+02  0.00000000000E+00 0.  1.
         11    1    1    2    0    0 -0.40266744081E+02 -0.83411893081E+01  0.16428365641E+03  0.16935201765E+03  0.00000000000E+00 0. -1.
</event>
<event>
 7    1  0.4966153E-006  0.2154024E+03  0.7561462E-02  0.1137358E+00
         -2   -1    0    0    0  501 -0.00000000000E+00  0.00000000000E+00  0.15590056281E+03  0.15590056281E+03  0.00000000000E+00 0.  1.
          2   -1    0    0  501    0  0.00000000000E+00 -0.00000000000E+00 -0.46768656044E+03  0.46768656044E+03  0.00000000000E+00 0. -1.
         23    2    1    2    0    0  0.38935640681E+02 -0.20779260177E+03 -0.11849658169E+02  0.24592890464E+03  0.12508741852E+03 0.  0.
          5    1    3    3  502    0  0.30034807518E+01 -0.71065896502E+02 -0.63420500622E+02  0.95388756368E+02  0.41800000000E+01 0. -1.
         -5    1    3    3    0  502  0.35932159929E+02 -0.13672670526E+03  0.51570842453E+02  0.15054014827E+03  0.41800000000E+01 0. -1.
        -11    1    1    2    0    0 -0.51173294769E+02  0.18809623876E+03 -0.21771976913E+03  0.29223415098E+03  0.00000000000E+00 0.  1.
         11    1    1    2    0    0  0.12237654088E+02  0.19696363010E+02 -0.82216570337E+02  0.85424067635E+02  0.00000000000E+00 0. -1.
</event>
<event>
 7    1  0.4966153E-006  0.1280171E+03  0.7561462E-02  0.1230428E+00
         -1   -1    0    0    0  501 -0.00000000000E+00  0.00000000000E+00  0.15521686518E+03  0.15521686518E+03  0.00000000000E+00 0.  1.
          1   -1    0    0  501    0  0.00000000000E+00 -0.00000000000E+00 -0.43602143331E+03  0.43602143331E+03  0.00000000000E+00 0. -1.
         23    2    1    2    0    0  0.93585558397E+02  0.40130396225E+02  0.97037780452E+02  0.18823176068E+03  0.12508460917E+03 0.  0.
          5    1    3    3  502    0  0.11849777537E+03  0.47185181440E+02  0.55622036548E+02  0.13921008392E+03  0.41800000000E+01 0. -1.
         -5    1    3    3    0  502 -0.24912216972E+02 -0.70547852150E+01  0.41415743905E+02  0.49021676757E+02  0.41800000000E+01 0. -1.
        -11    1    1    2    0    0 -0.58245164886E+02 -0.20383539525E+02 -0.34611239269E+03  0.35157044286E+03  0.00000000000E+00 0. -1.
         11    1    1    2    0    0 -0.35340393512E+02 -0.19746856701E+02 -0.31729955890E+02  0.51436094952E+02  0.00000000000E+00 0.  1.
</event>
<event>
 7    1  0.4966153E-006  0.8612173E+02  0.7561462E-02  0.1312525E+00
         -3   -1    0    0    0  501 -0.00000000000E+00  0.00000000000E+00  0.23742277096E+02  0.23742277096E+02  0.00000000000E+00 0.  1.
          3   -1    0    0  501    0  0.00000000000E+00 -0.00000000000E+00 -0.55810761324E+03  0.55810761324E+03  0.00000000000E+00 0. -1.
         23    2    1    2    0    0  0.18828138826E+02  0.41362564807E+02 -0.22155942512E+03  0.25845855555E+03  0.12508751137E+03 0.  0.
          5    1    3    3  502    0 -0.25216503871E+02 -0.17188913076E+02 -0.15920736206E+03  0.16215975867E+03  0.41800000000E+01 0.  1.
         -5    1    3    3    0  502  0.44044642698E+02  0.58551477883E+02 -0.62352063062E+02  0.96298796881E+02  0.41800000000E+01 0.  1.
        -11    1    1    2    0    0 -0.34506906226E+02 -0.39203626635E+02 -0.29491911142E+03  0.29950781826E+03  0.00000000000E+00 0. -1.
         11    1    1    2    0    0  0.15678767400E+02 -0.21589381720E+01 -0.17886799605E+02  0.23883516519E+02  0.00000000000E+00 0.  1.
</event>
<event>
 7    1  0.4966153E-006  0.1040134E+03  0.7561462E-02  0.1272076E+00
         -2   -1    0    0    0  501 -0.00000000000E+00  0.00000000000E+00  0.78247291819E+02  0.78247291819E+02  0.00000000000E+00 0.  1.
          2   -1    0    0  501    0  0.00000000000E+00 -0.00000000000E+00 -0.23772326693E+03  0.23772326693E+03  0.00000000000E+00 0. -1.
         23    2    1    2    0    0 -0.14708028395E+01  0.38822082971E-01  0.95915628866E+01  0.12536164897E+03  0.12498551990E+03 0.  0.
          5    1    3    3  502    0 -0.61464959640E+02  0.13608766010E+02  0.88462851526E+00  0.63098294299E+02  0.41800000000E+01 0. -1.
         -5    1    3    3    0  502  0.59994156801E+02 -0.13569943927E+02  0.87069343714E+01  0.62263354668E+02  0.41800000000E+01 0.  1.
        -11    1    1    2    0    0 -0.71368570613E+01  0.40864924486E+02 -0.53396372833E+02  0.67616931413E+02  0.00000000000E+00 0. -1.
         11    1    1    2    0    0  0.86076599008E+01 -0.40903746569E+02 -0.11567116517E+03  0.12299197837E+03  0.00000000000E+00 0.  1.
</event>
<event>
 6    1  0.4966153E-006  0.2529965E+03  0.7561462E-02  0.1111426E+00
         -1   -1    0    0    0  501 -0.00000000000E+00  0.00000000000E+00  0.86085126430E+02  0.86085126430E+02  0.00000000000E+00 0.  1.
          1   -1    0    0  501    0  0.00000000000E+00 -0.00000000000E+00 -0.88289011405E+03  0.88289011405E+03  0.00000000000E+00 0. -1.
          5    1    1    2  502    0  0.63599249743E+02  0.27861325150E+01 -0.45647960671E+02  0.78446388162E+02  0.41800000000E+01 0. -1.
         -5    1    1    2    0  502 -0.97502349478E+00  0.21099028771E+03 -0.20865862710E+03  0.29677221441E+03  0.41800000000E+01 0.  1.
        -11    1    1    2    0    0  0.12422132177E+02 -0.22706501016E+02 -0.13516225202E+03  0.13761805451E+03  0.00000000000E+00 0.  1.
         11    1    1    2    0    0 -0.75046358425E+02 -0.19106991921E+03 -0.40733614782E+03  0.45613858340E+03  0.00000000000E+00 0. -1.
</event>
<event>
 7    1  0.4966153E-006  0.8303301E+02  0.7561462E-02  0.1320658E+00
         -2   -1    0    0    0  501 -0.00000000000E+00  0.00000000000E+00  0.25565704685E+02  0.25565704685E+02  0.00000000000E+00 0.  1.
          2   -1    0    0  501    0  0.00000000000E+00 -0.00000000000E+00 -0.48657139728E+03  0.48657139728E+03  0.00000000000E+00 0. -1.
         23    2    1    2    0    0  0.11451874722E+02 -0.26109725890E+02 -0.21035602553E+03  0.24484260671E+03  0.12200566120E+03 0.  0.
          5    1    3    3  502    0  0.27540367386E+02 -0.44509120345E+02 -0.21348725087E+03  0.21984952198E+03  0.41800000000E+01 0. -1.
         -5    1    3    3    0  502 -0.16088492664E+02  0.18399394455E+02  0.31312253400E+01  0.24993084736E+02  0.41800000000E+01 0.  1.
        -11    1    1    2    0    0  0.65272280433E+01  0.54646207175E+02 -0.11464820792E+03  0.12717320568E+03  0.00000000000E+00 0. -1.
         11    1    1    2    0    0 -0.17979102765E+02 -0.28536481285E+02 -0.13600145915E+03  0.14012128957E+03  0.00000000000E+00 0.  1.
</event>
<event>
 7    1  0.4966153E-006  0.8599003E+02  0.7561462E-02  0.1312864E+00
         -2   -1    0    0    0  501 -0.00000000000E+00  0.00000000000E+00  0.22063053662E+03  0.22063053662E+03  0.00000000000E+00 0.  1.
          2   -1    0    0  501    0  0.00000000000E+00 -0.00000000000E+00 -0.54997968595E+02  0.54997968595E+02  0.00000000000E+00 0. -1.
         23    2    1    2    0    0  0.21751403619E+01 -0.28170286525E+02  0.10523692044E+03  0.16589236467E+03  0.12508865238E+03 0.  0.
          5    1    3    3  502    0 -0.34963821149E+02 -0.24692932240E+02 -0.10457875931E+02  0.44261148437E+02  0.41800000000E+01 0.  1.
         -5    1    3    3    0  502  0.37138961511E+02 -0.34773542843E+01  0.11569479637E+03  0.12163121624E+03  0.41800000000E+01 0.  1.
        -11    1    1    2    0    0  0.31597416927E+02 -0.16333840991E+02  0.20135218131E+02  0.40873195706E+02  0.00000000000E+00 0.  1.
         11    1    1    2    0    0 -0.33772557289E+02  0.44504127516E+02  0.40260429447E+02  0.68862944833E+02  0.00000000000E+00 0. -1.
</event>
<event>
 7    1  0.4966153E-006  0.1185346E+03  0.7561462E-02  0.1245534E+00
         -2   -1    0    0    0  501 -0.00000000000E+00  0.00000000000E+00  0.19425609980E+02  0.19425609980E+02  0.00000000000E+00 0.  1.
          2   -1    0    0  501    0  0.00000000000E+00 -0.00000000000E+00 -0.75098805342E+03  0.75098805342E+03  0.00000000000E+00 0. -1.
         23    2    1    2    0    0 -0.55650538319E+02  0.21244623193E+02 -0.36200402335E+03  0.38475008344E+03  0.11591978844E+03 0.  0.
          5    1    3    3  502    0  0.13435259612E+02 -0.35814422007E+02 -0.79039974705E+02  0.87908867731E+02  0.41800000000E+01 0. -1.
         -5    1    3    3    0  502 -0.69085797931E+02  0.57059045199E+02 -0.28296404865E+03  0.29684121571E+03  0.41800000000E+01 0.  1.
        -11    1    1    2    0    0  0.56621684181E+01 -0.50602561670E+02 -0.20362983387E+03  0.20989947270E+03  0.00000000000E+00 0. -1.
         11    1    1    2    0    0  0.49988369901E+02  0.29357938478E+02 -0.16592858621E+03  0.17576410725E+03  0.00000000000E+00 0.  1.
</event>
<event>
 7    1  0.4966153E-006  0.1179412E+03  0.7561462E-02  0.1246533E+00
         -4   -1    0    0    0  501 -0.00000000000E+00  0.00000000000E+00  0.48905395582E+02  0.48905395582E+02  0.00000000000E+00 0.  1.
          4   -1    0    0  501    0  0.00000000000E+00 -0.00000000000E+00 -0.33769555047E+03  0.33769555047E+03  0.00000000000E+00 0. -1.
         23    2    1    2    0    0 -0.28559807893E+02 -0.58836420528E+02 -0.13213514806E+03  0.19335915986E+03  0.12510267920E+03 0.  0.
          5    1    3    3  502    0 -0.65591717286E+02 -0.15925650124E+02 -0.25032753651E+02  0.72111100836E+02  0.41800000000E+01 0. -1.
         -5    1    3    3    0  502  0.37031909393E+02 -0.42910770404E+02 -0.10710239440E+03  0.12124805902E+03  0.41800000000E+01 0. -1.
        -11    1    1    2    0    0  0.60301938592E+02  0.25747264148E+02 -0.10830941698E+03  0.12661032824E+03  0.00000000000E+00 0.  1.
         11    1    1    2    0    0 -0.31742130699E+02  0.33089156380E+02 -0.48345589846E+02  0.66631457952E+02  0.00000000000E+00 0. -1.
</event>
<event>
 6    1  0.4966153E-006  0.1449032E+03  0.7561462E-02  0.1206880E+00
          2   -1    0    0  501    0  0.00000000000E+00  0.00000000000E+00  0.84790884819E+03  0.84790884819E+03  0.00000000000E+00 0. -1.
         -2   -1    0    0    0  501 -0.00000000000E+00 -0.00000000000E+00 -0.42909974831E+02  0.42909974831E+02  0.00000000000E+00 0.  1.
          5    1    1    2  502    0 -0.24192114983E+02  0.89454877256E+02  0.15913801362E+03  0.18420047033E+03  0.41800000000E+01 0. -1.
         -5    1    1    2    0  502  0.53032656854E+02  0.86990372315E+01  0.10951599434E+02  0.55004962248E+02  0.41800000000E+01 0.  1.
        -11    1    1    2    0    0 -0.88909133064E+01  0.20749781713E+02  0.57951884969E+02  0.62193430135E+02  0.00000000000E+00 0.  1.
         11    1    1    2    0    0 -0.19949628564E+02 -0.11890369620E+03  0.57695737534E+03  0.58941996030E+03  0.00000000000E+00 0. -1.
</event>
<event>
 7    1  0.4966153E-006  0.1247711E+03  0.7561462E-02  0.1235428E+00
         -1   -1    0    0    0  501 -0.00000000000E+00  0.00000000000E+00  0.49886102948E+02  0.49886102948E+02  0.00000000000E+00 0.  1.
          1   -1    0    0  501    0  0.00000000000E+00 -0.00000000000E+00 -0.36936892784E+03  0.36936892784E+03  0.00000000000E+00 0. -1.
         23    2    1    2    0    0  0.82396766429E+02 -0.37273739623E+02 -0.17661917670E+03  0.23457106178E+03  0.12510272044E+03 0.  0.
          5    1    3    3  502    0  0.79370601077E+02  0.31002481262E+02 -0.10803304878E+03  0.13765703102E+03  0.41800000000E+01 0.  1.
         -5    1    3    3    0  502  0.30261653519E+01 -0.68276220886E+02 -0.68586127915E+02  0.96914030757E+02  0.41800000000E+01 0.  1.
        -11    1    1    2    0    0 -0.14142786045E+02 -0.55381406670E+01  0.52536448584E+01  0.16071408882E+02  0.00000000000E+00 0.  1.
         11    1    1    2    0    0 -0.68253980384E+02  0.42811880290E+02 -0.14811729305E+03  0.16861256013E+03  0.00000000000E+00 0. -1.
</event>
<event>
 7    1  0.4966153E-006  0.1220382E+03  0.7561462E-02  0.1239772E+00
         -2   -1    0    0    0  501 -0.00000000000E+00  0.00000000000E+00  0.29603936037E+02  0.29603936037E+02  0.00000000000E+00 0.  1.
          2   -1    0    0  501    0  0.00000000000E+00 -0.00000000000E+00 -0.53001144604E+03  0.53001144604E+03  0.00000000000E+00 0. -1.
         23    2    1    2    0    0 -0.18618634657E+02  0.52791257384E+02 -0.25149913383E+03  0.28640256531E+03  0.12506416226E+03 0.  0.
          5    1    3    3  502    0  0.39669752261E+02 -0.17723001168E+02 -0.60725883245E+02  0.74785689211E+02  0.41800000000E+01 0. -1.
         -5    1    3    3    0  502 -0.58288386918E+02  0.70514258552E+02 -0.19077325059E+03  0.21161687610E+03  0.41800000000E+01 0. -1.
        -11    1    1    2    0    0 -0.20589851742E+02 -0.64676398718E+02 -0.11899141873E+03  0.13698881808E+03  0.00000000000E+00 0.  1.
         11    1    1    2    0    0  0.39208486399E+02  0.11885141334E+02 -0.12991695743E+03  0.13622399869E+03  0.00000000000E+00 0. -1.
</event>
<event>
 7    1  0.4966153E-006  0.2087128E+03  0.7561462E-02  0.1142589E+00
         -2   -1    0    0    0  501 -0.00000000000E+00  0.00000000000E+00  0.94187847905E+02  0.94187847905E+02  0.00000000000E+00 0.  1.
          2   -1    0    0  501    0  0.00000000000E+00 -0.00000000000E+00 -0.56190224968E+03  0.56190224968E+03  0.00000000000E+00 0. -1.
         23    2    1    2    0    0 -0.19852161728E+03  0.29220695205E+02 -0.28385976127E+03  0.36944327335E+03  0.12508911466E+03 0.  0.
          5    1    3    3  502    0 -0.27275196802E+02  0.32999180122E+02 -0.13760298257E+03  0.14416981466E+03  0.41800000000E+01 0. -1.
         -5    1    3    3    0  502 -0.17124642048E+03 -0.37784849166E+01 -0.14625677870E+03  0.22527345869E+03  0.41800000000E+01 0. -1.
        -11    1    1    2    0    0  0.13230943339E+03 -0.44736617035E+01 -0.62936563095E+02  0.14658380125E+03  0.00000000000E+00 0.  1.
         11    1    1    2    0    0  0.66212183884E+02 -0.24747033502E+02 -0.12091807741E+03  0.14006302298E+03  0.00000000000E+00 0. -1.
</event>
<event>
 7    1  0.4966153E-006  0.1234227E+03  0.7561462E-02  0.1237555E+00
          3   -1    0    0  501    0  0.00000000000E+00  0.00000000000E+00  0.37856789701E+03  0.37856789701E+03  0.00000000000E+00 0. -1.
         -3   -1    0    0    0  501 -0.00000000000E+00 -0.00000000000E+00 -0.49654592667E+02  0.49654592667E+02  0.00000000000E+00 0.  1.
         23    2    1    2    0    0  0.52463171367E+02  0.54886367586E+02  0.12352742689E+03  0.19130897160E+03  0.12480063992E+03 0.  0.
          5    1    3    3  502    0 -0.12890360548E+02  0.64035435722E+02  0.19953106624E+02  0.68427313897E+02  0.41800000000E+01 0.  1.
         -5    1    3    3    0  502  0.65353531915E+02 -0.91490681366E+01  0.10357432027E+03  0.12288165771E+03  0.41800000000E+01 0.  1.
        -11    1    1    2    0    0  0.62968065504E+00  0.21903017469E+02  0.21560761431E+02  0.30740935338E+02  0.00000000000E+00 0.  1.
         11    1    1    2    0    0 -0.53092852022E+02 -0.76789385054E+02  0.18382511602E+03  0.20617258274E+03  0.00000000000E+00 0. -1.
</event>
<event>
 7    1  0.4966153E-006  0.1081348E+03  0.7561462E-02  0.1264063E+00
          1   -1    0    0  501    0  0.00000000000E+00  0.00000000000E+00  0.28656511062E+03  0.28656511062E+03  0.00000000000E+00 0. -1.
         -1   -1    0    0    0  501 -0.00000000000E+00 -0.00000000000E+00 -0.77551576339E+02  0.77551576339E+02  0.00000000000E+00 0.  1.
         23    2    1    2    0    0  0.15026939868E+02  0.32353077117E+02 -0.33454412410E+01  0.13012565558E+03  0.12509581825E+03 0.  0.
          5    1    3    3  502    0  0.49606776655E+02  0.64232497356E+02 -0.11920572766E+02  0.82135366693E+02  0.41800000000E+01 0.  1.
         -5    1    3    3    0  502 -0.34579836787E+02 -0.31879420240E+02  0.85751315248E+01  0.47990288890E+02  0.41800000000E+01 0.  1.
        -11    1    1    2    0    0  0.54192302755E+01 -0.56150436983E+02  0.79518606803E+02  0.97495889442E+02  0.00000000000E+00 0.  1.
         11    1    1    2    0    0 -0.20446170144E+02  0.23797359866E+02  0.13284036871E+03  0.13649514193E+03  0.00000000000E+00 0. -1.
</event>
<event>
 7    1  0.4966153E-006  0.1130825E+03  0.7561462E-02  0.1254966E+00
         -1   -1    0    0    0  501 -0.00000000000E+00  0.00000000000E+00  0.44623697544E+02  0.44623697544E+02  0.00000000000E+00 0.  1.
          1   -1    0    0  501    0  0.00000000000E+00 -0.00000000000E+00 -0.32590380675E+03  0.32590380675E+03  0.00000000000E+00 0. -1.
         23    2    1    2    0    0  0.34894263729E+02  0.35583664075E+02 -0.17090645920E+03  0.21757715910E+03  0.12508795137E+03 0.  0.
          5    1    3    3  502    0  0.52116922525E+02 -0.28669075360E+02 -0.11897880109E+03  0.13308462347E+03  0.41800000000E+01 0.  1.
         -5    1    3    3    0  502 -0.17222658795E+02  0.64252739436E+02 -0.51927658112E+02  0.84492535635E+02  0.41800000000E+01 0.  1.
        -11    1    1    2    0    0 -0.57944016579E+02 -0.46580725438E+02 -0.56662822764E+02  0.93476994620E+02  0.00000000000E+00 0.  1.
         11    1    1    2    0    0  0.23049752850E+02  0.10997061362E+02 -0.53710827238E+02  0.59473350567E+02  0.00000000000E+00 0. -1.
</event>
<event>
 7    1  0.4966153E-006  0.1012838E+03  0.7561462E-02  0.1277619E+00
         -2   -1    0    0    0  501 -0.00000000000E+00  0.00000000000E+00  0.11899358812E+03  0.11899358812E+03  0.00000000000E+00 0.  1.
          2   -1    0    0  501    0  0.00000000000E+00 -0.00000000000E+00 -0.14913618425E+03  0.14913618425E+03  0.00000000000E+00 0. -1.
         23    2    1    2    0    0  0.38325334287E+02  0.32038095724E+02  0.42514587904E+02  0.14124472468E+03  0.12508921313E+03 0.  0.
          5    1    3    3  502    0  0.34080281997E+02  0.63442742188E+02  0.68931185036E+02  0.99776890249E+02  0.41800000000E+01 0. -1.
         -5    1    3    3    0  502  0.42450522899E+01 -0.31404646465E+02 -0.26416597133E+02  0.41467834433E+02  0.41800000000E+01 0. -1.
        -11    1    1    2    0    0 -0.47772605683E+02  0.15323478007E+02 -0.57405805986E+02  0.76239473981E+02  0.00000000000E+00 0.  1.
         11    1    1    2    0    0  0.94472713964E+01 -0.47361573731E+02 -0.15251378049E+02  0.50645573701E+02  0.00000000000E+00 0. -1.
</event>
<event>
 7    1  0.4966153E-006  0.1069898E+03  0.7561462E-02  0.1266248E+00
         -2   -1    0    0    0  501 -0.00000000000E+00  0.00000000000E+00  0.31389170846E+03  0.31389170846E+03  0.00000000000E+00 0.  1.
          2   -1    0    0  501    0  0.00000000000E+00 -0.00000000000E+00 -0.48156330962E+02  0.48156330962E+02  0.00000000000E+00 0. -1.
         23    2    1    2    0    0  0.11275804113E+02 -0.56803884961E+02  0.15287364965E+03  0.20584334625E+03  0.12508918951E+03 0.  0.
          5    1    3    3  502    0  0.61095667579E+02 -0.69870541902E+01  0.10073640674E+03  0.11809655188E+03  0.41800000000E+01 0. -1.
         -5    1    3    3    0  502 -0.49819863466E+02 -0.49816830771E+02  0.52137242910E+02  0.87746794369E+02  0.41800000000E+01 0. -1.
        -11    1    1    2    0    0 -0.76059383900E+01  0.68801046082E+02  0.12228289219E+03  0.14051526594E+03  0.00000000000E+00 0.  1.
         11    1    1    2    0    0 -0.36698657231E+01 -0.11997161121E+02 -0.94211643383E+01  0.15689427232E+02  0.00000000000E+00 0. -1.
</event>
<event>
 7    1  0.4966153E-006  0.1221618E+03  0.7561462E-02  0.1239573E+00
          2   -1    0    0  501    0  0.00000000000E+00  0.00000000000E+00  0.24908374827E+03  0.24908374827E+03  0.00000000000E+00 0. -1.
         -2   -1    0    0    0  501 -0.00000000000E+00 -0.00000000000E+00 -0.93608373078E+02  0.93608373078E+02  0.00000000000E+00 0.  1.
         23    2    1    2    0    0  0.46703453362E+02  0.96104807632E+02  0.74985586187E+02  0.18079704777E+03  0.12508951891E+03 0.  0.
          5    1    3    3  502    0  0.60379197450E+02  0.87684832210E+02  0.26450078542E+01  0.10657741670E+03  0.41800000000E+01 0.  1.
         -5    1    3    3    0  502 -0.13675744088E+02  0.84199754214E+01  0.72340578333E+02  0.74219631068E+02  0.41800000000E+01 0.  1.
        -11    1    1    2    0    0  0.13325416031E+02 -0.23107392523E+02 -0.12367061825E+02  0.29401743483E+02  0.00000000000E+00 0.  1.
         11    1    1    2    0    0 -0.60028869393E+02 -0.72997415109E+02  0.92856850832E+02  0.13249333009E+03  0.00000000000E+00 0. -1.
</event>
<event>
 7    1  0.4966153E-006  0.2009076E+03  0.7561462E-02  0.1148976E+00
          2   -1    0    0  501    0  0.00000000000E+00  0.00000000000E+00  0.29789406580E+03  0.29789406580E+03  0.00000000000E+00 0. -1.
         -2   -1    0    0    0  501 -0.00000000000E+00 -0.00000000000E+00 -0.23706518107E+03  0.23706518107E+03  0.00000000000E+00 0.  1.
         23    2    1    2    0    0 -0.19006001090E+03 -0.49015909380E+01 -0.12001152540E+03  0.25728774467E+03  0.12508950391E+03 0.  0.
          5    1    3    3  502    0 -0.45000001581E+02 -0.24784334571E+02 -0.95853447419E+02  0.10883298748E+03  0.41800000000E+01 0.  1.
         -5    1    3    3    0  502 -0.14506000932E+03  0.19882743633E+02 -0.24158077985E+02  0.14845475718E+03  0.41800000000E+01 0.  1.
        -11    1    1    2    0    0  0.46854537754E+02  0.33710477038E+02  0.21729113033E+02  0.61675751503E+02  0.00000000000E+00 0. -1.
         11    1    1    2    0    0  0.14320547315E+03 -0.28808886100E+02  0.15911129710E+03  0.21599575071E+03  0.00000000000E+00 0.  1.
</event>
<event>
 7    1  0.4966153E-006  0.2115261E+03  0.7561462E-02  0.1140363E+00
          2   -1    0    0  501    0  0.00000000000E+00  0.00000000000E+00  0.44227126517E+03  0.44227126517E+03  0.00000000000E+00 0. -1.
         -2   -1    0    0    0  501 -0.00000000000E+00 -0.00000000000E+00 -0.20559635859E+03  0.20559635859E+03  0.00000000000E+00 0.  1.
         23    2    1    2    0    0 -0.12535206535E+03  0.15756703581E+03 -0.90073114194E+02  0.25357774559E+03  0.12509195057E+03 0.  0.
          5    1    3    3  502    0 -0.10440025328E+03  0.11960584273E+03 -0.60460828397E+01  0.15893079632E+03  0.41800000000E+01 0. -1.
         -5    1    3    3    0  502 -0.20951812078E+02  0.37961193079E+02 -0.84027031355E+02  0.94646949278E+02  0.41800000000E+01 0. -1.
        -11    1    1    2    0    0  0.11523141064E+03 -0.74995885992E+02  0.20224862615E+03  0.24455504022E+03  0.00000000000E+00 0. -1.
         11    1    1    2    0    0  0.10120654709E+02 -0.82571149821E+02  0.12449939462E+03  0.14973483795E+03  0.00000000000E+00 0.  1.
</event>
<event>
 7    1  0.7037309E-006  0.2007313E+03  0.7561462E-02  0.1149123E+00
         -1   -1    0    0    0  501 -0.00000000000E+00  0.00000000000E+00  0.23863613737E+03  0.23863613737E+03  0.00000000000E+00 0.  1.
          1   -1    0    0  501    0  0.00000000000E+00 -0.00000000000E+00 -0.19035481605E+03  0.19035481605E+03  0.00000000000E+00 0. -1.
         23    2    1    2    0    0 -0.17649332267E+03 -0.32969291710E+02  0.56765824326E+02  0.22606768113E+03  0.12508944998E+03 0.  0.
          5    1    3    3  502    0 -0.70849520919E+02  0.42685373808E+02 -0.32347584148E+01  0.82883242055E+02  0.41800000000E+01 0. -1.
         -5    1    3    3    0  502 -0.10564380176E+03 -0.75654665518E+02  0.60000582741E+02  0.14318443907E+03  0.41800000000E+01 0. -1.
        -11    1    1    2    0    0  0.26980793263E+02 -0.15927001039E+02  0.27349128281E+02  0.41588548723E+02  0.00000000000E+00 0.  1.
         11    1    1    2    0    0  0.14951252941E+03  0.48896292749E+02 -0.35833631288E+02  0.16133472356E+03  0.00000000000E+00 0. -1.
</event>
<event>
 6    1  0.4966153E-006  0.1234596E+03  0.7561462E-02  0.1237496E+00
          2   -1    0    0  501    0  0.00000000000E+00  0.00000000000E+00  0.12457317069E+04  0.12457317069E+04  0.00000000000E+00 0. -1.
         -2   -1    0    0    0  501 -0.00000000000E+00 -0.00000000000E+00 -0.14925698325E+02  0.14925698325E+02  0.00000000000E+00 0.  1.
          5    1    1    2  502    0  0.32764684864E+02 -0.86441833001E+02  0.61799902385E+03  0.62488877486E+03  0.41800000000E+01 0. -1.
         -5    1    1    2    0  502 -0.32654915017E+02  0.28307270724E+02  0.76306508659E+02  0.87794081318E+02  0.41800000000E+01 0.  1.
        -11    1    1    2    0    0 -0.23907249993E+02  0.76980724937E+02  0.36341930716E+03  0.37225150292E+03  0.00000000000E+00 0.  1.
         11    1    1    2    0    0  0.23797480146E+02 -0.18846162660E+02  0.17308116895E+03  0.17572304616E+03  0.00000000000E+00 0. -1.
</event>
<event>
 6    1  0.4966153E-006  0.1973814E+03  0.7561462E-02  0.1151967E+00
          1   -1    0    0  501    0  0.00000000000E+00  0.00000000000E+00  0.28621115073E+03  0.28621115073E+03  0.00000000000E+00 0. -1.
         -1   -1    0    0    0  501 -0.00000000000E+00 -0.00000000000E+00 -0.31048673063E+03  0.31048673063E+03  0.00000000000E+00 0.  1.
          5    1    1    2  502    0  0.41396053100E+02 -0.50328254343E+02  0.58525878507E+02  0.87688752144E+02  0.41800000000E+01 0. -1.
         -5    1    1    2    0  502 -0.87750093871E+02  0.16742235703E+03 -0.22868921423E+03  0.29672639537E+03  0.41800000000E+01 0.  1.
        -11    1    1    2    0    0  0.53611375570E+02 -0.51308072886E+02  0.12025353272E+03  0.14130679413E+03  0.00000000000E+00 0. -1.
         11    1    1    2    0    0 -0.72573347988E+01 -0.65786029800E+02  0.25634223103E+02  0.70975939721E+02  0.00000000000E+00 0.  1.
</event>
<event>
 7    1  0.4966153E-006  0.1210610E+03  0.7561462E-02  0.1241357E+00
          1   -1    0    0  501    0  0.00000000000E+00  0.00000000000E+00  0.71868896617E+03  0.71868896617E+03  0.00000000000E+00 0. -1.
         -1   -1    0    0    0  501 -0.00000000000E+00 -0.00000000000E+00 -0.27833730406E+02  0.27833730406E+02  0.00000000000E+00 0.  1.
         23    2    1    2    0    0 -0.59786854101E+02  0.56556820206E+02  0.27414996576E+03  0.31237501816E+03  0.12508719522E+03 0.  0.
          5    1    3    3  502    0  0.10828126200E+01 -0.35343002480E+02  0.10080155616E+03  0.10690522173E+03  0.41800000000E+01 0. -1.
         -5    1    3    3    0  502 -0.60869666721E+02  0.91899822686E+02  0.17334840960E+03  0.20546979643E+03  0.41800000000E+01 0. -1.
        -11    1    1    2    0    0  0.28557353435E+02  0.32455467382E+01  0.29789659098E+02  0.41394200053E+02  0.00000000000E+00 0.  1.
         11    1    1    2    0    0  0.31229500666E+02 -0.59802366945E+02  0.38691561090E+03  0.39275347836E+03  0.00000000000E+00 0. -1.
</event>
<event>
 7    1  0.4966153E-006  0.1084880E+03  0.7561462E-02  0.1263396E+00
          1   -1    0    0  501    0  0.00000000000E+00  0.00000000000E+00  0.10435389070E+03  0.10435389070E+03  0.00000000000E+00 0. -1.
         -1   -1    0    0    0  501 -0.00000000000E+00 -0.00000000000E+00 -0.15587438254E+03  0.15587438254E+03  0.00000000000E+00 0.  1.
         23    2    1    2    0    0  0.55967283952E+02  0.28780027090E+02 -0.53321576187E+02  0.14983630297E+03  0.12508837023E+03 0.  0.
          5    1    3    3  502    0  0.16531831000E+02  0.63278563802E+02  0.11336320140E+02  0.66509116874E+02  0.41800000000E+01 0.  1.
         -5    1    3    3    0  502  0.39435452952E+02 -0.34498536712E+02 -0.64657896327E+02  0.83327186093E+02  0.41800000000E+01 0.  1.
        -11    1    1    2    0    0  0.18980868348E+02 -0.12085437737E+01 -0.20011545434E+02  0.27607895464E+02  0.00000000000E+00 0.  1.
         11    1    1    2    0    0 -0.74948152300E+02 -0.27571483316E+02  0.21812629781E+02  0.82784074818E+02  0.00000000000E+00 0. -1.
</event>
<event>
 7    1  0.4966153E-006  0.1397514E+03  0.7561462E-02  0.1213664E+00
         -1   -1    0    0    0  501 -0.00000000000E+00  0.00000000000E+00  0.31117999197E+02  0.31117999197E+02  0.00000000000E+00 0.  1.
          1   -1    0    0  501    0  0.00000000000E+00 -0.00000000000E+00 -0.76044389546E+03  0.76044389546E+03  0.00000000000E+00 0. -1.
         23    2    1    2    0    0  0.45535756470E+02  0.90276897738E+02 -0.26262652815E+03  0.30796541033E+03  0.12508627938E+03 0.  0.
          5    1    3    3  502    0 -0.28900436856E+02 -0.79603323648E+01 -0.21480299718E+02  0.37114388286E+02  0.41800000000E+01 0.  1.
         -5    1    3    3    0  502  0.74436193326E+02  0.98237230103E+02 -0.24114622844E+03  0.27085102205E+03  0.41800000000E+01 0.  1.
        -11    1    1    2    0    0 -0.25817098857E+02 -0.10045654027E+03 -0.36170069721E+03  0.37627839885E+03  0.00000000000E+00 0.  1.
         11    1    1    2    0    0 -0.19718657613E+02  0.10179642531E+02 -0.10499867089E+03  0.10731808547E+03  0.00000000000E+00 0. -1.
</event>
<event>
 7    1  0.4966153E-006  0.9123758E+02  0.7561462E-02  0.1299882E+00
         -1   -1    0    0    0  501 -0.00000000000E+00  0.00000000000E+00  0.53532449631E+02  0.53532449631E+02  0.00000000000E+00 0.  1.
          1   -1    0    0  501    0  0.00000000000E+00 -0.00000000000E+00 -0.26456290386E+03  0.26456290386E+03  0.00000000000E+00 0. -1.
         23    2    1    2    0    0  0.95477317753E+01  0.43346830848E+02 -0.10312606859E+03  0.16808913684E+03  0.12509542347E+03 0.  0.
          5    1    3    3  502    0 -0.22023165696E+02 -0.26200928381E+02 -0.81660302934E+02  0.88641897264E+02  0.41800000000E+01 0.  1.
         -5    1    3    3    0  502  0.31570897471E+02  0.69547759229E+02 -0.21465765655E+02  0.79447239575E+02  0.41800000000E+01 0.  1.
        -11    1    1    2    0    0 -0.27550832498E+02 -0.34951118278E+01 -0.10220011165E+03  0.10590621794E+03  0.00000000000E+00 0.  1.
         11    1    1    2    0    0  0.18003100723E+02 -0.39851719020E+02 -0.57042739942E+01  0.44099998711E+02  0.00000000000E+00 0. -1.
</event>
<event>
 7    1  0.4966153E-006  0.1191502E+03  0.7561462E-02  0.1244506E+00
         -2   -1    0    0    0  501 -0.00000000000E+00  0.00000000000E+00  0.77600963643E+02  0.77600963643E+02  0.00000000000E+00 0.  1.
          2   -1    0    0  501    0  0.00000000000E+00 -0.00000000000E+00 -0.23305902734E+03  0.23305902734E+03  0.00000000000E+00 0. -1.
         23    2    1    2    0    0 -0.36274841589E+01 -0.78825451558E+02 -0.73095630902E+02  0.16497282853E+03  0.12508578033E+03 0.  0.
          5    1    3    3  502    0  0.60639813540E+01 -0.10290670614E+03 -0.87245843768E+02  0.13511429122E+03  0.41800000000E+01 0. -1.
         -5    1    3    3    0  502 -0.96914655129E+01  0.24081254579E+02  0.14150212867E+02  0.29858537306E+02  0.41800000000E+01 0. -1.
        -11    1    1    2    0    0  0.52842708152E+01  0.93711203043E+02 -0.88960956021E+02  0.12932039588E+03  0.00000000000E+00 0. -1.
         11    1    1    2    0    0 -0.16567866563E+01 -0.14885751485E+02  0.65985232277E+01  0.16366766574E+02  0.00000000000E+00 0.  1.
</event>
<event>
 7    1  0.4966153E-006  0.9463273E+02  0.7561462E-02  0.1292005E+00
         -1   -1    0    0    0  501 -0.00000000000E+00  0.00000000000E+00  0.23098943560E+03  0.23098943560E+03  0.00000000000E+00 0.  1.
          1   -1    0    0  501    0  0.00000000000E+00 -0.00000000000E+00 -0.64217607469E+02  0.64217607469E+02  0.00000000000E+00 0. -1.
         23    2    1    2    0    0 -0.68638046733E+01  0.26138623238E+02  0.15031878597E+03  0.19741703188E+03  0.12508959837E+03 0.  0.
          5    1    3    3  502    0 -0.22460999688E+02 -0.31156558854E+02  0.32666093255E+01  0.38773325922E+02  0.41800000000E+01 0. -1.
         -5    1    3    3    0  502  0.15597195014E+02  0.57295182092E+02  0.14705217665E+03  0.15864370596E+03  0.41800000000E+01 0. -1.
        -11    1    1    2    0    0  0.46046687872E+02 -0.23841095213E+02  0.25085287259E+02  0.57601796168E+02  0.00000000000E+00 0.  1.
         11    1    1    2    0    0 -0.39182883199E+02 -0.22975280249E+01 -0.86322451040E+01  0.40188215018E+02  0.00000000000E+00 0. -1.
</event>
<event>
 7    1  0.4966153E-006  0.8759995E+02  0.7561462E-02  0.1308770E+00
          2   -1    0    0  501    0  0.00000000000E+00  0.00000000000E+00  0.38632746760E+02  0.38632746760E+02  0.00000000000E+00 0. -1.
         -2   -1    0    0    0  501 -0.00000000000E+00 -0.00000000000E+00 -0.30086258747E+03  0.30086258747E+03  0.00000000000E+00 0.  1.
         23    2    1    2    0    0 -0.13135101640E+01  0.35488497141E+01 -0.16884604396E+03  0.21016545614E+03  0.12508482221E+03 0.  0.
          5    1    3    3  502    0  0.54249876023E+02  0.63295559134E+01 -0.13303529434E+03  0.14387138098E+03  0.41800000000E+01 0.  1.
         -5    1    3    3    0  502 -0.55563386187E+02 -0.27807061993E+01 -0.35810749625E+02  0.66294075152E+02  0.41800000000E+01 0.  1.
        -11    1    1    2    0    0 -0.11834903326E+02  0.28029843336E+02 -0.58957790434E+00  0.30431639067E+02  0.00000000000E+00 0. -1.
         11    1    1    2    0    0  0.13148413490E+02 -0.31578693050E+02 -0.92794218847E+02  0.98898239031E+02  0.00000000000E+00 0.  1.
</event>
<event>
 7    1  0.4966153E-006  0.1005676E+03  0.7561462E-02  0.1279107E+00
          2   -1    0    0  501    0  0.00000000000E+00  0.00000000000E+00  0.30291816530E+02  0.30291816530E+02  0.00000000000E+00 0. -1.
         -2   -1    0    0    0  501 -0.00000000000E+00 -0.00000000000E+00 -0.47078673133E+03  0.47078673133E+03  0.00000000000E+00 0.  1.
         23    2    1    2    0    0 -0.11664962947E+02 -0.39520360980E+02 -0.31500788369E+03  0.34142949879E+03  0.12508479351E+03 0.  0.
          5    1    3    3  502    0 -0.30024429132E+02 -0.79620085380E+02 -0.23513954616E+03  0.25009778669E+03  0.41800000000E+01 0. -1.
         -5    1    3    3    0  502  0.18359466186E+02  0.40099724400E+02 -0.79868337530E+02  0.91331712102E+02  0.41800000000E+01 0. -1.
        -11    1    1    2    0    0 -0.23488556737E+02  0.22714204118E+02 -0.11463638095E+03  0.11920212751E+03  0.00000000000E+00 0.  1.
         11    1    1    2    0    0  0.35153519683E+02  0.16806156862E+02 -0.10850650167E+02  0.40446921559E+02  0.00000000000E+00 0. -1.
</event>
<event>
 7    1  0.4966153E-006  0.1457846E+03  0.7561462E-02  0.1205751E+00
          2   -1    0    0  501    0  0.00000000000E+00  0.00000000000E+00  0.90302190037E+03  0.90302190037E+03  0.00000000000E+00 0.  1.
         -2   -1    0    0    0  501 -0.00000000000E+00 -0.00000000000E+00 -0.25723682585E+02  0.25723682585E+02  0.00000000000E+00 0. -1.
         23    2    1    2    0    0  0.30204680205E+02 -0.10196100872E+03  0.47642882798E+03  0.50392817323E+03  0.12510317998E+03 0.  0.
          5    1    3    3  502    0  0.71422721046E+02 -0.93391586606E+02  0.39524296058E+03  0.41238048428E+03  0.41800000000E+01 0.  1.
         -5    1    3    3    0  502 -0.41218040841E+02 -0.85694221154E+01  0.81185867399E+02  0.91547688947E+02  0.41800000000E+01 0.  1.
        -11    1    1    2    0    0  0.19965400302E+02  0.68404016375E+02  0.14042345791E+03  0.15746896265E+03  0.00000000000E+00 0. -1.
         11    1    1    2    0    0 -0.50170080507E+02  0.33556992347E+02  0.26044593190E+03  0.26734844708E+03  0.00000000000E+00 0.  1.
</event>
<event>
 6    1  0.4966153E-006  0.9175667E+02  0.7561462E-02  0.1298653E+00
          2   -1    0    0  501    0  0.00000000000E+00  0.00000000000E+00  0.45558536606E+03  0.45558536606E+03  0.00000000000E+00 0. -1.
         -2   -1    0    0    0  501 -0.00000000000E+00 -0.00000000000E+00 -0.42617707336E+02  0.42617707336E+02  0.00000000000E+00 0.  1.
          5    1    1    2  502    0  0.12176879232E+02 -0.56955280908E+02  0.18377164673E+03  0.19282549352E+03  0.41800000000E+01 0. -1.
         -5    1    1    2    0  502 -0.42324823675E+02  0.27154829365E+02 -0.51860089698E+01  0.50726152485E+02  0.41800000000E+01 0.  1.
        -11    1    1    2    0    0  0.12291431924E+02 -0.19037544687E+02  0.10801296971E+02  0.25103295057E+02  0.00000000000E+00 0.  1.
         11    1    1    2    0    0  0.17856512519E+02  0.48837996230E+02  0.22358072399E+03  0.22954813233E+03  0.00000000000E+00 0. -1.
</event>
<event>
 7    1  0.4966153E-006  0.1138757E+03  0.7561462E-02  0.1253557E+00
          2   -1    0    0  501    0  0.00000000000E+00  0.00000000000E+00  0.31887626442E+03  0.31887626442E+03  0.00000000000E+00 0. -1.
         -2   -1    0    0    0  501 -0.00000000000E+00 -0.00000000000E+00 -0.48198476040E+02  0.48198476040E+02  0.00000000000E+00 0.  1.
         23    2    1    2    0    0  0.48778372225E+02 -0.14770028497E+02  0.10317805790E+03  0.16997042920E+03  0.12508697706E+03 0.  0.
          5    1    3    3  502    0 -0.40887555592E+02  0.74045089326E+01  0.41155266388E+02  0.58633158761E+02  0.41800000000E+01 0.  1.
         -5    1    3    3    0  502  0.89665927817E+02 -0.22174537430E+02  0.62022791516E+02  0.11133727044E+03  0.41800000000E+01 0.  1.
        -11    1    1    2    0    0 -0.77863655018E+01  0.43035958496E+02  0.12219399144E+03  0.12978479400E+03  0.00000000000E+00 0. -1.
         11    1    1    2    0    0 -0.40992006723E+02 -0.28265929999E+02  0.45305739042E+02  0.67319517259E+02  0.00000000000E+00 0.  1.
</event>
<event>
 7    1  0.4966153E-006  0.2220143E+03  0.7561462E-02  0.1132390E+00
         -1   -1    0    0    0  501 -0.00000000000E+00  0.00000000000E+00  0.31687334954E+03  0.31687334954E+03  0.00000000000E+00 0.  1.
          1   -1    0    0  501    0  0.00000000000E+00 -0.00000000000E+00 -0.17783523369E+03  0.17783523369E+03  0.00000000000E+00 0. -1.
         23    2    1    2    0    0  0.17386137629E+03  0.97885810954E+02  0.24109256706E+01  0.23550475728E+03  0.12508904022E+03 0.  0.
          5    1    3    3  502    0  0.16948188046E+03  0.39908327366E+02 -0.14606874846E+02  0.17477876184E+03  0.41800000000E+01 0.  1.
         -5    1    3    3    0  502  0.43794958305E+01  0.57977483589E+02  0.17017800517E+02  0.60725995434E+02  0.41800000000E+01 0.  1.
        -11    1    1    2    0    0 -0.50174911479E+02 -0.67674562449E+02  0.20107780855E+02  0.86612302796E+02  0.00000000000E+00 0.  1.
         11    1    1    2    0    0 -0.12368646481E+03 -0.30211248505E+02  0.11651940933E+03  0.17259152316E+03  0.00000000000E+00 0. -1.
</event>
<event>
 7    1  0.4966153E-006  0.9910226E+02  0.7561462E-02  0.1282195E+00
          2   -1    0    0  501    0  0.00000000000E+00  0.00000000000E+00  0.12683357412E+03  0.12683357412E+03  0.00000000000E+00 0. -1.
         -2   -1    0    0    0  501 -0.00000000000E+00 -0.00000000000E+00 -0.16010545848E+03  0.16010545848E+03  0.00000000000E+00 0.  1.
         23    2    1    2    0    0 -0.68058629782E+01  0.54483985241E+02 -0.92696977247E+02  0.16509478812E+03  0.12509490419E+03 0.  0.
          5    1    3    3  502    0 -0.40540041005E+02 -0.15662081850E+02 -0.72402055904E+02  0.84547772482E+02  0.41800000000E+01 0. -1.
         -5    1    3    3    0  502  0.33734178027E+02  0.70146067091E+02 -0.20294921343E+02  0.80547015636E+02  0.41800000000E+01 0. -1.
        -11    1    1    2    0    0  0.13377437465E+02  0.67678867379E+01  0.58335581513E+02  0.60231222754E+02  0.00000000000E+00 0. -1.
         11    1    1    2    0    0 -0.65715744869E+01 -0.61251871979E+02  0.10895113702E+01  0.61613021734E+02  0.00000000000E+00 0.  1.
</event>
<event>
 7    1  0.4966153E-006  0.1033463E+03  0.7561462E-02  0.1273412E+00
          1   -1    0    0  501    0  0.00000000000E+00  0.00000000000E+00  0.30346010373E+03  0.30346010373E+03  0.00000000000E+00 0. -1.
         -1   -1    0    0    0  501 -0.00000000000E+00 -0.00000000000E+00 -0.59146700760E+02  0.59146700760E+02  0.00000000000E+00 0.  1.
         23    2    1    2    0    0 -0.44451784243E+02  0.20273779741E+02  0.52705339129E+02  0.14426766700E+03  0.12509324402E+03 0.  0.
          5    1    3    3  502    0 -0.72085838177E+02  0.31542318052E+02  0.73420172967E+02  0.10769995400E+03  0.41800000000E+01 0. -1.
         -5    1    3    3    0  502  0.27634053934E+02 -0.11268538311E+02 -0.20714833839E+02  0.36567712992E+02  0.41800000000E+01 0. -1.
        -11    1    1    2    0    0 -0.18179229113E+02 -0.29302770789E+02  0.10872017373E+03  0.11405793669E+03  0.00000000000E+00 0.  1.
         11    1    1    2    0    0  0.62631013355E+02  0.90289910486E+01  0.82887890113E+02  0.10428120080E+03  0.00000000000E+00 0. -1.
</event>
<event>
 7    1  0.4966153E-006  0.1683186E+03  0.7561462E-02  0.1179613E+00
          2   -1    0    0  501    0  0.00000000000E+00  0.00000000000E+00  0.10796953293E+04  0.10796953293E+04  0.00000000000E+00 0. -1.
         -2   -1    0    0    0  501 -0.00000000000E+00 -0.00000000000E+00 -0.28314682796E+02  0.28314682796E+02  0.00000000000E+00 0.  1.
         23    2    1    2    0    0 -0.16643652520E+02  0.12946047395E+03  0.42383417627E+03  0.46078145680E+03  0.12508843461E+03 0.  0.
          5    1    3    3  502    0  0.25380800263E+02  0.13427031074E+03  0.29552187385E+03  0.32561227202E+03  0.41800000000E+01 0. -1.
         -5    1    3    3    0  502 -0.42024452783E+02 -0.48098367861E+01  0.12831230242E+03  0.13516918478E+03  0.41800000000E+01 0. -1.
        -11    1    1    2    0    0  0.52904152650E+02 -0.83971911835E+02  0.35994720468E+03  0.37337932656E+03  0.00000000000E+00 0.  1.
         11    1    1    2    0    0 -0.36260500131E+02 -0.45488562117E+02  0.26759926553E+03  0.27384922871E+03  0.00000000000E+00 0. -1.
</event>
<event>
 7    1  0.4966153E-006  0.1363233E+03  0.7561462E-02  0.1218364E+00
          3   -1    0    0  501    0  0.00000000000E+00  0.00000000000E+00  0.22505417187E+03  0.22505417187E+03  0.00000000000E+00 0. -1.
         -3   -1    0    0    0  501 -0.00000000000E+00 -0.00000000000E+00 -0.82882104445E+02  0.82882104445E+02  0.00000000000E+00 0.  1.
         23    2    1    2    0    0  0.15986383097E+02  0.81044567653E+02  0.69919067036E+02  0.16540894584E+03  0.12509059532E+03 0.  0.
          5    1    3    3  502    0  0.67458983549E+02  0.69439438590E+02  0.47671505513E+02  0.10799349486E+03  0.41800000000E+01 0.  1.
         -5    1    3    3    0  502 -0.51472600452E+02  0.11605129063E+02  0.22247561523E+02  0.57415450983E+02  0.41800000000E+01 0.  1.
        -11    1    1    2    0    0  0.28002701218E+02  0.27885388741E+01  0.15015503894E+02  0.31896592009E+02  0.00000000000E+00 0.  1.
         11    1    1    2    0    0 -0.43989084316E+02 -0.83833106527E+02  0.57237496496E+02  0.11063073847E+03  0.00000000000E+00 0. -1.
</event>
<event>
 7    1  0.4966153E-006  0.2659914E+03  0.7561462E-02  0.1103596E+00
          2   -1    0    0  501    0  0.00000000000E+00  0.00000000000E+00  0.60911207187E+03  0.60911207187E+03  0.00000000000E+00 0. -1.
         -2   -1    0    0    0  501 -0.00000000000E+00 -0.00000000000E+00 -0.12562695241E+03  0.12562695241E+03  0.00000000000E+00 0.  1.
         23    2    1    2    0    0  0.23874468419E+03  0.60746649858E+02  0.16633248907E+03  0.32249567600E+03  0.12509110446E+03 0.  0.
          5    1    3    3  502    0  0.24298437103E+03  0.31858603541E+02  0.15882401464E+03  0.29205978020E+03  0.41800000000E+01 0.  1.
         -5    1    3    3    0  502 -0.42396868397E+01  0.28888046317E+02  0.75084744361E+01  0.30435895796E+02  0.41800000000E+01 0.  1.
        -11    1    1    2    0    0 -0.65220123472E+02  0.16762006286E+02  0.47744883485E+02  0.82548187499E+02  0.00000000000E+00 0. -1.
         11    1    1    2    0    0 -0.17352456072E+03 -0.77508656144E+02  0.26940774691E+03  0.32969516079E+03  0.00000000000E+00 0.  1.
</event>
<event>
 7    1  0.4966153E-006  0.1052304E+03  0.7561462E-02  0.1269666E+00
          1   -1    0    0  501    0  0.00000000000E+00  0.00000000000E+00  0.40740827600E+02  0.40740827600E+02  0.00000000000E+00 0. -1.
         -1   -1    0    0    0  501 -0.00000000000E+00 -0.00000000000E+00 -0.30184986141E+03  0.30184986141E+03  0.00000000000E+00 0.  1.
         23    2    1    2    0    0 -0.16374942451E+02 -0.20538547354E+01 -0.12430939792E+03  0.17711832219E+03  0.12508283889E+03 0.  0.
          5    1    3    3  502    0  0.22879710049E+02 -0.50966633981E+02 -0.29362977250E+02  0.63251369505E+02  0.41800000000E+01 0. -1.
         -5    1    3    3    0  502 -0.39254652500E+02  0.48912779245E+02 -0.94946420671E+02  0.11386695269E+03  0.41800000000E+01 0. -1.
        -11    1    1    2    0    0  0.51143334540E+02  0.16777172845E+02 -0.65373773588E+02  0.84680838858E+02  0.00000000000E+00 0. -1.
         11    1    1    2    0    0 -0.34768392089E+02 -0.14723318109E+02 -0.71425862304E+02  0.80791527962E+02  0.00000000000E+00 0.  1.
</event>
<event>
 7    1  0.4966153E-006  0.1904757E+03  0.7561462E-02  0.1158033E+00
         -2   -1    0    0    0  501 -0.00000000000E+00  0.00000000000E+00  0.31501612904E+02  0.31501612904E+02  0.00000000000E+00 0.  1.
          2   -1    0    0  501    0  0.00000000000E+00 -0.00000000000E+00 -0.13201867251E+04  0.13201867251E+04  0.00000000000E+00 0. -1.
         23    2    1    2    0    0 -0.31545778636E+02  0.16160016594E+03 -0.50490599424E+03  0.54560759775E+03  0.12509131832E+03 0.  0.
          5    1    3    3  502    0  0.20683024063E+02 -0.16938995365E+01 -0.13428376641E+02  0.25068914601E+02  0.41800000000E+01 0.  1.
         -5    1    3    3    0  502 -0.52228802699E+02  0.16329406548E+03 -0.49147761760E+03  0.52053868315E+03  0.41800000000E+01 0.  1.
        -11    1    1    2    0    0  0.56674291996E+02 -0.55759488806E+02 -0.32670589099E+03  0.33624073990E+03  0.00000000000E+00 0. -1.
         11    1    1    2    0    0 -0.25128513360E+02 -0.10584067713E+03 -0.45707322695E+03  0.46984000033E+03  0.00000000000E+00 0.  1.
</event>
<event>
 7    1  0.4966153E-006  0.7696539E+02  0.7561462E-02  0.1337891E+00
          1   -1    0    0  501    0  0.00000000000E+00  0.00000000000E+00  0.49876287181E+03  0.49876287181E+03  0.00000000000E+00 0. -1.
         -1   -1    0    0    0  501 -0.00000000000E+00 -0.00000000000E+00 -0.36043305143E+02  0.36043305143E+02  0.00000000000E+00 0.  1.
         23    2    1    2    0    0 -0.46180523718E+02 -0.18094828583E+02  0.13265957355E+03  0.18896219211E+03  0.12509230192E+03 0.  0.
          5    1    3    3  502    0 -0.21601334396E+02  0.86666332769E+01  0.14757830299E+03  0.14946088483E+03  0.41800000000E+01 0.  1.
         -5    1    3    3    0  502 -0.24579189322E+02 -0.26761461860E+02 -0.14918729439E+02  0.39501307278E+02  0.41800000000E+01 0.  1.
        -11    1    1    2    0    0 -0.46396045848E+01  0.38621073003E+02  0.70103502438E+02  0.80172403385E+02  0.00000000000E+00 0.  1.
         11    1    1    2    0    0  0.50820128303E+02 -0.20526244420E+02  0.25995649067E+03  0.26567158146E+03  0.00000000000E+00 0. -1.
</event>
<event>
 7    1  0.4966153E-006  0.1144181E+03  0.7561462E-02  0.1252600E+00
          3   -1    0    0  501    0  0.00000000000E+00  0.00000000000E+00  0.23997206521E+03  0.23997206521E+03  0.00000000000E+00 0. -1.
         -3   -1    0    0    0  501 -0.00000000000E+00 -0.00000000000E+00 -0.59125474047E+02  0.59125474047E+02  0.00000000000E+00 0.  1.
         23    2    1    2    0    0 -0.17684037720E+02  0.43631727888E+02  0.86520209086E+02  0.15921479959E+03  0.12508858046E+03 0.  0.
          5    1    3    3  502    0 -0.63109062740E+01 -0.41706876419E+02  0.90969205349E+01  0.43353401733E+02  0.41800000000E+01 0. -1.
         -5    1    3    3    0  502 -0.11373131446E+02  0.85338604307E+02  0.77423288551E+02  0.11586139786E+03  0.41800000000E+01 0. -1.
        -11    1    1    2    0    0 -0.35362354081E+02 -0.77224548803E+01  0.18594994084E+02  0.40692827384E+02  0.00000000000E+00 0. -1.
         11    1    1    2    0    0  0.53046391801E+02 -0.35909273008E+02  0.75731387995E+02  0.99189912283E+02  0.00000000000E+00 0.  1.
</event>
<event>
 7    1  0.4966153E-006  0.9936675E+02  0.7561462E-02  0.1281633E+00
          2   -1    0    0  501    0  0.00000000000E+00  0.00000000000E+00  0.42374933989E+03  0.42374933989E+03  0.00000000000E+00 0. -1.
         -2   -1    0    0    0  501 -0.00000000000E+00 -0.00000000000E+00 -0.29517796810E+02  0.29517796810E+02  0.00000000000E+00 0.  1.
         23    2    1    2    0    0  0.11073746428E+01 -0.23253444016E+02  0.20262914277E+03  0.23926586797E+03  0.12509051578E+03 0.  0.
          5    1    3    3  502    0 -0.88461017633E+01  0.48590238413E+02  0.11638699274E+03  0.12650165716E+03  0.41800000000E+01 0.  1.
         -5    1    3    3    0  502  0.99534764062E+01 -0.71843682429E+02  0.86242150028E+02  0.11276421081E+03  0.41800000000E+01 0.  1.
        -11    1    1    2    0    0  0.23010580277E+01 -0.26524069600E+02  0.13889569496E+03  0.14142430914E+03  0.00000000000E+00 0. -1.
         11    1    1    2    0    0 -0.34084326705E+01  0.49777513616E+02  0.52706705348E+02  0.72576959593E+02  0.00000000000E+00 0.  1.
</event>
<event>
 7    1  0.4966153E-006  0.9242075E+02  0.7561462E-02  0.1297093E+00
         -3   -1    0    0    0  501 -0.00000000000E+00  0.00000000000E+00  0.56193049815E+02  0.56193049815E+02  0.00000000000E+00 0.  1.
          3   -1    0    0  501    0  0.00000000000E+00 -0.00000000000E+00 -0.22346877938E+03  0.22346877938E+03  0.00000000000E+00 0. -1.
         23    2    1    2    0    0 -0.32889491777E+02  0.15888325375E+02 -0.95189740561E+02  0.16138053838E+03  0.12509370052E+03 0.  0.
          5    1    3    3  502    0 -0.70362001161E+02  0.26325501267E+02 -0.22002476726E+02  0.78392758635E+02  0.41800000000E+01 0.  1.
         -5    1    3    3    0  502  0.37472509384E+02 -0.10437175892E+02 -0.73187263835E+02  0.82987779750E+02  0.41800000000E+01 0.  1.
        -11    1    1    2    0    0  0.59525034505E+00 -0.33626563463E+02 -0.74106261829E+02  0.81380821670E+02  0.00000000000E+00 0. -1.
         11    1    1    2    0    0  0.32294241432E+02  0.17738238089E+02  0.20202728298E+01  0.36900469136E+02  0.00000000000E+00 0.  1.
</event>
<event>
 7    1  0.4966153E-006  0.1154051E+03  0.7561462E-02  0.1250876E+00
          2   -1    0    0  501    0  0.00000000000E+00  0.00000000000E+00  0.60662086260E+03  0.60662086260E+03  0.00000000000E+00 0. -1.
         -2   -1    0    0    0  501 -0.00000000000E+00 -0.00000000000E+00 -0.52779650934E+02  0.52779650934E+02  0.00000000000E+00 0.  1.
         23    2    1    2    0    0 -0.71512917831E+02  0.54119006765E+02  0.76845997643E+02  0.16605351712E+03  0.11672831226E+03 0.  0.
          5    1    3    3  502    0 -0.18574995980E+02 -0.11605736275E+02  0.78434281840E+02  0.81542213349E+02  0.41800000000E+01 0. -1.
         -5    1    3    3    0  502 -0.52937921851E+02  0.65724743041E+02 -0.15882841970E+01  0.84511303766E+02  0.41800000000E+01 0.  1.
        -11    1    1    2    0    0  0.43137992650E+02 -0.76535072978E+02  0.29545787795E+03  0.30824318556E+03  0.00000000000E+00 0.  1.
         11    1    1    2    0    0  0.28374925181E+02  0.22416066213E+02  0.18153733608E+03  0.18510381086E+03  0.00000000000E+00 0. -1.
</event>
<event>
 7    1  0.4966153E-006  0.9318829E+02  0.7561462E-02  0.1295309E+00
         -1   -1    0    0    0  501 -0.00000000000E+00  0.00000000000E+00  0.10693338432E+03  0.10693338432E+03  0.00000000000E+00 0.  1.
          1   -1    0    0  501    0  0.00000000000E+00 -0.00000000000E+00 -0.18779578509E+03  0.18779578509E+03  0.00000000000E+00 0. -1.
         23    2    1    2    0    0  0.38297122020E+02  0.16993272256E+02  0.38240621529E+02  0.13734528019E+03  0.12508373195E+03 0.  0.
          5    1    3    3  502    0  0.36418025761E+01 -0.33424090877E+02 -0.30245898122E+02  0.45417169993E+02  0.41800000000E+01 0.  1.
         -5    1    3    3    0  502  0.34655319444E+02  0.50417363133E+02  0.68486519651E+02  0.91928110200E+02  0.41800000000E+01 0.  1.
        -11    1    1    2    0    0 -0.60801137727E+02  0.32733369972E+01 -0.11005573362E+03  0.12577661781E+03  0.00000000000E+00 0. -1.
         11    1    1    2    0    0  0.22504015707E+02 -0.20266609253E+02 -0.90472886738E+01  0.31607271409E+02  0.00000000000E+00 0.  1.
</event>
<event>
 7    1  0.4966153E-006  0.1177198E+03  0.7561462E-02  0.1246907E+00
          2   -1    0    0  501    0  0.00000000000E+00  0.00000000000E+00  0.19053543852E+03  0.19053543852E+03  0.00000000000E+00 0.  1.
         -2   -1    0    0    0  501 -0.00000000000E+00 -0.00000000000E+00 -0.10499160280E+03  0.10499160280E+03  0.00000000000E+00 0. -1.
         23    2    1    2    0    0  0.16363997054E+02 -0.24685258266E+02  0.41343563296E+02  0.13503296188E+03  0.12508984048E+03 0.  0.
          5    1    3    3  502    0  0.47931118500E+02 -0.21877723538E+02  0.72946818065E+02  0.90081838201E+02  0.41800000000E+01 0.  1.
         -5    1    3    3    0  502 -0.31567121446E+02 -0.28075347274E+01 -0.31603254768E+02  0.44951123674E+02  0.41800000000E+01 0.  1.
        -11    1    1    2    0    0 -0.79471424237E+02  0.34710641789E+02  0.80892763182E+01  0.87097487421E+02  0.00000000000E+00 0. -1.
         11    1    1    2    0    0  0.63107427183E+02 -0.10025383523E+02  0.36110996104E+02  0.73396592020E+02  0.00000000000E+00 0.  1.
</event>
<event>
 7    1  0.4966153E-006  0.1095263E+03  0.7561462E-02  0.1261450E+00
          1   -1    0    0  501    0  0.00000000000E+00  0.00000000000E+00  0.31784118996E+03  0.31784118996E+03  0.00000000000E+00 0. -1.
         -1   -1    0    0    0  501 -0.00000000000E+00 -0.00000000000E+00 -0.52758140489E+02  0.52758140489E+02  0.00000000000E+00 0.  1.
         23    2    1    2    0    0  0.25935804739E+02 -0.65779744626E+02  0.15858593385E+03  0.21399884212E+03  0.12508543178E+03 0.  0.
          5    1    3    3  502    0 -0.21027394844E+02  0.30028709612E+02  0.39665559281E+02  0.54172905848E+02  0.41800000000E+01 0. -1.
         -5    1    3    3    0  502  0.46963199583E+02 -0.95808454238E+02  0.11892037457E+03  0.15982593628E+03  0.41800000000E+01 0. -1.
        -11    1    1    2    0    0 -0.28618873705E+02  0.38543236921E+02  0.11763422883E+03  0.12705287418E+03  0.00000000000E+00 0. -1.
         11    1    1    2    0    0  0.26830689660E+01  0.27236507705E+02 -0.11137113212E+02  0.29547614146E+02  0.00000000000E+00 0.  1.
</event>
<event>
 7    1  0.4966153E-006  0.1186356E+03  0.7561462E-02  0.1245365E+00
          1   -1    0    0  501    0  0.00000000000E+00  0.00000000000E+00  0.96554791486E+03  0.96554791486E+03  0.00000000000E+00 0. -1.
         -1   -1    0    0    0  501 -0.00000000000E+00 -0.00000000000E+00 -0.16509979149E+02  0.16509979149E+02  0.00000000000E+00 0.  1.
         23    2    1    2    0    0  0.11775249940E+02  0.64379096715E+02  0.47959246599E+03  0.49994021098E+03  0.12509179238E+03 0.  0.
          5    1    3    3  502    0 -0.18946498052E+02 -0.28527336792E+02  0.61374421836E+02  0.70406468372E+02  0.41800000000E+01 0.  1.
         -5    1    3    3    0  502  0.30721747992E+02  0.92906433507E+02  0.41821804415E+03  0.42953374261E+03  0.41800000000E+01 0.  1.
        -11    1    1    2    0    0  0.33304019872E+02 -0.44443509351E+02  0.17579359525E+03  0.18435772670E+03  0.00000000000E+00 0.  1.
         11    1    1    2    0    0 -0.45079269813E+02 -0.19935587364E+02  0.29365187448E+03  0.29775995634E+03  0.00000000000E+00 0. -1.
</event>
<event>
 6    1  0.4966153E-006  0.8717906E+02  0.7561462E-02  0.1309830E+00
         -2   -1    0    0    0  501 -0.00000000000E+00  0.00000000000E+00  0.98857978873E+02  0.98857978873E+02  0.00000000000E+00 0.  1.
          2   -1    0    0  501    0  0.00000000000E+00 -0.00000000000E+00 -0.19669323936E+03  0.19669323936E+03  0.00000000000E+00 0. -1.
          5    1    1    2  502    0  0.10867235743E+02  0.23130593726E+02 -0.94660022424E+02  0.98138236300E+02  0.41800000000E+01 0. -1.
         -5    1    1    2    0  502  0.41407478676E+02 -0.22801696369E+02  0.57834074060E+02  0.74811424061E+02  0.41800000000E+01 0.  1.
        -11    1    1    2    0    0  0.23682192881E+02  0.70070025264E+01 -0.33207387955E+02  0.41384477269E+02  0.00000000000E+00 0.  1.
         11    1    1    2    0    0 -0.75956907300E+02 -0.73358998834E+01 -0.27801924164E+02  0.81217080598E+02  0.00000000000E+00 0. -1.
</event>
<event>
 7    1  0.4966153E-006  0.1162279E+03  0.7561462E-02  0.1249453E+00
         -2   -1    0    0    0  501 -0.00000000000E+00  0.00000000000E+00  0.64000957184E+03  0.64000957184E+03  0.00000000000E+00 0.  1.
          2   -1    0    0  501    0  0.00000000000E+00 -0.00000000000E+00 -0.41052274470E+02  0.41052274470E+02  0.00000000000E+00 0. -1.
         23    2    1    2    0    0 -0.45369162698E+02  0.36343658587E+02  0.54056345538E+03  0.55788567861E+03  0.12509339976E+03 0.  0.
          5    1    3    3  502    0 -0.72362065486E+02  0.57786126704E+02  0.47214836638E+03  0.48116219431E+03  0.41800000000E+01 0.  1.
         -5    1    3    3    0  502  0.26992902788E+02 -0.21442468117E+02  0.68415088999E+02  0.76723484296E+02  0.41800000000E+01 0.  1.
        -11    1    1    2    0    0  0.57800133937E+02 -0.56836633073E+02  0.31029815912E+02  0.86799238578E+02  0.00000000000E+00 0.  1.
         11    1    1    2    0    0 -0.12430971238E+02  0.20492974485E+02  0.27364026081E+02  0.36376929125E+02  0.00000000000E+00 0. -1.
</event>
<event>
 7    1  0.4966153E-006  0.1049955E+03  0.7561462E-02  0.1270129E+00
          2   -1    0    0  501    0  0.00000000000E+00  0.00000000000E+00  0.64290817533E+02  0.64290817533E+02  0.00000000000E+00 0.  1.
         -2   -1    0    0    0  501 -0.00000000000E+00 -0.00000000000E+00 -0.20484187986E+03  0.20484187986E+03  0.00000000000E+00 0. -1.
         23    2    1    2    0    0  0.25031450666E+02  0.17811484432E+02 -0.95429079007E+02  0.16030821831E+03  0.12509273855E+03 0.  0.
          5    1    3    3  502    0 -0.92074548346E+01  0.66434009221E+02 -0.36448860650E+02  0.76447672616E+02  0.41800000000E+01 0.  1.
         -5    1    3    3    0  502  0.34238905500E+02 -0.48622524789E+02 -0.58980218358E+02  0.83860545695E+02  0.41800000000E+01 0.  1.
        -11    1    1    2    0    0  0.14128657152E+02 -0.36972753599E+02 -0.51297877985E+02  0.64792559352E+02  0.00000000000E+00 0. -1.
         11    1    1    2    0    0 -0.39160107817E+02  0.19161269167E+02  0.61758946642E+01  0.44031919732E+02  0.00000000000E+00 0.  1.
</event>
<event>
 7    1  0.4966153E-006  0.1174632E+03  0.7561462E-02  0.1247342E+00
         -2   -1    0    0    0  501 -0.00000000000E+00  0.00000000000E+00  0.19492267077E+02  0.19492267077E+02  0.00000000000E+00 0. -1.
          2   -1    0    0  501    0  0.00000000000E+00 -0.00000000000E+00 -0.80270621608E+03  0.80270621608E+03  0.00000000000E+00 0.  1.
         23    2    1    2    0    0 -0.56726171131E+02  0.73711474880E+01 -0.37193361305E+03  0.39655390084E+03  0.12509273141E+03 0.  0.
          5    1    3    3  502    0 -0.22279236838E+02 -0.57692037297E+02 -0.20238814717E+03  0.21166759335E+03  0.41800000000E+01 0. -1.
         -5    1    3    3    0  502 -0.34446934293E+02  0.65063184785E+02 -0.16954546588E+03  0.18488630749E+03  0.41800000000E+01 0. -1.
        -11    1    1    2    0    0  0.52323668377E+02 -0.40260472609E+02 -0.34784227523E+03  0.35405214357E+03  0.00000000000E+00 0.  1.
         11    1    1    2    0    0  0.44025027541E+01  0.32889325121E+02 -0.63438060723E+02  0.71592438747E+02  0.00000000000E+00 0. -1.
</event>
<event>
 7    1  0.4966153E-006  0.1305484E+03  0.7561462E-02  0.1226644E+00
         -1   -1    0    0    0  501 -0.00000000000E+00  0.00000000000E+00  0.81243918110E+02  0.81243918110E+02  0.00000000000E+00 0. -1.
          1   -1    0    0  501    0  0.00000000000E+00 -0.00000000000E+00 -0.27363755287E+03  0.27363755287E+03  0.00000000000E+00 0.  1.
         23    2    1    2    0    0 -0.15839464231E+02  0.82674223633E+02 -0.35189920136E+02  0.15482761319E+03  0.12508934185E+03 0.  0.
          5    1    3    3  502    0  0.45162816597E+02  0.75959560388E+02 -0.12926465709E+02  0.89409735113E+02  0.41800000000E+01 0.  1.
         -5    1    3    3    0  502 -0.61002280828E+02  0.67146632456E+01 -0.22263454426E+02  0.65417878074E+02  0.41800000000E+01 0.  1.
        -11    1    1    2    0    0 -0.72913469750E+01 -0.87233552707E+02 -0.15275855464E+03  0.17606258113E+03  0.00000000000E+00 0.  1.
         11    1    1    2    0    0  0.23130811206E+02  0.45593290744E+01 -0.44451599849E+01  0.23991276663E+02  0.00000000000E+00 0. -1.
</event>
<event>
 7    1  0.4966153E-006  0.1272043E+03  0.7561462E-02  0.1231664E+00
         -1   -1    0    0    0  501 -0.00000000000E+00  0.00000000000E+00  0.28432866670E+02  0.28432866670E+02  0.00000000000E+00 0.  1.
          1   -1    0    0  501    0  0.00000000000E+00 -0.00000000000E+00 -0.66889283222E+03  0.66889283222E+03  0.00000000000E+00 0. -1.
         23    2    1    2    0    0  0.41715049744E+01 -0.71546931077E+02 -0.23798172262E+03  0.27824290031E+03  0.12508975367E+03 0.  0.
          5    1    3    3  502    0 -0.51718992924E+02 -0.51674150197E+01 -0.55595535896E+02  0.76222650299E+02  0.41800000000E+01 0.  1.
         -5    1    3    3    0  502  0.55890497899E+02 -0.66379516058E+02 -0.18238618672E+03  0.20202025001E+03  0.41800000000E+01 0.  1.
        -11    1    1    2    0    0 -0.40541609267E+02  0.67753132790E+01 -0.17587726676E+03  0.18061655493E+03  0.00000000000E+00 0.  1.
         11    1    1    2    0    0  0.36370104293E+02  0.64771617798E+02 -0.22660097617E+03  0.23846624365E+03  0.00000000000E+00 0. -1.
</event>
<event>
 7    1  0.4966153E-006  0.2770003E+03  0.7561462E-02  0.1097339E+00
         -1   -1    0    0    0  501 -0.00000000000E+00  0.00000000000E+00  0.98974718023E+03  0.98974718023E+03  0.00000000000E+00 0.  1.
          1   -1    0    0  501    0  0.00000000000E+00 -0.00000000000E+00 -0.19620432337E+03  0.19620432337E+03  0.00000000000E+00 0. -1.
         23    2    1    2    0    0 -0.24726536597E+02  0.27535251884E+03  0.83813859814E+03  0.89137776905E+03  0.12509039221E+03 0.  0.
          5    1    3    3  502    0 -0.11918778225E+02  0.11715619249E+03  0.54912518769E+03  0.56162583174E+03  0.41800000000E+01 0. -1.
         -5    1    3    3    0  502 -0.12807758372E+02  0.15819632635E+03  0.28901341045E+03  0.32975193732E+03  0.41800000000E+01 0. -1.
        -11    1    1    2    0    0  0.21853441993E+02 -0.11733000483E+03  0.24905233014E+02  0.12191871715E+03  0.00000000000E+00 0.  1.
         11    1    1    2    0    0  0.28730946035E+01 -0.15802251401E+03 -0.69500974287E+02  0.17265501740E+03  0.00000000000E+00 0. -1.
</event>
<event>
 6    1  0.4966153E-006  0.2351664E+03  0.7561462E-02  0.1123055E+00
          2   -1    0    0  501    0  0.00000000000E+00  0.00000000000E+00  0.62959463756E+02  0.62959463756E+02  0.00000000000E+00 0. -1.
         -2   -1    0    0    0  501 -0.00000000000E+00 -0.00000000000E+00 -0.95846340074E+03  0.95846340074E+03  0.00000000000E+00 0.  1.
          5    1    1    2  502    0 -0.45620406268E+02  0.10264320635E+03 -0.19989172732E+03  0.22932733010E+03  0.41800000000E+01 0. -1.
         -5    1    1    2    0  502 -0.10356989051E+03 -0.15578550437E+03 -0.26510278066E+03  0.32448852415E+03  0.41800000000E+01 0.  1.
        -11    1    1    2    0    0  0.35559203153E+02 -0.14690084286E+02 -0.18236688516E+03  0.18638115868E+03  0.00000000000E+00 0.  1.
         11    1    1    2    0    0  0.11363109362E+03  0.67832382304E+02 -0.24814254384E+03  0.28122585157E+03  0.00000000000E+00 0. -1.
</event>
<event>
 7    1  0.4966153E-006  0.8818548E+02  0.7561462E-02  0.1307306E+00
         -2   -1    0    0    0  501 -0.00000000000E+00  0.00000000000E+00  0.27887978866E+03  0.27887978866E+03  0.00000000000E+00 0.  1.
          2   -1    0    0  501    0  0.00000000000E+00 -0.00000000000E+00 -0.78238659531E+02  0.78238659531E+02  0.00000000000E+00 0. -1.
         23    2    1    2    0    0  0.74807488277E+02  0.28360059812E+02  0.18251659798E+03  0.23527786344E+03  0.12507162425E+03 0.  0.
          5    1    3    3  502    0  0.55478337023E+02  0.20710879419E+02  0.84961229496E+01  0.59970350260E+02  0.41800000000E+01 0.  1.
         -5    1    3    3    0  502  0.19329151254E+02  0.76491803928E+01  0.17402047503E+03  0.17530751318E+03  0.41800000000E+01 0.  1.
        -11    1    1    2    0    0 -0.81698993868E+02 -0.18492191790E+02  0.43035716273E+02  0.94174092145E+02  0.00000000000E+00 0.  1.
         11    1    1    2    0    0  0.68915055905E+01 -0.98678680223E+01 -0.24911185124E+02  0.27666492602E+02  0.00000000000E+00 0. -1.
</event>
<event>
 7    1  0.4966153E-006  0.9480186E+02  0.7561462E-02  0.1291623E+00
         -2   -1    0    0    0  501 -0.00000000000E+00  0.00000000000E+00  0.34411689084E+02  0.34411689084E+02  0.00000000000E+00 0.  1.
          2   -1    0    0  501    0  0.00000000000E+00 -0.00000000000E+00 -0.38657930313E+03  0.38657930313E+03  0.00000000000E+00 0. -1.
         23    2    1    2    0    0 -0.30778614915E+02  0.21384804140E+02 -0.20754109368E+03  0.24520454970E+03  0.12508929868E+03 0.  0.
          5    1    3    3  502    0  0.31733104893E+02  0.30650550279E+02 -0.15997194777E+03  0.16599681518E+03  0.41800000000E+01 0.  1.
         -5    1    3    3    0  502 -0.62511719808E+02 -0.92657461396E+01 -0.47569145909E+02  0.79207734517E+02  0.41800000000E+01 0.  1.
        -11    1    1    2    0    0  0.41890205055E+02  0.14547001259E+02 -0.26143176500E+02  0.51476889986E+02  0.00000000000E+00 0. -1.
         11    1    1    2    0    0 -0.11111590140E+02 -0.35931805399E+02 -0.11848334387E+03  0.12430955252E+03  0.00000000000E+00 0.  1.
</event>
<event>
 7    1  0.4966153E-006  0.7350291E+02  0.7561462E-02  0.1348571E+00
         -1   -1    0    0    0  501 -0.00000000000E+00  0.00000000000E+00  0.35671867655E+02  0.35671867655E+02  0.00000000000E+00 0.  1.
          1   -1    0    0  501    0  0.00000000000E+00 -0.00000000000E+00 -0.41606390747E+03  0.41606390747E+03  0.00000000000E+00 0. -1.
         23    2    1    2    0    0  0.10962587787E+02  0.37670040842E+02 -0.13128809417E+03  0.18553527283E+03  0.12509022138E+03 0.  0.
          5    1    3    3  502    0 -0.69660801494E+01  0.33257671322E+02  0.15464820801E+02  0.37566368693E+02  0.41800000000E+01 0. -1.
         -5    1    3    3    0  502  0.17928667936E+02  0.44123695208E+01 -0.14675291498E+03  0.14796890414E+03  0.41800000000E+01 0. -1.
        -11    1    1    2    0    0 -0.47657587707E+02 -0.12272111050E+02 -0.13350269032E+03  0.14228428830E+03  0.00000000000E+00 0. -1.
         11    1    1    2    0    0  0.36694999920E+02 -0.25397929793E+02 -0.11560125532E+03  0.12391621398E+03  0.00000000000E+00 0.  1.
</event>
<event>
 7    1  0.4966153E-006  0.6227827E+02  0.7561462E-02  0.1388512E+00
         -2   -1    0    0    0  501 -0.00000000000E+00  0.00000000000E+00  0.19906380380E+03  0.19906380380E+03  0.00000000000E+00 0.  1.
          2   -1    0    0  501    0  0.00000000000E+00 -0.00000000000E+00 -0.91735480077E+02  0.91735480077E+02  0.00000000000E+00 0. -1.
         23    2    1    2    0    0 -0.39869862001E+02 -0.14647272515E+02  0.13138975706E+03  0.18632335096E+03  0.12509586069E+03 0.  0.
          5    1    3    3  502    0 -0.15096150107E+02  0.96527470415E+01  0.14692570478E+03  0.14807330752E+03  0.41800000000E+01 0. -1.
         -5    1    3    3    0  502 -0.24773711894E+02 -0.24300019557E+02 -0.15535947719E+02  0.38250043438E+02  0.41800000000E+01 0. -1.
        -11    1    1    2    0    0 -0.14856837673E+02  0.46860326877E+01  0.25560398499E+02  0.29933568104E+02  0.00000000000E+00 0.  1.
         11    1    1    2    0    0  0.54726699675E+02  0.99612398278E+01 -0.49621831845E+02  0.74542364813E+02  0.00000000000E+00 0. -1.
</event>
<event>
 7    1  0.4966153E-006  0.1138099E+03  0.7561462E-02  0.1253673E+00
         -4   -1    0    0    0  501 -0.00000000000E+00  0.00000000000E+00  0.10694482285E+03  0.10694482285E+03  0.00000000000E+00 0.  1.
          4   -1    0    0  501    0  0.00000000000E+00 -0.00000000000E+00 -0.13247712765E+03  0.13247712765E+03  0.00000000000E+00 0. -1.
         23    2    1    2    0    0 -0.28819299888E+02 -0.33263547385E+02  0.60485053956E+01  0.13274613720E+03  0.12509171392E+03 0.  0.
          5    1    3    3  502    0  0.22242728006E+02 -0.67192027759E+02 -0.89115675304E+00  0.70906798714E+02  0.41800000000E+01 0. -1.
         -5    1    3    3    0  502 -0.51062027894E+02  0.33928480374E+02  0.69396621487E+01  0.61839338482E+02  0.41800000000E+01 0. -1.
        -11    1    1    2    0    0 -0.27031229987E+02 -0.51059661963E+01 -0.27337144510E+02  0.38782441328E+02  0.00000000000E+00 0. -1.
         11    1    1    2    0    0  0.55850529875E+02  0.38369513581E+02 -0.42436656777E+01  0.67893371975E+02  0.00000000000E+00 0.  1.
</event>
<event>
 7    1  0.4966153E-006  0.1575448E+03  0.7561462E-02  0.1191497E+00
          2   -1    0    0  501    0  0.00000000000E+00  0.00000000000E+00  0.29390008583E+03  0.29390008583E+03  0.00000000000E+00 0. -1.
         -2   -1    0    0    0  501 -0.00000000000E+00 -0.00000000000E+00 -0.10884236125E+03  0.10884236125E+03  0.00000000000E+00 0.  1.
         23    2    1    2    0    0 -0.11656248709E+03  0.69443062306E+02  0.54531179603E+02  0.19243386414E+03  0.12509192707E+03 0.  0.
          5    1    3    3  502    0 -0.71594869549E+02  0.94413790952E+02  0.16920183329E+01  0.11857539624E+03  0.41800000000E+01 0.  1.
         -5    1    3    3    0  502 -0.44967617540E+02 -0.24970728646E+02  0.52839161270E+02  0.73858467896E+02  0.41800000000E+01 0.  1.
        -11    1    1    2    0    0  0.10930086039E+03 -0.42926522922E+02  0.54490798943E+02  0.12945505638E+03  0.00000000000E+00 0.  1.
         11    1    1    2    0    0  0.72616266962E+01 -0.26516539384E+02  0.76035746032E+02  0.80853526564E+02  0.00000000000E+00 0. -1.
</event>
<event>
 7    1  0.4966153E-006  0.1777011E+03  0.7561462E-02  0.1170047E+00
          1   -1    0    0  501    0  0.00000000000E+00  0.00000000000E+00  0.28027119179E+03  0.28027119179E+03  0.00000000000E+00 0. -1.
         -1   -1    0    0    0  501 -0.00000000000E+00 -0.00000000000E+00 -0.13135717922E+03  0.13135717922E+03  0.00000000000E+00 0.  1.
         23    2    1    2    0    0  0.66437947892E+02 -0.13317644047E+03  0.23914664926E+02  0.19588338320E+03  0.12509365852E+03 0.  0.
          5    1    3    3  502    0  0.17363435431E+02 -0.12911788484E+03  0.50475212931E+02  0.13977888465E+03  0.41800000000E+01 0.  1.
         -5    1    3    3    0  502  0.49074512461E+02 -0.40585556299E+01 -0.26560548005E+02  0.56104498548E+02  0.41800000000E+01 0.  1.
        -11    1    1    2    0    0 -0.11251627685E+02  0.11781567241E+03  0.79261470628E+02  0.14244125988E+03  0.00000000000E+00 0.  1.
         11    1    1    2    0    0 -0.55186320207E+02  0.15360768060E+02  0.45737877023E+02  0.73303727927E+02  0.00000000000E+00 0. -1.
</event>
<event>
 7    1  0.4966153E-006  0.1337723E+03  0.7561462E-02  0.1221963E+00
         -4   -1    0    0    0  501 -0.00000000000E+00  0.00000000000E+00  0.13050692781E+03  0.13050692781E+03  0.00000000000E+00 0.  1.
          4   -1    0    0  501    0  0.00000000000E+00 -0.00000000000E+00 -0.24094507200E+03  0.24094507200E+03  0.00000000000E+00 0. -1.
         23    2    1    2    0    0  0.89064820558E+02  0.27082355894E+02 -0.55640464078E+02  0.16555816235E+03  0.12509055766E+03 0.  0.
          5    1    3    3  502    0  0.98906698707E+02 -0.16039431532E+02 -0.65849422414E+02  0.11997256872E+03  0.41800000000E+01 0. -1.
         -5    1    3    3    0  502 -0.98418781484E+01  0.43121787426E+02  0.10208958335E+02  0.45585593630E+02  0.41800000000E+01 0. -1.
        -11    1    1    2    0    0 -0.54398181687E+02 -0.55715915897E+02  0.49532699452E+02  0.92287126784E+02  0.00000000000E+00 0.  1.
         11    1    1    2    0    0 -0.34666638871E+02  0.28633560002E+02 -0.10433037957E+03  0.11360671067E+03  0.00000000000E+00 0. -1.
</event>
<event>
 7    1  0.4966153E-006  0.9460665E+02  0.7561462E-02  0.1292064E+00
         -3   -1    0    0    0  501 -0.00000000000E+00  0.00000000000E+00  0.18299108350E+03  0.18299108350E+03  0.00000000000E+00 0.  1.
          3   -1    0    0  501    0  0.00000000000E+00 -0.00000000000E+00 -0.96049525845E+02  0.96049525845E+02  0.00000000000E+00 0. -1.
         23    2    1    2    0    0 -0.68639835475E+01  0.74556549905E+02  0.48424635198E+02  0.15361155300E+03  0.12508305447E+03 0.  0.
          5    1    3    3  502    0 -0.19628226425E+02  0.74839172882E+02  0.84780063868E+02  0.11485338785E+03  0.41800000000E+01 0.  1.
         -5    1    3    3    0  502  0.12764242877E+02 -0.28262297708E+00 -0.36355428670E+02  0.38758165149E+02  0.41800000000E+01 0.  1.
        -11    1    1    2    0    0 -0.25662346283E+02 -0.13216788987E+02  0.47334036407E+02  0.55441415300E+02  0.00000000000E+00 0.  1.
         11    1    1    2    0    0  0.32526329831E+02 -0.61339760918E+02 -0.88171139483E+01  0.69987641052E+02  0.00000000000E+00 0. -1.
</event>
<event>
 7    1  0.4966153E-006  0.1192932E+03  0.7561462E-02  0.1244268E+00
         -4   -1    0    0    0  501 -0.00000000000E+00  0.00000000000E+00  0.31519668451E+02  0.31519668451E+02  0.00000000000E+00 0.  1.
          4   -1    0    0  501    0  0.00000000000E+00 -0.00000000000E+00 -0.57488533658E+03  0.57488533658E+03  0.00000000000E+00 0. -1.
         23    2    1    2    0    0 -0.55727018864E+02 -0.26279868492E+02 -0.18561238672E+03  0.23215499805E+03  0.12509137820E+03 0.  0.
          5    1    3    3  502    0  0.20375287152E+01  0.44115134297E+02 -0.36776236988E+02  0.57621702546E+02  0.41800000000E+01 0. -1.
         -5    1    3    3    0  502 -0.57764547579E+02 -0.70395002789E+02 -0.14883614973E+03  0.17453329551E+03  0.41800000000E+01 0. -1.
        -11    1    1    2    0    0  0.25307179079E+01 -0.27387756504E+02 -0.16385922655E+03  0.16615155691E+03  0.00000000000E+00 0. -1.
         11    1    1    2    0    0  0.53196300956E+02  0.53667624995E+02 -0.19389405487E+03  0.20809845007E+03  0.00000000000E+00 0.  1.
</event>
<event>
 7    1  0.4966153E-006  0.9387411E+02  0.7561462E-02  0.1293732E+00
          4   -1    0    0  501    0  0.00000000000E+00  0.00000000000E+00  0.28143623123E+02  0.28143623123E+02  0.00000000000E+00 0. -1.
         -4   -1    0    0    0  501 -0.00000000000E+00 -0.00000000000E+00 -0.43883424891E+03  0.43883424891E+03  0.00000000000E+00 0.  1.
         23    2    1    2    0    0  0.10090178676E+02  0.15742167148E+02 -0.28194275287E+03  0.30901289990E+03  0.12509048275E+03 0.  0.
          5    1    3    3  502    0  0.45807015335E+02 -0.24590705006E+02 -0.22313073517E+03  0.22914576759E+03  0.41800000000E+01 0.  1.
         -5    1    3    3    0  502 -0.35716836659E+02  0.40332872155E+02 -0.58812017695E+02  0.79867132305E+02  0.41800000000E+01 0.  1.
        -11    1    1    2    0    0 -0.13158122710E+02  0.31538858888E+02 -0.91571891473E+02  0.97740713733E+02  0.00000000000E+00 0.  1.
         11    1    1    2    0    0  0.30679440343E+01 -0.47281026036E+02 -0.37175981444E+02  0.60224258402E+02  0.00000000000E+00 0. -1.
</event>
<event>
 6    1  0.4966153E-006  0.1468194E+03  0.7561462E-02  0.1204437E+00
          1   -1    0    0  501    0  0.00000000000E+00  0.00000000000E+00  0.25452476183E+03  0.25452476183E+03  0.00000000000E+00 0. -1.
         -1   -1    0    0    0  501 -0.00000000000E+00 -0.00000000000E+00 -0.22670106477E+03  0.22670106477E+03  0.00000000000E+00 0.  1.
          5    1    1    2  502    0  0.46272249735E+02  0.59586082763E+02 -0.13198206651E+03  0.15208011255E+03  0.41800000000E+01 0. -1.
         -5    1    1    2    0  502 -0.92826600978E+02  0.18928788461E+02 -0.31662736542E+02  0.99975387807E+02  0.41800000000E+01 0.  1.
        -11    1    1    2    0    0 -0.20990214166E+02 -0.40819104893E+02  0.49561771403E+02  0.67551148026E+02  0.00000000000E+00 0.  1.
         11    1    1    2    0    0  0.67544565409E+02 -0.37695766331E+02  0.14190672870E+03  0.16161917821E+03  0.00000000000E+00 0. -1.
</event>
<event>
 7    1  0.4966153E-006  0.1104422E+03  0.7561462E-02  0.1259753E+00
          1   -1    0    0  501    0  0.00000000000E+00  0.00000000000E+00  0.35823916169E+02  0.35823916169E+02  0.00000000000E+00 0. -1.
         -1   -1    0    0    0  501 -0.00000000000E+00 -0.00000000000E+00 -0.68113403626E+03  0.68113403626E+03  0.00000000000E+00 0.  1.
         23    2    1    2    0    0 -0.28041341478E+02  0.48211681460E+02 -0.57073152999E+03  0.58693472530E+03  0.12508880595E+03 0.  0.
          5    1    3    3  502    0  0.34005424279E+01 -0.38757099951E+02 -0.10414374958E+03  0.11125227846E+03  0.41800000000E+01 0. -1.
         -5    1    3    3    0  502 -0.31441883906E+02  0.86968781411E+02 -0.46658778041E+03  0.47568244684E+03  0.41800000000E+01 0. -1.
        -11    1    1    2    0    0 -0.16949027145E+02  0.66720423254E+01 -0.52701382181E+02  0.55760392338E+02  0.00000000000E+00 0.  1.
         11    1    1    2    0    0  0.44990368623E+02 -0.54883723786E+02 -0.21877207922E+02  0.74262834796E+02  0.00000000000E+00 0. -1.
</event>
<event>
 7    1  0.4966153E-006  0.1718197E+03  0.7561462E-02  0.1175963E+00
          1   -1    0    0  501    0  0.00000000000E+00  0.00000000000E+00  0.23186325030E+03  0.23186325030E+03  0.00000000000E+00 0. -1.
         -1   -1    0    0    0  501 -0.00000000000E+00 -0.00000000000E+00 -0.17222306730E+03  0.17222306730E+03  0.00000000000E+00 0.  1.
         23    2    1    2    0    0  0.11962785662E+03 -0.11820479595E+03  0.14705089989E+02  0.21079453563E+03  0.12623350869E+03 0.  0.
          5    1    3    3  502    0  0.53738608152E+02 -0.77823235687E+02 -0.52540034226E+02  0.10826920899E+03  0.41800000000E+01 0. -1.
         -5    1    3    3    0  502  0.65889248468E+02 -0.40381560260E+02  0.67245124215E+02  0.10252532664E+03  0.41800000000E+01 0.  1.
        -11    1    1    2    0    0 -0.97270442870E+02  0.11207279940E+03  0.65585997863E+02  0.16224479818E+03  0.00000000000E+00 0. -1.
         11    1    1    2    0    0 -0.22357413751E+02  0.61319965476E+01 -0.20650904848E+02  0.31046983788E+02  0.00000000000E+00 0.  1.
</event>
<event>
 7    1  0.4966153E-006  0.2112819E+03  0.7561462E-02  0.1140555E+00
         -2   -1    0    0    0  501 -0.00000000000E+00  0.00000000000E+00  0.12645656128E+03  0.12645656128E+03  0.00000000000E+00 0.  1.
          2   -1    0    0  501    0  0.00000000000E+00 -0.00000000000E+00 -0.42278906193E+03  0.42278906193E+03  0.00000000000E+00 0. -1.
         23    2    1    2    0    0 -0.19573847868E+03 -0.39022369267E+02 -0.10470595380E+03  0.25777199907E+03  0.12508704730E+03 0.  0.
          5    1    3    3  502    0 -0.55695149098E+02 -0.58451341968E+02 -0.80835231810E+02  0.11432548322E+03  0.41800000000E+01 0.  1.
         -5    1    3    3    0  502 -0.14004332958E+03  0.19428972701E+02 -0.23870721993E+02  0.14344651585E+03  0.41800000000E+01 0.  1.
        -11    1    1    2    0    0  0.12244540179E+03  0.16227952644E+02 -0.55965100635E+02  0.13560352265E+03  0.00000000000E+00 0.  1.
         11    1    1    2    0    0  0.73293076897E+02  0.22794416624E+02 -0.13566144621E+03  0.15587010149E+03  0.00000000000E+00 0. -1.
</event>
<event>
 7    1  0.4966153E-006  0.1531833E+03  0.7561462E-02  0.1196615E+00
          1   -1    0    0  501    0  0.00000000000E+00  0.00000000000E+00  0.30397364686E+03  0.30397364686E+03  0.00000000000E+00 0. -1.
         -1   -1    0    0    0  501 -0.00000000000E+00 -0.00000000000E+00 -0.11413530691E+03  0.11413530691E+03  0.00000000000E+00 0.  1.
         23    2    1    2    0    0  0.62091357040E+02  0.11377162684E+03  0.11797432528E+02  0.18051318517E+03  0.12508601406E+03 0.  0.
          5    1    3    3  502    0  0.92333664090E+02  0.50693223494E+02  0.26967357584E+02  0.10881185233E+03  0.41800000000E+01 0.  1.
         -5    1    3    3    0  502 -0.30242307050E+02  0.63078403347E+02 -0.15169925056E+02  0.71701332838E+02  0.41800000000E+01 0.  1.
        -11    1    1    2    0    0 -0.36510549062E+02 -0.48056204117E+02  0.15003632698E+03  0.16171987621E+03  0.00000000000E+00 0.  1.
         11    1    1    2    0    0 -0.25580807978E+02 -0.65715422724E+02  0.28004580439E+02  0.75875892391E+02  0.00000000000E+00 0. -1.
</event>
<event>
 7    1  0.4966153E-006  0.1191386E+03  0.7561462E-02  0.1244525E+00
         -1   -1    0    0    0  501 -0.00000000000E+00  0.00000000000E+00  0.21163137686E+02  0.21163137686E+02  0.00000000000E+00 0.  1.
          1   -1    0    0  501    0  0.00000000000E+00 -0.00000000000E+00 -0.78929769837E+03  0.78929769837E+03  0.00000000000E+00 0. -1.
         23    2    1    2    0    0  0.58599775581E+02  0.34241885594E+02 -0.46941406679E+03  0.49051381612E+03  0.12509115589E+03 0.  0.
          5    1    3    3  502    0  0.53887715459E+02 -0.36855401602E+02 -0.15766673501E+03  0.17069996553E+03  0.41800000000E+01 0.  1.
         -5    1    3    3    0  502  0.47120601217E+01  0.71097287196E+02 -0.31174733178E+03  0.31981385059E+03  0.41800000000E+01 0.  1.
        -11    1    1    2    0    0 -0.16745784154E+02 -0.53025192168E+02 -0.23463300224E+03  0.24113220032E+03  0.00000000000E+00 0. -1.
         11    1    1    2    0    0 -0.41853991427E+02  0.18783306574E+02 -0.64087491664E+02  0.78814819621E+02  0.00000000000E+00 0.  1.
</event>
<event>
 7    1  0.4966153E-006  0.1789081E+03  0.7561462E-02  0.1168864E+00
         -2   -1    0    0    0  501 -0.00000000000E+00  0.00000000000E+00  0.71288325849E+02  0.71288325849E+02  0.00000000000E+00 0.  1.
          2   -1    0    0  501    0  0.00000000000E+00 -0.00000000000E+00 -0.55412383125E+03  0.55412383125E+03  0.00000000000E+00 0. -1.
         23    2    1    2    0    0 -0.14232997107E+03  0.46631637883E+02 -0.14100543808E+03  0.24075962657E+03  0.12510129456E+03 0.  0.
          5    1    3    3  502    0 -0.70798609834E+02 -0.35695249735E+02 -0.90818580311E+02  0.12063200627E+03  0.41800000000E+01 0.  1.
         -5    1    3    3    0  502 -0.71531361235E+02  0.82326887618E+02 -0.50186857772E+02  0.12012762030E+03  0.41800000000E+01 0.  1.
        -11    1    1    2    0    0  0.11975411317E+03 -0.25860102513E+01 -0.28583746804E+03  0.30992062404E+03  0.00000000000E+00 0. -1.
         11    1    1    2    0    0  0.22575857899E+02 -0.44045627632E+02 -0.55992599276E+02  0.74731906486E+02  0.00000000000E+00 0.  1.
</event>
<event>
 7    1  0.4966153E-006  0.9093899E+02  0.7561462E-02  0.1300594E+00
         -2   -1    0    0    0  501 -0.00000000000E+00  0.00000000000E+00  0.20348374108E+03  0.20348374108E+03  0.00000000000E+00 0.  1.
          2   -1    0    0  501    0  0.00000000000E+00 -0.00000000000E+00 -0.66952624799E+02  0.66952624799E+02  0.00000000000E+00 0. -1.
         23    2    1    2    0    0 -0.25639348272E+02 -0.37574657079E+01  0.11721992494E+03  0.17337695913E+03  0.12509022514E+03 0.  0.
          5    1    3    3  502    0 -0.52139847307E+02  0.24744616838E+02  0.93377334975E+01  0.58613355189E+02  0.41800000000E+01 0.  1.
         -5    1    3    3    0  502  0.26500499035E+02 -0.28502082546E+02  0.10788219144E+03  0.11476360394E+03  0.41800000000E+01 0.  1.
        -11    1    1    2    0    0 -0.11259642678E+02  0.34846793301E+02  0.30349960292E+02  0.47562576111E+02  0.00000000000E+00 0.  1.
         11    1    1    2    0    0  0.36898990950E+02 -0.31089327593E+02 -0.11038768953E+02  0.49496830639E+02  0.00000000000E+00 0. -1.
</event>
<event>
 7    1  0.4966153E-006  0.1457909E+03  0.7561462E-02  0.1205743E+00
         -1   -1    0    0    0  501 -0.00000000000E+00  0.00000000000E+00  0.55280740437E+02  0.55280740437E+02  0.00000000000E+00 0.  1.
          1   -1    0    0  501    0  0.00000000000E+00 -0.00000000000E+00 -0.47650205424E+03  0.47650205424E+03  0.00000000000E+00 0. -1.
         23    2    1    2    0    0 -0.64804350315E+02  0.10140952702E+03 -0.22900570340E+03  0.28735820557E+03  0.12509048775E+03 0.  0.
          5    1    3    3  502    0 -0.54494594382E+02 -0.12902363997E+02 -0.53158652060E+02  0.77326880853E+02  0.41800000000E+01 0. -1.
         -5    1    3    3    0  502 -0.10309755933E+02  0.11431189102E+03 -0.17584705134E+03  0.21003132472E+03  0.41800000000E+01 0. -1.
        -11    1    1    2    0    0  0.18860499724E+02 -0.35983147081E+02 -0.50995916667E+01  0.40945221441E+02  0.00000000000E+00 0.  1.
         11    1    1    2    0    0  0.45943850591E+02 -0.65426379944E+02 -0.18711601874E+03  0.20347936767E+03  0.00000000000E+00 0. -1.
</event>
<event>
 7    1  0.4966153E-006  0.1842007E+03  0.7561462E-02  0.1163798E+00
         -1   -1    0    0    0  501 -0.00000000000E+00  0.00000000000E+00  0.11405887915E+03  0.11405887915E+03  0.00000000000E+00 0.  1.
          1   -1    0    0  501    0  0.00000000000E+00 -0.00000000000E+00 -0.32792244324E+03  0.32792244324E+03  0.00000000000E+00 0. -1.
         23    2    1    2    0    0  0.15327889398E+03 -0.42342978895E+02 -0.10522035037E+03  0.22785880053E+03  0.12474359161E+03 0.  0.
          5    1    3    3  502    0  0.44807718722E+02  0.40627224371E+02 -0.10308240751E+02  0.61498253996E+02  0.41800000000E+01 0.  1.
         -5    1    3    3    0  502  0.10847117526E+03 -0.82970203266E+02 -0.94912109616E+02  0.16636054653E+03  0.41800000000E+01 0.  1.
        -11    1    1    2    0    0 -0.11589437467E+03  0.16786986343E+01 -0.10867433065E+03  0.15888497176E+03  0.00000000000E+00 0.  1.
         11    1    1    2    0    0 -0.37384519307E+02  0.40664280261E+02  0.31116927624E-01  0.55237550101E+02  0.00000000000E+00 0. -1.
</event>
<event>
 6    1  0.4966153E-006  0.1386300E+03  0.7561462E-02  0.1215184E+00
          1   -1    0    0  501    0  0.00000000000E+00  0.00000000000E+00  0.23640167873E+03  0.23640167873E+03  0.00000000000E+00 0. -1.
         -1   -1    0    0    0  501 -0.00000000000E+00 -0.00000000000E+00 -0.11296451616E+03  0.11296451616E+03  0.00000000000E+00 0.  1.
          5    1    1    2  502    0  0.34771049262E+02 -0.33564078560E+02 -0.28131712359E+01  0.48589706407E+02  0.41800000000E+01 0. -1.
         -5    1    1    2    0  502 -0.57674332648E+02  0.12250247224E+03  0.18685539453E+02  0.13674723447E+03  0.41800000000E+01 0.  1.
        -11    1    1    2    0    0 -0.24132831918E+01 -0.13503636664E+02 -0.13441734580E+02  0.19205529606E+02  0.00000000000E+00 0.  1.
         11    1    1    2    0    0  0.25316566577E+02 -0.75434757014E+02  0.12100652893E+03  0.14482372441E+03  0.00000000000E+00 0. -1.
</event>
<event>
 7    1  0.4966153E-006  0.1147411E+03  0.7561462E-02  0.1252034E+00
          1   -1    0    0  501    0  0.00000000000E+00  0.00000000000E+00  0.49407853656E+03  0.49407853656E+03  0.00000000000E+00 0. -1.
         -1   -1    0    0    0  501 -0.00000000000E+00 -0.00000000000E+00 -0.28845342214E+02  0.28845342214E+02  0.00000000000E+00 0.  1.
         23    2    1    2    0    0 -0.33922611914E+02 -0.14974371914E+02  0.19499679631E+03  0.23463319742E+03  0.12511599158E+03 0.  0.
          5    1    3    3  502    0  0.43501498964E+02  0.15924605866E+02  0.79988348182E+02  0.92528815669E+02  0.41800000000E+01 0.  1.
         -5    1    3    3    0  502 -0.77424110878E+02 -0.30898977780E+02  0.11500844812E+03  0.14210438175E+03  0.41800000000E+01 0.  1.
        -11    1    1    2    0    0  0.61630000739E+02 -0.97149955896E+01  0.15002718040E+03  0.16248320833E+03  0.00000000000E+00 0. -1.
         11    1    1    2    0    0 -0.27707388826E+02  0.24689367504E+02  0.12020921765E+03  0.12580747303E+03  0.00000000000E+00 0.  1.
</event>
<event>
 7    1  0.4966153E-006  0.1072817E+03  0.7561462E-02  0.1265688E+00
          1   -1    0    0  501    0  0.00000000000E+00  0.00000000000E+00  0.45563749880E+03  0.45563749880E+03  0.00000000000E+00 0. -1.
         -1   -1    0    0    0  501 -0.00000000000E+00 -0.00000000000E+00 -0.34419042050E+02  0.34419042050E+02  0.00000000000E+00 0.  1.
         23    2    1    2    0    0 -0.11795978540E+02 -0.58856337901E+02  0.19939708975E+03  0.24291864166E+03  0.12508818268E+03 0.  0.
          5    1    3    3  502    0  0.12904073306E+02  0.30307645690E+02  0.10724326103E+03  0.11226601414E+03  0.41800000000E+01 0.  1.
         -5    1    3    3    0  502 -0.24700051846E+02 -0.89163983592E+02  0.92153828721E+02  0.13065262752E+03  0.41800000000E+01 0.  1.
        -11    1    1    2    0    0  0.37126559574E+02  0.49194686178E+02  0.71523747515E+02  0.94414750079E+02  0.00000000000E+00 0.  1.
         11    1    1    2    0    0 -0.25330581034E+02  0.96616517230E+01  0.15029761948E+03  0.15272314910E+03  0.00000000000E+00 0. -1.
</event>
<event>
 7    1  0.4966153E-006  0.1032360E+03  0.7561462E-02  0.1273635E+00
         -1   -1    0    0    0  501 -0.00000000000E+00  0.00000000000E+00  0.50619671097E+02  0.50619671097E+02  0.00000000000E+00 0.  1.
          1   -1    0    0  501    0  0.00000000000E+00 -0.00000000000E+00 -0.27006511312E+03  0.27006511312E+03  0.00000000000E+00 0. -1.
         23    2    1    2    0    0 -0.12107677346E+02 -0.13771321600E+02 -0.68080140927E+02  0.14359135848E+03  0.12508927808E+03 0.  0.
          5    1    3    3  502    0  0.39521302065E+02 -0.45901711085E+02 -0.14469854296E+02  0.62415939317E+02  0.41800000000E+01 0. -1.
         -5    1    3    3    0  502 -0.51628979410E+02  0.32130389486E+02 -0.53610286631E+02  0.81175419162E+02  0.41800000000E+01 0. -1.
        -11    1    1    2    0    0  0.25588379167E+02 -0.29750374703E+02 -0.36783538783E+02  0.53785487529E+02  0.00000000000E+00 0.  1.
         11    1    1    2    0    0 -0.13480701822E+02  0.43521696303E+02 -0.11458176231E+03  0.12330793821E+03  0.00000000000E+00 0. -1.
</event>
<event>
 7    1  0.4966153E-006  0.1947866E+03  0.7561462E-02  0.1154214E+00
          1   -1    0    0  501    0  0.00000000000E+00  0.00000000000E+00  0.11045741602E+03  0.11045741602E+03  0.00000000000E+00 0. -1.
         -1   -1    0    0    0  501 -0.00000000000E+00 -0.00000000000E+00 -0.36363341536E+03  0.36363341536E+03  0.00000000000E+00 0.  1.
         23    2    1    2    0    0 -0.57509190172E+02  0.15454927738E+03 -0.17117046794E+03  0.26870954149E+03  0.12535031911E+03 0.  0.
          5    1    3    3  502    0  0.20205388446E+02 -0.78337263415E+01 -0.40843432917E+02  0.46425029920E+02  0.41800000000E+01 0. -1.
         -5    1    3    3    0  502 -0.77714578618E+02  0.16238300372E+03 -0.13032703502E+03  0.22228451157E+03  0.41800000000E+01 0. -1.
        -11    1    1    2    0    0  0.73373641886E+02 -0.70002020843E+02 -0.54144868792E+02  0.11495930176E+03  0.00000000000E+00 0.  1.
         11    1    1    2    0    0 -0.15864451714E+02 -0.84547256532E+02 -0.27860662612E+02  0.90421988125E+02  0.00000000000E+00 0. -1.
</event>
<event>
 6    1  0.4966153E-006  0.9600986E+02  0.7561462E-02  0.1288918E+00
          1   -1    0    0  501    0  0.00000000000E+00  0.00000000000E+00  0.47373074306E+02  0.47373074306E+02  0.00000000000E+00 0. -1.
         -1   -1    0    0    0  501 -0.00000000000E+00 -0.00000000000E+00 -0.71304509554E+03  0.71304509554E+03  0.00000000000E+00 0.  1.
          5    1    1    2  502    0 -0.41535800396E-01  0.64733300550E+02 -0.46503740710E+03  0.46953984317E+03  0.41800000000E+01 0. -1.
         -5    1    1    2    0  502  0.21874162215E+02 -0.63363000312E+02 -0.18415105424E+03  0.19601640737E+03  0.41800000000E+01 0.  1.
        -11    1    1    2    0    0 -0.34268674896E+02 -0.18404523640E+02 -0.44943497247E+02  0.59438930966E+02  0.00000000000E+00 0.  1.
         11    1    1    2    0    0  0.12436048481E+02  0.17034223401E+02  0.28459937352E+02  0.35422988338E+02  0.00000000000E+00 0. -1.
</event>
<event>
 6    1  0.4966153E-006  0.3148623E+03  0.7561462E-02  0.1078038E+00
          2   -1    0    0  501    0  0.00000000000E+00  0.00000000000E+00  0.35342632429E+03  0.35342632429E+03  0.00000000000E+00 0. -1.
         -2   -1    0    0    0  501 -0.00000000000E+00 -0.00000000000E+00 -0.64367845253E+03  0.64367845253E+03  0.00000000000E+00 0.  1.
          5    1    1    2  502    0 -0.41364275992E+02 -0.13150599375E+03 -0.24672100720E+03  0.28265448433E+03  0.41800000000E+01 0. -1.
         -5    1    1    2    0  502  0.12941899377E+03 -0.14205247979E+03 -0.27470730319E+03  0.33527564449E+03  0.41800000000E+01 0.  1.
        -11    1    1    2    0    0 -0.65223268148E+02  0.73634400163E+02  0.61927308234E+02  0.11623721908E+03  0.00000000000E+00 0.  1.
         11    1    1    2    0    0 -0.22831449632E+02  0.19992407338E+03  0.16924887391E+03  0.26293742892E+03  0.00000000000E+00 0. -1.
</event>
<event>
 7    1  0.4966153E-006  0.9278804E+02  0.7561462E-02  0.1296237E+00
         -2   -1    0    0    0  501 -0.00000000000E+00  0.00000000000E+00  0.12050619302E+03  0.12050619302E+03  0.00000000000E+00 0.  1.
          2   -1    0    0  501    0  0.00000000000E+00 -0.00000000000E+00 -0.12075676867E+03  0.12075676867E+03  0.00000000000E+00 0. -1.
         23    2    1    2    0    0 -0.71738789028E+01 -0.45594801738E+02  0.29697554069E+02  0.13659885934E+03  0.12508778187E+03 0.  0.
          5    1    3    3  502    0 -0.50662058043E+02 -0.49828027623E+02  0.51237406470E+02  0.87705305904E+02  0.41800000000E+01 0.  1.
         -5    1    3    3    0  502  0.43488179141E+02  0.42332258849E+01 -0.21539852401E+02  0.48893553438E+02  0.41800000000E+01 0.  1.
        -11    1    1    2    0    0  0.30086822483E+02  0.19896258363E+02  0.22067868706E+02  0.42285562704E+02  0.00000000000E+00 0.  1.
         11    1    1    2    0    0 -0.22912943580E+02  0.25698543375E+02 -0.52015998427E+02  0.62378539639E+02  0.00000000000E+00 0. -1.
</event>
<event>
 7    1  0.4966153E-006  0.1203599E+03  0.7561462E-02  0.1242505E+00
          3   -1    0    0  501    0  0.00000000000E+00  0.00000000000E+00  0.48894228668E+03  0.48894228668E+03  0.00000000000E+00 0. -1.
         -3   -1    0    0    0  501 -0.00000000000E+00 -0.00000000000E+00 -0.38161135655E+02  0.38161135655E+02  0.00000000000E+00 0.  1.
         23    2    1    2    0    0  0.26322170215E+02  0.44568059044E+02  0.12375639124E+03  0.18341870387E+03  0.12509039941E+03 0.  0.
          5    1    3    3  502    0 -0.36073215305E+02  0.60591501655E+02  0.69384960596E+02  0.99016928311E+02  0.41800000000E+01 0. -1.
         -5    1    3    3    0  502  0.62395385520E+02 -0.16023442611E+02  0.54371430642E+02  0.84401775558E+02  0.41800000000E+01 0. -1.
        -11    1    1    2    0    0 -0.52838276091E+02  0.94856806840E+00  0.15365889034E+03  0.16249257762E+03  0.00000000000E+00 0. -1.
         11    1    1    2    0    0  0.26516105875E+02 -0.45516627112E+02  0.17336586945E+03  0.18119214085E+03  0.00000000000E+00 0.  1.
</event>
<event>
 6    1  0.4966153E-006  0.2723686E+03  0.7561462E-02  0.1099932E+00
          2   -1    0    0  501    0  0.00000000000E+00  0.00000000000E+00  0.21324824934E+04  0.21324824934E+04  0.00000000000E+00 0. -1.
         -2   -1    0    0    0  501 -0.00000000000E+00 -0.00000000000E+00 -0.35549192602E+02  0.35549192602E+02  0.00000000000E+00 0.  1.
          5    1    1    2  502    0  0.19412276781E+03 -0.11730481332E+03  0.99787466745E+03  0.10233354252E+04  0.41800000000E+01 0. -1.
         -5    1    1    2    0  502 -0.19867978596E+03  0.11170350758E+03  0.74549445155E+03  0.77957089520E+03  0.41800000000E+01 0.  1.
        -11    1    1    2    0    0  0.41902276921E+02  0.23998974009E+02  0.21937559029E+03  0.22462724941E+03  0.00000000000E+00 0. -1.
         11    1    1    2    0    0 -0.37345258770E+02 -0.18397668270E+02  0.13418859155E+03  0.14049811619E+03  0.00000000000E+00 0.  1.
</event>
<event>
 7    1  0.4966153E-006  0.1154943E+03  0.7561462E-02  0.1250721E+00
         -1   -1    0    0    0  501 -0.00000000000E+00  0.00000000000E+00  0.14022879726E+04  0.14022879726E+04  0.00000000000E+00 0.  1.
          1   -1    0    0  501    0  0.00000000000E+00 -0.00000000000E+00 -0.16420399055E+02  0.16420399055E+02  0.00000000000E+00 0. -1.
         23    2    1    2    0    0  0.61232261983E+02 -0.37572251749E+02  0.94723414654E+03  0.95815528262E+03  0.12509177923E+03 0.  0.
          5    1    3    3  502    0  0.67367252631E+02 -0.16601223306E+02  0.92158594903E+03  0.92420348474E+03  0.41800000000E+01 0.  1.
         -5    1    3    3    0  502 -0.61349906485E+01 -0.20971028444E+02  0.25648197511E+02  0.33951797888E+02  0.41800000000E+01 0.  1.
        -11    1    1    2    0    0  0.30564152482E+02 -0.14356010486E+02  0.13360907449E+03  0.13781018555E+03  0.00000000000E+00 0.  1.
         11    1    1    2    0    0 -0.91796414464E+02  0.51928262235E+02  0.30502435255E+03  0.32274290352E+03  0.00000000000E+00 0. -1.
</event>
<event>
 7    1  0.4966153E-006  0.1144543E+03  0.7561462E-02  0.1252537E+00
          2   -1    0    0  501    0  0.00000000000E+00  0.00000000000E+00  0.95636933606E+03  0.95636933606E+03  0.00000000000E+00 0.  1.
         -2   -1    0    0    0  501 -0.00000000000E+00 -0.00000000000E+00 -0.17472811221E+02  0.17472811221E+02  0.00000000000E+00 0. -1.
         23    2    1    2    0    0 -0.43867060215E+02 -0.56031060028E+02  0.47924580444E+03  0.50038769272E+03  0.12508998076E+03 0.  0.
          5    1    3    3  502    0 -0.14193925772E+02  0.26892295207E+02  0.28988531692E+03  0.29150580172E+03  0.41800000000E+01 0.  1.
         -5    1    3    3    0  502 -0.29673134443E+02 -0.82923355235E+02  0.18936048752E+03  0.20888189099E+03  0.41800000000E+01 0.  1.
        -11    1    1    2    0    0 -0.12631633892E+02  0.51875644354E+02  0.28131619028E+03  0.28633798135E+03  0.00000000000E+00 0.  1.
         11    1    1    2    0    0  0.56498694106E+02  0.41554156745E+01  0.17833453011E+03  0.18711647321E+03  0.00000000000E+00 0. -1.
</event>
<event>
 7    1  0.4966153E-006  0.1014305E+03  0.7561462E-02  0.1277316E+00
          1   -1    0    0  501    0  0.00000000000E+00  0.00000000000E+00  0.49851342264E+03  0.49851342264E+03  0.00000000000E+00 0. -1.
         -1   -1    0    0    0  501 -0.00000000000E+00 -0.00000000000E+00 -0.26828386243E+02  0.26828386243E+02  0.00000000000E+00 0.  1.
         23    2    1    2    0    0 -0.17376016757E+02  0.33981901977E+02  0.25638304411E+03  0.28781549924E+03  0.12509516646E+03 0.  0.
          5    1    3    3  502    0 -0.22609163171E+02 -0.37499461512E+02  0.16946389246E+03  0.17507960224E+03  0.41800000000E+01 0.  1.
         -5    1    3    3    0  502  0.52331464143E+01  0.71481363489E+02  0.86919151653E+02  0.11273589700E+03  0.41800000000E+01 0.  1.
        -11    1    1    2    0    0 -0.28602195233E+02  0.20342544285E+01  0.13627551795E+03  0.13925961566E+03  0.00000000000E+00 0. -1.
         11    1    1    2    0    0  0.45978211990E+02 -0.36016156406E+02  0.79026474335E+02  0.98266693980E+02  0.00000000000E+00 0.  1.
</event>
<event>
 7    1  0.5763775E-006  0.1635283E+03  0.7561462E-02  0.1184770E+00
         -1   -1    0    0    0  501 -0.00000000000E+00  0.00000000000E+00  0.35426089357E+02  0.35426089357E+02  0.00000000000E+00 0.  1.
          1   -1    0    0  501    0  0.00000000000E+00 -0.00000000000E+00 -0.85033330041E+03  0.85033330041E+03  0.00000000000E+00 0. -1.
         23    2    1    2    0    0  0.12614543611E+03 -0.24985876631E+02 -0.33041781454E+03  0.37597928504E+03  0.12509006968E+03 0.  0.
          5    1    3    3  502    0 -0.39887259957E+00 -0.49910782334E+02 -0.10186417642E+03  0.11351223780E+03  0.41800000000E+01 0.  1.
         -5    1    3    3    0  502  0.12654430871E+03  0.24924905703E+02 -0.22855363811E+03  0.26246704724E+03  0.41800000000E+01 0.  1.
        -11    1    1    2    0    0 -0.97451149852E+01 -0.20701662918E+02 -0.26424405336E+02  0.34953902658E+02  0.00000000000E+00 0.  1.
         11    1    1    2    0    0 -0.11640032112E+03  0.45687539549E+02 -0.45806499117E+03  0.47482620206E+03  0.00000000000E+00 0. -1.
</event>
<event>
 7    1  0.4966153E-006  0.1631106E+03  0.7561462E-02  0.1185229E+00
         -1   -1    0    0    0  501 -0.00000000000E+00  0.00000000000E+00  0.33081513880E+02  0.33081513880E+02  0.00000000000E+00 0.  1.
          1   -1    0    0  501    0  0.00000000000E+00 -0.00000000000E+00 -0.10991478542E+04  0.10991478542E+04  0.00000000000E+00 0. -1.
         23    2    1    2    0    0 -0.14168091573E+03  0.64282384324E+02 -0.51125831551E+03  0.54885100427E+03  0.12508658162E+03 0.  0.
          5    1    3    3  502    0 -0.11113599436E+03  0.14978200015E+02 -0.17702456693E+03  0.20959657777E+03  0.41800000000E+01 0.  1.
         -5    1    3    3    0  502 -0.30544921374E+02  0.49304184308E+02 -0.33423374858E+03  0.33925442650E+03  0.41800000000E+01 0.  1.
        -11    1    1    2    0    0  0.46209283471E+02 -0.16281467628E+02 -0.61502751790E+02  0.78631879952E+02  0.00000000000E+00 0.  1.
         11    1    1    2    0    0  0.95471632261E+02 -0.48000916696E+02 -0.49330527300E+03  0.50474648383E+03  0.00000000000E+00 0. -1.
</event>
<event>
 7    1  0.4966153E-006  0.1223474E+03  0.7561462E-02  0.1239274E+00
         -1   -1    0    0    0  501 -0.00000000000E+00  0.00000000000E+00  0.61942495398E+03  0.61942495398E+03  0.00000000000E+00 0.  1.
          1   -1    0    0  501    0  0.00000000000E+00 -0.00000000000E+00 -0.26714939040E+02  0.26714939040E+02  0.00000000000E+00 0. -1.
         23    2    1    2    0    0 -0.32442124041E+02  0.52848758658E+02  0.40111169075E+03  0.42471582365E+03  0.12508980654E+03 0.  0.
          5    1    3    3  502    0 -0.70007668948E+02  0.69012642272E+02  0.27491707151E+03  0.29199432719E+03  0.41800000000E+01 0. -1.
         -5    1    3    3    0  502  0.37565544907E+02 -0.16163883613E+02  0.12619461924E+03  0.13272149646E+03  0.41800000000E+01 0. -1.
        -11    1    1    2    0    0 -0.24109360497E+02 -0.40770894438E+02  0.12239616852E+03  0.13124156798E+03  0.00000000000E+00 0.  1.
         11    1    1    2    0    0  0.56551484538E+02 -0.12077864221E+02  0.69202155669E+02  0.90182501390E+02  0.00000000000E+00 0. -1.
</event>
<event>
 7    1  0.4966153E-006  0.9837249E+02  0.7561462E-02  0.1283756E+00
          1   -1    0    0  501    0  0.00000000000E+00  0.00000000000E+00  0.12396102212E+02  0.12396102212E+02  0.00000000000E+00 0. -1.
         -1   -1    0    0    0  501 -0.00000000000E+00 -0.00000000000E+00 -0.11568410976E+04  0.11568410976E+04  0.00000000000E+00 0.  1.
         23    2    1    2    0    0  0.31608502781E+02  0.41486194054E+02 -0.78811121312E+03  0.79967937244E+03  0.12509041814E+03 0.  0.
          5    1    3    3  502    0  0.26830384630E+02  0.76568988870E+02 -0.69892835054E+03  0.70363413162E+03  0.41800000000E+01 0.  1.
         -5    1    3    3    0  502  0.47781181511E+01 -0.35082794816E+02 -0.89182862586E+02  0.96045240820E+02  0.41800000000E+01 0.  1.
        -11    1    1    2    0    0 -0.49913919209E+02 -0.30923519155E+02 -0.33274634001E+03  0.33788724474E+03  0.00000000000E+00 0.  1.
         11    1    1    2    0    0  0.18305416428E+02 -0.10562674899E+02 -0.23587442221E+02  0.31670582599E+02  0.00000000000E+00 0. -1.
</event>
<event>
 7    1  0.4966153E-006  0.7328165E+02  0.7561462E-02  0.1349276E+00
         -2   -1    0    0    0  501 -0.00000000000E+00  0.00000000000E+00  0.52522255292E+02  0.52522255292E+02  0.00000000000E+00 0.  1.
          2   -1    0    0  501    0  0.00000000000E+00 -0.00000000000E+00 -0.25811838878E+03  0.25811838878E+03  0.00000000000E+00 0. -1.
         23    2    1    2    0    0  0.20169467810E+02 -0.24009059844E+02 -0.78114715741E+02  0.15077926758E+03  0.12509690776E+03 0.  0.
          5    1    3    3  502    0 -0.34620015178E+02 -0.10448702445E+02  0.16939374118E+02  0.40151408807E+02  0.41800000000E+01 0.  1.
         -5    1    3    3    0  502  0.54789482987E+02 -0.13560357399E+02 -0.95054089859E+02  0.11062785878E+03  0.41800000000E+01 0.  1.
        -11    1    1    2    0    0  0.78991601221E+01  0.24238661867E+02  0.36554259853E+01  0.25754059852E+02  0.00000000000E+00 0.  1.
         11    1    1    2    0    0 -0.28068627932E+02 -0.22960202320E+00 -0.13113684373E+03  0.13410731664E+03  0.00000000000E+00 0. -1.
</event>
<event>
 7    1  0.4966153E-006  0.1606541E+03  0.7561462E-02  0.1187960E+00
         -1   -1    0    0    0  501 -0.00000000000E+00  0.00000000000E+00  0.10617553572E+03  0.10617553572E+03  0.00000000000E+00 0.  1.
          1   -1    0    0  501    0  0.00000000000E+00 -0.00000000000E+00 -0.31485984708E+03  0.31485984708E+03  0.00000000000E+00 0. -1.
         23    2    1    2    0    0  0.12939256107E+03  0.12651764244E+01 -0.30775979589E+02  0.18258828399E+03  0.12508910824E+03 0.  0.
          5    1    3    3  502    0  0.62901664812E+02 -0.52014170817E+02  0.18881484403E+02  0.83881322445E+02  0.41800000000E+01 0. -1.
         -5    1    3    3    0  502  0.66490896256E+02  0.53279347241E+02 -0.49657463992E+02  0.98706961545E+02  0.41800000000E+01 0. -1.
        -11    1    1    2    0    0  0.11335345663E+02  0.69660797724E+01 -0.27115876621E+01  0.13578256013E+02  0.00000000000E+00 0.  1.
         11    1    1    2    0    0 -0.14072790673E+03 -0.82312561968E+01 -0.17519674412E+03  0.22486884280E+03  0.00000000000E+00 0. -1.
</event>
<event>
 7    1  0.4966153E-006  0.1134864E+03  0.7561462E-02  0.1254247E+00
         -2   -1    0    0    0  501 -0.00000000000E+00  0.00000000000E+00  0.20877987137E+03  0.20877987137E+03  0.00000000000E+00 0.  1.
          2   -1    0    0  501    0  0.00000000000E+00 -0.00000000000E+00 -0.84631403001E+02  0.84631403001E+02  0.00000000000E+00 0. -1.
         23    2    1    2    0    0  0.71267034772E+02  0.71918339006E+01  0.63407744838E+02  0.15747475752E+03  0.12508814664E+03 0.  0.
          5    1    3    3  502    0  0.44162739846E+01  0.47008815188E+02 -0.12152326589E+02  0.48933461177E+02  0.41800000000E+01 0. -1.
         -5    1    3    3    0  502  0.66850760788E+02 -0.39816981287E+02  0.75560071427E+02  0.10854129634E+03  0.41800000000E+01 0. -1.
        -11    1    1    2    0    0 -0.29154514935E+02  0.32583716990E+02 -0.96499818885E+01  0.44775065655E+02  0.00000000000E+00 0. -1.
         11    1    1    2    0    0 -0.42112519837E+02 -0.39775550890E+02  0.70390705420E+02  0.91161451201E+02  0.00000000000E+00 0.  1.
</event>
<event>
 7    1  0.4966153E-006  0.9094097E+02  0.7561462E-02  0.1300589E+00
         -2   -1    0    0    0  501 -0.00000000000E+00  0.00000000000E+00  0.46568327219E+02  0.46568327219E+02  0.00000000000E+00 0.  1.
          2   -1    0    0  501    0  0.00000000000E+00 -0.00000000000E+00 -0.30798813235E+03  0.30798813235E+03  0.00000000000E+00 0. -1.
         23    2    1    2    0    0 -0.89702358278E+01 -0.73233595607E+01 -0.75529735308E+02  0.14658634425E+03  0.12509483874E+03 0.  0.
          5    1    3    3  502    0  0.87412966222E+01 -0.55858020830E+02 -0.75918976750E+02  0.94750684370E+02  0.41800000000E+01 0. -1.
         -5    1    3    3    0  502 -0.17711532450E+02  0.48534661269E+02  0.38924144236E+00  0.51835659879E+02  0.41800000000E+01 0. -1.
        -11    1    1    2    0    0 -0.27690640857E+02  0.20441484783E+02 -0.25272769450E+02  0.42700571036E+02  0.00000000000E+00 0.  1.
         11    1    1    2    0    0  0.36660876684E+02 -0.13118125222E+02 -0.16061730038E+03  0.16526954429E+03  0.00000000000E+00 0. -1.
</event>
<event>
 7    1  0.4966153E-006  0.1038716E+03  0.7561462E-02  0.1272359E+00
          1   -1    0    0  501    0  0.00000000000E+00  0.00000000000E+00  0.39728997832E+03  0.39728997832E+03  0.00000000000E+00 0. -1.
         -1   -1    0    0    0  501 -0.00000000000E+00 -0.00000000000E+00 -0.30943301873E+02  0.30943301873E+02  0.00000000000E+00 0.  1.
         23    2    1    2    0    0  0.20331187108E+02  0.19726092917E+02  0.20706981516E+03  0.24357388623E+03  0.12509138177E+03 0.  0.
          5    1    3    3  502    0 -0.29098390806E+02  0.50671982261E+02  0.53826448465E+02  0.79555798583E+02  0.41800000000E+01 0.  1.
         -5    1    3    3    0  502  0.49429577915E+02 -0.30945889344E+02  0.15324336670E+03  0.16401808765E+03  0.41800000000E+01 0.  1.
        -11    1    1    2    0    0 -0.22298653309E+02 -0.52928314897E+02  0.78197713621E+02  0.97023290363E+02  0.00000000000E+00 0. -1.
         11    1    1    2    0    0  0.19674662005E+01  0.33202221981E+02  0.81079147665E+02  0.87636103597E+02  0.00000000000E+00 0.  1.
</event>
<event>
 7    1  0.4966153E-006  0.1129953E+03  0.7561462E-02  0.1255122E+00
         -1   -1    0    0    0  501 -0.00000000000E+00  0.00000000000E+00  0.49220700878E+02  0.49220700878E+02  0.00000000000E+00 0.  1.
          1   -1    0    0  501    0  0.00000000000E+00 -0.00000000000E+00 -0.26310871325E+03  0.26310871325E+03  0.00000000000E+00 0. -1.
         23    2    1    2    0    0 -0.32174137988E+02 -0.52139782020E+01 -0.11282664460E+03  0.17158034013E+03  0.12509036999E+03 0.  0.
          5    1    3    3  502    0 -0.52597551451E+02 -0.53684970259E+02 -0.54516983608E+02  0.92941661014E+02  0.41800000000E+01 0. -1.
         -5    1    3    3    0  502  0.20423413463E+02  0.48470992057E+02 -0.58309660995E+02  0.78638679121E+02  0.41800000000E+01 0. -1.
        -11    1    1    2    0    0  0.20812153965E+02 -0.43345232383E+02 -0.50625691592E+02  0.69820595616E+02  0.00000000000E+00 0.  1.
         11    1    1    2    0    0  0.11361984023E+02  0.48559210585E+02 -0.50435676182E+02  0.70928478382E+02  0.00000000000E+00 0. -1.
</event>
<event>
 7    1  0.4966153E-006  0.9898997E+02  0.7561462E-02  0.1282434E+00
          1   -1    0    0  501    0  0.00000000000E+00  0.00000000000E+00  0.44725198824E+02  0.44725198824E+02  0.00000000000E+00 0. -1.
         -1   -1    0    0    0  501 -0.00000000000E+00 -0.00000000000E+00 -0.33315744642E+03  0.33315744642E+03  0.00000000000E+00 0.  1.
         23    2    1    2    0    0 -0.38252718860E+02 -0.33909610623E+02 -0.19459418731E+03  0.23691276895E+03  0.12509048791E+03 0.  0.
          5    1    3    3  502    0 -0.62519575470E+02 -0.13799262176E+02 -0.32864683495E+02  0.72087979405E+02  0.41800000000E+01 0.  1.
         -5    1    3    3    0  502  0.24266856610E+02 -0.20110348447E+02 -0.16172950382E+03  0.16482478955E+03  0.41800000000E+01 0.  1.
        -11    1    1    2    0    0  0.37410595079E+01 -0.29551987825E+02 -0.44276498611E+02  0.53364068809E+02  0.00000000000E+00 0.  1.
         11    1    1    2    0    0  0.34511659352E+02  0.63461598448E+02 -0.49561561671E+02  0.87605807479E+02  0.00000000000E+00 0. -1.
</event>
<event>
 7    1  0.4966153E-006  0.1470683E+03  0.7561462E-02  0.1204122E+00
         -2   -1    0    0    0  501 -0.00000000000E+00  0.00000000000E+00  0.35497076695E+02  0.35497076695E+02  0.00000000000E+00 0. -1.
          2   -1    0    0  501    0  0.00000000000E+00 -0.00000000000E+00 -0.81901105068E+03  0.81901105068E+03  0.00000000000E+00 0.  1.
         23    2    1    2    0    0 -0.12120972320E+03 -0.20287255508E+01 -0.31591395873E+03  0.36075717538E+03  0.12509275575E+03 0.  0.
          5    1    3    3  502    0 -0.14133497356E+03 -0.10788844315E+02 -0.21610545134E+03  0.25847826293E+03  0.41800000000E+01 0. -1.
         -5    1    3    3    0  502  0.20125250357E+02  0.87601187638E+01 -0.99808507396E+02  0.10227891245E+03  0.41800000000E+01 0. -1.
        -11    1    1    2    0    0  0.11887730403E+03 -0.85195564349E+01 -0.46800319567E+03  0.48294035596E+03  0.00000000000E+00 0.  1.
         11    1    1    2    0    0  0.23324191701E+01  0.10548281986E+02  0.40318042712E+00  0.10810596029E+02  0.00000000000E+00 0. -1.
</event>
<event>
 7    1  0.4966153E-006  0.1242209E+03  0.7561462E-02  0.1236292E+00
         -4   -1    0    0    0  501 -0.00000000000E+00  0.00000000000E+00  0.15446862848E+03  0.15446862848E+03  0.00000000000E+00 0.  1.
          4   -1    0    0  501    0  0.00000000000E+00 -0.00000000000E+00 -0.10144545150E+03  0.10144545150E+03  0.00000000000E+00 0. -1.
         23    2    1    2    0    0 -0.56665850116E+02  0.11876597897E+02  0.30863008851E+02  0.14125144016E+03  0.12508945553E+03 0.  0.
          5    1    3    3  502    0  0.10010266300E+02  0.56390273336E+02  0.15965280160E+02  0.59602272850E+02  0.41800000000E+01 0.  1.
         -5    1    3    3    0  502 -0.66676116416E+02 -0.44513675440E+02  0.14897728692E+02  0.81649167305E+02  0.41800000000E+01 0.  1.
        -11    1    1    2    0    0  0.69835744854E+02  0.22946287503E+02  0.24163919705E+02  0.77378668798E+02  0.00000000000E+00 0. -1.
         11    1    1    2    0    0 -0.13169894738E+02 -0.34822885399E+02 -0.20037515699E+01  0.37283971024E+02  0.00000000000E+00 0.  1.
</event>
<event>
 7    1  0.4966153E-006  0.1358695E+03  0.7561462E-02  0.1218997E+00
         -1   -1    0    0    0  501 -0.00000000000E+00  0.00000000000E+00  0.17279247799E+03  0.17279247799E+03  0.00000000000E+00 0.  1.
          1   -1    0    0  501    0  0.00000000000E+00 -0.00000000000E+00 -0.12169572780E+03  0.12169572780E+03  0.00000000000E+00 0. -1.
         23    2    1    2    0    0 -0.67014132649E+02  0.60202039951E+02  0.61717694292E+02  0.16604739935E+03  0.12508990947E+03 0.  0.
          5    1    3    3  502    0  0.32844504369E+02  0.32166564711E+00 -0.21472020749E+01  0.33180533642E+02  0.41800000000E+01 0.  1.
         -5    1    3    3    0  502 -0.99858637018E+02  0.59880374304E+02  0.63864896367E+02  0.13286686570E+03  0.41800000000E+01 0.  1.
        -11    1    1    2    0    0  0.69254170999E+02 -0.77925553785E+02  0.54731710727E+01  0.10439582240E+03  0.00000000000E+00 0.  1.
         11    1    1    2    0    0 -0.22400383501E+01  0.17723513835E+02 -0.16094115173E+02  0.24044984043E+02  0.00000000000E+00 0. -1.
</event>
<event>
 7    1  0.4966153E-006  0.2239034E+03  0.7561462E-02  0.1131006E+00
          1   -1    0    0  501    0  0.00000000000E+00  0.00000000000E+00  0.32903703742E+03  0.32903703742E+03  0.00000000000E+00 0. -1.
         -1   -1    0    0    0  501 -0.00000000000E+00 -0.00000000000E+00 -0.16273333507E+03  0.16273333507E+03  0.00000000000E+00 0.  1.
         23    2    1    2    0    0 -0.19878620426E+03 -0.32742746888E+02  0.66798790175E+02  0.24636899346E+03  0.12509020780E+03 0.  0.
          5    1    3    3  502    0 -0.17020258758E+03  0.17428381833E+02  0.76855982101E+02  0.18760859174E+03  0.41800000000E+01 0.  1.
         -5    1    3    3    0  502 -0.28583616687E+02 -0.50171128722E+02 -0.10057191925E+02  0.58760401714E+02  0.41800000000E+01 0.  1.
        -11    1    1    2    0    0  0.63257758806E+02  0.51990641970E+02  0.11551367603E+02  0.82692230561E+02  0.00000000000E+00 0.  1.
         11    1    1    2    0    0  0.13552844546E+03 -0.19247895082E+02  0.87953544573E+02  0.16270914847E+03  0.00000000000E+00 0. -1.
</event>
<event>
 7    1  0.4966153E-006  0.1209269E+03  0.7561462E-02  0.1241576E+00
          1   -1    0    0  501    0  0.00000000000E+00  0.00000000000E+00  0.76981229191E+02  0.76981229191E+02  0.00000000000E+00 0. -1.
         -1   -1    0    0    0  501 -0.00000000000E+00 -0.00000000000E+00 -0.20045204122E+03  0.20045204122E+03  0.00000000000E+00 0.  1.
         23    2    1    2    0    0 -0.26469611311E+02  0.55153900195E+02 -0.53164874108E+02  0.14905772707E+03  0.12509639935E+03 0.  0.
          5    1    3    3  502    0  0.37227196251E+02  0.64575361623E+02 -0.30939910054E+02  0.80812077709E+02  0.41800000000E+01 0.  1.
         -5    1    3    3    0  502 -0.63696807563E+02 -0.94214614276E+01 -0.22224964054E+02  0.68245649358E+02  0.41800000000E+01 0.  1.
        -11    1    1    2    0    0  0.43146939738E+02 -0.68742500959E+02 -0.69492870484E+02  0.10684778376E+03  0.00000000000E+00 0. -1.
         11    1    1    2    0    0 -0.16677328426E+02  0.13588600764E+02 -0.81306744176E+00  0.21527759587E+02  0.00000000000E+00 0.  1.
</event>
<event>
 7    1  0.4966153E-006  0.1255792E+03  0.7561462E-02  0.1234167E+00
         -1   -1    0    0    0  501 -0.00000000000E+00  0.00000000000E+00  0.22428548657E+02  0.22428548657E+02  0.00000000000E+00 0.  1.
          1   -1    0    0  501    0  0.00000000000E+00 -0.00000000000E+00 -0.95317550992E+03  0.95317550992E+03  0.00000000000E+00 0. -1.
         23    2    1    2    0    0  0.39674032089E+02  0.86700901804E+02 -0.46661597272E+03  0.49241100470E+03  0.12508819434E+03 0.  0.
          5    1    3    3  502    0 -0.15220166350E+02  0.61983055051E+02 -0.86744136022E+02  0.10777555433E+03  0.41800000000E+01 0.  1.
         -5    1    3    3    0  502  0.54894198439E+02  0.24717846753E+02 -0.37987183669E+03  0.38463545037E+03  0.41800000000E+01 0.  1.
        -11    1    1    2    0    0  0.14345834653E+02 -0.68287228491E+02 -0.33215928014E+03  0.33940939282E+03  0.00000000000E+00 0.  1.
         11    1    1    2    0    0 -0.54019866741E+02 -0.18413673313E+02 -0.13197170841E+03  0.14378366106E+03  0.00000000000E+00 0. -1.
</event>
<event>
 7    1  0.4966153E-006  0.5691912E+02  0.7561462E-02  0.1411235E+00
          4   -1    0    0  501    0  0.00000000000E+00  0.00000000000E+00  0.15378827673E+03  0.15378827673E+03  0.00000000000E+00 0.  1.
         -4   -1    0    0    0  501 -0.00000000000E+00 -0.00000000000E+00 -0.80888327443E+02  0.80888327443E+02  0.00000000000E+00 0. -1.
         23    2    1    2    0    0  0.11305304970E+02 -0.18460565043E+02  0.58607088142E+02  0.13982970482E+03  0.12509577606E+03 0.  0.
          5    1    3    3  502    0 -0.32817718620E+02 -0.34943656503E+01  0.81295470481E+02  0.87838711098E+02  0.41800000000E+01 0.  1.
         -5    1    3    3    0  502  0.44123023590E+02 -0.14966199393E+02 -0.22688382339E+02  0.51990993721E+02  0.41800000000E+01 0.  1.
        -11    1    1    2    0    0  0.42253180697E+01  0.17749175643E+02 -0.36997698658E+02  0.41251863653E+02  0.00000000000E+00 0. -1.
         11    1    1    2    0    0 -0.15530623040E+02  0.71138939985E+00  0.51290559799E+02  0.53595035697E+02  0.00000000000E+00 0.  1.
</event>
<event>
 7    1  0.4966153E-006  0.1157755E+03  0.7561462E-02  0.1250233E+00
          2   -1    0    0  501    0  0.00000000000E+00  0.00000000000E+00  0.61737698213E+03  0.61737698213E+03  0.00000000000E+00 0. -1.
         -2   -1    0    0    0  501 -0.00000000000E+00 -0.00000000000E+00 -0.26986986739E+02  0.26986986739E+02  0.00000000000E+00 0.  1.
         23    2    1    2    0    0 -0.48904808086E+02  0.32305068370E+02  0.23096738422E+03  0.26912885513E+03  0.12509640440E+03 0.  0.
          5    1    3    3  502    0 -0.36013813810E+02 -0.40450378451E+02  0.50879051340E+02  0.74426998913E+02  0.41800000000E+01 0.  1.
         -5    1    3    3    0  502 -0.12890994276E+02  0.72755446820E+02  0.18008833288E+03  0.19470185622E+03  0.41800000000E+01 0.  1.
        -11    1    1    2    0    0 -0.62943309008E+01 -0.45937104902E+02  0.21668170124E+03  0.22158699389E+03  0.00000000000E+00 0. -1.
         11    1    1    2    0    0  0.55199138987E+02  0.13632036532E+02  0.14274090993E+03  0.15364811985E+03  0.00000000000E+00 0.  1.
</event>
<event>
 7    1  0.4966153E-006  0.9382261E+02  0.7561462E-02  0.1293850E+00
         -1   -1    0    0    0  501 -0.00000000000E+00  0.00000000000E+00  0.14957857914E+03  0.14957857914E+03  0.00000000000E+00 0.  1.
          1   -1    0    0  501    0  0.00000000000E+00 -0.00000000000E+00 -0.99083473809E+02  0.99083473809E+02  0.00000000000E+00 0. -1.
         23    2    1    2    0    0  0.33505667344E+02 -0.18875108203E+02  0.67000904849E+02  0.14694189896E+03  0.12499560378E+03 0.  0.
          5    1    3    3  502    0 -0.21167326857E+02 -0.43263992526E+02  0.71996409697E+02  0.86722454905E+02  0.41800000000E+01 0.  1.
         -5    1    3    3    0  502  0.54672994201E+02  0.24388884323E+02 -0.49955048479E+01  0.60219444053E+02  0.41800000000E+01 0.  1.
        -11    1    1    2    0    0 -0.53272230025E+02  0.20199499641E+01  0.19979851426E+02  0.56931583086E+02  0.00000000000E+00 0.  1.
         11    1    1    2    0    0  0.19766562682E+02  0.16855158239E+02 -0.36485650940E+02  0.44788570908E+02  0.00000000000E+00 0. -1.
</event>
<event>
 7    1  0.4966153E-006  0.1073686E+03  0.7561462E-02  0.1265522E+00
         -1   -1    0    0    0  501 -0.00000000000E+00  0.00000000000E+00  0.10799058292E+04  0.10799058292E+04  0.00000000000E+00 0.  1.
          1   -1    0    0  501    0  0.00000000000E+00 -0.00000000000E+00 -0.12271734317E+02  0.12271734317E+02  0.00000000000E+00 0. -1.
         23    2    1    2    0    0  0.27510957106E+02 -0.10914314498E+02  0.73624594487E+03  0.74737363573E+03  0.12503313569E+03 0.  0.
          5    1    3    3  502    0  0.42609684923E+02 -0.57791089290E+02  0.54993556569E+03  0.55461878265E+03  0.41800000000E+01 0.  1.
         -5    1    3    3    0  502 -0.15098727818E+02  0.46876774792E+02  0.18631037917E+03  0.19275485308E+03  0.41800000000E+01 0.  1.
        -11    1    1    2    0    0  0.24394299425E+02  0.29479287095E+02  0.10359792694E+03  0.11043840219E+03  0.00000000000E+00 0. -1.
         11    1    1    2    0    0 -0.51905256530E+02 -0.18564972597E+02  0.22779022312E+03  0.23436552564E+03  0.00000000000E+00 0.  1.
</event>
<event>
 6    1  0.4966153E-006  0.1870897E+03  0.7561462E-02  0.1161113E+00
          3   -1    0    0  501    0  0.00000000000E+00  0.00000000000E+00  0.40873395377E+03  0.40873395377E+03  0.00000000000E+00 0. -1.
         -3   -1    0    0    0  501 -0.00000000000E+00 -0.00000000000E+00 -0.14196746327E+03  0.14196746327E+03  0.00000000000E+00 0.  1.
          5    1    1    2  502    0 -0.13117638540E+02 -0.31055631698E+02 -0.13439544169E+02  0.36532430093E+02  0.41800000000E+01 0. -1.
         -5    1    1    2    0  502  0.45871261508E+02  0.16716216255E+03 -0.16002452101E+02  0.17412900992E+03  0.41800000000E+01 0.  1.
        -11    1    1    2    0    0 -0.64426086771E+02 -0.97781351587E+02  0.20058704867E+03  0.23226510170E+03  0.00000000000E+00 0. -1.
         11    1    1    2    0    0  0.31672463803E+02 -0.38325179267E+02  0.95621438099E+02  0.10777487533E+03  0.00000000000E+00 0.  1.
</event>
<event>
 7    1  0.4966153E-006  0.2644849E+03  0.7561462E-02  0.1104478E+00
         -1   -1    0    0    0  501 -0.00000000000E+00  0.00000000000E+00  0.91592191561E+02  0.91592191561E+02  0.00000000000E+00 0.  1.
          1   -1    0    0  501    0  0.00000000000E+00 -0.00000000000E+00 -0.85069912996E+03  0.85069912996E+03  0.00000000000E+00 0. -1.
         23    2    1    2    0    0 -0.13186058624E+03 -0.22002617346E+03 -0.35658941358E+03  0.45673259206E+03  0.12509963854E+03 0.  0.
          5    1    3    3  502    0 -0.44608099299E+02 -0.51060560852E+02 -0.21202107319E+02  0.71162245273E+02  0.41800000000E+01 0.  1.
         -5    1    3    3    0  502 -0.87252486943E+02 -0.16896561261E+03 -0.33538730626E+03  0.38557034679E+03  0.41800000000E+01 0.  1.
        -11    1    1    2    0    0  0.10731687064E+03  0.94710165769E+02 -0.19485329753E+03  0.24177413795E+03  0.00000000000E+00 0.  1.
         11    1    1    2    0    0  0.24543715600E+02  0.12531600769E+03 -0.20766422729E+03  0.24378459150E+03  0.00000000000E+00 0. -1.
</event>
<event>
 7    1  0.4966153E-006  0.1470650E+03  0.7561462E-02  0.1204127E+00
          4   -1    0    0  501    0  0.00000000000E+00  0.00000000000E+00  0.73592292206E+02  0.73592292206E+02  0.00000000000E+00 0. -1.
         -4   -1    0    0    0  501 -0.00000000000E+00 -0.00000000000E+00 -0.40858104469E+03  0.40858104469E+03  0.00000000000E+00 0.  1.
         23    2    1    2    0    0 -0.64675915637E+02 -0.10726657047E+03 -0.24832986980E+03  0.30496605774E+03  0.12508989142E+03 0.  0.
          5    1    3    3  502    0 -0.61389490128E+01 -0.10631357445E+03 -0.10291531180E+03  0.14815295006E+03  0.41800000000E+01 0.  1.
         -5    1    3    3    0  502 -0.58536966624E+02 -0.95299601492E+00 -0.14541455800E+03  0.15681310768E+03  0.41800000000E+01 0.  1.
        -11    1    1    2    0    0  0.23506556691E+02  0.68088251852E+02 -0.95575981919E+02  0.11968014274E+03  0.00000000000E+00 0.  1.
         11    1    1    2    0    0  0.41169358946E+02  0.39178318614E+02  0.89170992325E+01  0.57527136415E+02  0.00000000000E+00 0. -1.
</event>
<event>
 7    1  0.4966153E-006  0.1612830E+03  0.7561462E-02  0.1187256E+00
         -1   -1    0    0    0  501 -0.00000000000E+00  0.00000000000E+00  0.38727508248E+03  0.38727508248E+03  0.00000000000E+00 0.  1.
          1   -1    0    0  501    0  0.00000000000E+00 -0.00000000000E+00 -0.80602235453E+02  0.80602235453E+02  0.00000000000E+00 0. -1.
         23    2    1    2    0    0 -0.83705085429E+02  0.10779040292E+03  0.19458239813E+03  0.26857769018E+03  0.12508538568E+03 0.  0.
          5    1    3    3  502    0 -0.14004066696E+02  0.11330740800E+03  0.10803579552E+03  0.15723831627E+03  0.41800000000E+01 0. -1.
         -5    1    3    3    0  502 -0.69701018733E+02 -0.55170050816E+01  0.86546602615E+02  0.11133937391E+03  0.41800000000E+01 0. -1.
        -11    1    1    2    0    0  0.56629105454E+02 -0.54974471148E+02  0.11545434713E+03  0.13985261647E+03  0.00000000000E+00 0.  1.
         11    1    1    2    0    0  0.27075979975E+02 -0.52815931768E+02 -0.33638982273E+01  0.59447011291E+02  0.00000000000E+00 0. -1.
</event>
<event>
 7    1  0.4966153E-006  0.8369451E+02  0.7561462E-02  0.1318882E+00
         -1   -1    0    0    0  501 -0.00000000000E+00  0.00000000000E+00  0.85536716102E+02  0.85536716102E+02  0.00000000000E+00 0.  1.
          1   -1    0    0  501    0  0.00000000000E+00 -0.00000000000E+00 -0.15323090925E+03  0.15323090925E+03  0.00000000000E+00 0. -1.
         23    2    1    2    0    0  0.22384375290E+01 -0.11020197166E+02  0.93097688826E+00  0.12559812846E+03  0.12509023865E+03 0.  0.
          5    1    3    3  502    0 -0.45917220225E+02  0.34106167393E+02 -0.11019255626E+02  0.58399641797E+02  0.41800000000E+01 0.  1.
         -5    1    3    3    0  502  0.48155657754E+02 -0.45126364559E+02  0.11950232514E+02  0.67198486658E+02  0.41800000000E+01 0.  1.
        -11    1    1    2    0    0 -0.64612511358E+01  0.26804169422E+02  0.12601944792E+02  0.30315347222E+02  0.00000000000E+00 0.  1.
         11    1    1    2    0    0  0.42228136068E+01 -0.15783972256E+02 -0.81227114826E+02  0.82854149672E+02  0.00000000000E+00 0. -1.
</event>
<event>
 7    1  0.4966153E-006  0.3681807E+03  0.7561462E-02  0.1055391E+00
         -2   -1    0    0    0  501 -0.00000000000E+00  0.00000000000E+00  0.32374265846E+03  0.32374265846E+03  0.00000000000E+00 0. -1.
          2   -1    0    0  501    0  0.00000000000E+00 -0.00000000000E+00 -0.51623603479E+03  0.51623603479E+03  0.00000000000E+00 0.  1.
         23    2    1    2    0    0  0.97438082273E+02 -0.34373029003E+03  0.73290200999E+02  0.38557079393E+03  0.12509472973E+03 0.  0.
          5    1    3    3  502    0  0.11344611045E+03 -0.28142099996E+03  0.23971018321E+02  0.30440085630E+03  0.41800000000E+01 0.  1.
         -5    1    3    3    0  502 -0.16008028176E+02 -0.62309290061E+02  0.49319182677E+02  0.81169937624E+02  0.41800000000E+01 0.  1.
        -11    1    1    2    0    0 -0.70504543021E+02  0.95267534408E+02 -0.91275914167E+02  0.14959306871E+03  0.00000000000E+00 0.  1.
         11    1    1    2    0    0 -0.26933539253E+02  0.24846275562E+03 -0.17450766316E+03  0.30481483062E+03  0.00000000000E+00 0. -1.
</event>
<event>
 7    1  0.4966153E-006  0.8930872E+02  0.7561462E-02  0.1304534E+00
         -1   -1    0    0    0  501 -0.00000000000E+00  0.00000000000E+00  0.48597087989E+02  0.48597087989E+02  0.00000000000E+00 0.  1.
          1   -1    0    0  501    0  0.00000000000E+00 -0.00000000000E+00 -0.33021346768E+03  0.33021346768E+03  0.00000000000E+00 0. -1.
         23    2    1    2    0    0  0.10631335712E+02 -0.54584392778E+02 -0.10308428195E+03  0.17136286121E+03  0.12508548990E+03 0.  0.
          5    1    3    3  502    0  0.52405250952E+01  0.82279012730E+01 -0.10750423705E+03  0.10802682466E+03  0.41800000000E+01 0.  1.
         -5    1    3    3    0  502  0.53908106167E+01 -0.62812294051E+02  0.44199551010E+01  0.63336036552E+02  0.41800000000E+01 0.  1.
        -11    1    1    2    0    0  0.12593486069E+02  0.73684465465E+02 -0.11502606863E+03  0.13718233417E+03  0.00000000000E+00 0.  1.
         11    1    1    2    0    0 -0.23224821781E+02 -0.19100072687E+02 -0.63506029113E+02  0.70265360293E+02  0.00000000000E+00 0. -1.
</event>
<event>
 7    1  0.4966153E-006  0.1175140E+03  0.7561462E-02  0.1247255E+00
         -2   -1    0    0    0  501 -0.00000000000E+00  0.00000000000E+00  0.39615415281E+02  0.39615415281E+02  0.00000000000E+00 0.  1.
          2   -1    0    0  501    0  0.00000000000E+00 -0.00000000000E+00 -0.36959769407E+03  0.36959769407E+03  0.00000000000E+00 0. -1.
         23    2    1    2    0    0  0.44062382475E+02  0.28886732338E+02 -0.17009075798E+03  0.21761134322E+03  0.12509154206E+03 0.  0.
          5    1    3    3  502    0 -0.34654076194E+02  0.42939929274E+02 -0.62165826063E+02  0.83227428490E+02  0.41800000000E+01 0. -1.
         -5    1    3    3    0  502  0.78716458670E+02 -0.14053196936E+02 -0.10792493192E+03  0.13438391473E+03  0.41800000000E+01 0. -1.
        -11    1    1    2    0    0 -0.23806508179E+02 -0.58832887538E+02 -0.68825079273E+02  0.93621311808E+02  0.00000000000E+00 0.  1.
         11    1    1    2    0    0 -0.20255874296E+02  0.29946155200E+02 -0.91066441540E+02  0.97980454324E+02  0.00000000000E+00 0. -1.
</event>
<event>
 7    1  0.4966153E-006  0.1328088E+03  0.7561462E-02  0.1223347E+00
          4   -1    0    0  501    0  0.00000000000E+00  0.00000000000E+00  0.41641721195E+02  0.41641721195E+02  0.00000000000E+00 0. -1.
         -4   -1    0    0    0  501 -0.00000000000E+00 -0.00000000000E+00 -0.62230939998E+03  0.62230939998E+03  0.00000000000E+00 0.  1.
         23    2    1    2    0    0 -0.63196388499E+01 -0.95005430068E+02 -0.47308140627E+03  0.49851847278E+03  0.12509468881E+03 0.  0.
          5    1    3    3  502    0 -0.59691202759E+02 -0.70771256224E+02 -0.22037673832E+03  0.23907109735E+03  0.41800000000E+01 0. -1.
         -5    1    3    3    0  502  0.53371563910E+02 -0.24234173844E+02 -0.25270466795E+03  0.25944737543E+03  0.41800000000E+01 0. -1.
        -11    1    1    2    0    0  0.15688667521E+02 -0.27879189375E+01  0.43323302917E+01  0.16512899998E+02  0.00000000000E+00 0. -1.
         11    1    1    2    0    0 -0.93690286707E+01  0.97793349005E+02 -0.11191860281E+03  0.14891974839E+03  0.00000000000E+00 0.  1.
</event>
<event>
 7    1  0.4966153E-006  0.9439184E+02  0.7561462E-02  0.1292552E+00
          1   -1    0    0  501    0  0.00000000000E+00  0.00000000000E+00  0.15782246958E+03  0.15782246958E+03  0.00000000000E+00 0. -1.
         -1   -1    0    0    0  501 -0.00000000000E+00 -0.00000000000E+00 -0.80248916906E+02  0.80248916906E+02  0.00000000000E+00 0.  1.
         23    2    1    2    0    0 -0.18465233254E+02 -0.13673337860E+02  0.22182328653E+02  0.12910285850E+03  0.12509023687E+03 0.  0.
          5    1    3    3  502    0 -0.42530375334E+02 -0.58235623305E+02 -0.31891739408E+01  0.72303968620E+02  0.41800000000E+01 0. -1.
         -5    1    3    3    0  502  0.24065142079E+02  0.44562285445E+02  0.25371502594E+02  0.56798889877E+02  0.41800000000E+01 0. -1.
        -11    1    1    2    0    0  0.16665890380E+02  0.37919302043E+02  0.69464807488E+02  0.80876355314E+02  0.00000000000E+00 0. -1.
         11    1    1    2    0    0  0.17993428746E+01 -0.24245964183E+02 -0.14073583467E+02  0.28092172674E+02  0.00000000000E+00 0.  1.
</event>
<event>
 7    1  0.5969509E-006  0.2183635E+03  0.7561462E-02  0.1135109E+00
         -2   -1    0    0    0  501 -0.00000000000E+00  0.00000000000E+00  0.20084945802E+03  0.20084945802E+03  0.00000000000E+00 0.  1.
          2   -1    0    0  501    0  0.00000000000E+00 -0.00000000000E+00 -0.25464977163E+03  0.25464977163E+03  0.00000000000E+00 0. -1.
         23    2    1    2    0    0 -0.15364646754E+03 -0.12265684723E+03 -0.13406177584E+02  0.23340840626E+03  0.12509124411E+03 0.  0.
          5    1    3    3  502    0 -0.12686640874E+03 -0.27745115685E+02  0.14746007808E+02  0.13076618162E+03  0.41800000000E+01 0. -1.
         -5    1    3    3    0  502 -0.26780058802E+02 -0.94911731549E+02 -0.28152185392E+02  0.10264222463E+03  0.41800000000E+01 0. -1.
        -11    1    1    2    0    0  0.10062974654E+03  0.36731753088E+02  0.12943605500E+02  0.10790321819E+03  0.00000000000E+00 0.  1.
         11    1    1    2    0    0  0.53016720999E+02  0.85925094146E+02 -0.53337741535E+02  0.11418760520E+03  0.00000000000E+00 0. -1.
</event>
<event>
 7    1  0.4966153E-006  0.1307146E+03  0.7561462E-02  0.1226399E+00
          1   -1    0    0  501    0  0.00000000000E+00  0.00000000000E+00  0.15970503799E+02  0.15970503799E+02  0.00000000000E+00 0. -1.
         -1   -1    0    0    0  501 -0.00000000000E+00 -0.00000000000E+00 -0.13315798212E+04  0.13315798212E+04  0.00000000000E+00 0.  1.
         23    2    1    2    0    0 -0.57402265544E+02  0.46952502863E+02 -0.10064791296E+04  0.10169303851E+04  0.12509041631E+03 0.  0.
          5    1    3    3  502    0 -0.76641365408E+02 -0.15838803934E+02 -0.48027316938E+03  0.48662568389E+03  0.41800000000E+01 0. -1.
         -5    1    3    3    0  502  0.19239099864E+02  0.62791306797E+02 -0.52620596022E+03  0.53030470123E+03  0.41800000000E+01 0. -1.
        -11    1    1    2    0    0 -0.12468450725E+02  0.17971270660E+02 -0.57167222282E+02  0.61208824005E+02  0.00000000000E+00 0.  1.
         11    1    1    2    0    0  0.69870716269E+02 -0.64923773523E+02 -0.25196296548E+03  0.26941111584E+03  0.00000000000E+00 0. -1.
</event>
<event>
 7    1  0.4966153E-006  0.1878511E+03  0.7561462E-02  0.1160414E+00
         -1   -1    0    0    0  501 -0.00000000000E+00  0.00000000000E+00  0.25252073244E+02  0.25252073244E+02  0.00000000000E+00 0.  1.
          1   -1    0    0  501    0  0.00000000000E+00 -0.00000000000E+00 -0.16214442067E+04  0.16214442067E+04  0.00000000000E+00 0. -1.
         23    2    1    2    0    0 -0.14673474460E+03  0.86123947598E+02 -0.85765817148E+03  0.88327424462E+03  0.12508969775E+03 0.  0.
          5    1    3    3  502    0 -0.13340963430E+03  0.22241713223E+02 -0.69337412380E+03  0.70645450830E+03  0.41800000000E+01 0.  1.
         -5    1    3    3    0  502 -0.13325110297E+02  0.63882234375E+02 -0.16428404768E+03  0.17681973632E+03  0.41800000000E+01 0.  1.
        -11    1    1    2    0    0  0.22191043478E+02 -0.32604096281E+02 -0.62293712101E+02  0.73729072097E+02  0.00000000000E+00 0.  1.
         11    1    1    2    0    0  0.12454370112E+03 -0.53519851316E+02 -0.67624024987E+03  0.68969296322E+03  0.00000000000E+00 0. -1.
</event>
<event>
 7    1  0.4966153E-006  0.1277473E+03  0.7561462E-02  0.1230837E+00
         -2   -1    0    0    0  501 -0.00000000000E+00  0.00000000000E+00  0.10958662747E+03  0.10958662747E+03  0.00000000000E+00 0. -1.
          2   -1    0    0  501    0  0.00000000000E+00 -0.00000000000E+00 -0.24268334158E+03  0.24268334158E+03  0.00000000000E+00 0.  1.
         23    2    1    2    0    0  0.72180645763E+02  0.94220334868E+02 -0.78198115264E+02  0.18933884525E+03  0.12508691364E+03 0.  0.
          5    1    3    3  502    0  0.49915324128E+02  0.13880301232E+02 -0.91089786319E+02  0.10487623142E+03  0.41800000000E+01 0.  1.
         -5    1    3    3    0  502  0.22265321635E+02  0.80340033637E+02  0.12891671055E+02  0.84462613829E+02  0.41800000000E+01 0.  1.
        -11    1    1    2    0    0 -0.66949253832E+02 -0.76944466433E+02 -0.81656625934E+02  0.13065396306E+03  0.00000000000E+00 0.  1.
         11    1    1    2    0    0 -0.52313919310E+01 -0.17275868436E+02  0.26758027092E+02  0.32277160743E+02  0.00000000000E+00 0. -1.
</event>
<event>
 7    1  0.4966153E-006  0.1075973E+03  0.7561462E-02  0.1265085E+00
          2   -1    0    0  501    0  0.00000000000E+00  0.00000000000E+00  0.38183563842E+03  0.38183563842E+03  0.00000000000E+00 0. -1.
         -2   -1    0    0    0  501 -0.00000000000E+00 -0.00000000000E+00 -0.62513010186E+02  0.62513010186E+02  0.00000000000E+00 0.  1.
         23    2    1    2    0    0 -0.16956370527E+02 -0.93530596348E+02  0.92874218184E+02  0.18250684588E+03  0.12509051697E+03 0.  0.
          5    1    3    3  502    0 -0.10314358702E+02 -0.16081926818E+02  0.10224586886E+03  0.10409949311E+03  0.41800000000E+01 0.  1.
         -5    1    3    3    0  502 -0.66420118246E+01 -0.77448669530E+02 -0.93716506776E+01  0.78407352777E+02  0.41800000000E+01 0.  1.
        -11    1    1    2    0    0 -0.20557203733E+02  0.43077393367E+01  0.72400973950E+01  0.22216531093E+02  0.00000000000E+00 0.  1.
         11    1    1    2    0    0  0.37513574260E+02  0.89222857011E+02  0.21920831266E+03  0.23962527163E+03  0.00000000000E+00 0. -1.
</event>
<event>
 7    1  0.9110873E-006  0.1876477E+03  0.7561462E-02  0.1160600E+00
         -2   -1    0    0    0  501 -0.00000000000E+00  0.00000000000E+00  0.76745563626E+02  0.76745563626E+02  0.00000000000E+00 0. -1.
          2   -1    0    0  501    0  0.00000000000E+00 -0.00000000000E+00 -0.59787843938E+03  0.59787843938E+03  0.00000000000E+00 0.  1.
         23    2    1    2    0    0  0.16530432645E+03 -0.50246371785E+02 -0.17045333304E+03  0.27304205915E+03  0.12508960428E+03 0.  0.
          5    1    3    3  502    0  0.49046585534E+02 -0.42386953595E+02  0.18611770201E+01  0.64985827436E+02  0.41800000000E+01 0. -1.
         -5    1    3    3    0  502  0.11625774092E+03 -0.78594181891E+01 -0.17231451006E+03  0.20805623171E+03  0.41800000000E+01 0. -1.
        -11    1    1    2    0    0 -0.13784462617E+03  0.74861378387E+02 -0.30408932458E+03  0.34216324212E+03  0.00000000000E+00 0.  1.
         11    1    1    2    0    0 -0.27459700287E+02 -0.24615006602E+02 -0.46590218143E+02  0.59418701740E+02  0.00000000000E+00 0. -1.
</event>
<event>
 7    1  0.4966153E-006  0.1326423E+03  0.7561462E-02  0.1223587E+00
          1   -1    0    0  501    0  0.00000000000E+00  0.00000000000E+00  0.38384715484E+03  0.38384715484E+03  0.00000000000E+00 0. -1.
         -1   -1    0    0    0  501 -0.00000000000E+00 -0.00000000000E+00 -0.79985201797E+02  0.79985201797E+02  0.00000000000E+00 0.  1.
         23    2    1    2    0    0 -0.71093627850E+02  0.98953476589E+02  0.77051890942E+02  0.19088495378E+03  0.12511585524E+03 0.  0.
          5    1    3    3  502    0 -0.11452003730E+02  0.32348384836E+02 -0.33842641568E+02  0.48377300247E+02  0.41800000000E+01 0.  1.
         -5    1    3    3    0  502 -0.59641624120E+02  0.66605091753E+02  0.11089453251E+03  0.14250765353E+03  0.41800000000E+01 0.  1.
        -11    1    1    2    0    0  0.80746856571E+02 -0.10288615527E+03  0.16641321168E+03  0.21165767837E+03  0.00000000000E+00 0.  1.
         11    1    1    2    0    0 -0.96532287208E+01  0.39326786843E+01  0.60396850415E+02  0.61289724477E+02  0.00000000000E+00 0. -1.
</event>
<event>
 7    1  0.4966153E-006  0.8333809E+02  0.7561462E-02  0.1319837E+00
         -2   -1    0    0    0  501 -0.00000000000E+00  0.00000000000E+00  0.88109409538E+02  0.88109409538E+02  0.00000000000E+00 0.  1.
          2   -1    0    0  501    0  0.00000000000E+00 -0.00000000000E+00 -0.13253169936E+03  0.13253169936E+03  0.00000000000E+00 0. -1.
         23    2    1    2    0    0  0.52077488182E+01 -0.13647837298E+01 -0.20529542600E+02  0.12687709468E+03  0.12508937506E+03 0.  0.
          5    1    3    3  502    0 -0.25335319020E+02  0.35403062434E+02  0.33150401193E+02  0.54878745601E+02  0.41800000000E+01 0.  1.
         -5    1    3    3    0  502  0.30543067838E+02 -0.36767846164E+02 -0.53679943792E+02  0.71998349078E+02  0.41800000000E+01 0.  1.
        -11    1    1    2    0    0 -0.25279424442E+02  0.30478466155E+02  0.13938198833E+02  0.41979275673E+02  0.00000000000E+00 0.  1.
         11    1    1    2    0    0  0.20071675624E+02 -0.29113682425E+02 -0.37830946053E+02  0.51784738543E+02  0.00000000000E+00 0. -1.
</event>
<event>
 7    1  0.4966153E-006  0.1041832E+03  0.7561462E-02  0.1271737E+00
          2   -1    0    0  501    0  0.00000000000E+00  0.00000000000E+00  0.15967551157E+03  0.15967551157E+03  0.00000000000E+00 0.  1.
         -2   -1    0    0    0  501 -0.00000000000E+00 -0.00000000000E+00 -0.10112132462E+03  0.10112132462E+03  0.00000000000E+00 0. -1.
         23    2    1    2    0    0  0.57672544216E+02 -0.34206310160E+01  0.18561264403E+00  0.13778689332E+03  0.12508944978E+03 0.  0.
          5    1    3    3  502    0  0.52805617368E+02 -0.48626353349E+02 -0.35164059469E+02  0.80043356651E+02  0.41800000000E+01 0.  1.
         -5    1    3    3    0  502  0.48669268487E+01  0.45205722333E+02  0.35349672113E+02  0.57743536669E+02  0.41800000000E+01 0.  1.
        -11    1    1    2    0    0 -0.69327178476E+02  0.18491040549E+02  0.70365429317E+02  0.10049611883E+03  0.00000000000E+00 0.  1.
         11    1    1    2    0    0  0.11654634260E+02 -0.15070409533E+02 -0.11996855011E+02  0.22513824050E+02  0.00000000000E+00 0. -1.
</event>
<event>
 7    1  0.4966153E-006  0.1590392E+03  0.7561462E-02  0.1189786E+00
          2   -1    0    0  501    0  0.00000000000E+00  0.00000000000E+00  0.21628340429E+03  0.21628340429E+03  0.00000000000E+00 0. -1.
         -2   -1    0    0    0  501 -0.00000000000E+00 -0.00000000000E+00 -0.12228465387E+03  0.12228465387E+03  0.00000000000E+00 0.  1.
         23    2    1    2    0    0  0.88470999988E+02  0.82660274156E+02  0.30678449827E+02  0.17676784447E+03  0.12508343133E+03 0.  0.
          5    1    3    3  502    0  0.83486868687E+02  0.11270767780E+03  0.12092845160E+02  0.14084312970E+03  0.41800000000E+01 0.  1.
         -5    1    3    3    0  502  0.49841313015E+01 -0.30047403647E+02  0.18585604667E+02  0.35924714774E+02  0.41800000000E+01 0.  1.
        -11    1    1    2    0    0 -0.27523630028E+02  0.15411587432E+02  0.34455095885E+01  0.31732298584E+02  0.00000000000E+00 0.  1.
         11    1    1    2    0    0 -0.60947369960E+02 -0.98071861588E+02  0.59874791002E+02  0.13006791510E+03  0.00000000000E+00 0. -1.
</event>
<event>
 7    1  0.4966153E-006  0.1213830E+03  0.7561462E-02  0.1240833E+00
         -2   -1    0    0    0  501 -0.00000000000E+00  0.00000000000E+00  0.21550711575E+03  0.21550711575E+03  0.00000000000E+00 0. -1.
          2   -1    0    0  501    0  0.00000000000E+00 -0.00000000000E+00 -0.90509823463E+02  0.90509823463E+02  0.00000000000E+00 0.  1.
         23    2    1    2    0    0 -0.51947139768E+01  0.61819107943E+02  0.13659450916E+03  0.19531460205E+03  0.12506457005E+03 0.  0.
          5    1    3    3  502    0 -0.39063879470E+02 -0.19960588882E+02  0.18798383447E+02  0.47908907397E+02  0.41800000000E+01 0. -1.
         -5    1    3    3    0  502  0.33869165494E+02  0.81779696825E+02  0.11779612571E+03  0.14740569466E+03  0.41800000000E+01 0. -1.
        -11    1    1    2    0    0 -0.42742603857E+02 -0.34351828493E+02 -0.64607226847E+01  0.55215208438E+02  0.00000000000E+00 0. -1.
         11    1    1    2    0    0  0.47937317834E+02 -0.27467279451E+02 -0.51364941859E+01  0.55487128724E+02  0.00000000000E+00 0.  1.
</event>
<event>
 7    1  0.8082260E-006  0.4317043E+03  0.7561462E-02  0.1033323E+00
         -1   -1    0    0    0  501 -0.00000000000E+00  0.00000000000E+00  0.65144516608E+03  0.65144516608E+03  0.00000000000E+00 0.  1.
          1   -1    0    0  501    0  0.00000000000E+00 -0.00000000000E+00 -0.29636838378E+03  0.29636838378E+03  0.00000000000E+00 0. -1.
         23    2    1    2    0    0 -0.41042422062E+03  0.11160938342E+03  0.18206282048E+03  0.47926941365E+03  0.12509038699E+03 0.  0.
          5    1    3    3  502    0 -0.34719286590E+03  0.76514954102E+02  0.19526280905E+03  0.40563833809E+03  0.41800000000E+01 0. -1.
         -5    1    3    3    0  502 -0.63231354722E+02  0.35094429322E+02 -0.13199988568E+02  0.73631075557E+02  0.41800000000E+01 0. -1.
        -11    1    1    2    0    0  0.30529030285E+02  0.16253335809E+02  0.12936381826E+02  0.36926177568E+02  0.00000000000E+00 0. -1.
         11    1    1    2    0    0  0.37989519034E+03 -0.12786271923E+03  0.16007757999E+03  0.43161795865E+03  0.00000000000E+00 0.  1.
</event>
<event>
 7    1  0.4966153E-006  0.9800034E+02  0.7561462E-02  0.1284558E+00
          1   -1    0    0  501    0  0.00000000000E+00  0.00000000000E+00  0.42329104359E+03  0.42329104359E+03  0.00000000000E+00 0.  1.
         -1   -1    0    0    0  501 -0.00000000000E+00 -0.00000000000E+00 -0.29519665354E+02  0.29519665354E+02  0.00000000000E+00 0. -1.
         23    2    1    2    0    0  0.20533112999E+02 -0.52637419156E+01  0.17628901424E+03  0.21719937571E+03  0.12509371110E+03 0.  0.
          5    1    3    3  502    0 -0.43989252238E+02 -0.34358156287E+02  0.77226892499E+02  0.95378207894E+02  0.41800000000E+01 0.  1.
         -5    1    3    3    0  502  0.64522365237E+02  0.29094414371E+02  0.99062121740E+02  0.12182116781E+03  0.41800000000E+01 0.  1.
        -11    1    1    2    0    0 -0.41752647394E+02 -0.10064581220E+02  0.19896344565E+03  0.20354614235E+03  0.00000000000E+00 0.  1.
         11    1    1    2    0    0  0.21219534395E+02  0.15328323136E+02  0.18518918344E+02  0.32065190889E+02  0.00000000000E+00 0. -1.
</event>
<event>
 7    1  0.4966153E-006  0.9261363E+02  0.7561462E-02  0.1296643E+00
         -1   -1    0    0    0  501 -0.00000000000E+00  0.00000000000E+00  0.36250088721E+02  0.36250088721E+02  0.00000000000E+00 0. -1.
          1   -1    0    0  501    0  0.00000000000E+00 -0.00000000000E+00 -0.35898886134E+03  0.35898886134E+03  0.00000000000E+00 0.  1.
         23    2    1    2    0    0 -0.15184140107E+02  0.33132909139E+02 -0.18916445835E+03  0.22969553163E+03  0.12509395337E+03 0.  0.
          5    1    3    3  502    0 -0.40192194223E+02  0.69826097416E+02 -0.89427578019E+02  0.12044027760E+03  0.41800000000E+01 0.  1.
         -5    1    3    3    0  502  0.25008054116E+02 -0.36693188277E+02 -0.99736880329E+02  0.10925525404E+03  0.41800000000E+01 0.  1.
        -11    1    1    2    0    0  0.12183082605E+02 -0.45562714584E+02 -0.14239949405E+03  0.15000668107E+03  0.00000000000E+00 0.  1.
         11    1    1    2    0    0  0.30010575021E+01  0.12429805445E+02  0.88251797774E+01  0.15536737355E+02  0.00000000000E+00 0. -1.
</event>
<event>
 7    1  0.4966153E-006  0.8731018E+02  0.7561462E-02  0.1309499E+00
          2   -1    0    0  501    0  0.00000000000E+00  0.00000000000E+00  0.15329853059E+03  0.15329853059E+03  0.00000000000E+00 0.  1.
         -2   -1    0    0    0  501 -0.00000000000E+00 -0.00000000000E+00 -0.88221972275E+02  0.88221972275E+02  0.00000000000E+00 0. -1.
         23    2    1    2    0    0 -0.18665698701E+02  0.84732471253E+01 -0.70542092077E+01  0.12696702684E+03  0.12510259714E+03 0.  0.
          5    1    3    3  502    0 -0.49324257867E+02  0.45731173103E+02  0.21507930001E+02  0.70740978651E+02  0.41800000000E+01 0. -1.
         -5    1    3    3    0  502  0.30658559166E+02 -0.37257925978E+02 -0.28562139209E+02  0.56226048185E+02  0.41800000000E+01 0. -1.
        -11    1    1    2    0    0 -0.15208120720E+02  0.11862927361E+02 -0.11219295002E+02  0.22313416631E+02  0.00000000000E+00 0. -1.
         11    1    1    2    0    0  0.33873819421E+02 -0.20336174487E+02  0.83350062520E+02  0.92240059394E+02  0.00000000000E+00 0.  1.
</event>
<event>
 7    1  0.4966153E-006  0.1066388E+03  0.7561462E-02  0.1266924E+00
         -4   -1    0    0    0  501 -0.00000000000E+00  0.00000000000E+00  0.14075760375E+03  0.14075760375E+03  0.00000000000E+00 0.  1.
          4   -1    0    0  501    0  0.00000000000E+00 -0.00000000000E+00 -0.21961224078E+03  0.21961224078E+03  0.00000000000E+00 0. -1.
         23    2    1    2    0    0 -0.19062283371E+02 -0.40795821391E+02  0.97158150394E+02  0.15677646236E+03  0.11450538534E+03 0.  0.
          5    1    3    3  502    0  0.39744903084E+02 -0.12834346046E+01  0.47597394642E+01  0.40267009392E+02  0.41800000000E+01 0. -1.
         -5    1    3    3    0  502 -0.58807186456E+02 -0.39512386786E+02  0.92398410930E+02  0.11650945297E+03  0.41800000000E+01 0.  1.
        -11    1    1    2    0    0 -0.33752930823E+02 -0.27560772865E+01 -0.58600703175E+02  0.67682336793E+02  0.00000000000E+00 0.  1.
         11    1    1    2    0    0  0.52815214194E+02  0.43551898677E+02 -0.11741208425E+03  0.13591104538E+03  0.00000000000E+00 0. -1.
</event>
<event>
 7    1  0.4966153E-006  0.1181423E+03  0.7561462E-02  0.1246194E+00
         -2   -1    0    0    0  501 -0.00000000000E+00  0.00000000000E+00  0.63991792503E+02  0.63991792503E+02  0.00000000000E+00 0.  1.
          2   -1    0    0  501    0  0.00000000000E+00 -0.00000000000E+00 -0.30115125893E+03  0.30115125893E+03  0.00000000000E+00 0. -1.
         23    2    1    2    0    0  0.30446733935E+02  0.50340641443E+02 -0.49265774256E+02  0.14674686357E+03  0.12508533753E+03 0.  0.
          5    1    3    3  502    0  0.54133584484E+02 -0.16295741144E+02  0.58489543264E+01  0.56988409482E+02  0.41800000000E+01 0. -1.
         -5    1    3    3    0  502 -0.23686850549E+02  0.66636382587E+02 -0.55114728582E+02  0.89758454086E+02  0.41800000000E+01 0. -1.
        -11    1    1    2    0    0 -0.16826523371E+02 -0.76999145751E+02 -0.15520620194E+03  0.17407172503E+03  0.00000000000E+00 0. -1.
         11    1    1    2    0    0 -0.13620210563E+02  0.26658504308E+02 -0.32687490226E+02  0.44324462828E+02  0.00000000000E+00 0.  1.
</event>
<event>
 7    1  0.4966153E-006  0.8186740E+02  0.7561462E-02  0.1323834E+00
         -4   -1    0    0    0  501 -0.00000000000E+00  0.00000000000E+00  0.27192136370E+03  0.27192136370E+03  0.00000000000E+00 0. -1.
          4   -1    0    0  501    0  0.00000000000E+00 -0.00000000000E+00 -0.60275980938E+02  0.60275980938E+02  0.00000000000E+00 0.  1.
         23    2    1    2    0    0  0.54248799284E+02 -0.29187494693E+02  0.14544324538E+03  0.20148389674E+03  0.12508869232E+03 0.  0.
          5    1    3    3  502    0  0.62194635684E+02 -0.12183549993E+01  0.15775877335E+03  0.16963183683E+03  0.41800000000E+01 0. -1.
         -5    1    3    3    0  502 -0.79458363998E+01 -0.27969139693E+02 -0.12315527969E+02  0.31852059909E+02  0.41800000000E+01 0. -1.
        -11    1    1    2    0    0 -0.18538362723E+02  0.31149703659E+02 -0.17084168870E+02  0.40072980379E+02  0.00000000000E+00 0.  1.
         11    1    1    2    0    0 -0.35710436561E+02 -0.19622089661E+01  0.83286306254E+02  0.90640467524E+02  0.00000000000E+00 0. -1.
</event>
<event>
 7    1  0.4966153E-006  0.4635280E+02  0.7561462E-02  0.1466069E+00
         -1   -1    0    0    0  501 -0.00000000000E+00  0.00000000000E+00  0.17967595776E+03  0.17967595776E+03  0.00000000000E+00 0.  1.
          1   -1    0    0  501    0  0.00000000000E+00 -0.00000000000E+00 -0.67180884430E+02  0.67180884430E+02  0.00000000000E+00 0. -1.
         23    2    1    2    0    0  0.91281868896E+01  0.12379629884E+01  0.89081457234E+02  0.15384619914E+03  0.12509312778E+03 0.  0.
          5    1    3    3  502    0 -0.47798591375E+00  0.11909659449E+02  0.11938619846E+03  0.12005251035E+03  0.41800000000E+01 0. -1.
         -5    1    3    3    0  502  0.96061728033E+01 -0.10671696461E+02 -0.30304741224E+02  0.33793688788E+02  0.41800000000E+01 0. -1.
        -11    1    1    2    0    0 -0.30248530746E+02 -0.20495618958E+02  0.44436723739E+02  0.57529700376E+02  0.00000000000E+00 0.  1.
         11    1    1    2    0    0  0.21120343856E+02  0.19257655969E+02 -0.21023107645E+02  0.35480942675E+02  0.00000000000E+00 0. -1.
</event>
<event>
 7    1  0.4966153E-006  0.1120083E+03  0.7561462E-02  0.1256895E+00
         -1   -1    0    0    0  501 -0.00000000000E+00  0.00000000000E+00  0.94763260316E+02  0.94763260316E+02  0.00000000000E+00 0.  1.
          1   -1    0    0  501    0  0.00000000000E+00 -0.00000000000E+00 -0.20107187126E+03  0.20107187126E+03  0.00000000000E+00 0. -1.
         23    2    1    2    0    0 -0.55202130009E+02 -0.49993469282E+02 -0.14364124774E+02  0.14628802326E+03  0.12508891054E+03 0.  0.
          5    1    3    3  502    0  0.31142230875E+02  0.11746071967E+02  0.13981453428E+02  0.36342292037E+02  0.41800000000E+01 0. -1.
         -5    1    3    3    0  502 -0.86344360884E+02 -0.61739541250E+02 -0.28345578202E+02  0.10994573122E+03  0.41800000000E+01 0. -1.
        -11    1    1    2    0    0  0.23683103940E+02 -0.16499602221E+01  0.13987700190E+02  0.27554809699E+02  0.00000000000E+00 0.  1.
         11    1    1    2    0    0  0.31519026070E+02  0.51643429504E+02 -0.10593218636E+03  0.12199229862E+03  0.00000000000E+00 0. -1.
</event>
<event>
 7    1  0.4966153E-006  0.1473006E+03  0.7561462E-02  0.1203830E+00
         -1   -1    0    0    0  501 -0.00000000000E+00  0.00000000000E+00  0.40089252713E+02  0.40089252713E+02  0.00000000000E+00 0.  1.
          1   -1    0    0  501    0  0.00000000000E+00 -0.00000000000E+00 -0.83304012287E+03  0.83304012287E+03  0.00000000000E+00 0. -1.
         23    2    1    2    0    0 -0.11451997602E+03  0.78094600165E+02 -0.29663399039E+03  0.35050354389E+03  0.12508964202E+03 0.  0.
          5    1    3    3  502    0 -0.71406955775E+02  0.78141190663E+02 -0.28727988594E+03  0.30618981740E+03  0.41800000000E+01 0.  1.
         -5    1    3    3    0  502 -0.43113020244E+02 -0.46590498523E-01 -0.93541044475E+01  0.44313726488E+02  0.41800000000E+01 0.  1.
        -11    1    1    2    0    0  0.86941742463E+02 -0.34025383814E+02 -0.42021802472E+03  0.43046461135E+03  0.00000000000E+00 0. -1.
         11    1    1    2    0    0  0.27578233557E+02 -0.44069216351E+02 -0.76098855044E+02  0.92161220342E+02  0.00000000000E+00 0.  1.
</event>
<event>
 7    1  0.4966153E-006  0.1602481E+03  0.7561462E-02  0.1188417E+00
         -2   -1    0    0    0  501 -0.00000000000E+00  0.00000000000E+00  0.16520737325E+03  0.16520737325E+03  0.00000000000E+00 0. -1.
          2   -1    0    0  501    0  0.00000000000E+00 -0.00000000000E+00 -0.18632928653E+03  0.18632928653E+03  0.00000000000E+00 0.  1.
         23    2    1    2    0    0 -0.91486374380E+02  0.88493120519E+02  0.45794179354E+02  0.18424892461E+03  0.12509904189E+03 0.  0.
          5    1    3    3  502    0  0.15676327942E+02 -0.19585961516E+02  0.65599508224E+00  0.25441302558E+02  0.41800000000E+01 0. -1.
         -5    1    3    3    0  502 -0.10716270232E+03  0.10807908204E+03  0.45138184272E+02  0.15880762205E+03  0.41800000000E+01 0. -1.
        -11    1    1    2    0    0  0.75175272025E+02 -0.28110927788E+02 -0.67297420115E+02  0.10474009996E+03  0.00000000000E+00 0.  1.
         11    1    1    2    0    0  0.16311102355E+02 -0.60382192731E+02  0.38132747790E+00  0.62547635205E+02  0.00000000000E+00 0. -1.
</event>
<event>
 7    1  0.4966153E-006  0.1525494E+03  0.7561462E-02  0.1197375E+00
         -1   -1    0    0    0  501 -0.00000000000E+00  0.00000000000E+00  0.10084082183E+04  0.10084082183E+04  0.00000000000E+00 0.  1.
          1   -1    0    0  501    0  0.00000000000E+00 -0.00000000000E+00 -0.36089014701E+02  0.36089014701E+02  0.00000000000E+00 0. -1.
         23    2    1    2    0    0  0.35901251233E+02  0.14407090706E+03  0.69245213802E+03  0.71915489934E+03  0.12509388353E+03 0.  0.
          5    1    3    3  502    0  0.40988066909E+02  0.63049645527E+02  0.12520649408E+03  0.14611440035E+03  0.41800000000E+01 0.  1.
         -5    1    3    3    0  502 -0.50868156757E+01  0.81021261530E+02  0.56724564395E+03  0.57304049900E+03  0.41800000000E+01 0.  1.
        -11    1    1    2    0    0 -0.19914002640E+02 -0.75408963991E+02  0.21805262416E+03  0.23158157581E+03  0.00000000000E+00 0.  1.
         11    1    1    2    0    0 -0.15987248593E+02 -0.68661943066E+02  0.61814441393E+02  0.93760757825E+02  0.00000000000E+00 0. -1.
</event>
<event>
 6    1  0.4966153E-006  0.1523180E+03  0.7561462E-02  0.1197653E+00
         -1   -1    0    0    0  501 -0.00000000000E+00  0.00000000000E+00  0.76709385290E+02  0.76709385290E+02  0.00000000000E+00 0.  1.
          1   -1    0    0  501    0  0.00000000000E+00 -0.00000000000E+00 -0.37449564053E+03  0.37449564053E+03  0.00000000000E+00 0. -1.
          5    1    1    2  502    0  0.76876525098E+02 -0.25451403397E+02 -0.99425569240E+02  0.12829922161E+03  0.41800000000E+01 0. -1.
         -5    1    1    2    0  502 -0.11512312734E+03  0.35161972333E+02 -0.31984092388E+02  0.12462003576E+03  0.41800000000E+01 0.  1.
        -11    1    1    2    0    0  0.63383195853E+02 -0.30633113581E+02 -0.13828500827E+03  0.15517268019E+03  0.00000000000E+00 0.  1.
         11    1    1    2    0    0 -0.25136593614E+02  0.20922544646E+02 -0.28091585332E+02  0.43113088261E+02  0.00000000000E+00 0. -1.
</event>
<event>
 7    1  0.4966153E-006  0.7281279E+02  0.7561462E-02  0.1350781E+00
          2   -1    0    0  501    0  0.00000000000E+00  0.00000000000E+00  0.61958900083E+02  0.61958900083E+02  0.00000000000E+00 0. -1.
         -2   -1    0    0    0  501 -0.00000000000E+00 -0.00000000000E+00 -0.25760177509E+03  0.25760177509E+03  0.00000000000E+00 0.  1.
         23    2    1    2    0    0  0.62896634953E+01 -0.59568726144E+02 -0.13264586555E+03  0.19190662298E+03  0.12508090700E+03 0.  0.
          5    1    3    3  502    0 -0.73975621586E+01 -0.30771803715E+01 -0.13332066336E+03  0.13362658659E+03  0.41800000000E+01 0. -1.
         -5    1    3    3    0  502  0.13687225654E+02 -0.56491545772E+02  0.67479780801E+00  0.58280036393E+02  0.41800000000E+01 0. -1.
        -11    1    1    2    0    0  0.17522860645E+02  0.41690690730E+01  0.18797826182E+02  0.26034401304E+02  0.00000000000E+00 0. -1.
         11    1    1    2    0    0 -0.23812524140E+02  0.55399657071E+02 -0.81794835640E+02  0.10161965089E+03  0.00000000000E+00 0.  1.
</event>
<event>
 6    1  0.4966153E-006  0.1511924E+03  0.7561462E-02  0.1199015E+00
         -1   -1    0    0    0  501 -0.00000000000E+00  0.00000000000E+00  0.20790562832E+02  0.20790562832E+02  0.00000000000E+00 0.  1.
          1   -1    0    0  501    0  0.00000000000E+00 -0.00000000000E+00 -0.14027032251E+04  0.14027032251E+04  0.00000000000E+00 0. -1.
          5    1    1    2  502    0  0.30452039656E+02 -0.42986902738E+02 -0.45749920199E+03  0.46054119550E+03  0.41800000000E+01 0. -1.
         -5    1    1    2    0  502 -0.11784392491E+03  0.40565180307E+02 -0.28038172308E+03  0.30686170750E+03  0.41800000000E+01 0.  1.
        -11    1    1    2    0    0  0.47955487749E+02  0.45730709999E+02 -0.36704447104E+03  0.37297810976E+03  0.00000000000E+00 0.  1.
         11    1    1    2    0    0  0.39436397509E+02 -0.43308987567E+02 -0.27698726618E+03  0.28311277519E+03  0.00000000000E+00 0. -1.
</event>
<event>
 6    1  0.4966153E-006  0.1085134E+03  0.7561462E-02  0.1263348E+00
          1   -1    0    0  501    0  0.00000000000E+00  0.00000000000E+00  0.36844127817E+02  0.36844127817E+02  0.00000000000E+00 0. -1.
         -1   -1    0    0    0  501 -0.00000000000E+00 -0.00000000000E+00 -0.42886158447E+03  0.42886158447E+03  0.00000000000E+00 0.  1.
          5    1    1    2  502    0 -0.62743331570E+02 -0.17624220558E+02 -0.43666282745E+02  0.78559248058E+02  0.41800000000E+01 0. -1.
         -5    1    1    2    0  502  0.55652401995E+02 -0.66481633492E+01 -0.21980424510E+03  0.22687610383E+03  0.41800000000E+01 0.  1.
        -11    1    1    2    0    0  0.14524698139E+02 -0.33895538474E+02 -0.44619293168E+02  0.57885712462E+02  0.00000000000E+00 0. -1.
         11    1    1    2    0    0 -0.74337685652E+01  0.58167922381E+02 -0.83927635635E+02  0.10238464793E+03  0.00000000000E+00 0.  1.
</event>
<event>
 7    1  0.4966153E-006  0.9870414E+02  0.7561462E-02  0.1283045E+00
          3   -1    0    0  501    0  0.00000000000E+00  0.00000000000E+00  0.63113675625E+02  0.63113675625E+02  0.00000000000E+00 0. -1.
         -3   -1    0    0    0  501 -0.00000000000E+00 -0.00000000000E+00 -0.33403330557E+03  0.33403330557E+03  0.00000000000E+00 0.  1.
         23    2    1    2    0    0 -0.17510503396E+02  0.91190512643E+02 -0.18171010519E+03  0.23934970164E+03  0.12508952803E+03 0.  0.
          5    1    3    3  502    0 -0.30147673382E+02  0.33209455301E+02  0.31465089291E+01  0.45156650122E+02  0.41800000000E+01 0. -1.
         -5    1    3    3    0  502  0.12637169987E+02  0.57981057341E+02 -0.18485661411E+03  0.19419305152E+03  0.41800000000E+01 0. -1.
        -11    1    1    2    0    0  0.79092002224E+01 -0.36755667098E+02 -0.95048870931E+02  0.10221458985E+03  0.00000000000E+00 0.  1.
         11    1    1    2    0    0  0.96013031733E+01 -0.54434845545E+02  0.58393461683E+01  0.55582689714E+02  0.00000000000E+00 0. -1.
</event>
<event>
 7    1  0.4966153E-006  0.1043207E+03  0.7561462E-02  0.1271464E+00
          2   -1    0    0  501    0  0.00000000000E+00  0.00000000000E+00  0.22525914626E+03  0.22525914626E+03  0.00000000000E+00 0. -1.
         -2   -1    0    0    0  501 -0.00000000000E+00 -0.00000000000E+00 -0.80662712585E+02  0.80662712585E+02  0.00000000000E+00 0.  1.
         23    2    1    2    0    0 -0.62837996018E+02  0.44738709874E+01  0.25322645012E+02  0.14233403434E+03  0.12509640969E+03 0.  0.
          5    1    3    3  502    0 -0.19702508504E+02  0.40146893251E+02  0.61053330985E+02  0.75795405556E+02  0.41800000000E+01 0. -1.
         -5    1    3    3    0  502 -0.43135487515E+02 -0.35673022263E+02 -0.35730685973E+02  0.66538628785E+02  0.41800000000E+01 0. -1.
        -11    1    1    2    0    0 -0.22285463542E+02  0.87821638084E+00  0.46088829968E+02  0.51201497996E+02  0.00000000000E+00 0. -1.
         11    1    1    2    0    0  0.85123459560E+02 -0.53520873683E+01  0.73184958697E+02  0.11238632651E+03  0.00000000000E+00 0.  1.
</event>
<event>
 7    1  0.4966153E-006  0.1095033E+03  0.7561462E-02  0.1261492E+00
          1   -1    0    0  501    0  0.00000000000E+00  0.00000000000E+00  0.14941765201E+02  0.14941765201E+02  0.00000000000E+00 0. -1.
         -1   -1    0    0    0  501 -0.00000000000E+00 -0.00000000000E+00 -0.81875861714E+03  0.81875861714E+03  0.00000000000E+00 0.  1.
         23    2    1    2    0    0 -0.25803412970E+01 -0.18840341528E+02 -0.48692498465E+03  0.50309417178E+03  0.12508472478E+03 0.  0.
          5    1    3    3  502    0  0.60536124733E+02 -0.23360097732E+01 -0.21397977792E+03  0.22242953288E+03  0.41800000000E+01 0. -1.
         -5    1    3    3    0  502 -0.63116466030E+02 -0.16504331755E+02 -0.27294520673E+03  0.28066463890E+03  0.41800000000E+01 0. -1.
        -11    1    1    2    0    0 -0.43291690841E+02  0.18387388191E+02 -0.18798845913E+03  0.19378319665E+03  0.00000000000E+00 0.  1.
         11    1    1    2    0    0  0.45872032138E+02  0.45295333698E+00 -0.12890340816E+03  0.13682301390E+03  0.00000000000E+00 0. -1.
</event>
<event>
 7    1  0.4966153E-006  0.1245106E+03  0.7561462E-02  0.1235836E+00
         -3   -1    0    0    0  501 -0.00000000000E+00  0.00000000000E+00  0.84114459936E+02  0.84114459936E+02  0.00000000000E+00 0.  1.
          3   -1    0    0  501    0  0.00000000000E+00 -0.00000000000E+00 -0.19298369967E+03  0.19298369967E+03  0.00000000000E+00 0. -1.
         23    2    1    2    0    0 -0.25227375034E+02 -0.21367737187E+02 -0.31514885614E+02  0.12574891815E+03  0.11716058108E+03 0.  0.
          5    1    3    3  502    0  0.41233059716E+02 -0.32001262529E+02 -0.24928422227E+02  0.57992625839E+02  0.41800000000E+01 0. -1.
         -5    1    3    3    0  502 -0.66460434749E+02  0.10633525342E+02 -0.65864633868E+01  0.67756292315E+02  0.41800000000E+01 0.  1.
        -11    1    1    2    0    0 -0.45067339453E+02  0.35687229101E+02 -0.43120854809E+02  0.71861335402E+02  0.00000000000E+00 0.  1.
         11    1    1    2    0    0  0.70294714487E+02 -0.14319491914E+02 -0.34233499313E+02  0.79487906053E+02  0.00000000000E+00 0. -1.
</event>
<event>
 7    1  0.4966153E-006  0.1390179E+03  0.7561462E-02  0.1214657E+00
          1   -1    0    0  501    0  0.00000000000E+00  0.00000000000E+00  0.10918828383E+03  0.10918828383E+03  0.00000000000E+00 0. -1.
         -1   -1    0    0    0  501 -0.00000000000E+00 -0.00000000000E+00 -0.17867407789E+03  0.17867407789E+03  0.00000000000E+00 0.  1.
         23    2    1    2    0    0  0.80108448659E+02 -0.45664655383E+02 -0.37207947092E+02  0.15339215330E+03  0.11679938814E+03 0.  0.
          5    1    3    3  502    0  0.61910727763E+01 -0.70067033146E+02 -0.23237316200E+02  0.74196790902E+02  0.41800000000E+01 0. -1.
         -5    1    3    3    0  502  0.73917375883E+02  0.24402377762E+02 -0.13970630892E+02  0.79195362398E+02  0.41800000000E+01 0.  1.
        -11    1    1    2    0    0 -0.35833403422E+02  0.70332803426E+02 -0.27388677213E+02  0.83551634802E+02  0.00000000000E+00 0.  1.
         11    1    1    2    0    0 -0.44275045237E+02 -0.24668148043E+02 -0.48891697590E+01  0.50918573621E+02  0.00000000000E+00 0. -1.
</event>
<event>
 7    1  0.4966153E-006  0.1089637E+03  0.7561462E-02  0.1262501E+00
         -1   -1    0    0    0  501 -0.00000000000E+00  0.00000000000E+00  0.44509151119E+03  0.44509151119E+03  0.00000000000E+00 0.  1.
          1   -1    0    0  501    0  0.00000000000E+00 -0.00000000000E+00 -0.39941401206E+02  0.39941401206E+02  0.00000000000E+00 0. -1.
         23    2    1    2    0    0  0.17420698439E+02  0.20751182269E+02  0.35479228543E+03  0.37717068380E+03  0.12508423809E+03 0.  0.
          5    1    3    3  502    0  0.64222945538E+02  0.35281497459E+02  0.15628545651E+03  0.17266148127E+03  0.41800000000E+01 0. -1.
         -5    1    3    3    0  502 -0.46802247099E+02 -0.14530315190E+02  0.19850682892E+03  0.20450920253E+03  0.41800000000E+01 0. -1.
        -11    1    1    2    0    0 -0.42059938414E+02 -0.44426583502E+02  0.33741351083E+02  0.69865860862E+02  0.00000000000E+00 0. -1.
         11    1    1    2    0    0  0.24639239975E+02  0.23675401233E+02  0.16616473464E+02  0.37996367727E+02  0.00000000000E+00 0.  1.
</event>
<event>
 7    1  0.4966153E-006  0.1233152E+03  0.7561462E-02  0.1237726E+00
         -1   -1    0    0    0  501 -0.00000000000E+00  0.00000000000E+00  0.12190333666E+03  0.12190333666E+03  0.00000000000E+00 0.  1.
          1   -1    0    0  501    0  0.00000000000E+00 -0.00000000000E+00 -0.16205498205E+03  0.16205498205E+03  0.00000000000E+00 0. -1.
         23    2    1    2    0    0  0.23746776404E+02  0.84125780291E+02  0.86159419734E+01  0.15283230482E+03  0.12506967115E+03 0.  0.
          5    1    3    3  502    0  0.58024945309E+02  0.89378591065E+02  0.31349930273E+02  0.11115627444E+03  0.41800000000E+01 0. -1.
         -5    1    3    3    0  502 -0.34278168905E+02 -0.52528107738E+01 -0.22733988299E+02  0.41676030383E+02  0.41800000000E+01 0. -1.
        -11    1    1    2    0    0  0.12758307073E+02 -0.59903331442E+02  0.53706656859E+01  0.61481928785E+02  0.00000000000E+00 0.  1.
         11    1    1    2    0    0 -0.36505083477E+02 -0.24222448849E+02 -0.54138253042E+02  0.69644085107E+02  0.00000000000E+00 0. -1.
</event>
<event>
 7    1  0.4966153E-006  0.2400272E+03  0.7561462E-02  0.1119775E+00
          2   -1    0    0  501    0  0.00000000000E+00  0.00000000000E+00  0.30613461010E+03  0.30613461010E+03  0.00000000000E+00 0. -1.
         -2   -1    0    0    0  501 -0.00000000000E+00 -0.00000000000E+00 -0.20968837557E+03  0.20968837557E+03  0.00000000000E+00 0.  1.
         23    2    1    2    0    0 -0.22049373724E+03 -0.57998044429E+02  0.65241836255E+02  0.26811216236E+03  0.12508546312E+03 0.  0.
          5    1    3    3  502    0 -0.44269237908E+02  0.30758002932E+02  0.43819644836E+02  0.69594926848E+02  0.41800000000E+01 0.  1.
         -5    1    3    3    0  502 -0.17622449933E+03 -0.88756047362E+02  0.21422191418E+02  0.19851723551E+03  0.41800000000E+01 0.  1.
        -11    1    1    2    0    0  0.48566368730E+02  0.20175420364E+02 -0.30950337193E+02  0.61021825037E+02  0.00000000000E+00 0. -1.
         11    1    1    2    0    0  0.17192736851E+03  0.37822624065E+02  0.62154735468E+02  0.18668899827E+03  0.00000000000E+00 0.  1.
</event>
<event>
 7    1  0.4966153E-006  0.7982832E+02  0.7561462E-02  0.1329539E+00
         -1   -1    0    0    0  501 -0.00000000000E+00  0.00000000000E+00  0.61896869565E+02  0.61896869565E+02  0.00000000000E+00 0.  1.
          1   -1    0    0  501    0  0.00000000000E+00 -0.00000000000E+00 -0.20510703058E+03  0.20510703058E+03  0.00000000000E+00 0. -1.
         23    2    1    2    0    0  0.20260594819E+02  0.12346884733E+01 -0.58031760088E+02  0.13938198034E+03  0.12509050766E+03 0.  0.
          5    1    3    3  502    0  0.15560043440E+02  0.55203577354E+02 -0.62418408424E+02  0.84870960962E+02  0.41800000000E+01 0. -1.
         -5    1    3    3    0  502  0.47005513794E+01 -0.53968888881E+02  0.43866483358E+01  0.54511019381E+02  0.41800000000E+01 0. -1.
        -11    1    1    2    0    0 -0.17102379350E+02 -0.21405763408E+02 -0.99160596386E+02  0.10287624586E+03  0.00000000000E+00 0. -1.
         11    1    1    2    0    0 -0.31582154693E+01  0.20171074935E+02  0.13982195459E+02  0.24745673942E+02  0.00000000000E+00 0.  1.
</event>
<event>
 7    1  0.4966153E-006  0.1157714E+03  0.7561462E-02  0.1250241E+00
          2   -1    0    0  501    0  0.00000000000E+00  0.00000000000E+00  0.50137806475E+03  0.50137806475E+03  0.00000000000E+00 0. -1.
         -2   -1    0    0    0  501 -0.00000000000E+00 -0.00000000000E+00 -0.40076991090E+02  0.40076991090E+02  0.00000000000E+00 0.  1.
         23    2    1    2    0    0 -0.59294879233E+02  0.68909710029E+02  0.25220627754E+03  0.29583788796E+03  0.12509044201E+03 0.  0.
          5    1    3    3  502    0  0.61562905706E+01  0.24878417482E+02  0.19878955449E+03  0.20047841515E+03  0.41800000000E+01 0. -1.
         -5    1    3    3    0  502 -0.65451169803E+02  0.44031292546E+02  0.53416723051E+02  0.95359472804E+02  0.41800000000E+01 0. -1.
        -11    1    1    2    0    0 -0.70438330193E+01  0.16788742928E+02  0.16236410378E+02  0.24394640696E+02  0.00000000000E+00 0. -1.
         11    1    1    2    0    0  0.66338712252E+02 -0.85698452956E+02  0.19285838574E+03  0.22122252718E+03  0.00000000000E+00 0.  1.
</event>
<event>
 7    1  0.4966153E-006  0.1101785E+03  0.7561462E-02  0.1260240E+00
          2   -1    0    0  501    0  0.00000000000E+00  0.00000000000E+00  0.26964450140E+03  0.26964450140E+03  0.00000000000E+00 0.  1.
         -2   -1    0    0    0  501 -0.00000000000E+00 -0.00000000000E+00 -0.62769478457E+02  0.62769478457E+02  0.00000000000E+00 0. -1.
         23    2    1    2    0    0  0.62408475006E+02 -0.31847808294E+02  0.94502601657E+02  0.17171735619E+03  0.12508800122E+03 0.  0.
          5    1    3    3  502    0  0.71045177738E+02  0.52890132603E+01  0.10935908948E+03  0.13058435508E+03  0.41800000000E+01 0.  1.
         -5    1    3    3    0  502 -0.86367027320E+01 -0.37136821554E+02 -0.14856487822E+02  0.41133001102E+02  0.41800000000E+01 0.  1.
        -11    1    1    2    0    0 -0.80366121586E+02  0.79712927124E+01  0.99540195668E+02  0.12818153362E+03  0.00000000000E+00 0.  1.
         11    1    1    2    0    0  0.17957646580E+02  0.23876515581E+02  0.12832225615E+02  0.32515090054E+02  0.00000000000E+00 0. -1.
</event>
<event>
 7    1  0.4966153E-006  0.1451100E+03  0.7561462E-02  0.1206614E+00
         -1   -1    0    0    0  501 -0.00000000000E+00  0.00000000000E+00  0.21581682585E+02  0.21581682585E+02  0.00000000000E+00 0.  1.
          1   -1    0    0  501    0  0.00000000000E+00 -0.00000000000E+00 -0.10335426615E+04  0.10335426615E+04  0.00000000000E+00 0. -1.
         23    2    1    2    0    0 -0.63152906302E+02 -0.78773594875E+02 -0.59861739452E+03  0.61982704524E+03  0.12509681119E+03 0.  0.
          5    1    3    3  502    0 -0.75521212116E+02  0.50742646866E+01 -0.29292685810E+03  0.30257696250E+03  0.41800000000E+01 0.  1.
         -5    1    3    3    0  502  0.12368305815E+02 -0.83847859562E+02 -0.30569053642E+03  0.31725008274E+03  0.41800000000E+01 0.  1.
        -11    1    1    2    0    0 -0.79519815707E+01  0.53506421211E+02 -0.10829254033E+03  0.12105141640E+03  0.00000000000E+00 0.  1.
         11    1    1    2    0    0  0.71104887873E+02  0.25267173664E+02 -0.30505104406E+03  0.31424588243E+03  0.00000000000E+00 0. -1.
</event>
<event>
 7    1  0.4966153E-006  0.1302866E+03  0.7561462E-02  0.1227031E+00
          2   -1    0    0  501    0  0.00000000000E+00  0.00000000000E+00  0.45221396565E+03  0.45221396565E+03  0.00000000000E+00 0. -1.
         -2   -1    0    0    0  501 -0.00000000000E+00 -0.00000000000E+00 -0.64671165488E+02  0.64671165488E+02  0.00000000000E+00 0.  1.
         23    2    1    2    0    0 -0.88178295531E+01  0.83318002550E+02  0.58322288624E+02  0.16145575011E+03  0.12508727444E+03 0.  0.
          5    1    3    3  502    0  0.43382802727E+02 -0.73766686224E+00  0.43024887170E+02  0.61247245169E+02  0.41800000000E+01 0.  1.
         -5    1    3    3    0  502 -0.52200632280E+02  0.84055669412E+02  0.15297401454E+02  0.10020850494E+03  0.41800000000E+01 0.  1.
        -11    1    1    2    0    0 -0.32042110683E+02 -0.92369376699E+01  0.31321412657E+02  0.45749849894E+02  0.00000000000E+00 0.  1.
         11    1    1    2    0    0  0.40859940236E+02 -0.74081064880E+02  0.29789909888E+03  0.30967953114E+03  0.00000000000E+00 0. -1.
</event>
<event>
 7    1  0.4966153E-006  0.8984500E+02  0.7561462E-02  0.1303227E+00
         -1   -1    0    0    0  501 -0.00000000000E+00  0.00000000000E+00  0.21883808626E+02  0.21883808626E+02  0.00000000000E+00 0.  1.
          1   -1    0    0  501    0  0.00000000000E+00 -0.00000000000E+00 -0.67348903935E+03  0.67348903935E+03  0.00000000000E+00 0. -1.
         23    2    1    2    0    0 -0.32690199038E+02 -0.92206814690E+01 -0.24199199661E+03  0.27442080854E+03  0.12487186895E+03 0.  0.
          5    1    3    3  502    0  0.20686249082E+02  0.12913938237E+02 -0.20319353149E+03  0.20469434370E+03  0.41800000000E+01 0. -1.
         -5    1    3    3    0  502 -0.53376448120E+02 -0.22134619706E+02 -0.38798465117E+02  0.69726464839E+02  0.41800000000E+01 0. -1.
        -11    1    1    2    0    0  0.21269475431E+02 -0.40635592335E+02 -0.19899957445E+03  0.20421672943E+03  0.00000000000E+00 0. -1.
         11    1    1    2    0    0  0.11420723606E+02  0.49856273804E+02 -0.21061365967E+03  0.21673531001E+03  0.00000000000E+00 0.  1.
</event>
<event>
 6    1  0.4966153E-006  0.2250445E+03  0.7561462E-02  0.1130177E+00
         -2   -1    0    0    0  501 -0.00000000000E+00  0.00000000000E+00  0.11058720091E+03  0.11058720091E+03  0.00000000000E+00 0.  1.
          2   -1    0    0  501    0  0.00000000000E+00 -0.00000000000E+00 -0.56926528446E+03  0.56926528446E+03  0.00000000000E+00 0. -1.
          5    1    1    2  502    0  0.11458667860E+03 -0.56131542065E+02 -0.62390006390E+02  0.14209448344E+03  0.41800000000E+01 0. -1.
         -5    1    1    2    0  502 -0.15938962317E+03  0.12284010896E+03 -0.11629136785E+03  0.23245623025E+03  0.41800000000E+01 0.  1.
        -11    1    1    2    0    0  0.66376256393E+02 -0.73010313058E+02 -0.23858731150E+03  0.25818640250E+03  0.00000000000E+00 0.  1.
         11    1    1    2    0    0 -0.21573311815E+02  0.63017461642E+01 -0.41409397800E+02  0.47115369186E+02  0.00000000000E+00 0. -1.
</event>
<event>
 7    1  0.4966153E-006  0.1038835E+03  0.7561462E-02  0.1272335E+00
         -1   -1    0    0    0  501 -0.00000000000E+00  0.00000000000E+00  0.38518286043E+03  0.38518286043E+03  0.00000000000E+00 0.  1.
          1   -1    0    0  501    0  0.00000000000E+00 -0.00000000000E+00 -0.44793349501E+02  0.44793349501E+02  0.00000000000E+00 0. -1.
         23    2    1    2    0    0 -0.33204968685E+02  0.75285319206E+01  0.29674923107E+03  0.32383087340E+03  0.12508828757E+03 0.  0.
          5    1    3    3  502    0 -0.77291305869E+02  0.36255655366E+01  0.23707576152E+03  0.24941828279E+03  0.41800000000E+01 0. -1.
         -5    1    3    3    0  502  0.44086337185E+02  0.39029663840E+01  0.59673469547E+02  0.74412590606E+02  0.41800000000E+01 0. -1.
        -11    1    1    2    0    0  0.22668125571E+00  0.33321180184E+02  0.42008740041E+02  0.53619834698E+02  0.00000000000E+00 0.  1.
         11    1    1    2    0    0  0.32978287429E+02 -0.40849712105E+02  0.16315398165E+01  0.52525501834E+02  0.00000000000E+00 0. -1.
</event>
<event>
 7    1  0.4966153E-006  0.1377354E+03  0.7561462E-02  0.1216409E+00
          3   -1    0    0  501    0  0.00000000000E+00  0.00000000000E+00  0.15873903753E+03  0.15873903753E+03  0.00000000000E+00 0. -1.
         -3   -1    0    0    0  501 -0.00000000000E+00 -0.00000000000E+00 -0.17198600396E+03  0.17198600396E+03  0.00000000000E+00 0.  1.
         23    2    1    2    0    0  0.97816066763E+02 -0.37118078828E+02 -0.74010723537E+02  0.17908522314E+03  0.12509274661E+03 0.  0.
          5    1    3    3  502    0  0.45747860312E+02  0.27438435900E+02  0.16747206965E+02  0.56068492301E+02  0.41800000000E+01 0.  1.
         -5    1    3    3    0  502  0.52068206451E+02 -0.64556514728E+02 -0.90757930501E+02  0.12301673084E+03  0.41800000000E+01 0.  1.
        -11    1    1    2    0    0 -0.99178114409E+01 -0.27884948849E+02  0.12067353117E+02  0.31961764147E+02  0.00000000000E+00 0. -1.
         11    1    1    2    0    0 -0.87898255322E+02  0.65003027677E+02  0.48696403990E+02  0.11967805420E+03  0.00000000000E+00 0.  1.
</event>
<event>
 7    1  0.4966153E-006  0.1038163E+03  0.7561462E-02  0.1272470E+00
         -2   -1    0    0    0  501 -0.00000000000E+00  0.00000000000E+00  0.65331592547E+02  0.65331592547E+02  0.00000000000E+00 0.  1.
          2   -1    0    0  501    0  0.00000000000E+00 -0.00000000000E+00 -0.35461202527E+03  0.35461202527E+03  0.00000000000E+00 0. -1.
         23    2    1    2    0    0  0.44913297283E+02 -0.51132363300E+02 -0.41531861416E+02  0.14833859425E+03  0.12509084772E+03 0.  0.
          5    1    3    3  502    0  0.69412917107E+02  0.51517510792E+01 -0.50589876099E+02  0.86148137323E+02  0.41800000000E+01 0.  1.
         -5    1    3    3    0  502 -0.24499619824E+02 -0.56284114380E+02  0.90580146823E+01  0.62190456929E+02  0.41800000000E+01 0.  1.
        -11    1    1    2    0    0 -0.57356273537E+01  0.32484080467E+02 -0.17572759762E+02  0.37375323284E+02  0.00000000000E+00 0.  1.
         11    1    1    2    0    0 -0.39177669929E+02  0.18648282834E+02 -0.23017581154E+03  0.23422970028E+03  0.00000000000E+00 0. -1.
</event>
<event>
 7    1  0.4966153E-006  0.1290370E+03  0.7561462E-02  0.1228892E+00
         -1   -1    0    0    0  501 -0.00000000000E+00  0.00000000000E+00  0.30286292830E+02  0.30286292830E+02  0.00000000000E+00 0.  1.
          1   -1    0    0  501    0  0.00000000000E+00 -0.00000000000E+00 -0.66874358350E+03  0.66874358350E+03  0.00000000000E+00 0. -1.
         23    2    1    2    0    0 -0.83863105872E+02  0.14077691032E+02 -0.27003466380E+03  0.30951202936E+03  0.12509106584E+03 0.  0.
          5    1    3    3  502    0 -0.10621608600E+03 -0.11548629895E+02 -0.14685587558E+03  0.18165722768E+03  0.41800000000E+01 0.  1.
         -5    1    3    3    0  502  0.22352980123E+02  0.25626320927E+02 -0.12317878822E+03  0.12785480168E+03  0.41800000000E+01 0.  1.
        -11    1    1    2    0    0  0.89112561697E+02 -0.34684049080E+02 -0.34443171469E+03  0.35745942147E+03  0.00000000000E+00 0. -1.
         11    1    1    2    0    0 -0.52494558249E+01  0.20606358048E+02 -0.23990912180E+02  0.32058425502E+02  0.00000000000E+00 0.  1.
</event>
<event>
 7    1  0.4966153E-006  0.1365550E+03  0.7561462E-02  0.1218041E+00
          1   -1    0    0  501    0  0.00000000000E+00  0.00000000000E+00  0.64065500969E+03  0.64065500969E+03  0.00000000000E+00 0. -1.
         -1   -1    0    0    0  501 -0.00000000000E+00 -0.00000000000E+00 -0.33628722622E+02  0.33628722622E+02  0.00000000000E+00 0.  1.
         23    2    1    2    0    0  0.54393984868E+02 -0.73146745950E+02  0.22827301370E+03  0.27580278035E+03  0.12509777309E+03 0.  0.
          5    1    3    3  502    0  0.61180235814E+02  0.17312139952E+02  0.10200898480E+03  0.12027483870E+03  0.41800000000E+01 0. -1.
         -5    1    3    3    0  502 -0.67862509462E+01 -0.90458885902E+02  0.12626402890E+03  0.15552794165E+03  0.41800000000E+01 0. -1.
        -11    1    1    2    0    0  0.17426536013E+02  0.20923564097E+01  0.24738771070E+02  0.30332637651E+02  0.00000000000E+00 0.  1.
         11    1    1    2    0    0 -0.71820520881E+02  0.71054389540E+02  0.35401450230E+03  0.36814831431E+03  0.00000000000E+00 0. -1.
</event>
<event>
 7    1  0.4966153E-006  0.6362062E+02  0.7561462E-02  0.1383237E+00
         -2   -1    0    0    0  501 -0.00000000000E+00  0.00000000000E+00  0.21659408117E+03  0.21659408117E+03  0.00000000000E+00 0.  1.
          2   -1    0    0  501    0  0.00000000000E+00 -0.00000000000E+00 -0.81531944483E+02  0.81531944483E+02  0.00000000000E+00 0. -1.
         23    2    1    2    0    0  0.14752091193E+02  0.58774692414E+01  0.16430199435E+03  0.19969265311E+03  0.11238256768E+03 0.  0.
          5    1    3    3  502    0  0.99560224200E+01  0.29269298650E+02 -0.23507985581E+01  0.31285985357E+02  0.41800000000E+01 0. -1.
         -5    1    3    3    0  502  0.47960687731E+01 -0.23391829409E+02  0.16665279291E+03  0.16840666775E+03  0.41800000000E+01 0.  1.
        -11    1    1    2    0    0 -0.24556616146E+02  0.27585628608E+02 -0.46616703542E+02  0.59473618953E+02  0.00000000000E+00 0.  1.
         11    1    1    2    0    0  0.98045249524E+01 -0.33463097850E+02  0.17376845877E+02  0.38959753591E+02  0.00000000000E+00 0. -1.
</event>
<event>
 7    1  0.4966153E-006  0.9492596E+02  0.7561462E-02  0.1291343E+00
          2   -1    0    0  501    0  0.00000000000E+00  0.00000000000E+00  0.40483540948E+03  0.40483540948E+03  0.00000000000E+00 0. -1.
         -2   -1    0    0    0  501 -0.00000000000E+00 -0.00000000000E+00 -0.41759006654E+02  0.41759006654E+02  0.00000000000E+00 0.  1.
         23    2    1    2    0    0 -0.59902791992E+01 -0.58300662641E+02  0.12823559228E+03  0.18848624167E+03  0.12509134847E+03 0.  0.
          5    1    3    3  502    0 -0.23181932396E+02 -0.18682455126E+01  0.12715865290E+03  0.12933556255E+03  0.41800000000E+01 0.  1.
         -5    1    3    3    0  502  0.17191653197E+02 -0.56432417129E+02  0.10769393771E+01  0.59150679126E+02  0.41800000000E+01 0.  1.
        -11    1    1    2    0    0 -0.40658893216E+02  0.39803543763E+02  0.12262561061E+03  0.13518323887E+03  0.00000000000E+00 0. -1.
         11    1    1    2    0    0  0.46649172415E+02  0.18497118879E+02  0.11221519994E+03  0.12292493559E+03  0.00000000000E+00 0.  1.
</event>
<event>
 7    1  0.4966153E-006  0.1572268E+03  0.7561462E-02  0.1191864E+00
          2   -1    0    0  501    0  0.00000000000E+00  0.00000000000E+00  0.35488468688E+03  0.35488468688E+03  0.00000000000E+00 0. -1.
         -2   -1    0    0    0  501 -0.00000000000E+00 -0.00000000000E+00 -0.10362445534E+03  0.10362445534E+03  0.00000000000E+00 0.  1.
         23    2    1    2    0    0 -0.14025061312E+03  0.43884313718E+02  0.60607744536E+02  0.20142365860E+03  0.12370175453E+03 0.  0.
          5    1    3    3  502    0 -0.81128163077E+02  0.31747447114E+02  0.97297934534E+02  0.13066766894E+03  0.41800000000E+01 0. -1.
         -5    1    3    3    0  502 -0.59122450046E+02  0.12136866604E+02 -0.36690189998E+02  0.70755989658E+02  0.41800000000E+01 0.  1.
        -11    1    1    2    0    0  0.14848158482E+03 -0.31374805895E+02  0.14840280241E+03  0.21226057391E+03  0.00000000000E+00 0. -1.
         11    1    1    2    0    0 -0.82309716988E+01 -0.12509507823E+02  0.42249684596E+02  0.44824909699E+02  0.00000000000E+00 0.  1.
</event>
<event>
 7    1  0.4966153E-006  0.1334598E+03  0.7561462E-02  0.1222410E+00
          2   -1    0    0  501    0  0.00000000000E+00  0.00000000000E+00  0.66243357384E+03  0.66243357384E+03  0.00000000000E+00 0. -1.
         -2   -1    0    0    0  501 -0.00000000000E+00 -0.00000000000E+00 -0.34981614110E+02  0.34981614110E+02  0.00000000000E+00 0.  1.
         23    2    1    2    0    0 -0.52994736472E+02  0.86946126772E+02  0.27816198499E+03  0.32154153028E+03  0.12508714860E+03 0.  0.
          5    1    3    3  502    0 -0.66354914306E+01  0.90311574149E+02  0.25250653374E+03  0.26828572857E+03  0.41800000000E+01 0.  1.
         -5    1    3    3    0  502 -0.46359245042E+02 -0.33654473767E+01  0.25655451253E+02  0.53255801711E+02  0.41800000000E+01 0.  1.
        -11    1    1    2    0    0  0.10061913727E+02 -0.86071557444E+02  0.28997138246E+03  0.30264328466E+03  0.00000000000E+00 0. -1.
         11    1    1    2    0    0  0.42932822745E+02 -0.87456932779E+00  0.59318592276E+02  0.73230373002E+02  0.00000000000E+00 0.  1.
</event>
<event>
 7    1  0.4966153E-006  0.8916787E+02  0.7561462E-02  0.1304879E+00
          4   -1    0    0  501    0  0.00000000000E+00  0.00000000000E+00  0.34891730212E+02  0.34891730212E+02  0.00000000000E+00 0. -1.
         -4   -1    0    0    0  501 -0.00000000000E+00 -0.00000000000E+00 -0.45223110586E+03  0.45223110586E+03  0.00000000000E+00 0.  1.
         23    2    1    2    0    0 -0.24901243613E+02 -0.31734830427E+02 -0.32829076452E+03  0.35362329735E+03  0.12508972364E+03 0.  0.
          5    1    3    3  502    0  0.45435681902E+02  0.31812944714E+01 -0.18060124334E+03  0.18630298795E+03  0.41800000000E+01 0.  1.
         -5    1    3    3    0  502 -0.70336925515E+02 -0.34916124899E+02 -0.14768952118E+03  0.16732030940E+03  0.41800000000E+01 0.  1.
        -11    1    1    2    0    0 -0.54902765482E+00  0.28269220621E+02  0.10900413258E+02  0.30302958190E+02  0.00000000000E+00 0. -1.
         11    1    1    2    0    0  0.25450271268E+02  0.34656098063E+01 -0.99949024384E+02  0.10319658054E+03  0.00000000000E+00 0.  1.
</event>
<event>
 7    1  0.4966153E-006  0.1487303E+03  0.7561462E-02  0.1202042E+00
          2   -1    0    0  501    0  0.00000000000E+00  0.00000000000E+00  0.63415972497E+03  0.63415972497E+03  0.00000000000E+00 0. -1.
         -2   -1    0    0    0  501 -0.00000000000E+00 -0.00000000000E+00 -0.35470868684E+02  0.35470868684E+02  0.00000000000E+00 0.  1.
         23    2    1    2    0    0 -0.88167688376E+02 -0.52728082721E+02  0.30951026947E+03  0.34928104531E+03  0.12508736836E+03 0.  0.
          5    1    3    3  502    0 -0.43423906100E+02  0.38344522659E+02  0.85942708079E+02  0.10372829658E+03  0.41800000000E+01 0. -1.
         -5    1    3    3    0  502 -0.44743782277E+02 -0.91072605380E+02  0.22356756140E+03  0.24555274874E+03  0.41800000000E+01 0. -1.
        -11    1    1    2    0    0 -0.13669516329E+02 -0.11123943700E+02  0.35384422184E+02  0.39530433003E+02  0.00000000000E+00 0.  1.
         11    1    1    2    0    0  0.10183720471E+03  0.63852026421E+02  0.25379416463E+03  0.28081911534E+03  0.00000000000E+00 0. -1.
</event>
<event>
 7    1  0.4966153E-006  0.1445974E+03  0.7561462E-02  0.1207273E+00
         -1   -1    0    0    0  501 -0.00000000000E+00  0.00000000000E+00  0.12913906945E+03  0.12913906945E+03  0.00000000000E+00 0.  1.
          1   -1    0    0  501    0  0.00000000000E+00 -0.00000000000E+00 -0.19100048097E+03  0.19100048097E+03  0.00000000000E+00 0. -1.
         23    2    1    2    0    0  0.10289504725E+03 -0.31616929638E+02  0.18663212750E+01  0.16503753342E+03  0.12508750254E+03 0.  0.
          5    1    3    3  502    0  0.29975097919E+02  0.44437661928E+02 -0.19968467038E+02  0.57353503543E+02  0.41800000000E+01 0.  1.
         -5    1    3    3    0  502  0.72919949334E+02 -0.76054591566E+02  0.21834788313E+02  0.10768402987E+03  0.41800000000E+01 0.  1.
        -11    1    1    2    0    0 -0.67933170125E+02 -0.17068221148E+02 -0.35003884877E+01  0.70131964865E+02  0.00000000000E+00 0.  1.
         11    1    1    2    0    0 -0.34961877128E+02  0.48685150786E+02 -0.60227344303E+02  0.84970052143E+02  0.00000000000E+00 0. -1.
</event>
<event>
 6    1  0.4966153E-006  0.2371045E+03  0.7561462E-02  0.1121737E+00
          1   -1    0    0  501    0  0.00000000000E+00  0.00000000000E+00  0.33120492093E+03  0.33120492093E+03  0.00000000000E+00 0. -1.
         -1   -1    0    0    0  501 -0.00000000000E+00 -0.00000000000E+00 -0.20292737015E+03  0.20292737015E+03  0.00000000000E+00 0.  1.
          5    1    1    2  502    0 -0.96807438653E+02 -0.77256180191E+02 -0.52610950189E+02  0.13463128179E+03  0.41800000000E+01 0. -1.
         -5    1    1    2    0  502 -0.22341059799E+02  0.17520920883E+03  0.87263459710E+02  0.19705271785E+03  0.41800000000E+01 0.  1.
        -11    1    1    2    0    0  0.30035200967E+02 -0.76156561292E+02  0.70006636256E+02  0.10771659224E+03  0.00000000000E+00 0. -1.
         11    1    1    2    0    0  0.89113297486E+02 -0.21796467348E+02  0.23618404998E+02  0.94731699195E+02  0.00000000000E+00 0.  1.
</event>
<event>
 7    1  0.4966153E-006  0.1171701E+03  0.7561462E-02  0.1247840E+00
         -1   -1    0    0    0  501 -0.00000000000E+00  0.00000000000E+00  0.17899121069E+03  0.17899121069E+03  0.00000000000E+00 0.  1.
          1   -1    0    0  501    0  0.00000000000E+00 -0.00000000000E+00 -0.12381093131E+03  0.12381093131E+03  0.00000000000E+00 0. -1.
         23    2    1    2    0    0  0.21957698727E+02  0.51183872380E+02  0.11586983120E+03  0.17937503799E+03  0.12509059575E+03 0.  0.
          5    1    3    3  502    0  0.37544444013E+01  0.91853530432E+02  0.73965925442E+02  0.11806607232E+03  0.41800000000E+01 0.  1.
         -5    1    3    3    0  502  0.18203254326E+02 -0.40669658052E+02  0.41903905753E+02  0.61308965670E+02  0.41800000000E+01 0.  1.
        -11    1    1    2    0    0 -0.52445210325E+02 -0.34923896327E+02 -0.62602805912E+02  0.88821674881E+02  0.00000000000E+00 0.  1.
         11    1    1    2    0    0  0.30487511598E+02 -0.16259976053E+02  0.19132540928E+01  0.34605429139E+02  0.00000000000E+00 0. -1.
</event>
<event>
 7    1  0.4966153E-006  0.8330601E+02  0.7561462E-02  0.1319923E+00
          1   -1    0    0  501    0  0.00000000000E+00  0.00000000000E+00  0.17246688526E+03  0.17246688526E+03  0.00000000000E+00 0. -1.
         -1   -1    0    0    0  501 -0.00000000000E+00 -0.00000000000E+00 -0.90181427336E+02  0.90181427336E+02  0.00000000000E+00 0.  1.
         23    2    1    2    0    0 -0.26314156904E+02  0.31717315083E+02 -0.35588772830E+01  0.13174894055E+03  0.12508674910E+03 0.  0.
          5    1    3    3  502    0  0.35127097396E+02  0.49031941759E+02  0.19839944360E+02  0.63632853750E+02  0.41800000000E+01 0. -1.
         -5    1    3    3    0  502 -0.61441254300E+02 -0.17314626676E+02 -0.23398821643E+02  0.68116086802E+02  0.41800000000E+01 0. -1.
        -11    1    1    2    0    0  0.10154740291E+02 -0.59633954441E+01 -0.18658252556E+02  0.22063798949E+02  0.00000000000E+00 0.  1.
         11    1    1    2    0    0  0.16159416612E+02 -0.25753919639E+02  0.10450258776E+03  0.10883557310E+03  0.00000000000E+00 0. -1.
</event>
<event>
 7    1  0.4966153E-006  0.2336948E+03  0.7561462E-02  0.1124066E+00
         -1   -1    0    0    0  501 -0.00000000000E+00  0.00000000000E+00  0.92930458806E+02  0.92930458806E+02  0.00000000000E+00 0.  1.
          1   -1    0    0  501    0  0.00000000000E+00 -0.00000000000E+00 -0.91466208106E+03  0.91466208106E+03  0.00000000000E+00 0. -1.
         23    2    1    2    0    0 -0.36292096840E+02  0.21137462281E+03 -0.13574889712E+03  0.28296417580E+03  0.12507843242E+03 0.  0.
          5    1    3    3  502    0 -0.44536661689E+02  0.22630641306E+03 -0.12501253040E+03  0.26238085293E+03  0.41800000000E+01 0.  1.
         -5    1    3    3    0  502  0.82445648485E+01 -0.14931790258E+02 -0.10736366714E+02  0.20583322863E+02  0.41800000000E+01 0.  1.
        -11    1    1    2    0    0  0.32376410860E+02 -0.64063993783E+02 -0.12049439314E+03  0.14025450459E+03  0.00000000000E+00 0.  1.
         11    1    1    2    0    0  0.39156859806E+01 -0.14731062902E+03 -0.56548833200E+03  0.58437385949E+03  0.00000000000E+00 0. -1.
</event>
<event>
 7    1  0.4966153E-006  0.7419198E+02  0.7561462E-02  0.1346392E+00
          1   -1    0    0  501    0  0.00000000000E+00  0.00000000000E+00  0.48922936769E+03  0.48922936769E+03  0.00000000000E+00 0. -1.
         -1   -1    0    0    0  501 -0.00000000000E+00 -0.00000000000E+00 -0.25828143497E+02  0.25828143497E+02  0.00000000000E+00 0.  1.
         23    2    1    2    0    0  0.14390318223E+02  0.26438023652E+02  0.25145835130E+03  0.28246184256E+03  0.12508932692E+03 0.  0.
          5    1    3    3  502    0  0.18679744872E+02  0.41994800923E+02  0.25976782280E+03  0.26383572604E+03  0.41800000000E+01 0. -1.
         -5    1    3    3    0  502 -0.42894266489E+01 -0.15556777272E+02 -0.83094714975E+01  0.18626116520E+02  0.41800000000E+01 0. -1.
        -11    1    1    2    0    0  0.33327911736E+02 -0.14675409171E+02  0.41516217534E+02  0.55224212564E+02  0.00000000000E+00 0.  1.
         11    1    1    2    0    0 -0.47718229958E+02 -0.11762614481E+02  0.17042665536E+03  0.17737145607E+03  0.00000000000E+00 0. -1.
</event>
<event>
 7    1  0.4966153E-006  0.1428059E+03  0.7561462E-02  0.1209603E+00
         -2   -1    0    0    0  501 -0.00000000000E+00  0.00000000000E+00  0.58347607988E+02  0.58347607988E+02  0.00000000000E+00 0.  1.
          2   -1    0    0  501    0  0.00000000000E+00 -0.00000000000E+00 -0.53009314018E+03  0.53009314018E+03  0.00000000000E+00 0. -1.
         23    2    1    2    0    0 -0.12392243459E+03  0.22043484433E+02 -0.15508321364E+03  0.23566094277E+03  0.12507034738E+03 0.  0.
          5    1    3    3  502    0 -0.12729185670E+03  0.33246588985E+02 -0.17079471773E+03  0.21563130678E+03  0.41800000000E+01 0.  1.
         -5    1    3    3    0  502  0.33694221046E+01 -0.11203104551E+02  0.15711504093E+02  0.20029635987E+02  0.41800000000E+01 0.  1.
        -11    1    1    2    0    0  0.23886818514E+02  0.21799487159E+02 -0.23623934768E+02  0.40048570924E+02  0.00000000000E+00 0.  1.
         11    1    1    2    0    0  0.10003561608E+03 -0.43842971593E+02 -0.29303838379E+03  0.31273123448E+03  0.00000000000E+00 0. -1.
</event>
<event>
 7    1  0.4966153E-006  0.9735013E+02  0.7561462E-02  0.1285969E+00
          2   -1    0    0  501    0  0.00000000000E+00  0.00000000000E+00  0.12008137704E+03  0.12008137704E+03  0.00000000000E+00 0.  1.
         -2   -1    0    0    0  501 -0.00000000000E+00 -0.00000000000E+00 -0.10533323610E+03  0.10533323610E+03  0.00000000000E+00 0. -1.
         23    2    1    2    0    0 -0.31758224082E+00 -0.35200252448E+02 -0.35265208103E+01  0.12999528276E+03  0.12508868278E+03 0.  0.
          5    1    3    3  502    0 -0.47549238480E+02  0.39108822891E+01 -0.36526150015E+02  0.60231695271E+02  0.41800000000E+01 0.  1.
         -5    1    3    3    0  502  0.47231656240E+02 -0.39111134737E+02  0.32999629204E+02  0.69763587488E+02  0.41800000000E+01 0.  1.
        -11    1    1    2    0    0  0.37544847128E+02  0.59823497668E+01 -0.11240922092E+02  0.39645458555E+02  0.00000000000E+00 0.  1.
         11    1    1    2    0    0 -0.37227264887E+02  0.29217902681E+02  0.29515583841E+02  0.55773871817E+02  0.00000000000E+00 0. -1.
</event>
<event>
 7    1  0.4966153E-006  0.1759373E+03  0.7561462E-02  0.1171794E+00
          2   -1    0    0  501    0  0.00000000000E+00  0.00000000000E+00  0.35654615875E+03  0.35654615875E+03  0.00000000000E+00 0. -1.
         -2   -1    0    0    0  501 -0.00000000000E+00 -0.00000000000E+00 -0.92712870884E+02  0.92712870884E+02  0.00000000000E+00 0.  1.
         23    2    1    2    0    0 -0.57488526689E+02 -0.12556107386E+03  0.83915952653E+02  0.20435460932E+03  0.12509358605E+03 0.  0.
          5    1    3    3  502    0  0.33770182680E+02 -0.72469921149E+02  0.28044388500E+02  0.84830860162E+02  0.41800000000E+01 0.  1.
         -5    1    3    3    0  502 -0.91258709368E+02 -0.53091152713E+02  0.55871564153E+02  0.11952374916E+03  0.41800000000E+01 0.  1.
        -11    1    1    2    0    0  0.78944389969E+02  0.66182623985E+02  0.11237904482E+03  0.15245132384E+03  0.00000000000E+00 0. -1.
         11    1    1    2    0    0 -0.21455863281E+02  0.59378449876E+02  0.67538290389E+02  0.92453096474E+02  0.00000000000E+00 0.  1.
</event>
<event>
 7    1  0.4966153E-006  0.1184409E+03  0.7561462E-02  0.1245691E+00
          2   -1    0    0  501    0  0.00000000000E+00  0.00000000000E+00  0.17861056628E+03  0.17861056628E+03  0.00000000000E+00 0. -1.
         -2   -1    0    0    0  501 -0.00000000000E+00 -0.00000000000E+00 -0.14410213656E+03  0.14410213656E+03  0.00000000000E+00 0.  1.
         23    2    1    2    0    0  0.13434435773E+02  0.60442918826E+02 -0.87896720746E+02  0.15869422480E+03  0.11672271830E+03 0.  0.
          5    1    3    3  502    0 -0.20981575303E+02  0.83493238488E+02 -0.39371742490E+02  0.94757342101E+02  0.41800000000E+01 0. -1.
         -5    1    3    3    0  502  0.34416011076E+02 -0.23050319662E+02 -0.48524978256E+02  0.63936882702E+02  0.41800000000E+01 0.  1.
        -11    1    1    2    0    0 -0.35705444793E+02 -0.74575353648E+02  0.95964779126E+02  0.12667123191E+03  0.00000000000E+00 0.  1.
         11    1    1    2    0    0  0.22271009020E+02  0.14132434822E+02  0.26440371342E+02  0.37347246130E+02  0.00000000000E+00 0. -1.
</event>
<event>
 7    1  0.4966153E-006  0.1094445E+03  0.7561462E-02  0.1261602E+00
          3   -1    0    0  501    0  0.00000000000E+00  0.00000000000E+00  0.24581492201E+03  0.24581492201E+03  0.00000000000E+00 0. -1.
         -3   -1    0    0    0  501 -0.00000000000E+00 -0.00000000000E+00 -0.60286997285E+02  0.60286997285E+02  0.00000000000E+00 0.  1.
         23    2    1    2    0    0 -0.16014460145E+02 -0.10521955219E+02  0.40602561444E+02  0.13290331889E+03  0.12509016628E+03 0.  0.
          5    1    3    3  502    0 -0.68093486092E+02  0.11329181892E+02  0.15055221360E+02  0.70775739492E+02  0.41800000000E+01 0. -1.
         -5    1    3    3    0  502  0.52079025947E+02 -0.21851137112E+02  0.25547340084E+02  0.62127579399E+02  0.41800000000E+01 0. -1.
        -11    1    1    2    0    0 -0.31675922495E+02  0.28031399412E+02  0.82518286509E+02  0.92727509549E+02  0.00000000000E+00 0.  1.
         11    1    1    2    0    0  0.47690382640E+02 -0.17509444193E+02  0.62407076775E+02  0.80471090858E+02  0.00000000000E+00 0. -1.
</event>
<event>
 7    1  0.4966153E-006  0.9260087E+02  0.7561462E-02  0.1296673E+00
         -2   -1    0    0    0  501 -0.00000000000E+00  0.00000000000E+00  0.52934830205E+02  0.52934830205E+02  0.00000000000E+00 0.  1.
          2   -1    0    0  501    0  0.00000000000E+00 -0.00000000000E+00 -0.23898367377E+03  0.23898367377E+03  0.00000000000E+00 0. -1.
         23    2    1    2    0    0  0.34828898026E+01 -0.22655152593E+02 -0.86717418251E+02  0.15392541056E+03  0.12509090665E+03 0.  0.
          5    1    3    3  502    0  0.43950708740E+02 -0.53821468771E+02 -0.25613886826E+02  0.74175190581E+02  0.41800000000E+01 0. -1.
         -5    1    3    3    0  502 -0.40467818937E+02  0.31166316178E+02 -0.61103531426E+02  0.79750219976E+02  0.41800000000E+01 0. -1.
        -11    1    1    2    0    0 -0.21675733424E+02 -0.12308557477E+02  0.59063129015E+01  0.25616840920E+02  0.00000000000E+00 0.  1.
         11    1    1    2    0    0  0.18192843621E+02  0.34963710070E+02 -0.10523773822E+03  0.11237625250E+03  0.00000000000E+00 0. -1.
</event>
<event>
 7    1  0.4966153E-006  0.1444087E+03  0.7561462E-02  0.1207517E+00
          1   -1    0    0  501    0  0.00000000000E+00  0.00000000000E+00  0.81718599294E+02  0.81718599294E+02  0.00000000000E+00 0. -1.
         -1   -1    0    0    0  501 -0.00000000000E+00 -0.00000000000E+00 -0.74673726553E+03  0.74673726553E+03  0.00000000000E+00 0.  1.
         23    2    1    2    0    0  0.70631284996E+02  0.80992989278E+02 -0.63964256006E+03  0.65837149195E+03  0.11296802224E+03 0.  0.
          5    1    3    3  502    0 -0.24652865792E+02  0.55982664286E+01 -0.21954914472E+03  0.22103937144E+03  0.41800000000E+01 0. -1.
         -5    1    3    3    0  502  0.95284150788E+02  0.75394722850E+02 -0.42009341533E+03  0.43733212051E+03  0.41800000000E+01 0.  1.
        -11    1    1    2    0    0 -0.38531844833E+02 -0.97991053969E+02 -0.58906114785E+02  0.12065189631E+03  0.00000000000E+00 0.  1.
         11    1    1    2    0    0 -0.32099440163E+02  0.16998064691E+02  0.33530008604E+02  0.49432476561E+02  0.00000000000E+00 0. -1.
</event>
<event>
 7    1  0.4966153E-006  0.1002757E+03  0.7561462E-02  0.1279717E+00
          1   -1    0    0  501    0  0.00000000000E+00  0.00000000000E+00  0.19415286642E+03  0.19415286642E+03  0.00000000000E+00 0. -1.
         -1   -1    0    0    0  501 -0.00000000000E+00 -0.00000000000E+00 -0.77049973161E+02  0.77049973161E+02  0.00000000000E+00 0.  1.
         23    2    1    2    0    0  0.23308581143E+02  0.31351821963E+02  0.23205349361E+02  0.13308811468E+03  0.12509089229E+03 0.  0.
          5    1    3    3  502    0 -0.68572329078E+01  0.60233196343E+02 -0.27977080687E+02  0.66897302103E+02  0.41800000000E+01 0. -1.
         -5    1    3    3    0  502  0.30165814051E+02 -0.28881374380E+02  0.51182430048E+02  0.66190812573E+02  0.41800000000E+01 0. -1.
        -11    1    1    2    0    0 -0.10411469610E+02 -0.62887187202E+02  0.77371799269E+02  0.10024765501E+03  0.00000000000E+00 0.  1.
         11    1    1    2    0    0 -0.12897111533E+02  0.31535365239E+02  0.16525744629E+02  0.37867069891E+02  0.00000000000E+00 0. -1.
</event>
<event>
 7    1  0.4966153E-006  0.9164875E+02  0.7561462E-02  0.1298907E+00
         -2   -1    0    0    0  501 -0.00000000000E+00  0.00000000000E+00  0.42909496637E+03  0.42909496637E+03  0.00000000000E+00 0.  1.
          2   -1    0    0  501    0  0.00000000000E+00 -0.00000000000E+00 -0.55322238727E+02  0.55322238727E+02  0.00000000000E+00 0. -1.
         23    2    1    2    0    0 -0.28467961061E-02  0.10705752749E+02  0.37447910950E+03  0.39496528252E+03  0.12509339628E+03 0.  0.
          5    1    3    3  502    0 -0.56062681365E+02  0.25140955632E+02  0.25221585428E+03  0.25962550229E+03  0.41800000000E+01 0.  1.
         -5    1    3    3    0  502  0.56059834569E+02 -0.14435202883E+02  0.12226325522E+03  0.13533978022E+03  0.41800000000E+01 0.  1.
        -11    1    1    2    0    0 -0.31382588654E+02 -0.53451467033E+01  0.31059223821E+02  0.44475980577E+02  0.00000000000E+00 0.  1.
         11    1    1    2    0    0  0.31385435451E+02 -0.53606060460E+01 -0.31765605672E+02  0.44975942006E+02  0.00000000000E+00 0. -1.
</event>
<event>
 7    1  0.4966153E-006  0.1180962E+03  0.7561462E-02  0.1246271E+00
          1   -1    0    0  501    0  0.00000000000E+00  0.00000000000E+00  0.19685037967E+03  0.19685037967E+03  0.00000000000E+00 0. -1.
         -1   -1    0    0    0  501 -0.00000000000E+00 -0.00000000000E+00 -0.14559721622E+03  0.14559721622E+03  0.00000000000E+00 0.  1.
         23    2    1    2    0    0  0.72433283171E+02 -0.63534114901E+02 -0.62168652453E+02  0.16967372416E+03  0.12506425171E+03 0.  0.
          5    1    3    3  502    0 -0.18440411319E+02 -0.42038651807E+02  0.14985672367E+02  0.48469988567E+02  0.41800000000E+01 0. -1.
         -5    1    3    3    0  502  0.90873694489E+02 -0.21495463094E+02 -0.77154324819E+02  0.12120373559E+03  0.41800000000E+01 0. -1.
        -11    1    1    2    0    0 -0.14260294315E+02  0.88572958569E+01 -0.14367641396E+02  0.22096081172E+02  0.00000000000E+00 0.  1.
         11    1    1    2    0    0 -0.58172988855E+02  0.54676819045E+02  0.12778945730E+03  0.15067779056E+03  0.00000000000E+00 0. -1.
</event>
<event>
 7    1  0.4966153E-006  0.1135285E+03  0.7561462E-02  0.1254172E+00
          2   -1    0    0  501    0  0.00000000000E+00  0.00000000000E+00  0.97960690863E+03  0.97960690863E+03  0.00000000000E+00 0. -1.
         -2   -1    0    0    0  501 -0.00000000000E+00 -0.00000000000E+00 -0.17463288736E+02  0.17463288736E+02  0.00000000000E+00 0.  1.
         23    2    1    2    0    0  0.46118013921E+02 -0.56371827984E+02  0.55838225473E+03  0.57683680687E+03  0.12508119428E+03 0.  0.
          5    1    3    3  502    0 -0.62567270815E+01 -0.57962092056E+02  0.47281078590E+03  0.47640976313E+03  0.41800000000E+01 0. -1.
         -5    1    3    3    0  502  0.52374741002E+02  0.15902640724E+01  0.85571468832E+02  0.10042704373E+03  0.41800000000E+01 0. -1.
        -11    1    1    2    0    0 -0.63973062736E+02  0.79879236157E+01  0.20561160595E+03  0.21548199967E+03  0.00000000000E+00 0.  1.
         11    1    1    2    0    0  0.17855048815E+02  0.48383904368E+02  0.19814975921E+03  0.20475139083E+03  0.00000000000E+00 0. -1.
</event>
<event>
 7    1  0.4966153E-006  0.7857257E+02  0.7561462E-02  0.1333152E+00
          2   -1    0    0  501    0  0.00000000000E+00  0.00000000000E+00  0.73099824264E+02  0.73099824264E+02  0.00000000000E+00 0. -1.
         -2   -1    0    0    0  501 -0.00000000000E+00 -0.00000000000E+00 -0.18000941435E+03  0.18000941435E+03  0.00000000000E+00 0.  1.
         23    2    1    2    0    0 -0.21525336876E+01 -0.19639174184E+01 -0.10397274217E+03  0.16268522952E+03  0.12509061682E+03 0.  0.
          5    1    3    3  502    0 -0.50316011365E+02 -0.34265595260E+02 -0.28319543343E+02  0.67270357167E+02  0.41800000000E+01 0.  1.
         -5    1    3    3    0  502  0.48163477677E+02  0.32301677842E+02 -0.75653198831E+02  0.95414872356E+02  0.41800000000E+01 0.  1.
        -11    1    1    2    0    0 -0.14550494791E+02 -0.98092494621E+01  0.39555464911E+02  0.43273237434E+02  0.00000000000E+00 0. -1.
         11    1    1    2    0    0  0.16703028479E+02  0.11773166881E+02 -0.42492312826E+02  0.47150771659E+02  0.00000000000E+00 0.  1.
</event>
<event>
 7    1  0.4966153E-006  0.2094765E+03  0.7561462E-02  0.1141981E+00
         -1   -1    0    0    0  501 -0.00000000000E+00  0.00000000000E+00  0.16112385133E+03  0.16112385133E+03  0.00000000000E+00 0.  1.
          1   -1    0    0  501    0  0.00000000000E+00 -0.00000000000E+00 -0.28740996922E+03  0.28740996922E+03  0.00000000000E+00 0. -1.
         23    2    1    2    0    0 -0.16267562537E+03  0.85348770048E+02 -0.88423601533E+02  0.23919379933E+03  0.12508864334E+03 0.  0.
          5    1    3    3  502    0 -0.17828519529E+03  0.59232371808E+02 -0.59767843412E+02  0.19718963521E+03  0.41800000000E+01 0.  1.
         -5    1    3    3    0  502  0.15609569916E+02  0.26116398239E+02 -0.28655758121E+02  0.42004164120E+02  0.41800000000E+01 0.  1.
        -11    1    1    2    0    0  0.11367087233E+03 -0.97591315519E+02 -0.48979649634E+02  0.15762023398E+03  0.00000000000E+00 0. -1.
         11    1    1    2    0    0  0.49004753046E+02  0.12242545471E+02  0.11117133273E+02  0.51719787248E+02  0.00000000000E+00 0.  1.
</event>
<event>
 7    1  0.4966153E-006  0.8107192E+02  0.7561462E-02  0.1326037E+00
          2   -1    0    0  501    0  0.00000000000E+00  0.00000000000E+00  0.43091281674E+03  0.43091281674E+03  0.00000000000E+00 0. -1.
         -2   -1    0    0    0  501 -0.00000000000E+00 -0.00000000000E+00 -0.29912103842E+02  0.29912103842E+02  0.00000000000E+00 0.  1.
         23    2    1    2    0    0 -0.22619299826E+02  0.20480590152E+02  0.21012311677E+03  0.24643391416E+03  0.12508741964E+03 0.  0.
          5    1    3    3  502    0 -0.25494594930E+02 -0.18292999955E+02 -0.10477222118E+01  0.31672990699E+02  0.41800000000E+01 0. -1.
         -5    1    3    3    0  502  0.28752951042E+01  0.38773590107E+02  0.21117083898E+03  0.21476092347E+03  0.41800000000E+01 0. -1.
        -11    1    1    2    0    0 -0.31516698850E+02 -0.19845390192E+02  0.11709918133E+03  0.12287945348E+03  0.00000000000E+00 0. -1.
         11    1    1    2    0    0  0.54135998677E+02 -0.63519995961E+00  0.73778414799E+02  0.91511552942E+02  0.00000000000E+00 0.  1.
</event>
<event>
 7    1  0.4966153E-006  0.3550247E+03  0.7561462E-02  0.1060571E+00
         -2   -1    0    0    0  501 -0.00000000000E+00  0.00000000000E+00  0.17011695748E+03  0.17011695748E+03  0.00000000000E+00 0.  1.
          2   -1    0    0  501    0  0.00000000000E+00 -0.00000000000E+00 -0.76574715637E+03  0.76574715637E+03  0.00000000000E+00 0. -1.
         23    2    1    2    0    0 -0.33823956969E+03  0.20573287889E+02 -0.22634533691E+03  0.42627395801E+03  0.12509200236E+03 0.  0.
          5    1    3    3  502    0 -0.22632497072E+03  0.70608728901E+02 -0.16688854147E+03  0.28996179515E+03  0.41800000000E+01 0. -1.
         -5    1    3    3    0  502 -0.11191459897E+03 -0.50035441013E+02 -0.59456795438E+02  0.13631216286E+03  0.41800000000E+01 0. -1.
        -11    1    1    2    0    0  0.32898288931E+03 -0.37360213751E+02 -0.35656437415E+03  0.48658368236E+03  0.00000000000E+00 0. -1.
         11    1    1    2    0    0  0.92566803823E+01  0.16786925862E+02 -0.12720487827E+02  0.23006473484E+02  0.00000000000E+00 0.  1.
</event>
<event>
 7    1  0.7063766E-006  0.1925121E+03  0.7561462E-02  0.1156215E+00
         -2   -1    0    0    0  501 -0.00000000000E+00  0.00000000000E+00  0.53283857623E+02  0.53283857623E+02  0.00000000000E+00 0.  1.
          2   -1    0    0  501    0  0.00000000000E+00 -0.00000000000E+00 -0.90779077897E+03  0.90779077897E+03  0.00000000000E+00 0. -1.
         23    2    1    2    0    0  0.32840872463E+02 -0.18346353517E+03 -0.34700631102E+03  0.41327756763E+03  0.12509027290E+03 0.  0.
          5    1    3    3  502    0  0.34483289071E+02 -0.15269126161E+03 -0.16064378188E+03  0.22433817253E+03  0.41800000000E+01 0. -1.
         -5    1    3    3    0  502 -0.16424166084E+01 -0.30772273560E+02 -0.18636252914E+03  0.18893939510E+03  0.41800000000E+01 0. -1.
        -11    1    1    2    0    0 -0.43264323221E+02  0.63031203036E+02 -0.12378040909E+03  0.14548650760E+03  0.00000000000E+00 0.  1.
         11    1    1    2    0    0  0.10423450758E+02  0.12043233213E+03 -0.38372020124E+03  0.40231056136E+03  0.00000000000E+00 0. -1.
</event>
<event>
 7    1  0.4966153E-006  0.1076589E+03  0.7561462E-02  0.1264968E+00
         -1   -1    0    0    0  501 -0.00000000000E+00  0.00000000000E+00  0.45923144508E+02  0.45923144508E+02  0.00000000000E+00 0.  1.
          1   -1    0    0  501    0  0.00000000000E+00 -0.00000000000E+00 -0.41609003945E+03  0.41609003945E+03  0.00000000000E+00 0. -1.
         23    2    1    2    0    0 -0.14565298649E+02  0.79688183707E+02 -0.24962794310E+03  0.29072945647E+03  0.12508857797E+03 0.  0.
          5    1    3    3  502    0  0.25549458422E+02  0.49290250512E+02 -0.25960020905E+02  0.61430437949E+02  0.41800000000E+01 0.  1.
         -5    1    3    3    0  502 -0.40114757071E+02  0.30397933195E+02 -0.22366792219E+03  0.22929901852E+03  0.41800000000E+01 0.  1.
        -11    1    1    2    0    0  0.33835180761E+02 -0.78148726435E+01 -0.78453153077E+02  0.85795040178E+02  0.00000000000E+00 0. -1.
         11    1    1    2    0    0 -0.19269882112E+02 -0.71873311063E+02 -0.42085798769E+02  0.85488687309E+02  0.00000000000E+00 0.  1.
</event>
<event>
 7    1  0.4966153E-006  0.8631786E+02  0.7561462E-02  0.1312022E+00
         -3   -1    0    0    0  501 -0.00000000000E+00  0.00000000000E+00  0.15128477345E+02  0.15128477345E+02  0.00000000000E+00 0.  1.
          3   -1    0    0  501    0  0.00000000000E+00 -0.00000000000E+00 -0.96059473428E+03  0.96059473428E+03  0.00000000000E+00 0. -1.
         23    2    1    2    0    0 -0.40651363069E+02  0.12146599372E+02 -0.42048011966E+03  0.44073812197E+03  0.12508592217E+03 0.  0.
          5    1    3    3  502    0 -0.50368893891E+02 -0.37696092279E+01 -0.55123278679E+02  0.74881798041E+02  0.41800000000E+01 0.  1.
         -5    1    3    3    0  502  0.97175308223E+01  0.15916208600E+02 -0.36535684098E+03  0.36585632392E+03  0.41800000000E+01 0.  1.
        -11    1    1    2    0    0  0.56677109997E+02 -0.40921252345E+02 -0.34526916165E+03  0.35227494614E+03  0.00000000000E+00 0.  1.
         11    1    1    2    0    0 -0.16025746928E+02  0.28774652973E+02 -0.17971697562E+03  0.18271014352E+03  0.00000000000E+00 0. -1.
</event>
<event>
 7    1  0.4966153E-006  0.9413780E+02  0.7561462E-02  0.1293130E+00
          2   -1    0    0  501    0  0.00000000000E+00  0.00000000000E+00  0.10884165785E+03  0.10884165785E+03  0.00000000000E+00 0. -1.
         -2   -1    0    0    0  501 -0.00000000000E+00 -0.00000000000E+00 -0.14295716329E+03  0.14295716329E+03  0.00000000000E+00 0.  1.
         23    2    1    2    0    0  0.62841045934E+02 -0.35254597507E+00 -0.40762962787E+02  0.14580399069E+03  0.12509221888E+03 0.  0.
          5    1    3    3  502    0  0.68632294632E+02 -0.42604784446E+02  0.75318309706E+01  0.81238909409E+02  0.41800000000E+01 0.  1.
         -5    1    3    3    0  502 -0.57912486983E+01  0.42252238471E+02 -0.48294793758E+02  0.64565081286E+02  0.41800000000E+01 0.  1.
        -11    1    1    2    0    0 -0.96037288905E+01  0.54699740625E+01 -0.35956780849E+02  0.37617048182E+02  0.00000000000E+00 0.  1.
         11    1    1    2    0    0 -0.53237317043E+02 -0.51174280875E+01  0.42604238198E+02  0.68377782273E+02  0.00000000000E+00 0. -1.
</event>
<event>
 7    1  0.4966153E-006  0.1022829E+03  0.7561462E-02  0.1275567E+00
          1   -1    0    0  501    0  0.00000000000E+00  0.00000000000E+00  0.27205404243E+02  0.27205404243E+02  0.00000000000E+00 0. -1.
         -1   -1    0    0    0  501 -0.00000000000E+00 -0.00000000000E+00 -0.48785391201E+03  0.48785391201E+03  0.00000000000E+00 0.  1.
         23    2    1    2    0    0  0.16865604971E+02 -0.18346648896E+02 -0.33963480446E+03  0.36279372062E+03  0.12508571126E+03 0.  0.
          5    1    3    3  502    0 -0.31152201152E+02  0.34658521761E+02 -0.73045416708E+02  0.86745478668E+02  0.41800000000E+01 0.  1.
         -5    1    3    3    0  502  0.48017806124E+02 -0.53005170657E+02 -0.26658938775E+03  0.27604824195E+03  0.41800000000E+01 0.  1.
        -11    1    1    2    0    0  0.27216262954E+02  0.30032543887E+02 -0.29865076625E+02  0.50344825586E+02  0.00000000000E+00 0. -1.
         11    1    1    2    0    0 -0.44081867925E+02 -0.11685894990E+02 -0.91148626681E+02  0.10192077005E+03  0.00000000000E+00 0.  1.
</event>
<event>
 7    1  0.4966153E-006  0.9776492E+02  0.7561462E-02  0.1285067E+00
          1   -1    0    0  501    0  0.00000000000E+00  0.00000000000E+00  0.26236503166E+03  0.26236503166E+03  0.00000000000E+00 0. -1.
         -1   -1    0    0    0  501 -0.00000000000E+00 -0.00000000000E+00 -0.47353112872E+02  0.47353112872E+02  0.00000000000E+00 0.  1.
         23    2    1    2    0    0 -0.19916081849E+01  0.22190743800E+02  0.10106120027E+03  0.16235192426E+03  0.12509350702E+03 0.  0.
          5    1    3    3  502    0  0.17916134987E+02  0.63055093602E+02  0.18878992085E+02  0.68343408345E+02  0.41800000000E+01 0.  1.
         -5    1    3    3    0  502 -0.19907743171E+02 -0.40864349802E+02  0.82182208184E+02  0.94008515917E+02  0.41800000000E+01 0.  1.
        -11    1    1    2    0    0  0.19456474728E+01  0.30973247451E+02  0.13768250692E+02  0.33951322932E+02  0.00000000000E+00 0.  1.
         11    1    1    2    0    0  0.45960712094E-01 -0.53163991250E+02  0.10018246783E+03  0.11341489734E+03  0.00000000000E+00 0. -1.
</event>
<event>
 7    1  0.4966153E-006  0.1350500E+03  0.7561462E-02  0.1220149E+00
         -3   -1    0    0    0  501 -0.00000000000E+00  0.00000000000E+00  0.78602832815E+02  0.78602832815E+02  0.00000000000E+00 0.  1.
          3   -1    0    0  501    0  0.00000000000E+00 -0.00000000000E+00 -0.26893356040E+03  0.26893356040E+03  0.00000000000E+00 0. -1.
         23    2    1    2    0    0  0.61645804579E+02 -0.71933667282E+02 -0.80960871505E+02  0.17657025752E+03  0.12509090860E+03 0.  0.
          5    1    3    3  502    0  0.82161642422E+02 -0.94769399652E+02 -0.59533604085E+02  0.13890103315E+03  0.41800000000E+01 0.  1.
         -5    1    3    3    0  502 -0.20515837843E+02  0.22835732370E+02 -0.21427267419E+02  0.37669224366E+02  0.41800000000E+01 0.  1.
        -11    1    1    2    0    0  0.78074027845E+01  0.33185939775E+02  0.19585716902E+01  0.34148179161E+02  0.00000000000E+00 0.  1.
         11    1    1    2    0    0 -0.69453207363E+02  0.38747727508E+02 -0.11132842777E+03  0.13681795653E+03  0.00000000000E+00 0. -1.
</event>
<event>
 7    1  0.4966153E-006  0.1466195E+03  0.7561462E-02  0.1204690E+00
         -1   -1    0    0    0  501 -0.00000000000E+00  0.00000000000E+00  0.31998989445E+03  0.31998989445E+03  0.00000000000E+00 0.  1.
          1   -1    0    0  501    0  0.00000000000E+00 -0.00000000000E+00 -0.11294319164E+03  0.11294319164E+03  0.00000000000E+00 0. -1.
         23    2    1    2    0    0  0.61856177326E+02 -0.11873215346E+03  0.19905008332E+03  0.27053940225E+03  0.12508845494E+03 0.  0.
          5    1    3    3  502    0  0.58632714995E+02 -0.35916660750E+02  0.17728301504E+02  0.71130632369E+02  0.41800000000E+01 0.  1.
         -5    1    3    3    0  502  0.32234623312E+01 -0.82815492714E+02  0.18132178182E+03  0.19940876988E+03  0.41800000000E+01 0.  1.
        -11    1    1    2    0    0 -0.69290180575E+02  0.10657049956E+03  0.35011398406E+02  0.13184915062E+03  0.00000000000E+00 0.  1.
         11    1    1    2    0    0  0.74340032494E+01  0.12161653902E+02 -0.27014778918E+02  0.30544533225E+02  0.00000000000E+00 0. -1.
</event>
<event>
 7    1  0.4966153E-006  0.1510358E+03  0.7561462E-02  0.1199206E+00
         -1   -1    0    0    0  501 -0.00000000000E+00  0.00000000000E+00  0.27093656085E+03  0.27093656085E+03  0.00000000000E+00 0.  1.
          1   -1    0    0  501    0  0.00000000000E+00 -0.00000000000E+00 -0.14386980557E+03  0.14386980557E+03  0.00000000000E+00 0. -1.
         23    2    1    2    0    0  0.12614638459E+03  0.66022019700E+02  0.15374194369E+03  0.24403931318E+03  0.12508710443E+03 0.  0.
          5    1    3    3  502    0  0.70136286002E+02  0.69758475565E+02  0.22929180230E+02  0.10162953918E+03  0.41800000000E+01 0.  1.
         -5    1    3    3    0  502  0.56010098593E+02 -0.37364558642E+01  0.13081276346E+03  0.14240977400E+03  0.41800000000E+01 0.  1.
        -11    1    1    2    0    0 -0.11864232054E+02 -0.20644783481E+02 -0.40551221717E+02  0.47025191866E+02  0.00000000000E+00 0. -1.
         11    1    1    2    0    0 -0.11428215254E+03 -0.45377236219E+02  0.13876033306E+02  0.12374186137E+03  0.00000000000E+00 0.  1.
</event>
<event>
 7    1  0.4966153E-006  0.8849214E+02  0.7561462E-02  0.1306545E+00
         -2   -1    0    0    0  501 -0.00000000000E+00  0.00000000000E+00  0.34094194530E+03  0.34094194530E+03  0.00000000000E+00 0.  1.
          2   -1    0    0  501    0  0.00000000000E+00 -0.00000000000E+00 -0.54348926834E+02  0.54348926834E+02  0.00000000000E+00 0. -1.
         23    2    1    2    0    0 -0.92224408581E+01  0.14924705537E+02  0.27108922609E+03  0.29907178916E+03  0.12508703497E+03 0.  0.
          5    1    3    3  502    0 -0.55060762181E+02  0.39614619530E+02  0.10598045831E+03  0.12589811577E+03  0.41800000000E+01 0.  1.
         -5    1    3    3    0  502  0.45838321323E+02 -0.24689913993E+02  0.16510876778E+03  0.17317367338E+03  0.41800000000E+01 0.  1.
        -11    1    1    2    0    0  0.30325849927E+02 -0.18301994900E+02  0.46571050154E+02  0.58510536688E+02  0.00000000000E+00 0.  1.
         11    1    1    2    0    0 -0.21103409068E+02  0.33772893632E+01 -0.31067257774E+02  0.37708546290E+02  0.00000000000E+00 0. -1.
</event>
<event>
 7    1  0.4966153E-006  0.1327337E+03  0.7561462E-02  0.1223455E+00
          1   -1    0    0  501    0  0.00000000000E+00  0.00000000000E+00  0.40260013464E+02  0.40260013464E+02  0.00000000000E+00 0. -1.
         -1   -1    0    0    0  501 -0.00000000000E+00 -0.00000000000E+00 -0.60724520034E+03  0.60724520034E+03  0.00000000000E+00 0.  1.
         23    2    1    2    0    0  0.56154057908E+01 -0.10205072243E+03 -0.39843046893E+03  0.42993296217E+03  0.12509848382E+03 0.  0.
          5    1    3    3  502    0 -0.37114608109E+02  0.95697118581E+00 -0.40923753126E+02  0.55413318785E+02  0.41800000000E+01 0.  1.
         -5    1    3    3    0  502  0.42730013900E+02 -0.10300769361E+03 -0.35750671581E+03  0.37451964338E+03  0.41800000000E+01 0.  1.
        -11    1    1    2    0    0 -0.17856759208E+02  0.47998569543E+01 -0.90226131820E+02  0.92101342767E+02  0.00000000000E+00 0.  1.
         11    1    1    2    0    0  0.12241353417E+02  0.97250865472E+02 -0.78328586123E+02  0.12547090887E+03  0.00000000000E+00 0. -1.
</event>
<event>
 7    1  0.4966153E-006  0.1528697E+03  0.7561462E-02  0.1196990E+00
         -2   -1    0    0    0  501 -0.00000000000E+00  0.00000000000E+00  0.46288829340E+03  0.46288829340E+03  0.00000000000E+00 0.  1.
          2   -1    0    0  501    0  0.00000000000E+00 -0.00000000000E+00 -0.56188977021E+02  0.56188977021E+02  0.00000000000E+00 0. -1.
         23    2    1    2    0    0  0.10476435963E+03 -0.55004857285E+02  0.19032577238E+03  0.25661311025E+03  0.12500113337E+03 0.  0.
          5    1    3    3  502    0 -0.25214423301E+02 -0.28032574553E+02  0.29623372344E+02  0.48131164203E+02  0.41800000000E+01 0. -1.
         -5    1    3    3    0  502  0.12997878293E+03 -0.26972282731E+02  0.16070240004E+03  0.20848194604E+03  0.41800000000E+01 0. -1.
        -11    1    1    2    0    0 -0.34528964706E+02 -0.13315739595E+02  0.11780242716E+03  0.12347862232E+03  0.00000000000E+00 0.  1.
         11    1    1    2    0    0 -0.70235394927E+02  0.68320596879E+02  0.98571116840E+02  0.13898553786E+03  0.00000000000E+00 0. -1.
</event>
<event>
 7    1  0.5636025E-006  0.1776122E+03  0.7561462E-02  0.1170134E+00
         -1   -1    0    0    0  501 -0.00000000000E+00  0.00000000000E+00  0.70794458626E+02  0.70794458626E+02  0.00000000000E+00 0.  1.
          1   -1    0    0  501    0  0.00000000000E+00 -0.00000000000E+00 -0.51636096268E+03  0.51636096268E+03  0.00000000000E+00 0. -1.
         23    2    1    2    0    0 -0.87058419404E+01 -0.15317918602E+03 -0.18177210486E+03  0.26875293747E+03  0.12508952224E+03 0.  0.
          5    1    3    3  502    0  0.54537378363E+02 -0.40305653299E+02 -0.53106790185E+02  0.86236157674E+02  0.41800000000E+01 0.  1.
         -5    1    3    3    0  502 -0.63243220303E+02 -0.11287353272E+03 -0.12866531468E+03  0.18251677979E+03  0.41800000000E+01 0.  1.
        -11    1    1    2    0    0 -0.47232382934E+01  0.13572452409E+03 -0.14937116310E+03  0.20187917125E+03  0.00000000000E+00 0.  1.
         11    1    1    2    0    0  0.13429080234E+02  0.17454661932E+02 -0.11442323610E+03  0.11652331259E+03  0.00000000000E+00 0. -1.
</event>
<event>
 6    1  0.4966153E-006  0.8367401E+02  0.7561462E-02  0.1318937E+00
         -2   -1    0    0    0  501 -0.00000000000E+00  0.00000000000E+00  0.18043525408E+03  0.18043525408E+03  0.00000000000E+00 0.  1.
          2   -1    0    0  501    0  0.00000000000E+00 -0.00000000000E+00 -0.15366169710E+03  0.15366169710E+03  0.00000000000E+00 0. -1.
          5    1    1    2  502    0  0.12323791546E+02 -0.25837323750E+02 -0.56327461563E+02  0.63322179864E+02  0.41800000000E+01 0. -1.
         -5    1    1    2    0  502 -0.29277809541E+02 -0.20122082542E+02  0.14602380573E+03  0.15034132026E+03  0.41800000000E+01 0.  1.
        -11    1    1    2    0    0 -0.34904620176E+02  0.35420858644E+02 -0.28784332010E+02  0.57458746122E+02  0.00000000000E+00 0.  1.
         11    1    1    2    0    0  0.51858638172E+02  0.10538547648E+02 -0.34138455176E+02  0.62974704933E+02  0.00000000000E+00 0. -1.
</event>
<event>
 7    1  0.4966153E-006  0.8507392E+02  0.7561462E-02  0.1315239E+00
          2   -1    0    0  501    0  0.00000000000E+00  0.00000000000E+00  0.10091725104E+03  0.10091725104E+03  0.00000000000E+00 0. -1.
         -2   -1    0    0    0  501 -0.00000000000E+00 -0.00000000000E+00 -0.13449216673E+03  0.13449216673E+03  0.00000000000E+00 0.  1.
         23    2    1    2    0    0 -0.15440836661E+02  0.34383963647E+02 -0.43508075014E+02  0.13771028527E+03  0.12510193318E+03 0.  0.
          5    1    3    3  502    0 -0.15727939608E+02 -0.17085063283E+02  0.35916975509E+02  0.42974050326E+02  0.41800000000E+01 0. -1.
         -5    1    3    3    0  502  0.28710294750E+00  0.51469026930E+02 -0.79425050522E+02  0.94736234946E+02  0.41800000000E+01 0. -1.
        -11    1    1    2    0    0 -0.81181735758E+01 -0.59747339673E+02  0.16392210282E+02  0.62484829344E+02  0.00000000000E+00 0.  1.
         11    1    1    2    0    0  0.23559010237E+02  0.25363376026E+02 -0.64590509581E+01  0.35214303146E+02  0.00000000000E+00 0. -1.
</event>
<event>
 7    1  0.4966153E-006  0.1067367E+03  0.7561462E-02  0.1266735E+00
          2   -1    0    0  501    0  0.00000000000E+00  0.00000000000E+00  0.60829291984E+02  0.60829291984E+02  0.00000000000E+00 0.  1.
         -2   -1    0    0    0  501 -0.00000000000E+00 -0.00000000000E+00 -0.29147849665E+03  0.29147849665E+03  0.00000000000E+00 0. -1.
         23    2    1    2    0    0  0.32171454049E+02 -0.62004622698E+02 -0.16847719618E+03  0.22116754040E+03  0.12510371539E+03 0.  0.
          5    1    3    3  502    0  0.40217619593E+02  0.30289592198E+02 -0.57447678070E+02  0.76502447261E+02  0.41800000000E+01 0. -1.
         -5    1    3    3    0  502 -0.80461655437E+01 -0.92294214895E+02 -0.11102951811E+03  0.14466509314E+03  0.41800000000E+01 0. -1.
        -11    1    1    2    0    0 -0.22686287303E+02  0.50063228388E+02  0.11290773841E+02  0.56111282663E+02  0.00000000000E+00 0.  1.
         11    1    1    2    0    0 -0.94851667462E+01  0.11941394310E+02 -0.73462782332E+02  0.75028965568E+02  0.00000000000E+00 0. -1.
</event>
<event>
 7    1  0.4966153E-006  0.1368011E+03  0.7561462E-02  0.1217699E+00
          2   -1    0    0  501    0  0.00000000000E+00  0.00000000000E+00  0.37172094497E+03  0.37172094497E+03  0.00000000000E+00 0.  1.
         -2   -1    0    0    0  501 -0.00000000000E+00 -0.00000000000E+00 -0.52358841502E+02  0.52358841502E+02  0.00000000000E+00 0. -1.
         23    2    1    2    0    0  0.77701613419E+02  0.40140209593E+02  0.16662158208E+03  0.22596910294E+03  0.12510198526E+03 0.  0.
          5    1    3    3  502    0  0.29401081676E+02  0.82460870518E+02  0.10619723962E+03  0.13769366315E+03  0.41800000000E+01 0. -1.
         -5    1    3    3    0  502  0.48300531743E+02 -0.42320660925E+02  0.60424342464E+02  0.88275439789E+02  0.41800000000E+01 0. -1.
        -11    1    1    2    0    0 -0.11577894531E+02 -0.52991827449E+02  0.94975721683E+02  0.10937353029E+03  0.00000000000E+00 0.  1.
         11    1    1    2    0    0 -0.66123718887E+02  0.12851617855E+02  0.57764799709E+02  0.88737153247E+02  0.00000000000E+00 0. -1.
</event>
<event>
 7    1  0.4966153E-006  0.9595848E+02  0.7561462E-02  0.1289032E+00
         -2   -1    0    0    0  501 -0.00000000000E+00  0.00000000000E+00  0.41338301857E+02  0.41338301857E+02  0.00000000000E+00 0.  1.
          2   -1    0    0  501    0  0.00000000000E+00 -0.00000000000E+00 -0.33768028855E+03  0.33768028855E+03  0.00000000000E+00 0. -1.
         23    2    1    2    0    0 -0.97902436108E+01  0.20086394909E+02 -0.10280901426E+03  0.16417226125E+03  0.12602986082E+03 0.  0.
          5    1    3    3  502    0  0.37159049288E+02 -0.37361221912E+02 -0.52025485370E+02  0.74167239228E+02  0.41800000000E+01 0. -1.
         -5    1    3    3    0  502 -0.46949292899E+02  0.57447616821E+02 -0.50783528887E+02  0.90005022017E+02  0.41800000000E+01 0.  1.
        -11    1    1    2    0    0  0.10527984335E+02  0.21086286097E+02 -0.81391369911E+01  0.24934222797E+02  0.00000000000E+00 0.  1.
         11    1    1    2    0    0 -0.73774072396E+00 -0.41172681006E+02 -0.18539383545E+03  0.18991210636E+03  0.00000000000E+00 0. -1.
</event>
<event>
 7    1  0.4966153E-006  0.1980221E+03  0.7561462E-02  0.1151419E+00
          1   -1    0    0  501    0  0.00000000000E+00  0.00000000000E+00  0.78045797016E+03  0.78045797016E+03  0.00000000000E+00 0. -1.
         -1   -1    0    0    0  501 -0.00000000000E+00 -0.00000000000E+00 -0.71783846578E+02  0.71783846578E+02  0.00000000000E+00 0.  1.
         23    2    1    2    0    0  0.17909674508E+03  0.29856288975E+02  0.17572717143E+03  0.28195485934E+03  0.12510580257E+03 0.  0.
          5    1    3    3  502    0 -0.16249935103E+02  0.13818704491E+01  0.36963522196E+02  0.40617044820E+02  0.41800000000E+01 0.  1.
         -5    1    3    3    0  502  0.19534668018E+03  0.28474418526E+02  0.13876364924E+03  0.24133781452E+03  0.41800000000E+01 0.  1.
        -11    1    1    2    0    0 -0.12294722729E+03 -0.24339065204E+02  0.46686694999E+03  0.48339751736E+03  0.00000000000E+00 0. -1.
         11    1    1    2    0    0 -0.56149517785E+02 -0.55172237718E+01  0.66080002165E+02  0.86889440047E+02  0.00000000000E+00 0.  1.
</event>
<event>
 7    1  0.4966153E-006  0.1329179E+03  0.7561462E-02  0.1223189E+00
          2   -1    0    0  501    0  0.00000000000E+00  0.00000000000E+00  0.15731670500E+03  0.15731670500E+03  0.00000000000E+00 0. -1.
         -2   -1    0    0    0  501 -0.00000000000E+00 -0.00000000000E+00 -0.16184531346E+03  0.16184531346E+03  0.00000000000E+00 0.  1.
         23    2    1    2    0    0  0.10604234269E+03 -0.25627651681E+02 -0.43781825158E+02  0.17166706189E+03  0.12510386465E+03 0.  0.
          5    1    3    3  502    0 -0.12539013284E+02  0.69679749710E+01  0.26161105270E+02  0.30127319135E+02  0.41800000000E+01 0. -1.
         -5    1    3    3    0  502  0.11858135598E+03 -0.32595626652E+02 -0.69942930427E+02  0.14153974276E+03  0.41800000000E+01 0. -1.
        -11    1    1    2    0    0 -0.97464619889E+02  0.44477648352E+02  0.47319656826E+01  0.10723807548E+03  0.00000000000E+00 0. -1.
         11    1    1    2    0    0 -0.85777228042E+01 -0.18849996671E+02  0.34521251015E+02  0.40256881084E+02  0.00000000000E+00 0.  1.
</event>
<event>
 6    1  0.4966153E-006  0.1302671E+03  0.7561462E-02  0.1227060E+00
          1   -1    0    0  501    0  0.00000000000E+00  0.00000000000E+00  0.51781024329E+03  0.51781024329E+03  0.00000000000E+00 0. -1.
         -1   -1    0    0    0  501 -0.00000000000E+00 -0.00000000000E+00 -0.41877213002E+02  0.41877213002E+02  0.00000000000E+00 0.  1.
          5    1    1    2  502    0 -0.74532567426E+02 -0.27734022915E+02  0.19717385037E+03  0.21264825253E+03  0.41800000000E+01 0.  1.
         -5    1    1    2    0  502  0.20413219839E+02 -0.49062637812E+02  0.19158820376E+02  0.56642517347E+02  0.41800000000E+01 0.  1.
        -11    1    1    2    0    0 -0.16544375939E+02  0.48902108423E+02  0.13409533710E+03  0.14368956822E+03  0.00000000000E+00 0.  1.
         11    1    1    2    0    0  0.70663723526E+02  0.27894552304E+02  0.12550502244E+03  0.14670711819E+03  0.00000000000E+00 0. -1.
</event>
<event>
 7    1  0.4966153E-006  0.1218893E+03  0.7561462E-02  0.1240012E+00
          1   -1    0    0  501    0  0.00000000000E+00  0.00000000000E+00  0.24388208099E+02  0.24388208099E+02  0.00000000000E+00 0. -1.
         -1   -1    0    0    0  501 -0.00000000000E+00 -0.00000000000E+00 -0.94738354427E+03  0.94738354427E+03  0.00000000000E+00 0.  1.
         23    2    1    2    0    0 -0.70306585498E+02 -0.80629144390E+02 -0.57728092454E+03  0.60028753223E+03  0.12509108928E+03 0.  0.
          5    1    3    3  502    0 -0.50136766891E+02 -0.47644198826E+02 -0.10135884912E+03  0.12277928885E+03  0.41800000000E+01 0. -1.
         -5    1    3    3    0  502 -0.20169818606E+02 -0.32984945564E+02 -0.47592207543E+03  0.47750824338E+03  0.41800000000E+01 0. -1.
        -11    1    1    2    0    0 -0.86748836514E+01 -0.11400344554E+02 -0.45430052511E+02  0.47635187975E+02  0.00000000000E+00 0.  1.
         11    1    1    2    0    0  0.78981469149E+02  0.92029488943E+02 -0.30028435912E+03  0.32384903217E+03  0.00000000000E+00 0. -1.
</event>
<event>
 7    1  0.4966153E-006  0.2097362E+03  0.7561462E-02  0.1141775E+00
          2   -1    0    0  501    0  0.00000000000E+00  0.00000000000E+00  0.12451217047E+04  0.12451217047E+04  0.00000000000E+00 0. -1.
         -2   -1    0    0    0  501 -0.00000000000E+00 -0.00000000000E+00 -0.38319628207E+02  0.38319628207E+02  0.00000000000E+00 0.  1.
         23    2    1    2    0    0 -0.47095696390E+02  0.18115678856E+03  0.54457300935E+03  0.58927478109E+03  0.12509683635E+03 0.  0.
          5    1    3    3  502    0  0.40601327809E+02  0.61606641067E+02  0.22797777871E+03  0.23965639159E+03  0.41800000000E+01 0. -1.
         -5    1    3    3    0  502 -0.87697024199E+02  0.11955014749E+03  0.31659523063E+03  0.34961838950E+03  0.41800000000E+01 0. -1.
        -11    1    1    2    0    0  0.29711304324E+02 -0.21570613632E+02  0.55391768044E+02  0.66455255203E+02  0.00000000000E+00 0.  1.
         11    1    1    2    0    0  0.17384392067E+02 -0.15958617492E+03  0.60683729915E+03  0.62771129666E+03  0.00000000000E+00 0. -1.
</event>
<event>
 7    1  0.4966153E-006  0.1529960E+03  0.7561462E-02  0.1196839E+00
          2   -1    0    0  501    0  0.00000000000E+00  0.00000000000E+00  0.78302428288E+03  0.78302428288E+03  0.00000000000E+00 0. -1.
         -2   -1    0    0    0  501 -0.00000000000E+00 -0.00000000000E+00 -0.53676736544E+02  0.53676736544E+02  0.00000000000E+00 0.  1.
         23    2    1    2    0    0 -0.37086411932E+01  0.14024482102E+03  0.17133431448E+03  0.25433343352E+03  0.12509070408E+03 0.  0.
          5    1    3    3  502    0  0.13337672387E+02 -0.80551067784E+01  0.74786228119E+02  0.76506408661E+02  0.41800000000E+01 0.  1.
         -5    1    3    3    0  502 -0.17046313580E+02  0.14829992779E+03  0.96548086361E+02  0.17782702486E+03  0.41800000000E+01 0.  1.
        -11    1    1    2    0    0  0.62411607467E+01 -0.10837595810E+03  0.52614699401E+03  0.53722896393E+03  0.00000000000E+00 0. -1.
         11    1    1    2    0    0 -0.25325195535E+01 -0.31868862917E+02  0.31866237845E+02  0.45138621970E+02  0.00000000000E+00 0.  1.
</event>
<event>
 7    1  0.4966153E-006  0.8785529E+02  0.7561462E-02  0.1308130E+00
          2   -1    0    0  501    0  0.00000000000E+00  0.00000000000E+00  0.90750283320E+02  0.90750283320E+02  0.00000000000E+00 0. -1.
         -2   -1    0    0    0  501 -0.00000000000E+00 -0.00000000000E+00 -0.14514089642E+03  0.14514089642E+03  0.00000000000E+00 0.  1.
         23    2    1    2    0    0 -0.38418446560E+01  0.38334434940E+02 -0.16447469822E+02  0.13191694380E+03  0.12508905677E+03 0.  0.
          5    1    3    3  502    0  0.45863771762E+02 -0.13791473714E+02  0.18800137546E+02  0.51619839977E+02  0.41800000000E+01 0.  1.
         -5    1    3    3    0  502 -0.49705616418E+02  0.52125908654E+02 -0.35247607368E+02  0.80297103819E+02  0.41800000000E+01 0.  1.
        -11    1    1    2    0    0 -0.11712522234E+02  0.23379511397E+01 -0.55686467157E+02  0.56952891209E+02  0.00000000000E+00 0.  1.
         11    1    1    2    0    0  0.15554366890E+02 -0.40672386080E+02  0.17743323877E+02  0.47021344738E+02  0.00000000000E+00 0. -1.
</event>
<event>
 7    1  0.4966153E-006  0.9677168E+02  0.7561462E-02  0.1287235E+00
         -3   -1    0    0    0  501 -0.00000000000E+00  0.00000000000E+00  0.99842593401E+02  0.99842593401E+02  0.00000000000E+00 0.  1.
          3   -1    0    0  501    0  0.00000000000E+00 -0.00000000000E+00 -0.22107044672E+03  0.22107044672E+03  0.00000000000E+00 0. -1.
         23    2    1    2    0    0 -0.40035237152E+02 -0.63055617349E+01  0.34165695997E+02  0.13585320780E+03  0.12508484706E+03 0.  0.
          5    1    3    3  502    0 -0.54013885490E+01 -0.53417076556E+02  0.51713892442E+02  0.74661624263E+02  0.41800000000E+01 0.  1.
         -5    1    3    3    0  502 -0.34633848603E+02  0.47111514821E+02 -0.17548196445E+02  0.61191583541E+02  0.41800000000E+01 0.  1.
        -11    1    1    2    0    0  0.16032747297E+02  0.38039993201E+02 -0.13330525955E+03  0.13955064418E+03  0.00000000000E+00 0. -1.
         11    1    1    2    0    0  0.24002489856E+02 -0.31734431466E+02 -0.22088289770E+02  0.45509188135E+02  0.00000000000E+00 0.  1.
</event>
<event>
 7    1  0.4966153E-006  0.6426372E+02  0.7561462E-02  0.1380763E+00
         -2   -1    0    0    0  501 -0.00000000000E+00  0.00000000000E+00  0.28832744841E+02  0.28832744841E+02  0.00000000000E+00 0.  1.
          2   -1    0    0  501    0  0.00000000000E+00 -0.00000000000E+00 -0.52661449334E+03  0.52661449334E+03  0.00000000000E+00 0. -1.
         23    2    1    2    0    0  0.31750378948E+02  0.48523924181E+01 -0.16755079564E+03  0.21154755238E+03  0.12508982982E+03 0.  0.
          5    1    3    3  502    0  0.16331223057E+02 -0.13912204197E+01 -0.18576197844E+03  0.18653050522E+03  0.41800000000E+01 0. -1.
         -5    1    3    3    0  502  0.15419155891E+02  0.62436128378E+01  0.18211182808E+02  0.25017047166E+02  0.41800000000E+01 0. -1.
        -11    1    1    2    0    0 -0.62720879217E+02 -0.84248617579E+01 -0.19062598008E+03  0.20085604613E+03  0.00000000000E+00 0.  1.
         11    1    1    2    0    0  0.30970500269E+02  0.35724693398E+01 -0.13960497278E+03  0.14304363967E+03  0.00000000000E+00 0. -1.
</event>
<event>
 7    1  0.4966153E-006  0.8632441E+02  0.7561462E-02  0.1312005E+00
          1   -1    0    0  501    0  0.00000000000E+00  0.00000000000E+00  0.72904473696E+02  0.72904473696E+02  0.00000000000E+00 0. -1.
         -1   -1    0    0    0  501 -0.00000000000E+00 -0.00000000000E+00 -0.18489295079E+03  0.18489295079E+03  0.00000000000E+00 0.  1.
         23    2    1    2    0    0  0.91361471981E+00 -0.44987214173E+01 -0.11073392856E+03  0.16712479929E+03  0.12509045693E+03 0.  0.
          5    1    3    3  502    0  0.13650565643E+02 -0.59353738527E+02 -0.86029334342E+02  0.10548802295E+03  0.41800000000E+01 0. -1.
         -5    1    3    3    0  502 -0.12736950923E+02  0.54855017109E+02 -0.24704594223E+02  0.61636776332E+02  0.41800000000E+01 0. -1.
        -11    1    1    2    0    0 -0.26572249260E+02 -0.62769651592E+01 -0.36615038827E+02  0.45674344994E+02  0.00000000000E+00 0.  1.
         11    1    1    2    0    0  0.25658634540E+02  0.10775686577E+02  0.35360490296E+02  0.44998280207E+02  0.00000000000E+00 0. -1.
</event>
<event>
 7    1  0.4966153E-006  0.8802267E+02  0.7561462E-02  0.1307712E+00
         -1   -1    0    0    0  501 -0.00000000000E+00  0.00000000000E+00  0.10895059562E+03  0.10895059562E+03  0.00000000000E+00 0.  1.
          1   -1    0    0  501    0  0.00000000000E+00 -0.00000000000E+00 -0.18722054702E+03  0.18722054702E+03  0.00000000000E+00 0. -1.
         23    2    1    2    0    0  0.22574114322E+02 -0.75989884476E+02  0.15554632839E+02  0.14890882369E+03  0.12509131860E+03 0.  0.
          5    1    3    3  502    0  0.70762499607E+01 -0.45543980915E+02 -0.54112392510E+02  0.71203587931E+02  0.41800000000E+01 0. -1.
         -5    1    3    3    0  502  0.15497864361E+02 -0.30445903562E+02  0.69667025349E+02  0.77705235760E+02  0.41800000000E+01 0. -1.
        -11    1    1    2    0    0 -0.18483388940E+02 -0.75015850271E+00  0.76108395424E+01  0.20003081838E+02  0.00000000000E+00 0.  1.
         11    1    1    2    0    0 -0.40907253818E+01  0.76740042979E+02 -0.10143542379E+03  0.12725923711E+03  0.00000000000E+00 0. -1.
</event>
<event>
 7    1  0.4966153E-006  0.1062910E+03  0.7561462E-02  0.1267597E+00
          1   -1    0    0  501    0  0.00000000000E+00  0.00000000000E+00  0.22888853729E+03  0.22888853729E+03  0.00000000000E+00 0. -1.
         -1   -1    0    0    0  501 -0.00000000000E+00 -0.00000000000E+00 -0.82367197759E+02  0.82367197759E+02  0.00000000000E+00 0.  1.
         23    2    1    2    0    0  0.68322315486E+02 -0.23590359994E+02  0.34529621893E+02  0.14853815318E+03  0.12508734662E+03 0.  0.
          5    1    3    3  502    0 -0.19348744257E+02 -0.24497811879E+02  0.50309999827E+02  0.59355582499E+02  0.41800000000E+01 0. -1.
         -5    1    3    3    0  502  0.87671059743E+02  0.90745188452E+00 -0.15780377934E+02  0.89182570680E+02  0.41800000000E+01 0. -1.
        -11    1    1    2    0    0  0.43033603661E+01  0.20149209043E+02 -0.82572064282E+01  0.22196643744E+02  0.00000000000E+00 0.  1.
         11    1    1    2    0    0 -0.72625675852E+02  0.34411509507E+01  0.12024892406E+03  0.14052093812E+03  0.00000000000E+00 0. -1.
</event>
<event>
 7    1  0.4966153E-006  0.2187476E+03  0.7561462E-02  0.1134820E+00
          1   -1    0    0  501    0  0.00000000000E+00  0.00000000000E+00  0.86970069858E+03  0.86970069858E+03  0.00000000000E+00 0. -1.
         -1   -1    0    0    0  501 -0.00000000000E+00 -0.00000000000E+00 -0.76058923461E+02  0.76058923461E+02  0.00000000000E+00 0.  1.
         23    2    1    2    0    0  0.18685291546E+03  0.56362816328E+02  0.17447117072E+03  0.29013596592E+03  0.12509160733E+03 0.  0.
          5    1    3    3  502    0  0.58540505047E+02  0.81914380038E+02  0.81049547135E+02  0.12931920924E+03  0.41800000000E+01 0.  1.
         -5    1    3    3    0  502  0.12831241041E+03 -0.25551563710E+02  0.93421623587E+02  0.16081675667E+03  0.41800000000E+01 0.  1.
        -11    1    1    2    0    0 -0.11917102844E+03 -0.22822799251E+01  0.45054542310E+03  0.46604519212E+03  0.00000000000E+00 0. -1.
         11    1    1    2    0    0 -0.67681887018E+02 -0.54080536403E+02  0.16862518130E+03  0.18957846401E+03  0.00000000000E+00 0.  1.
</event>
<event>
 7    1  0.4966153E-006  0.1065120E+03  0.7561462E-02  0.1267169E+00
         -4   -1    0    0    0  501 -0.00000000000E+00  0.00000000000E+00  0.38666414842E+03  0.38666414842E+03  0.00000000000E+00 0.  1.
          4   -1    0    0  501    0  0.00000000000E+00 -0.00000000000E+00 -0.58224888969E+02  0.58224888969E+02  0.00000000000E+00 0. -1.
         23    2    1    2    0    0  0.79316527251E+02 -0.52188698344E+02  0.22949576889E+03  0.27808105211E+03  0.12508393931E+03 0.  0.
          5    1    3    3  502    0 -0.57669253888E+01 -0.27507573436E+02  0.16744789776E+03  0.16984167595E+03  0.41800000000E+01 0. -1.
         -5    1    3    3    0  502  0.85083452640E+02 -0.24681124908E+02  0.62047871128E+02  0.10823937616E+03  0.41800000000E+01 0. -1.
        -11    1    1    2    0    0 -0.56262150740E+02  0.29306347043E+02  0.11441849344E+03  0.13082768524E+03  0.00000000000E+00 0.  1.
         11    1    1    2    0    0 -0.23054376511E+02  0.22882351301E+02 -0.15475002877E+02  0.35980300047E+02  0.00000000000E+00 0. -1.
</event>
<event>
 7    1  0.4966153E-006  0.3540089E+03  0.7561462E-02  0.1060982E+00
          1   -1    0    0  501    0  0.00000000000E+00  0.00000000000E+00  0.72002211661E+03  0.72002211661E+03  0.00000000000E+00 0. -1.
         -1   -1    0    0    0  501 -0.00000000000E+00 -0.00000000000E+00 -0.19030010400E+03  0.19030010400E+03  0.00000000000E+00 0.  1.
         23    2    1    2    0    0 -0.76395044220E+02  0.33826107945E+03  0.36184133886E+03  0.51401274175E+03  0.11411916368E+03 0.  0.
          5    1    3    3  502    0 -0.23995481940E+02  0.26035302550E+03  0.31377787902E+03  0.40845258085E+03  0.41800000000E+01 0. -1.
         -5    1    3    3    0  502 -0.52399562280E+02  0.77908053950E+02  0.48063459847E+02  0.10556016090E+03  0.41800000000E+01 0.  1.
        -11    1    1    2    0    0  0.78846671919E+02 -0.21084907963E+03  0.70385024822E+02  0.23585627779E+03  0.00000000000E+00 0.  1.
         11    1    1    2    0    0 -0.24516276993E+01 -0.12741199982E+03  0.97495648923E+02  0.16045320107E+03  0.00000000000E+00 0. -1.
</event>
<event>
 7    1  0.4966153E-006  0.1684519E+03  0.7561462E-02  0.1179472E+00
          2   -1    0    0  501    0  0.00000000000E+00  0.00000000000E+00  0.10443698555E+03  0.10443698555E+03  0.00000000000E+00 0. -1.
         -2   -1    0    0    0  501 -0.00000000000E+00 -0.00000000000E+00 -0.29841823302E+03  0.29841823302E+03  0.00000000000E+00 0.  1.
         23    2    1    2    0    0 -0.80706965622E+02 -0.10673834737E+03 -0.13543480537E+03  0.22780733427E+03  0.12508759308E+03 0.  0.
          5    1    3    3  502    0 -0.11427027875E+03 -0.75519994390E+02 -0.10483031540E+03  0.17253357234E+03  0.41800000000E+01 0. -1.
         -5    1    3    3    0  502  0.33563313129E+02 -0.31218352982E+02 -0.30604489965E+02  0.55273761923E+02  0.41800000000E+01 0. -1.
        -11    1    1    2    0    0  0.23588748406E+02  0.91828019845E+02 -0.66038976734E+02  0.11554203014E+03  0.00000000000E+00 0. -1.
         11    1    1    2    0    0  0.57118217217E+02  0.14910327527E+02  0.74925346276E+01  0.59505854167E+02  0.00000000000E+00 0.  1.
</event>
<event>
 7    1  0.4966153E-006  0.1392456E+03  0.7561462E-02  0.1214348E+00
         -1   -1    0    0    0  501 -0.00000000000E+00  0.00000000000E+00  0.23754615036E+02  0.23754615036E+02  0.00000000000E+00 0.  1.
          1   -1    0    0  501    0  0.00000000000E+00 -0.00000000000E+00 -0.89243717190E+03  0.89243717190E+03  0.00000000000E+00 0. -1.
         23    2    1    2    0    0  0.75903119784E+02  0.48955209049E+02 -0.37011531547E+03  0.40098725990E+03  0.12509012659E+03 0.  0.
          5    1    3    3  502    0 -0.31987760130E+02  0.20651585451E+02 -0.57938115459E+02  0.69455038714E+02  0.41800000000E+01 0.  1.
         -5    1    3    3    0  502  0.10789087991E+03  0.28303623598E+02 -0.31217720001E+03  0.33153222119E+03  0.41800000000E+01 0.  1.
        -11    1    1    2    0    0 -0.85550030652E+02 -0.73574239408E+01 -0.29697244854E+03  0.30913682185E+03  0.00000000000E+00 0. -1.
         11    1    1    2    0    0  0.96469108687E+01 -0.41597785108E+02 -0.20159479285E+03  0.20606770518E+03  0.00000000000E+00 0.  1.
</event>
<event>
 7    1  0.4966153E-006  0.1071537E+03  0.7561462E-02  0.1265933E+00
          4   -1    0    0  501    0  0.00000000000E+00  0.00000000000E+00  0.21826613260E+03  0.21826613260E+03  0.00000000000E+00 0.  1.
         -4   -1    0    0    0  501 -0.00000000000E+00 -0.00000000000E+00 -0.72568643888E+02  0.72568643888E+02  0.00000000000E+00 0. -1.
         23    2    1    2    0    0 -0.15447337124E+02  0.19303163778E+02  0.14778516850E+02  0.12836464392E+03  0.12509134620E+03 0.  0.
          5    1    3    3  502    0 -0.46242483696E+02 -0.38390373952E+02 -0.34496791013E+01  0.60345346105E+02  0.41800000000E+01 0.  1.
         -5    1    3    3    0  502  0.30795146572E+02  0.57693537730E+02  0.18228195951E+02  0.68019297820E+02  0.41800000000E+01 0.  1.
        -11    1    1    2    0    0  0.29524624388E+02  0.27076436378E+02  0.91883036844E+02  0.10023636721E+03  0.00000000000E+00 0.  1.
         11    1    1    2    0    0 -0.14077287263E+02 -0.46379600156E+02  0.39035935020E+02  0.62233765355E+02  0.00000000000E+00 0. -1.
</event>
<event>
 6    1  0.4966153E-006  0.1086476E+03  0.7561462E-02  0.1263095E+00
         -2   -1    0    0    0  501 -0.00000000000E+00  0.00000000000E+00  0.27471579244E+03  0.27471579244E+03  0.00000000000E+00 0.  1.
          2   -1    0    0  501    0  0.00000000000E+00 -0.00000000000E+00 -0.72814463698E+02  0.72814463698E+02  0.00000000000E+00 0. -1.
          5    1    1    2  502    0  0.19470498025E+02  0.47948984797E+02  0.13276114264E+03  0.14255244239E+03  0.41800000000E+01 0. -1.
         -5    1    1    2    0  502 -0.19731223311E+02 -0.73440210062E+02  0.79023424332E+02  0.10974953130E+03  0.41800000000E+01 0.  1.
        -11    1    1    2    0    0 -0.59084927912E+01  0.56900479673E+02 -0.21590544290E+02  0.61145126353E+02  0.00000000000E+00 0. -1.
         11    1    1    2    0    0  0.61692180778E+01 -0.31409254408E+02  0.11707306059E+02  0.34083156093E+02  0.00000000000E+00 0.  1.
</event>
<event>
 7    1  0.4966153E-006  0.1061871E+03  0.7561462E-02  0.1267798E+00
         -2   -1    0    0    0  501 -0.00000000000E+00  0.00000000000E+00  0.22276786526E+02  0.22276786526E+02  0.00000000000E+00 0.  1.
          2   -1    0    0  501    0  0.00000000000E+00 -0.00000000000E+00 -0.91149216324E+03  0.91149216324E+03  0.00000000000E+00 0. -1.
         23    2    1    2    0    0 -0.58863894866E+02  0.36796478256E+02 -0.28625872481E+03  0.32001507368E+03  0.12508657372E+03 0.  0.
          5    1    3    3  502    0 -0.43631859965E+02 -0.13319294078E+02 -0.25455796741E+03  0.25864719981E+03  0.41800000000E+01 0. -1.
         -5    1    3    3    0  502 -0.15232034901E+02  0.50115772335E+02 -0.31700757401E+02  0.61367873874E+02  0.41800000000E+01 0. -1.
        -11    1    1    2    0    0  0.35613061652E+01 -0.55518015271E+02 -0.32561075878E+03  0.33032907706E+03  0.00000000000E+00 0. -1.
         11    1    1    2    0    0  0.55302588701E+02  0.18721537015E+02 -0.27734589313E+03  0.28342479902E+03  0.00000000000E+00 0.  1.
</event>
<event>
 7    1  0.4966153E-006  0.1362052E+03  0.7561462E-02  0.1218528E+00
         -1   -1    0    0    0  501 -0.00000000000E+00  0.00000000000E+00  0.43887081860E+03  0.43887081860E+03  0.00000000000E+00 0.  1.
          1   -1    0    0  501    0  0.00000000000E+00 -0.00000000000E+00 -0.54021372356E+02  0.54021372356E+02  0.00000000000E+00 0. -1.
         23    2    1    2    0    0  0.82775066598E+02  0.62028319076E+02  0.26012861208E+03  0.30661665393E+03  0.12509058169E+03 0.  0.
          5    1    3    3  502    0  0.23323068684E+02 -0.29462129186E+02  0.19873332003E+02  0.42713046179E+02  0.41800000000E+01 0.  1.
         -5    1    3    3    0  502  0.59451997914E+02  0.91490448262E+02  0.24025528008E+03  0.26390360775E+03  0.41800000000E+01 0.  1.
        -11    1    1    2    0    0 -0.75744323500E+02 -0.14192769418E+02  0.11257307266E+03  0.13642336286E+03  0.00000000000E+00 0.  1.
         11    1    1    2    0    0 -0.70307430986E+01 -0.47835549658E+02  0.12147761507E+02  0.49852174168E+02  0.00000000000E+00 0. -1.
</event>
<event>
 6    1  0.4966153E-006  0.1182929E+03  0.7561462E-02  0.1245940E+00
         -1   -1    0    0    0  501 -0.00000000000E+00  0.00000000000E+00  0.16254152129E+03  0.16254152129E+03  0.00000000000E+00 0.  1.
          1   -1    0    0  501    0  0.00000000000E+00 -0.00000000000E+00 -0.24627690261E+03  0.24627690261E+03  0.00000000000E+00 0. -1.
          5    1    1    2  502    0 -0.17790244642E+01  0.61516853523E+02 -0.42301433895E+02  0.74795533991E+02  0.41800000000E+01 0. -1.
         -5    1    1    2    0  502  0.52099069668E+02 -0.56907880711E+02  0.11961132536E+03  0.14239789851E+03  0.41800000000E+01 0.  1.
        -11    1    1    2    0    0 -0.67876037944E+02  0.16822478108E+02 -0.81476706216E+02  0.10737134605E+03  0.00000000000E+00 0. -1.
         11    1    1    2    0    0  0.17555992739E+02 -0.21431450920E+02 -0.79568566569E+02  0.84253645354E+02  0.00000000000E+00 0.  1.
</event>
<event>
 7    1  0.4966153E-006  0.1096426E+03  0.7561462E-02  0.1261233E+00
          1   -1    0    0  501    0  0.00000000000E+00  0.00000000000E+00  0.24696315429E+03  0.24696315429E+03  0.00000000000E+00 0. -1.
         -1   -1    0    0    0  501 -0.00000000000E+00 -0.00000000000E+00 -0.76901225239E+02  0.76901225239E+02  0.00000000000E+00 0.  1.
         23    2    1    2    0    0 -0.54127424222E+01 -0.20296242390E+02 -0.46946781790E+00  0.12684021740E+03  0.12508790954E+03 0.  0.
          5    1    3    3  502    0  0.87395766679E+01 -0.70588428793E+02 -0.14217281076E+02  0.72654731167E+02  0.41800000000E+01 0.  1.
         -5    1    3    3    0  502 -0.14152319090E+02  0.50292186403E+02  0.13747813258E+02  0.54185486232E+02  0.41800000000E+01 0.  1.
        -11    1    1    2    0    0 -0.95530048912E+01  0.56052533530E+02  0.12433544257E+03  0.13672033022E+03  0.00000000000E+00 0.  1.
         11    1    1    2    0    0  0.14965747313E+02 -0.35756291140E+02  0.46195954298E+02  0.60303831904E+02  0.00000000000E+00 0. -1.
</event>
<event>
 7    1  0.4966153E-006  0.6485944E+02  0.7561462E-02  0.1378501E+00
          2   -1    0    0  501    0  0.00000000000E+00  0.00000000000E+00  0.15558773599E+03  0.15558773599E+03  0.00000000000E+00 0. -1.
         -2   -1    0    0    0  501 -0.00000000000E+00 -0.00000000000E+00 -0.11938160894E+03  0.11938160894E+03  0.00000000000E+00 0.  1.
         23    2    1    2    0    0  0.32733107471E+02  0.19586909586E+02 -0.50898180839E+02  0.14033188404E+03  0.12508920623E+03 0.  0.
          5    1    3    3  502    0  0.42468324471E+02  0.40605467321E+02 -0.82225251743E+02  0.10114755056E+03  0.41800000000E+01 0.  1.
         -5    1    3    3    0  502 -0.97352169996E+01 -0.21018557735E+02  0.31327070904E+02  0.39184333485E+02  0.41800000000E+01 0.  1.
        -11    1    1    2    0    0 -0.82849854679E+01 -0.21213155314E+02 -0.16533632569E+02  0.28142493644E+02  0.00000000000E+00 0.  1.
         11    1    1    2    0    0 -0.24448122004E+02  0.16262457272E+01  0.10363794046E+03  0.10649496724E+03  0.00000000000E+00 0. -1.
</event>
<event>
 7    1  0.4966153E-006  0.1081284E+03  0.7561462E-02  0.1264076E+00
         -2   -1    0    0    0  501 -0.00000000000E+00  0.00000000000E+00  0.13407767023E+03  0.13407767023E+03  0.00000000000E+00 0.  1.
          2   -1    0    0  501    0  0.00000000000E+00 -0.00000000000E+00 -0.15925505956E+03  0.15925505956E+03  0.00000000000E+00 0. -1.
         23    2    1    2    0    0  0.66978539170E+01  0.66536925262E+02  0.57528005651E+02  0.15307043812E+03  0.12509621865E+03 0.  0.
          5    1    3    3  502    0  0.18423775729E+02 -0.21327781615E+02 -0.20341183485E+02  0.35007798078E+02  0.41800000000E+01 0. -1.
         -5    1    3    3    0  502 -0.11725921812E+02  0.87864706877E+02  0.77869189137E+02  0.11806264004E+03  0.41800000000E+01 0. -1.
        -11    1    1    2    0    0 -0.16119713696E+02  0.11890924736E+02  0.65478790312E+01  0.21074011970E+02  0.00000000000E+00 0.  1.
         11    1    1    2    0    0  0.94218597792E+01 -0.78427849998E+02 -0.89253274014E+02  0.11918827971E+03  0.00000000000E+00 0. -1.
</event>
<event>
 7    1  0.4966153E-006  0.7661842E+02  0.7561462E-02  0.1338931E+00
         -1   -1    0    0    0  501 -0.00000000000E+00  0.00000000000E+00  0.92504387461E+03  0.92504387461E+03  0.00000000000E+00 0.  1.
          1   -1    0    0  501    0  0.00000000000E+00 -0.00000000000E+00 -0.15015611036E+02  0.15015611036E+02  0.00000000000E+00 0. -1.
         23    2    1    2    0    0  0.16264700567E+02 -0.43638842611E+02  0.51452708495E+03  0.53155949749E+03  0.12509392136E+03 0.  0.
          5    1    3    3  502    0  0.14714215869E+02 -0.44054464633E+02  0.52133196997E+03  0.52341360254E+03  0.41800000000E+01 0. -1.
         -5    1    3    3    0  502  0.15504846982E+01  0.41562202177E+00 -0.68048850256E+01  0.81458949586E+01  0.41800000000E+01 0. -1.
        -11    1    1    2    0    0 -0.35852121285E+01  0.71460292312E+02  0.26842302322E+03  0.27779551205E+03  0.00000000000E+00 0. -1.
         11    1    1    2    0    0 -0.12679488439E+02 -0.27821449701E+02  0.12707815541E+03  0.13070447610E+03  0.00000000000E+00 0.  1.
</event>
<event>
 7    1  0.4966153E-006  0.1564382E+03  0.7561462E-02  0.1192778E+00
         -1   -1    0    0    0  501 -0.00000000000E+00  0.00000000000E+00  0.38582919908E+03  0.38582919908E+03  0.00000000000E+00 0.  1.
          1   -1    0    0  501    0  0.00000000000E+00 -0.00000000000E+00 -0.76120976654E+02  0.76120976654E+02  0.00000000000E+00 0. -1.
         23    2    1    2    0    0 -0.10411382074E+03 -0.74105007284E+02  0.21389929131E+03  0.27880737220E+03  0.12509757870E+03 0.  0.
          5    1    3    3  502    0  0.56648747869E+01  0.27976185729E+02  0.35989044228E+02  0.46124196239E+02  0.41800000000E+01 0.  1.
         -5    1    3    3    0  502 -0.10977869552E+03 -0.10208119301E+03  0.17791024708E+03  0.23268317596E+03  0.41800000000E+01 0.  1.
        -11    1    1    2    0    0  0.98821957378E+02  0.52663824178E+02  0.33266554916E+02  0.11681575798E+03  0.00000000000E+00 0. -1.
         11    1    1    2    0    0  0.52918633595E+01  0.21441183107E+02  0.62542376208E+02  0.66327045559E+02  0.00000000000E+00 0.  1.
</event>
<event>
 7    1  0.4966153E-006  0.1211772E+03  0.7561462E-02  0.1241168E+00
          4   -1    0    0  501    0  0.00000000000E+00  0.00000000000E+00  0.51068161967E+03  0.51068161967E+03  0.00000000000E+00 0. -1.
         -4   -1    0    0    0  501 -0.00000000000E+00 -0.00000000000E+00 -0.39715543889E+02  0.39715543889E+02  0.00000000000E+00 0.  1.
         23    2    1    2    0    0  0.76833354340E+02 -0.46738385701E+02  0.22820859703E+03  0.27534424906E+03  0.12508977055E+03 0.  0.
          5    1    3    3  502    0  0.79099809458E+02 -0.63750886289E+01  0.53084708255E+02  0.95566104147E+02  0.41800000000E+01 0.  1.
         -5    1    3    3    0  502 -0.22664551172E+01 -0.40363297072E+02  0.17512388877E+03  0.17977814491E+03  0.41800000000E+01 0.  1.
        -11    1    1    2    0    0 -0.23332723735E+02  0.62301466726E+02  0.17566723907E+03  0.18784266724E+03  0.00000000000E+00 0.  1.
         11    1    1    2    0    0 -0.53500630605E+02 -0.15563081026E+02  0.67090239678E+02  0.87210247254E+02  0.00000000000E+00 0. -1.
</event>
<event>
 7    1  0.5286417E-006  0.1831203E+03  0.7561462E-02  0.1164817E+00
         -2   -1    0    0    0  501 -0.00000000000E+00  0.00000000000E+00  0.11720806703E+03  0.11720806703E+03  0.00000000000E+00 0.  1.
          2   -1    0    0  501    0  0.00000000000E+00 -0.00000000000E+00 -0.38376522046E+03  0.38376522046E+03  0.00000000000E+00 0. -1.
         23    2    1    2    0    0 -0.29031743546E+02  0.16853262127E+03 -0.69405835808E+02  0.22295933476E+03  0.12509040071E+03 0.  0.
          5    1    3    3  502    0 -0.52559252006E+02  0.15339808602E+03 -0.92247525274E+02  0.18660258863E+03  0.41800000000E+01 0.  1.
         -5    1    3    3    0  502  0.23527508460E+02  0.15134535252E+02  0.22841689466E+02  0.36356746132E+02  0.41800000000E+01 0.  1.
        -11    1    1    2    0    0 -0.34326107018E+01 -0.98473198169E+02 -0.46992746812E+02  0.10916534169E+03  0.00000000000E+00 0.  1.
         11    1    1    2    0    0  0.32464354248E+02 -0.70059423100E+02 -0.15015857081E+03  0.16884861104E+03  0.00000000000E+00 0. -1.
</event>
<event>
 7    1  0.7592816E-006  0.2736318E+03  0.7561462E-02  0.1099219E+00
          2   -1    0    0  501    0  0.00000000000E+00  0.00000000000E+00  0.66038030894E+03  0.66038030894E+03  0.00000000000E+00 0. -1.
         -2   -1    0    0    0  501 -0.00000000000E+00 -0.00000000000E+00 -0.12533416197E+03  0.12533416197E+03  0.00000000000E+00 0.  1.
         23    2    1    2    0    0 -0.25342693178E+03  0.82425433128E+02  0.27809768629E+03  0.40497477595E+03  0.12508830583E+03 0.  0.
          5    1    3    3  502    0 -0.82358316902E+02 -0.14046430156E+02  0.14594658402E+03  0.16822030897E+03  0.41800000000E+01 0.  1.
         -5    1    3    3    0  502 -0.17106861488E+03  0.96471863284E+02  0.13215110227E+03  0.23675446698E+03  0.41800000000E+01 0.  1.
        -11    1    1    2    0    0  0.12496380497E+03 -0.30655071644E+02  0.18307374315E+03  0.22376702483E+03  0.00000000000E+00 0. -1.
         11    1    1    2    0    0  0.12846312681E+03 -0.51770361484E+02  0.73874717522E+02  0.15697267013E+03  0.00000000000E+00 0.  1.
</event>
<event>
 7    1  0.4966153E-006  0.1463180E+03  0.7561462E-02  0.1205072E+00
         -2   -1    0    0    0  501 -0.00000000000E+00  0.00000000000E+00  0.64976395303E+02  0.64976395303E+02  0.00000000000E+00 0.  1.
          2   -1    0    0  501    0  0.00000000000E+00 -0.00000000000E+00 -0.36169564644E+03  0.36169564644E+03  0.00000000000E+00 0. -1.
         23    2    1    2    0    0 -0.40160692222E+02  0.97613421230E+02 -0.12805095134E+03  0.20781110185E+03  0.12508855546E+03 0.  0.
          5    1    3    3  502    0 -0.51454313197E+02 -0.12060448752E+02 -0.35520012029E+02  0.63813356166E+02  0.41800000000E+01 0. -1.
         -5    1    3    3    0  502  0.11293620975E+02  0.10967386998E+03 -0.92530939311E+02  0.14399774568E+03  0.41800000000E+01 0. -1.
        -11    1    1    2    0    0  0.91319422344E+01 -0.97834334074E+02 -0.15797516338E+03  0.18604059110E+03  0.00000000000E+00 0. -1.
         11    1    1    2    0    0  0.31028749988E+02  0.22091284458E+00 -0.10693136411E+02  0.32820348788E+02  0.00000000000E+00 0.  1.
</event>
<event>
 7    1  0.4966153E-006  0.1455479E+03  0.7561462E-02  0.1206053E+00
          1   -1    0    0  501    0  0.00000000000E+00  0.00000000000E+00  0.26284100184E+03  0.26284100184E+03  0.00000000000E+00 0. -1.
         -1   -1    0    0    0  501 -0.00000000000E+00 -0.00000000000E+00 -0.11259254451E+03  0.11259254451E+03  0.00000000000E+00 0.  1.
         23    2    1    2    0    0  0.10435059706E+03 -0.47418441984E+02  0.54889347955E+01  0.16976033875E+03  0.12510351099E+03 0.  0.
          5    1    3    3  502    0  0.57090252558E+02 -0.82259162716E+02 -0.25258183227E+02  0.10335044754E+03  0.41800000000E+01 0.  1.
         -5    1    3    3    0  502  0.47260344499E+02  0.34840720731E+02  0.30747118022E+02  0.66409891206E+02  0.41800000000E+01 0.  1.
        -11    1    1    2    0    0 -0.22298054058E+02  0.44660125079E+02  0.14999230476E+02  0.52122038542E+02  0.00000000000E+00 0.  1.
         11    1    1    2    0    0 -0.82052542999E+02  0.27583169049E+01  0.12976029205E+03  0.15355116906E+03  0.00000000000E+00 0. -1.
</event>
<event>
 7    1  0.4966153E-006  0.4417068E+02  0.7561462E-02  0.1479586E+00
          1   -1    0    0  501    0  0.00000000000E+00  0.00000000000E+00  0.19542015323E+03  0.19542015323E+03  0.00000000000E+00 0. -1.
         -1   -1    0    0    0  501 -0.00000000000E+00 -0.00000000000E+00 -0.23188180407E+03  0.23188180407E+03  0.00000000000E+00 0.  1.
         23    2    1    2    0    0 -0.79948321138E+01 -0.37457797004E+02 -0.20506451030E+03  0.24325694439E+03  0.12512187545E+03 0.  0.
          5    1    3    3  502    0  0.48412540528E+01 -0.16370384597E+02  0.14182951209E+02  0.22584413601E+02  0.41800000000E+01 0. -1.
         -5    1    3    3    0  502 -0.12836086167E+02 -0.21087412407E+02 -0.21924746150E+03  0.22067253079E+03  0.41800000000E+01 0.  1.
        -11    1    1    2    0    0  0.17107556687E+02  0.23900674191E+02  0.16463062282E+03  0.16723382640E+03  0.00000000000E+00 0. -1.
         11    1    1    2    0    0 -0.91127245729E+01  0.13557122813E+02  0.39722366340E+01  0.16811186513E+02  0.00000000000E+00 0.  1.
</event>
<event>
 7    1  0.4966153E-006  0.1511459E+03  0.7561462E-02  0.1199072E+00
          2   -1    0    0  501    0  0.00000000000E+00  0.00000000000E+00  0.90171614034E+03  0.90171614034E+03  0.00000000000E+00 0. -1.
         -2   -1    0    0    0  501 -0.00000000000E+00 -0.00000000000E+00 -0.29722284049E+02  0.29722284049E+02  0.00000000000E+00 0.  1.
         23    2    1    2    0    0 -0.11330357100E+03  0.42788771482E+02  0.43446777459E+03  0.46805826207E+03  0.12509081249E+03 0.  0.
          5    1    3    3  502    0 -0.95088771425E+02 -0.91461591569E+01  0.14715920232E+03  0.17549595410E+03  0.41800000000E+01 0.  1.
         -5    1    3    3    0  502 -0.18214799576E+02  0.51934930639E+02  0.28730857227E+03  0.29256230797E+03  0.41800000000E+01 0.  1.
        -11    1    1    2    0    0  0.83400046358E+02 -0.71625476693E+02  0.34133120656E+03  0.35859833967E+03  0.00000000000E+00 0. -1.
         11    1    1    2    0    0  0.29903524644E+02  0.28836705210E+02  0.96194875140E+02  0.10478182264E+03  0.00000000000E+00 0.  1.
</event>
<event>
 7    1  0.4966153E-006  0.1220359E+03  0.7561462E-02  0.1239776E+00
          2   -1    0    0  501    0  0.00000000000E+00  0.00000000000E+00  0.22241355002E+03  0.22241355002E+03  0.00000000000E+00 0. -1.
         -2   -1    0    0    0  501 -0.00000000000E+00 -0.00000000000E+00 -0.86132220265E+02  0.86132220265E+02  0.00000000000E+00 0.  1.
         23    2    1    2    0    0  0.61441990608E+02  0.12559994876E+02  0.69259293673E+01  0.14009878503E+03  0.12508728707E+03 0.  0.
          5    1    3    3  502    0  0.50451413488E+02  0.66171860396E+02  0.14895694402E+02  0.84636956130E+02  0.41800000000E+01 0.  1.
         -5    1    3    3    0  502  0.10990577120E+02 -0.53611865520E+02 -0.79697650346E+01  0.55461828897E+02  0.41800000000E+01 0.  1.
        -11    1    1    2    0    0 -0.60012352520E+02  0.27338180379E+02  0.64216485047E+02  0.92046811531E+02  0.00000000000E+00 0.  1.
         11    1    1    2    0    0 -0.14296380886E+01 -0.39898175255E+02  0.65138915346E+02  0.76400173731E+02  0.00000000000E+00 0. -1.
</event>
<event>
 7    1  0.4966153E-006  0.1369601E+03  0.7561462E-02  0.1217479E+00
          2   -1    0    0  501    0  0.00000000000E+00  0.00000000000E+00  0.16244285212E+04  0.16244285212E+04  0.00000000000E+00 0. -1.
         -2   -1    0    0    0  501 -0.00000000000E+00 -0.00000000000E+00 -0.15453732741E+02  0.15453732741E+02  0.00000000000E+00 0.  1.
         23    2    1    2    0    0 -0.40244519995E+02  0.10728633851E+03  0.77775957065E+03  0.79604499600E+03  0.12509079138E+03 0.  0.
          5    1    3    3  502    0 -0.37100483845E+02  0.22491578826E+02  0.56891190699E+03  0.57057913328E+03  0.41800000000E+01 0. -1.
         -5    1    3    3    0  502 -0.31440361505E+01  0.84794759681E+02  0.20884766366E+03  0.22546586271E+03  0.41800000000E+01 0. -1.
        -11    1    1    2    0    0  0.61840578220E+02 -0.37490962894E+02  0.42164309880E+03  0.42779987398E+03  0.00000000000E+00 0.  1.
         11    1    1    2    0    0 -0.21596058225E+02 -0.69795375613E+02  0.40957211905E+03  0.41603738401E+03  0.00000000000E+00 0. -1.
</event>
<event>
 6    1  0.4966153E-006  0.1347287E+03  0.7561462E-02  0.1220603E+00
          3   -1    0    0  501    0  0.00000000000E+00  0.00000000000E+00  0.81469053208E+02  0.81469053208E+02  0.00000000000E+00 0. -1.
         -3   -1    0    0    0  501 -0.00000000000E+00 -0.00000000000E+00 -0.23351621834E+03  0.23351621834E+03  0.00000000000E+00 0.  1.
          5    1    1    2  502    0 -0.26012719009E+02  0.10067637307E+03 -0.62146233431E+02  0.12121064464E+03  0.41800000000E+01 0. -1.
         -5    1    1    2    0  502 -0.16005656812E+02 -0.55967623997E+02 -0.56874993075E+02  0.81491062228E+02  0.41800000000E+01 0.  1.
        -11    1    1    2    0    0  0.48697774216E+02 -0.67526457752E+02 -0.29056563749E+02  0.88179247032E+02  0.00000000000E+00 0.  1.
         11    1    1    2    0    0 -0.66793983950E+01  0.22817708675E+02 -0.39693748764E+01  0.24104317643E+02  0.00000000000E+00 0. -1.
</event>
<event>
 7    1  0.4966153E-006  0.9368200E+02  0.7561462E-02  0.1294172E+00
         -1   -1    0    0    0  501 -0.00000000000E+00  0.00000000000E+00  0.20290785617E+03  0.20290785617E+03  0.00000000000E+00 0.  1.
          1   -1    0    0  501    0  0.00000000000E+00 -0.00000000000E+00 -0.64089147088E+02  0.64089147088E+02  0.00000000000E+00 0. -1.
         23    2    1    2    0    0 -0.31552997286E+02  0.58836604510E+01  0.10009135343E+03  0.16338344727E+03  0.12508262354E+03 0.  0.
          5    1    3    3  502    0 -0.57550486304E+02  0.24614129381E+02  0.49768425765E+01  0.62929764031E+02  0.41800000000E+01 0. -1.
         -5    1    3    3    0  502  0.25997489018E+02 -0.18730468930E+02  0.95114510854E+02  0.10045368324E+03  0.41800000000E+01 0. -1.
        -11    1    1    2    0    0  0.13267553773E+02 -0.46189918654E+02  0.57115565742E+01  0.48395851547E+02  0.00000000000E+00 0.  1.
         11    1    1    2    0    0  0.18285443513E+02  0.40306258203E+02  0.33015799075E+02  0.55217704438E+02  0.00000000000E+00 0. -1.
</event>
<event>
 6    1  0.4966153E-006  0.7372098E+02  0.7561462E-02  0.1347878E+00
          2   -1    0    0  501    0  0.00000000000E+00  0.00000000000E+00  0.35215974853E+03  0.35215974853E+03  0.00000000000E+00 0. -1.
         -2   -1    0    0    0  501 -0.00000000000E+00 -0.00000000000E+00 -0.41939528531E+02  0.41939528531E+02  0.00000000000E+00 0.  1.
          5    1    1    2  502    0 -0.71761018639E+01  0.90852668478E+01  0.19678912794E+03  0.19717370968E+03  0.41800000000E+01 0. -1.
         -5    1    1    2    0  502  0.53033982121E+02  0.10038873080E+02 -0.38754927803E+01  0.54275906963E+02  0.41800000000E+01 0.  1.
        -11    1    1    2    0    0  0.15970301517E+02 -0.90373498679E+01  0.22829362266E+02  0.29289998372E+02  0.00000000000E+00 0. -1.
         11    1    1    2    0    0 -0.61828181775E+02 -0.10086790060E+02  0.94477222576E+02  0.11335966205E+03  0.00000000000E+00 0.  1.
</event>
<event>
 7    1  0.4966153E-006  0.1079193E+03  0.7561462E-02  0.1264472E+00
          1   -1    0    0  501    0  0.00000000000E+00  0.00000000000E+00  0.27880989307E+02  0.27880989307E+02  0.00000000000E+00 0. -1.
         -1   -1    0    0    0  501 -0.00000000000E+00 -0.00000000000E+00 -0.72352613117E+03  0.72352613117E+03  0.00000000000E+00 0.  1.
         23    2    1    2    0    0  0.73052977079E+02 -0.33576121776E+02 -0.49506064605E+03  0.51691188598E+03  0.12509500862E+03 0.  0.
          5    1    3    3  502    0  0.61124914951E+02 -0.50922070048E+02 -0.48778791693E+03  0.49425078326E+03  0.41800000000E+01 0. -1.
         -5    1    3    3    0  502  0.11928062128E+02  0.17345948272E+02 -0.72727291185E+01  0.22661102718E+02  0.41800000000E+01 0. -1.
        -11    1    1    2    0    0  0.98601554549E+01 -0.15492920232E+02 -0.99234738329E+01  0.20874112576E+02  0.00000000000E+00 0. -1.
         11    1    1    2    0    0 -0.82913132534E+02  0.49069042008E+02 -0.19066102198E+03  0.21362112192E+03  0.00000000000E+00 0.  1.
</event>
<event>
 7    1  0.4966153E-006  0.9088246E+02  0.7561462E-02  0.1300729E+00
         -2   -1    0    0    0  501 -0.00000000000E+00  0.00000000000E+00  0.10346449815E+03  0.10346449815E+03  0.00000000000E+00 0.  1.
          2   -1    0    0  501    0  0.00000000000E+00 -0.00000000000E+00 -0.14158964563E+03  0.14158964563E+03  0.00000000000E+00 0. -1.
         23    2    1    2    0    0 -0.14434414072E+01  0.27085377718E+02  0.25474540476E+02  0.13050636503E+03  0.12508899989E+03 0.  0.
          5    1    3    3  502    0 -0.24690689815E+02  0.59315507941E+02 -0.22378951217E+02  0.68163402962E+02  0.41800000000E+01 0. -1.
         -5    1    3    3    0  502  0.23247248408E+02 -0.32230130223E+02  0.47853491693E+02  0.62342962072E+02  0.41800000000E+01 0. -1.
        -11    1    1    2    0    0  0.87743308301E+01  0.24134214830E+02  0.73724454262E+01  0.26717076160E+02  0.00000000000E+00 0.  1.
         11    1    1    2    0    0 -0.73308894229E+01 -0.51219592548E+02 -0.70972133375E+02  0.87830702584E+02  0.00000000000E+00 0. -1.
</event>
<event>
 7    1  0.4966153E-006  0.8637983E+02  0.7561462E-02  0.1311863E+00
          2   -1    0    0  501    0  0.00000000000E+00  0.00000000000E+00  0.47860224533E+03  0.47860224533E+03  0.00000000000E+00 0. -1.
         -2   -1    0    0    0  501 -0.00000000000E+00 -0.00000000000E+00 -0.34413066986E+02  0.34413066986E+02  0.00000000000E+00 0.  1.
         23    2    1    2    0    0  0.84696339084E+01  0.44875532917E+02  0.14147926548E+03  0.19429318980E+03  0.12509161797E+03 0.  0.
          5    1    3    3  502    0 -0.24733181717E+02  0.14903526426E+02  0.14623516558E+03  0.14911754233E+03  0.41800000000E+01 0.  1.
         -5    1    3    3    0  502  0.33202815625E+02  0.29972006491E+02 -0.47559000984E+01  0.45175647470E+02  0.41800000000E+01 0.  1.
        -11    1    1    2    0    0 -0.39764523735E+02 -0.53063380413E+02  0.18018328970E+03  0.19199728534E+03  0.00000000000E+00 0.  1.
         11    1    1    2    0    0  0.31294889827E+02  0.81878474958E+01  0.12252662316E+03  0.12672483718E+03  0.00000000000E+00 0. -1.
</event>
<event>
 7    1  0.4966153E-006  0.1063724E+03  0.7561462E-02  0.1267439E+00
          2   -1    0    0  501    0  0.00000000000E+00  0.00000000000E+00  0.32979254406E+03  0.32979254406E+03  0.00000000000E+00 0. -1.
         -2   -1    0    0    0  501 -0.00000000000E+00 -0.00000000000E+00 -0.57855145514E+02  0.57855145514E+02  0.00000000000E+00 0.  1.
         23    2    1    2    0    0 -0.29868319035E+02  0.79137539887E+02  0.12427182449E+03  0.19556313535E+03  0.12508631757E+03 0.  0.
          5    1    3    3  502    0  0.90139449691E+01  0.79134108819E+02  0.17221579908E+02  0.81593587966E+02  0.41800000000E+01 0.  1.
         -5    1    3    3    0  502 -0.38882264004E+02  0.34310674334E-02  0.10705024458E+03  0.11396954739E+03  0.41800000000E+01 0.  1.
        -11    1    1    2    0    0 -0.66888924479E+01 -0.39094017558E+02  0.56402138731E+01  0.40061147058E+02  0.00000000000E+00 0.  1.
         11    1    1    2    0    0  0.36557211483E+02 -0.40043522328E+02  0.14202536018E+03  0.15202340716E+03  0.00000000000E+00 0. -1.
</event>
<event>
 6    1  0.4966153E-006  0.2268090E+03  0.7561462E-02  0.1128906E+00
         -2   -1    0    0    0  501 -0.00000000000E+00  0.00000000000E+00  0.23504374965E+03  0.23504374965E+03  0.00000000000E+00 0.  1.
          2   -1    0    0  501    0  0.00000000000E+00 -0.00000000000E+00 -0.25433023315E+03  0.25433023315E+03  0.00000000000E+00 0. -1.
          5    1    1    2  502    0 -0.30506765589E+02 -0.12819951374E+03 -0.60874280519E+02  0.14522027579E+03  0.41800000000E+01 0. -1.
         -5    1    1    2    0  502  0.45346010728E+02 -0.86629557492E+02  0.51024104289E+02  0.11037152051E+03  0.41800000000E+01 0.  1.
        -11    1    1    2    0    0 -0.44050500581E+01  0.21331396666E+03 -0.25173578669E+02  0.21483938629E+03  0.00000000000E+00 0.  1.
         11    1    1    2    0    0 -0.10434195081E+02  0.15151045768E+01  0.15737271402E+02  0.18942800216E+02  0.00000000000E+00 0. -1.
</event>
<event>
 7    1  0.4966153E-006  0.8613369E+02  0.7561462E-02  0.1312494E+00
          1   -1    0    0  501    0  0.00000000000E+00  0.00000000000E+00  0.39895725652E+03  0.39895725652E+03  0.00000000000E+00 0. -1.
         -1   -1    0    0    0  501 -0.00000000000E+00 -0.00000000000E+00 -0.30166653299E+02  0.30166653299E+02  0.00000000000E+00 0.  1.
         23    2    1    2    0    0 -0.13768070118E+02 -0.82606657489E+01  0.17952256262E+03  0.21938803093E+03  0.12507981162E+03 0.  0.
          5    1    3    3  502    0  0.29169757400E+02 -0.52210832764E+02  0.59386418982E+02  0.84386402721E+02  0.41800000000E+01 0. -1.
         -5    1    3    3    0  502 -0.42937827518E+02  0.43950167015E+02  0.12013614363E+03  0.13500162821E+03  0.41800000000E+01 0. -1.
        -11    1    1    2    0    0 -0.16116111013E+02 -0.65258359169E+01 -0.16793284251E+00  0.17388035255E+02  0.00000000000E+00 0.  1.
         11    1    1    2    0    0  0.29884181131E+02  0.14786501666E+02  0.18943597345E+03  0.19234784364E+03  0.00000000000E+00 0. -1.
</event>
<event>
 7    1  0.4966153E-006  0.1064534E+03  0.7561462E-02  0.1267282E+00
          1   -1    0    0  501    0  0.00000000000E+00  0.00000000000E+00  0.42405284169E+02  0.42405284169E+02  0.00000000000E+00 0. -1.
         -1   -1    0    0    0  501 -0.00000000000E+00 -0.00000000000E+00 -0.74709355627E+03  0.74709355627E+03  0.00000000000E+00 0.  1.
         23    2    1    2    0    0 -0.41011535880E+02 -0.54233022221E+02 -0.64640801610E+03  0.66190226877E+03  0.12509245921E+03 0.  0.
          5    1    3    3  502    0 -0.30223343462E+02  0.36266329080E+02 -0.15453245595E+03  0.16163678250E+03  0.41800000000E+01 0.  1.
         -5    1    3    3    0  502 -0.10788192418E+02 -0.90499351301E+02 -0.49187556015E+03  0.50026548627E+03  0.41800000000E+01 0.  1.
        -11    1    1    2    0    0  0.20330247957E+02  0.48842815395E+02  0.11906257961E+02  0.54228208308E+02  0.00000000000E+00 0. -1.
         11    1    1    2    0    0  0.20681287923E+02  0.53902068259E+01 -0.70186513962E+02  0.73368363358E+02  0.00000000000E+00 0.  1.
</event>
<event>
 7    1  0.4966153E-006  0.1210470E+03  0.7561462E-02  0.1241380E+00
         -2   -1    0    0    0  501 -0.00000000000E+00  0.00000000000E+00  0.75026813225E+02  0.75026813225E+02  0.00000000000E+00 0.  1.
          2   -1    0    0  501    0  0.00000000000E+00 -0.00000000000E+00 -0.36341852690E+03  0.36341852690E+03  0.00000000000E+00 0. -1.
         23    2    1    2    0    0 -0.49347955417E+02  0.70566304113E+02 -0.35019771059E+02  0.15583909122E+03  0.12507843142E+03 0.  0.
          5    1    3    3  502    0  0.21877794375E+02  0.72601189652E+02 -0.36912229237E+02  0.84436696364E+02  0.41800000000E+01 0.  1.
         -5    1    3    3    0  502 -0.71225749792E+02 -0.20348855387E+01  0.18924581775E+01  0.71402394852E+02  0.41800000000E+01 0.  1.
        -11    1    1    2    0    0  0.55710043799E+02 -0.56545018130E+02 -0.25505093247E+03  0.26711781335E+03  0.00000000000E+00 0. -1.
         11    1    1    2    0    0 -0.63620883817E+01 -0.14021285984E+02  0.16789898509E+01  0.15488435561E+02  0.00000000000E+00 0.  1.
</event>
<event>
 7    1  0.4966153E-006  0.1598793E+03  0.7561462E-02  0.1188833E+00
          1   -1    0    0  501    0  0.00000000000E+00  0.00000000000E+00  0.26466376426E+03  0.26466376426E+03  0.00000000000E+00 0. -1.
         -1   -1    0    0    0  501 -0.00000000000E+00 -0.00000000000E+00 -0.11999502257E+03  0.11999502257E+03  0.00000000000E+00 0.  1.
         23    2    1    2    0    0  0.12774659567E+03 -0.59978981130E+02  0.65772558801E+02  0.19971685948E+03  0.12507647096E+03 0.  0.
          5    1    3    3  502    0  0.85471073338E+02 -0.83580106388E+01  0.93783668394E+02  0.12723210906E+03  0.41800000000E+01 0.  1.
         -5    1    3    3    0  502  0.42275522327E+02 -0.51620970492E+02 -0.28011109593E+02  0.72484750418E+02  0.41800000000E+01 0.  1.
        -11    1    1    2    0    0 -0.63986870127E+02  0.77788435282E+02  0.53377312429E+02  0.11399341075E+03  0.00000000000E+00 0. -1.
         11    1    1    2    0    0 -0.63759725538E+02 -0.17809454151E+02  0.25518870454E+02  0.70948516596E+02  0.00000000000E+00 0.  1.
</event>
<event>
 7    1  0.4966153E-006  0.2198896E+03  0.7561462E-02  0.1133965E+00
          1   -1    0    0  501    0  0.00000000000E+00  0.00000000000E+00  0.17601829277E+03  0.17601829277E+03  0.00000000000E+00 0. -1.
         -1   -1    0    0    0  501 -0.00000000000E+00 -0.00000000000E+00 -0.30757662316E+03  0.30757662316E+03  0.00000000000E+00 0.  1.
         23    2    1    2    0    0 -0.16324153371E+03  0.11053756988E+03 -0.12767030164E+03  0.26610907132E+03  0.12509188318E+03 0.  0.
          5    1    3    3  502    0 -0.55320904509E+01  0.65736743430E+02 -0.16979853022E+02  0.68247426839E+02  0.41800000000E+01 0.  1.
         -5    1    3    3    0  502 -0.15770944326E+03  0.44800826447E+02 -0.11069044861E+03  0.19786164448E+03  0.41800000000E+01 0.  1.
        -11    1    1    2    0    0  0.77361887123E+02 -0.10886334272E+02 -0.29420017967E+02  0.83480005452E+02  0.00000000000E+00 0.  1.
         11    1    1    2    0    0  0.85879646586E+02 -0.99651235606E+02  0.25531989205E+02  0.13400583916E+03  0.00000000000E+00 0. -1.
</event>
<event>
 7    1  0.4966153E-006  0.1114301E+03  0.7561462E-02  0.1257944E+00
         -1   -1    0    0    0  501 -0.00000000000E+00  0.00000000000E+00  0.70640154574E+03  0.70640154574E+03  0.00000000000E+00 0.  1.
          1   -1    0    0  501    0  0.00000000000E+00 -0.00000000000E+00 -0.19309887346E+02  0.19309887346E+02  0.00000000000E+00 0. -1.
         23    2    1    2    0    0  0.12733089791E+02  0.41049560362E+02  0.35467649543E+03  0.37853683157E+03  0.12509004140E+03 0.  0.
          5    1    3    3  502    0  0.42617062949E+02  0.74926434904E+02  0.21483560756E+03  0.23152104737E+03  0.41800000000E+01 0. -1.
         -5    1    3    3    0  502 -0.29883973158E+02 -0.33876874542E+02  0.13984088788E+03  0.14701578419E+03  0.41800000000E+01 0. -1.
        -11    1    1    2    0    0  0.47711876047E+01 -0.62964955667E+02  0.28645322421E+03  0.29333052949E+03  0.00000000000E+00 0.  1.
         11    1    1    2    0    0 -0.17504277396E+02  0.21915395305E+02  0.45961938760E+02  0.53844072033E+02  0.00000000000E+00 0. -1.
</event>
