<event>
 8    1  0.6505836E-009  0.2666809E+03  0.7561462E-02  0.1103194E+00
         -2   -1    0    0    0  501 -0.00000000000E+00  0.00000000000E+00  0.36213943565E+02  0.36213943565E+02  0.00000000000E+00 0.  1.
          2   -1    0    0  501    0  0.00000000000E+00 -0.00000000000E+00 -0.23274190195E+04  0.23274190195E+04  0.00000000000E+00 0. -1.
         25    2    1    2    0    0  0.22310766939E+03 -0.13277378895E+03 -0.88525482070E+03  0.93098285418E+03  0.12508823300E+03 0.  0.
         23    2    1    2    0    0 -0.22310766939E+03  0.13277378895E+03 -0.14059502553E+04  0.14326501089E+04  0.91565840352E+02 0.  0.
          5    1    3    3  502    0  0.15866229933E+03 -0.12135827172E+03 -0.79306856935E+03  0.81784887568E+03  0.41800000000E+01 0. -1.
         -5    1    3    3    0  502  0.64445370058E+02 -0.11415517221E+02 -0.92186251344E+02  0.11313397850E+03  0.41800000000E+01 0. -1.
        -11    1    4    4    0    0 -0.43475817009E+02 -0.18304810697E+01 -0.12955228555E+03  0.13666488948E+03  0.00000000000E+00 0.  1.
         11    1    4    4    0    0 -0.17963185238E+03  0.13460427001E+03 -0.12763979697E+04  0.12959852194E+04  0.00000000000E+00 0. -1.
</event>
<event>
 8    1  0.6505836E-009  0.1171284E+03  0.7561462E-02  0.1247911E+00
         -1   -1    0    0    0  501 -0.00000000000E+00  0.00000000000E+00  0.65456093574E+02  0.65456093574E+02  0.00000000000E+00 0.  1.
          1   -1    0    0  501    0  0.00000000000E+00 -0.00000000000E+00 -0.45997515868E+03  0.45997515868E+03  0.00000000000E+00 0. -1.
         25    2    1    2    0    0  0.49499659179E+02 -0.59856643497E+02 -0.37149179999E+03  0.39960729813E+03  0.12508717452E+03 0.  0.
         23    2    1    2    0    0 -0.49499659179E+02  0.59856643497E+02 -0.23027265115E+02  0.12582395412E+03  0.96272417978E+02 0.  0.
          5    1    3    3  502    0 -0.35411793790E+02 -0.36078942214E+02 -0.20474031449E+03  0.21093068527E+03  0.41800000000E+01 0. -1.
         -5    1    3    3    0  502  0.84911452969E+02 -0.23777701283E+02 -0.16675148550E+03  0.18867661286E+03  0.41800000000E+01 0. -1.
        -11    1    4    4    0    0 -0.45659742964E+02  0.11955743029E+02 -0.51588584527E+02  0.69922342441E+02  0.00000000000E+00 0. -1.
         11    1    4    4    0    0 -0.38399162144E+01  0.47900900468E+02  0.28561319412E+02  0.55901611683E+02  0.00000000000E+00 0.  1.
</event>
<event>
 8    1  0.6505836E-009  0.1055626E+03  0.7561462E-02  0.1269015E+00
          1   -1    0    0  501    0  0.00000000000E+00  0.00000000000E+00  0.52664423793E+03  0.52664423793E+03  0.00000000000E+00 0. -1.
         -1   -1    0    0    0  501 -0.00000000000E+00 -0.00000000000E+00 -0.27675560104E+02  0.27675560104E+02  0.00000000000E+00 0.  1.
         25    2    1    2    0    0 -0.61844079373E+00 -0.30053085476E+02  0.37396300289E+03  0.39547298291E+03  0.12508789817E+03 0.  0.
         23    2    1    2    0    0  0.61844079373E+00  0.30053085476E+02  0.12500567494E+03  0.15884681512E+03  0.93286234203E+02 0.  0.
          5    1    3    3  502    0  0.13421072770E+02 -0.72403127877E+02  0.30051901901E+03  0.30943737865E+03  0.41800000000E+01 0. -1.
         -5    1    3    3    0  502 -0.14039513564E+02  0.42350042401E+02  0.73443983878E+02  0.86035604260E+02  0.41800000000E+01 0. -1.
        -11    1    4    4    0    0 -0.40779175446E+02 -0.10268168825E+01  0.29938648850E+02  0.50599586934E+02  0.00000000000E+00 0.  1.
         11    1    4    4    0    0  0.41397616240E+02  0.31079902359E+02  0.95067026088E+02  0.10824722819E+03  0.00000000000E+00 0. -1.
</event>
<event>
 8    1  0.6505836E-009  0.1007388E+03  0.7561462E-02  0.1278750E+00
          1   -1    0    0  501    0  0.00000000000E+00  0.00000000000E+00  0.10640067169E+03  0.10640067169E+03  0.00000000000E+00 0. -1.
         -1   -1    0    0    0  501 -0.00000000000E+00 -0.00000000000E+00 -0.11821857700E+03  0.11821857700E+03  0.00000000000E+00 0.  1.
         25    2    1    2    0    0  0.17635434817E+00  0.25381020996E+02 -0.13744816806E+02  0.12837569890E+03  0.12508865956E+03 0.  0.
         23    2    1    2    0    0 -0.17635434817E+00 -0.25381020996E+02  0.19269114969E+01  0.96243549784E+02  0.92816380879E+02 0.  0.
          5    1    3    3  502    0 -0.48254118966E+02 -0.27525864962E+02 -0.82559107751E+01  0.56318431280E+02  0.41800000000E+01 0. -1.
         -5    1    3    3    0  502  0.48430473314E+02  0.52906885959E+02 -0.54889060312E+01  0.72057267619E+02  0.41800000000E+01 0. -1.
        -11    1    4    4    0    0  0.26737100245E+02  0.10791937415E+02 -0.29526764083E+02  0.41269458924E+02  0.00000000000E+00 0.  1.
         11    1    4    4    0    0 -0.26913454593E+02 -0.36172958411E+02  0.31453675580E+02  0.54974090860E+02  0.00000000000E+00 0. -1.
</event>
<event>
 8    1  0.6505836E-009  0.8247393E+02  0.7561462E-02  0.1322174E+00
         -2   -1    0    0    0  501 -0.00000000000E+00  0.00000000000E+00  0.77033009790E+02  0.77033009790E+02  0.00000000000E+00 0.  1.
          2   -1    0    0  501    0  0.00000000000E+00 -0.00000000000E+00 -0.17652882214E+03  0.17652882214E+03  0.00000000000E+00 0. -1.
         25    2    1    2    0    0 -0.23757338090E+02 -0.32006503979E+02 -0.69559593852E+02  0.14857607960E+03  0.12508991535E+03 0.  0.
         23    2    1    2    0    0  0.23757338090E+02  0.32006503979E+02 -0.29936218503E+02  0.10498575233E+03  0.92395906861E+02 0.  0.
          5    1    3    3  502    0 -0.23371160210E+02  0.22051142094E+02 -0.86013235577E+02  0.91914161540E+02  0.41800000000E+01 0.  1.
         -5    1    3    3    0  502 -0.38617787976E+00 -0.54057646073E+02  0.16453641725E+02  0.56661918061E+02  0.41800000000E+01 0.  1.
        -11    1    4    4    0    0 -0.63662104394E+01  0.45050664229E+02  0.16258022067E+02  0.48315776557E+02  0.00000000000E+00 0.  1.
         11    1    4    4    0    0  0.30123548529E+02 -0.13044160250E+02 -0.46194240571E+02  0.56669975776E+02  0.00000000000E+00 0. -1.
</event>
<event>
 8    1  0.6505836E-009  0.1784214E+03  0.7561462E-02  0.1169340E+00
         -2   -1    0    0    0  501 -0.00000000000E+00  0.00000000000E+00  0.65295171028E+03  0.65295171028E+03  0.00000000000E+00 0. -1.
          2   -1    0    0  501    0  0.00000000000E+00 -0.00000000000E+00 -0.54095087470E+02  0.54095087470E+02  0.00000000000E+00 0.  1.
         25    2    1    2    0    0 -0.14507671440E+03 -0.43212819859E+02  0.34400558880E+03  0.39610907952E+03  0.12509179386E+03 0.  0.
         23    2    1    2    0    0  0.14507671440E+03  0.43212819859E+02  0.25485103401E+03  0.31093771823E+03  0.93907476908E+02 0.  0.
          5    1    3    3  502    0  0.20608801379E+02 -0.62798541654E+01  0.73662319572E+02  0.76862012642E+02  0.41800000000E+01 0.  1.
         -5    1    3    3    0  502 -0.16568551578E+03 -0.36932965693E+02  0.27034326923E+03  0.31924706688E+03  0.41800000000E+01 0.  1.
        -11    1    4    4    0    0  0.46804225336E+02  0.47555908767E+02  0.48978112361E+02  0.82771102798E+02  0.00000000000E+00 0.  1.
         11    1    4    4    0    0  0.98272489066E+02 -0.43430889089E+01  0.20587292165E+03  0.22816661543E+03  0.00000000000E+00 0. -1.
</event>
<event>
 8    1  0.6505836E-009  0.1594388E+03  0.7561462E-02  0.1189332E+00
         -2   -1    0    0    0  501 -0.00000000000E+00  0.00000000000E+00  0.48181602958E+02  0.48181602958E+02  0.00000000000E+00 0.  1.
          2   -1    0    0  501    0  0.00000000000E+00 -0.00000000000E+00 -0.66294239533E+03  0.66294239533E+03  0.00000000000E+00 0. -1.
         25    2    1    2    0    0 -0.40910008913E+02  0.12494968051E+03 -0.42100404095E+03  0.45845028423E+03  0.12508480773E+03 0.  0.
         23    2    1    2    0    0  0.40910008913E+02 -0.12494968051E+03 -0.19375675143E+03  0.25267371406E+03  0.94954070817E+02 0.  0.
          5    1    3    3  502    0  0.24198765601E+02  0.10744333066E+03 -0.21417104889E+03  0.24086585508E+03  0.41800000000E+01 0.  1.
         -5    1    3    3    0  502 -0.65108774514E+02  0.17506349849E+02 -0.20683299206E+03  0.21758442915E+03  0.41800000000E+01 0.  1.
        -11    1    4    4    0    0 -0.11981768661E+02 -0.15859373777E+02  0.44127235352E+01  0.20360615065E+02  0.00000000000E+00 0.  1.
         11    1    4    4    0    0  0.52891777574E+02 -0.10909030674E+03 -0.19816947496E+03  0.23231309900E+03  0.00000000000E+00 0. -1.
</event>
<event>
 8    1  0.6505836E-009  0.9293051E+02  0.7561462E-02  0.1295906E+00
          1   -1    0    0  501    0  0.00000000000E+00  0.00000000000E+00  0.20990281376E+02  0.20990281376E+02  0.00000000000E+00 0. -1.
         -1   -1    0    0    0  501 -0.00000000000E+00 -0.00000000000E+00 -0.58593051142E+03  0.58593051142E+03  0.00000000000E+00 0.  1.
         25    2    1    2    0    0  0.14483468870E+02 -0.11777039867E+02 -0.28063951064E+03  0.30782260691E+03  0.12509097829E+03 0.  0.
         23    2    1    2    0    0 -0.14483468870E+02  0.11777039867E+02 -0.28430071940E+03  0.29909818589E+03  0.91018438863E+02 0.  0.
          5    1    3    3  502    0  0.54827411551E+02 -0.36923310725E+02 -0.92774918691E+02  0.11399137630E+03  0.41800000000E+01 0. -1.
         -5    1    3    3    0  502 -0.40343942681E+02  0.25146270858E+02 -0.18786459195E+03  0.19383123061E+03  0.41800000000E+01 0. -1.
        -11    1    4    4    0    0 -0.34588261502E+02  0.29227409558E+02 -0.25702688254E+03  0.26098545487E+03  0.00000000000E+00 0.  1.
         11    1    4    4    0    0  0.20104792631E+02 -0.17450369691E+02 -0.27273836860E+02  0.38112731025E+02  0.00000000000E+00 0. -1.
</event>
<event>
 8    1  0.6505836E-009  0.1303221E+03  0.7561462E-02  0.1226979E+00
          1   -1    0    0  501    0  0.00000000000E+00  0.00000000000E+00  0.39511378360E+03  0.39511378360E+03  0.00000000000E+00 0. -1.
         -1   -1    0    0    0  501 -0.00000000000E+00 -0.00000000000E+00 -0.58010563312E+02  0.58010563312E+02  0.00000000000E+00 0.  1.
         25    2    1    2    0    0  0.24660116126E+02 -0.10128965341E+03  0.16341489648E+03  0.23069095832E+03  0.12508466990E+03 0.  0.
         23    2    1    2    0    0 -0.24660116126E+02  0.10128965341E+03  0.17368832381E+03  0.22243338859E+03  0.91876347973E+02 0.  0.
          5    1    3    3  502    0  0.66722890650E+02 -0.90767465178E+02  0.85724806684E+02  0.14162235612E+03  0.41800000000E+01 0. -1.
         -5    1    3    3    0  502 -0.42062774524E+02 -0.10522188234E+02  0.77690089796E+02  0.89068602203E+02  0.41800000000E+01 0. -1.
        -11    1    4    4    0    0 -0.19393742819E+02  0.86704900697E+02  0.18364316723E+03  0.20400654385E+03  0.00000000000E+00 0. -1.
         11    1    4    4    0    0 -0.52663733068E+01  0.14584752715E+02 -0.99548434175E+01  0.18426844739E+02  0.00000000000E+00 0.  1.
</event>
<event>
 8    1  0.6505836E-009  0.1929164E+03  0.7561462E-02  0.1155857E+00
         -2   -1    0    0    0  501 -0.00000000000E+00  0.00000000000E+00  0.60475938658E+02  0.60475938658E+02  0.00000000000E+00 0.  1.
          2   -1    0    0  501    0  0.00000000000E+00 -0.00000000000E+00 -0.76015712001E+03  0.76015712001E+03  0.00000000000E+00 0. -1.
         25    2    1    2    0    0 -0.16974982475E+03 -0.29165613561E+02 -0.23655021004E+03  0.31822683539E+03  0.12508669344E+03 0.  0.
         23    2    1    2    0    0  0.16974982475E+03  0.29165613561E+02 -0.46313097131E+03  0.50240622328E+03  0.90862976965E+02 0.  0.
          5    1    3    3  502    0 -0.18570291357E+03 -0.78608127184E+01 -0.20564268362E+03  0.27722508944E+03  0.41800000000E+01 0.  1.
         -5    1    3    3    0  502  0.15953088822E+02 -0.21304800843E+02 -0.30907526418E+02  0.41001745953E+02  0.41800000000E+01 0.  1.
        -11    1    4    4    0    0  0.11600283266E+03  0.12348808104E+02 -0.18559188387E+03  0.21921108003E+03  0.00000000000E+00 0.  1.
         11    1    4    4    0    0  0.53746992089E+02  0.16816805458E+02 -0.27753908744E+03  0.28319514325E+03  0.00000000000E+00 0. -1.
</event>
<event>
 8    1  0.6505836E-009  0.1574160E+03  0.7561462E-02  0.1191645E+00
         -1   -1    0    0    0  501 -0.00000000000E+00  0.00000000000E+00  0.50826953909E+02  0.50826953909E+02  0.00000000000E+00 0.  1.
          1   -1    0    0  501    0  0.00000000000E+00 -0.00000000000E+00 -0.73885685551E+03  0.73885685551E+03  0.00000000000E+00 0. -1.
         25    2    1    2    0    0  0.48503468683E+02 -0.12668548166E+03 -0.52672639549E+03  0.55811316516E+03  0.12509121346E+03 0.  0.
         23    2    1    2    0    0 -0.48503468683E+02  0.12668548166E+03 -0.16130350612E+03  0.23157064426E+03  0.95939274859E+02 0.  0.
          5    1    3    3  502    0  0.85027867253E+02 -0.10920523590E+03 -0.34225647595E+03  0.36920521324E+03  0.41800000000E+01 0.  1.
         -5    1    3    3    0  502 -0.36524398571E+02 -0.17480245766E+02 -0.18446991954E+03  0.18890795192E+03  0.41800000000E+01 0.  1.
        -11    1    4    4    0    0 -0.25341222644E+02  0.64541221328E+02 -0.14868863224E+03  0.16406113547E+03  0.00000000000E+00 0. -1.
         11    1    4    4    0    0 -0.23162246039E+02  0.62144260333E+02 -0.12614873877E+02  0.67509508789E+02  0.00000000000E+00 0.  1.
</event>
<event>
 8    1  0.6505836E-009  0.1796331E+03  0.7561462E-02  0.1168159E+00
          3   -1    0    0  501    0  0.00000000000E+00  0.00000000000E+00  0.14051416453E+04  0.14051416453E+04  0.00000000000E+00 0. -1.
         -3   -1    0    0    0  501 -0.00000000000E+00 -0.00000000000E+00 -0.25258263933E+02  0.25258263933E+02  0.00000000000E+00 0.  1.
         25    2    1    2    0    0  0.14020625706E+03 -0.72218541293E+02  0.77936832837E+03  0.80494449524E+03  0.12508931578E+03 0.  0.
         23    2    1    2    0    0 -0.14020625706E+03  0.72218541293E+02  0.60051505301E+03  0.62545541401E+03  0.75517109283E+02 0.  0.
          5    1    3    3  502    0 -0.13572199912E+02  0.58589577115E+00  0.11054478326E+02  0.18006159373E+02  0.41800000000E+01 0.  1.
         -5    1    3    3    0  502  0.15377845697E+03 -0.72804437064E+02  0.76831385005E+03  0.78693833587E+03  0.41800000000E+01 0.  1.
        -11    1    4    4    0    0 -0.98977969042E+02  0.90012853650E+01  0.34037802645E+03  0.35459112000E+03  0.00000000000E+00 0.  1.
         11    1    4    4    0    0 -0.41228288020E+02  0.63217255928E+02  0.26013702657E+03  0.27086429401E+03  0.00000000000E+00 0. -1.
</event>
<event>
 8    1  0.6505836E-009  0.1529513E+03  0.7561462E-02  0.1196893E+00
          2   -1    0    0  501    0  0.00000000000E+00  0.00000000000E+00  0.99093179901E+03  0.99093179901E+03  0.00000000000E+00 0. -1.
         -2   -1    0    0    0  501 -0.00000000000E+00 -0.00000000000E+00 -0.34958680441E+02  0.34958680441E+02  0.00000000000E+00 0.  1.
         25    2    1    2    0    0 -0.24304026610E+02  0.12346676993E+03  0.72677637203E+03  0.74812169990E+03  0.12508978350E+03 0.  0.
         23    2    1    2    0    0  0.24304026610E+02 -0.12346676993E+03  0.22919674654E+03  0.27776877955E+03  0.93752958783E+02 0.  0.
          5    1    3    3  502    0 -0.42662964550E+02  0.71290776231E+00  0.31857332425E+03  0.32144528633E+03  0.41800000000E+01 0. -1.
         -5    1    3    3    0  502  0.18358937940E+02  0.12275386217E+03  0.40820304778E+03  0.42667641357E+03  0.41800000000E+01 0. -1.
        -11    1    4    4    0    0  0.35125275110E+02 -0.34558660127E+02  0.26012497374E+02  0.55720157582E+02  0.00000000000E+00 0.  1.
         11    1    4    4    0    0 -0.10821248500E+02 -0.88908109807E+02  0.20318424917E+03  0.22204862197E+03  0.00000000000E+00 0. -1.
</event>
<event>
 8    1  0.6505836E-009  0.1126414E+03  0.7561462E-02  0.1255755E+00
         -4   -1    0    0    0  501 -0.00000000000E+00  0.00000000000E+00  0.11223941452E+03  0.11223941452E+03  0.00000000000E+00 0.  1.
          4   -1    0    0  501    0  0.00000000000E+00 -0.00000000000E+00 -0.16289531029E+03  0.16289531029E+03  0.00000000000E+00 0. -1.
         25    2    1    2    0    0  0.14590604314E+02 -0.72801384618E+02 -0.55075490101E+02  0.15554448617E+03  0.12509136753E+03 0.  0.
         23    2    1    2    0    0 -0.14590604314E+02  0.72801384618E+02  0.44195943258E+01  0.11959023864E+03  0.93644887882E+02 0.  0.
          5    1    3    3  502    0  0.49017307160E+02 -0.92629932221E+02 -0.33274290343E+02  0.11003477424E+03  0.41800000000E+01 0.  1.
         -5    1    3    3    0  502 -0.34426702846E+02  0.19828547604E+02 -0.21801199759E+02  0.45509711929E+02  0.41800000000E+01 0.  1.
        -11    1    4    4    0    0  0.85694562222E+01  0.35707504138E+02 -0.42018097795E+02  0.55803064199E+02  0.00000000000E+00 0. -1.
         11    1    4    4    0    0 -0.23160060536E+02  0.37093880479E+02  0.46437692121E+02  0.63787174436E+02  0.00000000000E+00 0.  1.
</event>
<event>
 8    1  0.6505836E-009  0.1232350E+03  0.7561462E-02  0.1237854E+00
         -1   -1    0    0    0  501 -0.00000000000E+00  0.00000000000E+00  0.78103349552E+02  0.78103349552E+02  0.00000000000E+00 0.  1.
          1   -1    0    0  501    0  0.00000000000E+00 -0.00000000000E+00 -0.22588431602E+03  0.22588431602E+03  0.00000000000E+00 0. -1.
         25    2    1    2    0    0  0.23664894884E+02 -0.70455839647E+02 -0.53636328098E+02  0.15507646216E+03  0.12509117009E+03 0.  0.
         23    2    1    2    0    0 -0.23664894884E+02  0.70455839647E+02 -0.94144638369E+02  0.14891120341E+03  0.88245571998E+02 0.  0.
          5    1    3    3  502    0 -0.38686046665E+02  0.12893050754E+02 -0.10426591688E+02  0.42296893250E+02  0.41800000000E+01 0.  1.
         -5    1    3    3    0  502  0.62350941549E+02 -0.83348890401E+02 -0.43209736410E+02  0.11277956891E+03  0.41800000000E+01 0.  1.
        -11    1    4    4    0    0  0.17967025106E+02  0.53352296933E+02 -0.15654824785E+02  0.58432483416E+02  0.00000000000E+00 0.  1.
         11    1    4    4    0    0 -0.41631919990E+02  0.17103542715E+02 -0.78489813584E+02  0.90478719994E+02  0.00000000000E+00 0. -1.
</event>
<event>
 8    1  0.6505836E-009  0.8628041E+02  0.7561462E-02  0.1312118E+00
          1   -1    0    0  501    0  0.00000000000E+00  0.00000000000E+00  0.12016907497E+03  0.12016907497E+03  0.00000000000E+00 0. -1.
         -1   -1    0    0    0  501 -0.00000000000E+00 -0.00000000000E+00 -0.10602455462E+03  0.10602455462E+03  0.00000000000E+00 0.  1.
         25    2    1    2    0    0  0.23371530370E+02 -0.21053525487E+02  0.12199634579E+02  0.12956269063E+03  0.12509268705E+03 0.  0.
         23    2    1    2    0    0 -0.23371530370E+02  0.21053525487E+02  0.19448857637E+01  0.96630938956E+02  0.91347010984E+02 0.  0.
          5    1    3    3  502    0  0.20930673639E+02 -0.46385130055E+02  0.57831726459E+02  0.77146966074E+02  0.41800000000E+01 0.  1.
         -5    1    3    3    0  502  0.24408567309E+01  0.25331604568E+02 -0.45632091880E+02  0.52415724558E+02  0.41800000000E+01 0.  1.
        -11    1    4    4    0    0 -0.55665378245E+02  0.28547502266E+02  0.75353633080E+01  0.63010919062E+02  0.00000000000E+00 0. -1.
         11    1    4    4    0    0  0.32293847875E+02 -0.74939767797E+01 -0.55904775443E+01  0.33620019895E+02  0.00000000000E+00 0.  1.
</event>
<event>
 7    1  0.6505836E-009  0.1120886E+03  0.7561462E-02  0.1256750E+00
         -1   -1    0    0    0  501 -0.00000000000E+00  0.00000000000E+00  0.14595953805E+03  0.14595953805E+03  0.00000000000E+00 0.  1.
          1   -1    0    0  501    0  0.00000000000E+00 -0.00000000000E+00 -0.13460659929E+03  0.13460659929E+03  0.00000000000E+00 0. -1.
         23    2    1    2    0    0  0.74533205136E+02  0.21922200871E+02  0.47998870953E+02  0.12872227714E+03  0.90717977609E+02 0.  0.
          5    1    1    2  502    0 -0.10890128083E+03 -0.14143722834E+02 -0.16756824138E+02  0.11116563056E+03  0.41800000000E+01 0. -1.
         -5    1    1    2    0  502  0.34368075693E+02 -0.77784780366E+01 -0.19889108062E+02  0.40678229643E+02  0.41800000000E+01 0. -1.
        -11    1    3    3    0    0  0.13752101479E+02  0.96224862588E+01  0.62769144744E+02  0.64974441658E+02  0.00000000000E+00 0.  1.
         11    1    3    3    0    0  0.60781103657E+02  0.12299714612E+02 -0.14770273791E+02  0.63747835486E+02  0.00000000000E+00 0. -1.
</event>
<event>
 8    1  0.6505836E-009  0.8647506E+02  0.7561462E-02  0.1311620E+00
          2   -1    0    0  501    0  0.00000000000E+00  0.00000000000E+00  0.69870211991E+03  0.69870211991E+03  0.00000000000E+00 0.  1.
         -2   -1    0    0    0  501 -0.00000000000E+00 -0.00000000000E+00 -0.21805784103E+02  0.21805784103E+02  0.00000000000E+00 0. -1.
         25    2    1    2    0    0  0.51120046012E+02  0.30874782802E+02  0.36293581303E+03  0.38850614447E+03  0.12509240022E+03 0.  0.
         23    2    1    2    0    0 -0.51120046012E+02 -0.30874782802E+02  0.31396052278E+03  0.33200175954E+03  0.89930234957E+02 0.  0.
          5    1    3    3  502    0  0.32143571723E+02  0.51488605326E+02  0.35342484266E+03  0.35862358747E+03  0.41800000000E+01 0. -1.
         -5    1    3    3    0  502  0.18976474289E+02 -0.20613822524E+02  0.95109703724E+01  0.29882557001E+02  0.41800000000E+01 0. -1.
        -11    1    4    4    0    0  0.36407965365E+01  0.13069146765E+02  0.39363723870E+01  0.14126323801E+02  0.00000000000E+00 0. -1.
         11    1    4    4    0    0 -0.54760842548E+02 -0.43943929567E+02  0.31002415039E+03  0.31787543574E+03  0.00000000000E+00 0.  1.
</event>
<event>
 8    1  0.6505836E-009  0.1140227E+03  0.7561462E-02  0.1253297E+00
         -1   -1    0    0    0  501 -0.00000000000E+00  0.00000000000E+00  0.20559790675E+02  0.20559790675E+02  0.00000000000E+00 0.  1.
          1   -1    0    0  501    0  0.00000000000E+00 -0.00000000000E+00 -0.10945616995E+04  0.10945616995E+04  0.00000000000E+00 0. -1.
         25    2    1    2    0    0  0.47010430067E+02  0.24479815355E+02 -0.91033486505E+03  0.92041618743E+03  0.12508856723E+03 0.  0.
         23    2    1    2    0    0 -0.47010430067E+02 -0.24479815355E+02 -0.16366704380E+03  0.19470530278E+03  0.91181203152E+02 0.  0.
          5    1    3    3  502    0  0.51294474788E+02  0.69283661547E+02 -0.47842152822E+03  0.48614399098E+03  0.41800000000E+01 0. -1.
         -5    1    3    3    0  502 -0.42840447210E+01 -0.44803846192E+02 -0.43191333683E+03  0.43427219644E+03  0.41800000000E+01 0. -1.
        -11    1    4    4    0    0 -0.70191044793E+02 -0.17792742854E+02 -0.15098102198E+03  0.16744740507E+03  0.00000000000E+00 0. -1.
         11    1    4    4    0    0  0.23180614727E+02 -0.66870725007E+01 -0.12686021825E+02  0.27257897708E+02  0.00000000000E+00 0.  1.
</event>
<event>
 8    1  0.6505836E-009  0.7790513E+02  0.7561462E-02  0.1335104E+00
          1   -1    0    0  501    0  0.00000000000E+00  0.00000000000E+00  0.35797367145E+03  0.35797367145E+03  0.00000000000E+00 0. -1.
         -1   -1    0    0    0  501 -0.00000000000E+00 -0.00000000000E+00 -0.51322251317E+02  0.51322251317E+02  0.00000000000E+00 0.  1.
         25    2    1    2    0    0  0.29528496058E+02 -0.53628657057E+02  0.24735437210E+03  0.28386499106E+03  0.12508869980E+03 0.  0.
         23    2    1    2    0    0 -0.29528496058E+02  0.53628657057E+02  0.59297048039E+02  0.12543093171E+03  0.92026158163E+02 0.  0.
          5    1    3    3  502    0  0.41352834517E+02 -0.31643300823E+01  0.12784001983E+02  0.43600149245E+02  0.41800000000E+01 0. -1.
         -5    1    3    3    0  502 -0.11824338459E+02 -0.50464326975E+02  0.23457037012E+03  0.24026484182E+03  0.41800000000E+01 0. -1.
        -11    1    4    4    0    0 -0.26682010532E+02  0.39192203057E+02  0.84127489861E+02  0.96568074522E+02  0.00000000000E+00 0. -1.
         11    1    4    4    0    0 -0.28464855257E+01  0.14436454001E+02 -0.24830441822E+02  0.28862857188E+02  0.00000000000E+00 0.  1.
</event>
<event>
 8    1  0.6505836E-009  0.1302000E+03  0.7561462E-02  0.1227159E+00
          1   -1    0    0  501    0  0.00000000000E+00  0.00000000000E+00  0.35623723605E+02  0.35623723605E+02  0.00000000000E+00 0. -1.
         -1   -1    0    0    0  501 -0.00000000000E+00 -0.00000000000E+00 -0.59796124762E+03  0.59796124762E+03  0.00000000000E+00 0.  1.
         25    2    1    2    0    0 -0.32563642708E+02 -0.75249516773E+02 -0.19139518552E+03  0.24290449017E+03  0.12509034217E+03 0.  0.
         23    2    1    2    0    0  0.32563642708E+02  0.75249516773E+02 -0.37094233850E+03  0.39068048106E+03  0.91159964824E+02 0.  0.
          5    1    3    3  502    0  0.24280956177E+02  0.24081337013E+02 -0.53795356737E+02  0.63881831781E+02  0.41800000000E+01 0.  1.
         -5    1    3    3    0  502 -0.56844598885E+02 -0.99330853786E+02 -0.13759982878E+03  0.17902265839E+03  0.41800000000E+01 0.  1.
        -11    1    4    4    0    0 -0.23896537677E+02  0.12338316146E+02 -0.34294399582E+02  0.43581927458E+02  0.00000000000E+00 0. -1.
         11    1    4    4    0    0  0.56460180385E+02  0.62911200627E+02 -0.33664793892E+03  0.34709855360E+03  0.00000000000E+00 0.  1.
</event>
<event>
 8    1  0.6505836E-009  0.1234922E+03  0.7561462E-02  0.1237445E+00
         -1   -1    0    0    0  501 -0.00000000000E+00  0.00000000000E+00  0.57280098249E+02  0.57280098249E+02  0.00000000000E+00 0.  1.
          1   -1    0    0  501    0  0.00000000000E+00 -0.00000000000E+00 -0.29519584671E+03  0.29519584671E+03  0.00000000000E+00 0. -1.
         25    2    1    2    0    0 -0.23281539622E+02  0.61073244593E+02 -0.95052228235E+02  0.17016175365E+03  0.12509246589E+03 0.  0.
         23    2    1    2    0    0  0.23281539622E+02 -0.61073244593E+02 -0.14286352023E+03  0.18231419131E+03  0.92501392681E+02 0.  0.
          5    1    3    3  502    0 -0.70302336335E+02  0.57210453525E+02 -0.45105139098E+02  0.10132818196E+03  0.41800000000E+01 0. -1.
         -5    1    3    3    0  502  0.47020796713E+02  0.38627910680E+01 -0.49947089137E+02  0.68833571690E+02  0.41800000000E+01 0. -1.
        -11    1    4    4    0    0 -0.32918108024E+02 -0.30654512241E+02 -0.35212674868E+02  0.57124718187E+02  0.00000000000E+00 0. -1.
         11    1    4    4    0    0  0.56199647646E+02 -0.30418732353E+02 -0.10765084536E+03  0.12518947312E+03  0.00000000000E+00 0.  1.
</event>
<event>
 8    1  0.6505836E-009  0.6124122E+02  0.7561462E-02  0.1392696E+00
          2   -1    0    0  501    0  0.00000000000E+00  0.00000000000E+00  0.48186272645E+03  0.48186272645E+03  0.00000000000E+00 0. -1.
         -2   -1    0    0    0  501 -0.00000000000E+00 -0.00000000000E+00 -0.24546120216E+02  0.24546120216E+02  0.00000000000E+00 0.  1.
         25    2    1    2    0    0 -0.10692363030E+01  0.28328846920E+02  0.29080735241E+03  0.31783579762E+03  0.12508801381E+03 0.  0.
         23    2    1    2    0    0  0.10692363030E+01 -0.28328846920E+02  0.16650925382E+03  0.18857304904E+03  0.83849844266E+02 0.  0.
          5    1    3    3  502    0 -0.51837615348E+01  0.29824858775E+02  0.38342024359E+01  0.30798816421E+02  0.41800000000E+01 0. -1.
         -5    1    3    3    0  502  0.41145252318E+01 -0.14960118552E+01  0.28697314998E+03  0.28703698120E+03  0.41800000000E+01 0. -1.
        -11    1    4    4    0    0 -0.48510693595E+01  0.28411042831E+02  0.35825818681E+02  0.45980534064E+02  0.00000000000E+00 0.  1.
         11    1    4    4    0    0  0.59203056625E+01 -0.56739889751E+02  0.13068343514E+03  0.14259251498E+03  0.00000000000E+00 0. -1.
</event>
<event>
 8    1  0.6505836E-009  0.2328865E+03  0.7561462E-02  0.1124624E+00
          1   -1    0    0  501    0  0.00000000000E+00  0.00000000000E+00  0.84877017488E+03  0.84877017488E+03  0.00000000000E+00 0. -1.
         -1   -1    0    0    0  501 -0.00000000000E+00 -0.00000000000E+00 -0.72722561756E+02  0.72722561756E+02  0.00000000000E+00 0.  1.
         25    2    1    2    0    0 -0.13784578603E+03 -0.15682098888E+03  0.25334255606E+03  0.35132286150E+03  0.12510403279E+03 0.  0.
         23    2    1    2    0    0  0.13784578603E+03  0.15682098888E+03  0.52270505706E+03  0.57016987514E+03  0.90988057209E+02 0.  0.
          5    1    3    3  502    0 -0.14887780988E+03 -0.90379717309E+02  0.20050193665E+03  0.26561550139E+03  0.41800000000E+01 0.  1.
         -5    1    3    3    0  502  0.11032023848E+02 -0.66441271569E+02  0.52840619406E+02  0.85707360110E+02  0.41800000000E+01 0.  1.
        -11    1    4    4    0    0  0.82292567145E+02  0.33551958781E+02  0.25899859850E+03  0.27382124565E+03  0.00000000000E+00 0.  1.
         11    1    4    4    0    0  0.55553218887E+02  0.12326903010E+03  0.26370645856E+03  0.29634862949E+03  0.00000000000E+00 0. -1.
</event>
<event>
 8    1  0.6505836E-009  0.1360499E+03  0.7561462E-02  0.1218745E+00
         -2   -1    0    0    0  501 -0.00000000000E+00  0.00000000000E+00  0.46026626182E+02  0.46026626182E+02  0.00000000000E+00 0.  1.
          2   -1    0    0  501    0  0.00000000000E+00 -0.00000000000E+00 -0.42553618590E+03  0.42553618590E+03  0.00000000000E+00 0. -1.
         25    2    1    2    0    0 -0.90925814074E+02  0.88512721592E+01 -0.20119405139E+03  0.25391389794E+03  0.12508945826E+03 0.  0.
         23    2    1    2    0    0  0.90925814074E+02 -0.88512721592E+01 -0.17831550833E+03  0.21764891414E+03  0.85022236118E+02 0.  0.
          5    1    3    3  502    0  0.19002252748E+02 -0.27162460163E+02 -0.20115838846E+02  0.39000054155E+02  0.41800000000E+01 0. -1.
         -5    1    3    3    0  502 -0.10992806682E+03  0.36013732322E+02 -0.18107821254E+03  0.21491384378E+03  0.41800000000E+01 0. -1.
        -11    1    4    4    0    0  0.57928733871E+01 -0.33744040742E+02 -0.33975701789E+02  0.48234489525E+02  0.00000000000E+00 0. -1.
         11    1    4    4    0    0  0.85132940687E+02  0.24892768583E+02 -0.14433980654E+03  0.16941442462E+03  0.00000000000E+00 0.  1.
</event>
<event>
 8    1  0.6505836E-009  0.1081980E+03  0.7561462E-02  0.1263944E+00
          1   -1    0    0  501    0  0.00000000000E+00  0.00000000000E+00  0.20543813075E+03  0.20543813075E+03  0.00000000000E+00 0. -1.
         -1   -1    0    0    0  501 -0.00000000000E+00 -0.00000000000E+00 -0.85727246921E+02  0.85727246921E+02  0.00000000000E+00 0.  1.
         25    2    1    2    0    0 -0.22999926683E+02  0.71678207393E+02  0.53922167091E+02  0.15563011496E+03  0.12508545294E+03 0.  0.
         23    2    1    2    0    0  0.22999926683E+02 -0.71678207393E+02  0.65788716742E+02  0.13553526271E+03  0.91514425888E+02 0.  0.
          5    1    3    3  502    0  0.10522871624E+01 -0.11129702503E+02 -0.31801834994E+02  0.33967730202E+02  0.41800000000E+01 0.  1.
         -5    1    3    3    0  502 -0.24052213845E+02  0.82807909896E+02  0.85724002085E+02  0.12166238476E+03  0.41800000000E+01 0.  1.
        -11    1    4    4    0    0 -0.27758027188E+02  0.29082813407E+01  0.11110450504E+02  0.30040111253E+02  0.00000000000E+00 0. -1.
         11    1    4    4    0    0  0.50757953870E+02 -0.74586488733E+02  0.54678266238E+02  0.10549515146E+03  0.00000000000E+00 0.  1.
</event>
<event>
 8    1  0.6505836E-009  0.1059082E+03  0.7561462E-02  0.1268341E+00
          3   -1    0    0  501    0  0.00000000000E+00  0.00000000000E+00  0.28661595299E+03  0.28661595299E+03  0.00000000000E+00 0. -1.
         -3   -1    0    0    0  501 -0.00000000000E+00 -0.00000000000E+00 -0.52329796348E+02  0.52329796348E+02  0.00000000000E+00 0.  1.
         25    2    1    2    0    0 -0.11401654275E+02  0.43089886700E+02  0.95052652433E+02  0.16329141658E+03  0.12506935651E+03 0.  0.
         23    2    1    2    0    0  0.11401654275E+02 -0.43089886700E+02  0.13923350421E+03  0.17565433276E+03  0.97374225892E+02 0.  0.
          5    1    3    3  502    0 -0.24957250818E+02  0.80631265826E+02  0.35918767596E+02  0.91825354139E+02  0.41800000000E+01 0. -1.
         -5    1    3    3    0  502  0.13555596543E+02 -0.37541379126E+02  0.59133884837E+02  0.71466062437E+02  0.41800000000E+01 0. -1.
        -11    1    4    4    0    0 -0.29254779317E+02 -0.19251145907E+01  0.53473536875E+01  0.29801717577E+02  0.00000000000E+00 0.  1.
         11    1    4    4    0    0  0.40656433592E+02 -0.41164772109E+02  0.13388615052E+03  0.14585261519E+03  0.00000000000E+00 0. -1.
</event>
<event>
 8    1  0.6505836E-009  0.1703023E+03  0.7561462E-02  0.1177533E+00
         -1   -1    0    0    0  501 -0.00000000000E+00  0.00000000000E+00  0.10784975435E+03  0.10784975435E+03  0.00000000000E+00 0.  1.
          1   -1    0    0  501    0  0.00000000000E+00 -0.00000000000E+00 -0.31628531257E+03  0.31628531257E+03  0.00000000000E+00 0. -1.
         25    2    1    2    0    0 -0.54499206137E+02  0.13495843281E+03 -0.14648969140E+03  0.24143559907E+03  0.12509187326E+03 0.  0.
         23    2    1    2    0    0  0.54499206137E+02 -0.13495843281E+03 -0.61945866818E+02  0.18269946785E+03  0.91421349156E+02 0.  0.
          5    1    3    3  502    0 -0.80163487067E+02  0.14244601888E+03 -0.11490081456E+03  0.19984174374E+03  0.41800000000E+01 0.  1.
         -5    1    3    3    0  502  0.25664280930E+02 -0.74875860767E+01 -0.31588876848E+02  0.41593855333E+02  0.41800000000E+01 0.  1.
        -11    1    4    4    0    0  0.26274155434E+02 -0.10748669150E+03 -0.82735294110E+02  0.13816240076E+03  0.00000000000E+00 0. -1.
         11    1    4    4    0    0  0.28225050702E+02 -0.27471741311E+02  0.20789427291E+02  0.44537067089E+02  0.00000000000E+00 0.  1.
</event>
<event>
 8    1  0.6505836E-009  0.1106240E+03  0.7561462E-02  0.1259419E+00
         -2   -1    0    0    0  501 -0.00000000000E+00  0.00000000000E+00  0.13458979647E+03  0.13458979647E+03  0.00000000000E+00 0.  1.
          2   -1    0    0  501    0  0.00000000000E+00 -0.00000000000E+00 -0.92638316105E+02  0.92638316105E+02  0.00000000000E+00 0. -1.
         25    2    1    2    0    0 -0.83096996197E+01 -0.26049701216E+02  0.30317684883E+02  0.13158074864E+03  0.12508674332E+03 0.  0.
         23    2    1    2    0    0  0.83096996197E+01  0.26049701216E+02  0.11633795483E+02  0.95647363938E+02  0.90914437740E+02 0.  0.
          5    1    3    3  502    0 -0.65112101403E+02 -0.39586027908E+01  0.25970012642E+02  0.70336123307E+02  0.41800000000E+01 0.  1.
         -5    1    3    3    0  502  0.56802401783E+02 -0.22091098425E+02  0.43476722409E+01  0.61244625331E+02  0.41800000000E+01 0.  1.
        -11    1    4    4    0    0  0.31905800340E+02  0.51185890266E+02  0.48514483256E+01  0.60510428924E+02  0.00000000000E+00 0. -1.
         11    1    4    4    0    0 -0.23596100721E+02 -0.25136189050E+02  0.67823471572E+01  0.35136935014E+02  0.00000000000E+00 0.  1.
</event>
<event>
 8    1  0.6505836E-009  0.1586404E+03  0.7561462E-02  0.1190240E+00
         -1   -1    0    0    0  501 -0.00000000000E+00  0.00000000000E+00  0.25964279268E+03  0.25964279268E+03  0.00000000000E+00 0.  1.
          1   -1    0    0  501    0  0.00000000000E+00 -0.00000000000E+00 -0.11877128219E+03  0.11877128219E+03  0.00000000000E+00 0. -1.
         25    2    1    2    0    0 -0.27443546641E+00 -0.13591092112E+03  0.50121748614E+02  0.19139549921E+03  0.12509274016E+03 0.  0.
         23    2    1    2    0    0  0.27443546641E+00  0.13591092112E+03  0.90749761871E+02  0.18701857566E+03  0.90931702759E+02 0.  0.
          5    1    3    3  502    0 -0.11147791501E+02 -0.15507030693E+03  0.24662864326E+02  0.15747000548E+03  0.41800000000E+01 0.  1.
         -5    1    3    3    0  502  0.10873356034E+02  0.19159385812E+02  0.25458884288E+02  0.33925493738E+02  0.41800000000E+01 0.  1.
        -11    1    4    4    0    0  0.15423756199E+02  0.62668054266E+02  0.91802504458E+02  0.11221798922E+03  0.00000000000E+00 0.  1.
         11    1    4    4    0    0 -0.15149320732E+02  0.73242866855E+02 -0.10527425876E+01  0.74800586433E+02  0.00000000000E+00 0. -1.
</event>
<event>
 8    1  0.6505836E-009  0.1437368E+03  0.7561462E-02  0.1208387E+00
          2   -1    0    0  501    0  0.00000000000E+00  0.00000000000E+00  0.13915977429E+04  0.13915977429E+04  0.00000000000E+00 0. -1.
         -2   -1    0    0    0  501 -0.00000000000E+00 -0.00000000000E+00 -0.18063704978E+02  0.18063704978E+02  0.00000000000E+00 0.  1.
         25    2    1    2    0    0  0.42666221680E+02 -0.94713520263E+02  0.96345887320E+03  0.97708078757E+03  0.12507121052E+03 0.  0.
         23    2    1    2    0    0 -0.42666221680E+02  0.94713520263E+02  0.41007516475E+03  0.43258066033E+03  0.90406468558E+02 0.  0.
          5    1    3    3  502    0 -0.34717910266E+02 -0.73012829449E+02  0.42507307289E+03  0.43271329567E+03  0.41800000000E+01 0.  1.
         -5    1    3    3    0  502  0.77384131945E+02 -0.21700690814E+02  0.53838580031E+03  0.54436749190E+03  0.41800000000E+01 0.  1.
        -11    1    4    4    0    0  0.15556769330E+02  0.50758785878E+02  0.91743701424E+02  0.10599704792E+03  0.00000000000E+00 0.  1.
         11    1    4    4    0    0 -0.58222991010E+02  0.43954734384E+02  0.31833146333E+03  0.32658361242E+03  0.00000000000E+00 0. -1.
</event>
<event>
 8    1  0.6505836E-009  0.1229674E+03  0.7561462E-02  0.1238281E+00
         -2   -1    0    0    0  501 -0.00000000000E+00  0.00000000000E+00  0.19538523778E+03  0.19538523778E+03  0.00000000000E+00 0.  1.
          2   -1    0    0  501    0  0.00000000000E+00 -0.00000000000E+00 -0.11259097490E+03  0.11259097490E+03  0.00000000000E+00 0. -1.
         25    2    1    2    0    0  0.18694501666E+01  0.67678202976E+02 -0.32580094064E+02  0.14591855186E+03  0.12508767823E+03 0.  0.
         23    2    1    2    0    0 -0.18694501666E+01 -0.67678202976E+02  0.11537435695E+03  0.16205766082E+03  0.91474636857E+02 0.  0.
          5    1    3    3  502    0 -0.49817613922E+02 -0.75405313735E+01 -0.69749418976E+01  0.51037010931E+02  0.41800000000E+01 0. -1.
         -5    1    3    3    0  502  0.51687064089E+02  0.75218734350E+02 -0.25605152167E+02  0.94881540928E+02  0.41800000000E+01 0. -1.
        -11    1    4    4    0    0  0.20963230909E+02 -0.76663689829E+02  0.11193370055E+03  0.13728048553E+03  0.00000000000E+00 0.  1.
         11    1    4    4    0    0 -0.22832681075E+02  0.89854868525E+01  0.34406563969E+01  0.24777175293E+02  0.00000000000E+00 0. -1.
</event>
<event>
 8    1  0.6505836E-009  0.7574920E+02  0.7561462E-02  0.1341567E+00
         -1   -1    0    0    0  501 -0.00000000000E+00  0.00000000000E+00  0.17574325808E+02  0.17574325808E+02  0.00000000000E+00 0.  1.
          1   -1    0    0  501    0  0.00000000000E+00 -0.00000000000E+00 -0.78728375391E+03  0.78728375391E+03  0.00000000000E+00 0. -1.
         25    2    1    2    0    0 -0.20177888472E+02 -0.34729899838E+02 -0.35860653458E+03  0.38191477532E+03  0.12508771258E+03 0.  0.
         23    2    1    2    0    0  0.20177888472E+02  0.34729899838E+02 -0.41110289352E+03  0.42294330439E+03  0.90896295563E+02 0.  0.
          5    1    3    3  502    0 -0.11644734093E+02  0.38497911280E+01  0.66081610055E+01  0.14545133746E+02  0.41800000000E+01 0.  1.
         -5    1    3    3    0  502 -0.85331543790E+01 -0.38579690966E+02 -0.36521469559E+03  0.36736964158E+03  0.41800000000E+01 0.  1.
        -11    1    4    4    0    0 -0.23383249838E+02 -0.18650152704E+02 -0.14611284542E+03  0.14914277778E+03  0.00000000000E+00 0. -1.
         11    1    4    4    0    0  0.43561138309E+02  0.53380052542E+02 -0.26499004810E+03  0.27380052661E+03  0.00000000000E+00 0.  1.
</event>
<event>
 8    1  0.6505836E-009  0.1560723E+03  0.7561462E-02  0.1193204E+00
         -1   -1    0    0    0  501 -0.00000000000E+00  0.00000000000E+00  0.47964542622E+02  0.47964542622E+02  0.00000000000E+00 0.  1.
          1   -1    0    0  501    0  0.00000000000E+00 -0.00000000000E+00 -0.54568606458E+03  0.54568606458E+03  0.00000000000E+00 0. -1.
         25    2    1    2    0    0  0.10800481807E+03 -0.46591625461E+02 -0.23923426788E+03  0.29447724955E+03  0.12509194731E+03 0.  0.
         23    2    1    2    0    0 -0.10800481807E+03  0.46591625461E+02 -0.25848725407E+03  0.29917335765E+03  0.94091535872E+02 0.  0.
          5    1    3    3  502    0 -0.11764404762E+02 -0.48917732951E+02 -0.54762691999E+02  0.74483358218E+02  0.41800000000E+01 0.  1.
         -5    1    3    3    0  502  0.11976922283E+03  0.23261074898E+01 -0.18447157588E+03  0.21999389133E+03  0.41800000000E+01 0.  1.
        -11    1    4    4    0    0 -0.12065618899E+03  0.37990261981E+02 -0.18500891729E+03  0.22411933300E+03  0.00000000000E+00 0.  1.
         11    1    4    4    0    0  0.12651370929E+02  0.86013634803E+01 -0.73478336779E+02  0.75054024649E+02  0.00000000000E+00 0. -1.
</event>
<event>
 8    1  0.6505836E-009  0.1013302E+03  0.7561462E-02  0.1277523E+00
         -1   -1    0    0    0  501 -0.00000000000E+00  0.00000000000E+00  0.12491589582E+03  0.12491589582E+03  0.00000000000E+00 0.  1.
          1   -1    0    0  501    0  0.00000000000E+00 -0.00000000000E+00 -0.99844820301E+02  0.99844820301E+02  0.00000000000E+00 0. -1.
         25    2    1    2    0    0  0.26938775283E+02 -0.89264548729E+01  0.57062543274E+01  0.12839552302E+03  0.12508984684E+03 0.  0.
         23    2    1    2    0    0 -0.26938775283E+02  0.89264548729E+01  0.19364821195E+02  0.96365193108E+02  0.90032632597E+02 0.  0.
          5    1    3    3  502    0  0.74569914851E+02 -0.18431284183E+02  0.15992508929E+02  0.78572369058E+02  0.41800000000E+01 0.  1.
         -5    1    3    3    0  502 -0.47631139568E+02  0.95048293103E+01 -0.10286254601E+02  0.49823153960E+02  0.41800000000E+01 0.  1.
        -11    1    4    4    0    0 -0.49360833325E+02  0.18349877968E+02  0.38652383263E+02  0.65323936042E+02  0.00000000000E+00 0.  1.
         11    1    4    4    0    0  0.22422058043E+02 -0.94234230954E+01 -0.19287562068E+02  0.31041257066E+02  0.00000000000E+00 0. -1.
</event>
<event>
 8    1  0.6505836E-009  0.9815515E+02  0.7561462E-02  0.1284224E+00
          1   -1    0    0  501    0  0.00000000000E+00  0.00000000000E+00  0.24283516771E+03  0.24283516771E+03  0.00000000000E+00 0. -1.
         -1   -1    0    0    0  501 -0.00000000000E+00 -0.00000000000E+00 -0.70914158498E+02  0.70914158498E+02  0.00000000000E+00 0.  1.
         25    2    1    2    0    0  0.71382086439E+02 -0.26041318074E+02  0.90931906390E+02  0.17230636690E+03  0.12508924799E+03 0.  0.
         23    2    1    2    0    0 -0.71382086439E+02  0.26041318074E+02  0.80989102817E+02  0.14144295931E+03  0.87597508245E+02 0.  0.
          5    1    3    3  502    0  0.42276588537E+02 -0.28950304402E+02  0.12019047675E+03  0.13072357540E+03  0.41800000000E+01 0.  1.
         -5    1    3    3    0  502  0.29105497902E+02  0.29089863276E+01 -0.29258570358E+02  0.41582791501E+02  0.41800000000E+01 0.  1.
        -11    1    4    4    0    0 -0.88104828293E+02  0.46855664028E+01  0.67864268213E+02  0.11131026099E+03  0.00000000000E+00 0.  1.
         11    1    4    4    0    0  0.16722741854E+02  0.21355751671E+02  0.13124834604E+02  0.30132698318E+02  0.00000000000E+00 0. -1.
</event>
<event>
 8    1  0.6505836E-009  0.1071827E+03  0.7561462E-02  0.1265878E+00
          1   -1    0    0  501    0  0.00000000000E+00  0.00000000000E+00  0.18639129823E+02  0.18639129823E+02  0.00000000000E+00 0. -1.
         -1   -1    0    0    0  501 -0.00000000000E+00 -0.00000000000E+00 -0.10354413521E+04  0.10354413521E+04  0.00000000000E+00 0.  1.
         25    2    1    2    0    0  0.17429059400E+02 -0.83424407446E+02 -0.48244375485E+03  0.50563149688E+03  0.12509128738E+03 0.  0.
         23    2    1    2    0    0 -0.17429059400E+02  0.83424407446E+02 -0.53435846742E+03  0.54844898504E+03  0.89408688679E+02 0.  0.
          5    1    3    3  502    0 -0.17007193660E+02 -0.31473113793E+02 -0.40282321101E+03  0.40443023287E+03  0.41800000000E+01 0.  1.
         -5    1    3    3    0  502  0.34436253060E+02 -0.51951293653E+02 -0.79620543836E+02  0.10120126401E+03  0.41800000000E+01 0.  1.
        -11    1    4    4    0    0 -0.36974531315E+02  0.78238320269E+01 -0.95657407578E+02  0.10285265158E+03  0.00000000000E+00 0. -1.
         11    1    4    4    0    0  0.19545471914E+02  0.75600575419E+02 -0.43870105984E+03  0.44559633345E+03  0.00000000000E+00 0.  1.
</event>
<event>
 8    1  0.6505836E-009  0.1307642E+03  0.7561462E-02  0.1226326E+00
         -2   -1    0    0    0  501 -0.00000000000E+00  0.00000000000E+00  0.52670025514E+02  0.52670025514E+02  0.00000000000E+00 0.  1.
          2   -1    0    0  501    0  0.00000000000E+00 -0.00000000000E+00 -0.60964054603E+03  0.60964054603E+03  0.00000000000E+00 0. -1.
         25    2    1    2    0    0  0.79644546880E+02 -0.23672219957E+02 -0.50781464585E+03  0.52955356520E+03  0.12509051138E+03 0.  0.
         23    2    1    2    0    0 -0.79644546880E+02  0.23672219957E+02 -0.49155874669E+02  0.13275700634E+03  0.91129001272E+02 0.  0.
          5    1    3    3  502    0 -0.17825457486E+02 -0.35964851245E+02 -0.25705401066E+03  0.26020271762E+03  0.41800000000E+01 0.  1.
         -5    1    3    3    0  502  0.97470004366E+02  0.12292631288E+02 -0.25076063518E+03  0.26935084758E+03  0.41800000000E+01 0.  1.
        -11    1    4    4    0    0  0.19881301714E+02  0.10388769669E+02 -0.45609173569E+01  0.22890929650E+02  0.00000000000E+00 0.  1.
         11    1    4    4    0    0 -0.99525848594E+02  0.13283450287E+02 -0.44594957312E+02  0.10986607669E+03  0.00000000000E+00 0. -1.
</event>
<event>
 8    1  0.6505836E-009  0.9595399E+02  0.7561462E-02  0.1289042E+00
         -1   -1    0    0    0  501 -0.00000000000E+00  0.00000000000E+00  0.24671258518E+03  0.24671258518E+03  0.00000000000E+00 0.  1.
          1   -1    0    0  501    0  0.00000000000E+00 -0.00000000000E+00 -0.52212400282E+02  0.52212400282E+02  0.00000000000E+00 0. -1.
         25    2    1    2    0    0  0.60772505952E+01 -0.21748396690E+02  0.14120696274E+03  0.18999052315E+03  0.12508823618E+03 0.  0.
         23    2    1    2    0    0 -0.60772505952E+01  0.21748396690E+02  0.53293222160E+02  0.10893446231E+03  0.92285555837E+02 0.  0.
          5    1    3    3  502    0  0.51733355815E+02 -0.85311849876E+01  0.13104400879E+03  0.14120596964E+03  0.41800000000E+01 0. -1.
         -5    1    3    3    0  502 -0.45656105220E+02 -0.13217211702E+02  0.10162953944E+02  0.48784553518E+02  0.41800000000E+01 0. -1.
        -11    1    4    4    0    0 -0.47526448431E+02  0.11727411602E+02  0.13916911999E+02  0.50891806049E+02  0.00000000000E+00 0.  1.
         11    1    4    4    0    0  0.41449197836E+02  0.10020985088E+02  0.39376310161E+02  0.58042656256E+02  0.00000000000E+00 0. -1.
</event>
<event>
 8    1  0.6505836E-009  0.1283523E+03  0.7561462E-02  0.1229921E+00
         -2   -1    0    0    0  501 -0.00000000000E+00  0.00000000000E+00  0.26322841775E+02  0.26322841775E+02  0.00000000000E+00 0.  1.
          2   -1    0    0  501    0  0.00000000000E+00 -0.00000000000E+00 -0.71466298158E+03  0.71466298158E+03  0.00000000000E+00 0. -1.
         25    2    1    2    0    0  0.34820171185E+02 -0.77061520942E+02 -0.38052284693E+03  0.40938357378E+03  0.12508537531E+03 0.  0.
         23    2    1    2    0    0 -0.34820171185E+02  0.77061520942E+02 -0.30781729288E+03  0.33160224957E+03  0.89764379327E+02 0.  0.
          5    1    3    3  502    0  0.40220524788E+02  0.24900267432E+02 -0.14699325425E+03  0.15447395614E+03  0.41800000000E+01 0.  1.
         -5    1    3    3    0  502 -0.54003536026E+01 -0.10196178837E+03 -0.23352959268E+03  0.25490961764E+03  0.41800000000E+01 0.  1.
        -11    1    4    4    0    0  0.19121645219E+02  0.29243740004E+02 -0.19222770565E+03  0.19537738985E+03  0.00000000000E+00 0. -1.
         11    1    4    4    0    0 -0.53941816405E+02  0.47817780938E+02 -0.11558958723E+03  0.13622485972E+03  0.00000000000E+00 0.  1.
</event>
<event>
 8    1  0.6505836E-009  0.1023276E+03  0.7561462E-02  0.1275476E+00
         -3   -1    0    0    0  501 -0.00000000000E+00  0.00000000000E+00  0.13343104253E+03  0.13343104253E+03  0.00000000000E+00 0.  1.
          3   -1    0    0  501    0  0.00000000000E+00 -0.00000000000E+00 -0.11317869704E+03  0.11317869704E+03  0.00000000000E+00 0. -1.
         25    2    1    2    0    0 -0.45187967278E+02 -0.36366003258E+02  0.21379422564E+02  0.13953098597E+03  0.12508947900E+03 0.  0.
         23    2    1    2    0    0  0.45187967278E+02  0.36366003258E+02 -0.11270770702E+01  0.10707875360E+03  0.90000836613E+02 0.  0.
          5    1    3    3  502    0  0.17020542001E+02  0.30697892649E+02 -0.18217572112E+02  0.39766968664E+02  0.41800000000E+01 0.  1.
         -5    1    3    3    0  502 -0.62208509279E+02 -0.67063895907E+02  0.39596994676E+02  0.99764017302E+02  0.41800000000E+01 0.  1.
        -11    1    4    4    0    0  0.26109025001E+02  0.48531983847E+02  0.34394938080E+02  0.64961884271E+02  0.00000000000E+00 0.  1.
         11    1    4    4    0    0  0.19078942277E+02 -0.12165980589E+02 -0.35522015150E+02  0.42116869333E+02  0.00000000000E+00 0. -1.
</event>
<event>
 8    1  0.6505836E-009  0.2195208E+03  0.7561462E-02  0.1134241E+00
         -2   -1    0    0    0  501 -0.00000000000E+00  0.00000000000E+00  0.13238262777E+03  0.13238262777E+03  0.00000000000E+00 0. -1.
          2   -1    0    0  501    0  0.00000000000E+00 -0.00000000000E+00 -0.40764745848E+03  0.40764745848E+03  0.00000000000E+00 0.  1.
         25    2    1    2    0    0 -0.41383493109E+01  0.19369313843E+03 -0.64136350845E+02  0.23936384843E+03  0.12508965835E+03 0.  0.
         23    2    1    2    0    0  0.41383493109E+01 -0.19369313843E+03 -0.21112847987E+03  0.30066623782E+03  0.91053795894E+02 0.  0.
          5    1    3    3  502    0  0.53636034044E+02  0.11783484248E+03 -0.62689754255E+02  0.14390744226E+03  0.41800000000E+01 0. -1.
         -5    1    3    3    0  502 -0.57774383355E+02  0.75858295953E+02 -0.14465965900E+01  0.95456406169E+02  0.41800000000E+01 0. -1.
        -11    1    4    4    0    0 -0.31641376441E+02 -0.16552994796E+03 -0.16525098883E+03  0.23602802733E+03  0.00000000000E+00 0.  1.
         11    1    4    4    0    0  0.35779725752E+02 -0.28163190467E+02 -0.45877491044E+02  0.64638210499E+02  0.00000000000E+00 0. -1.
</event>
<event>
 8    1  0.6505836E-009  0.1266860E+03  0.7561462E-02  0.1232458E+00
         -2   -1    0    0    0  501 -0.00000000000E+00  0.00000000000E+00  0.51098412924E+02  0.51098412924E+02  0.00000000000E+00 0.  1.
          2   -1    0    0  501    0  0.00000000000E+00 -0.00000000000E+00 -0.45354081479E+03  0.45354081479E+03  0.00000000000E+00 0. -1.
         25    2    1    2    0    0  0.53937806072E+02 -0.44280658333E+02 -0.83362458663E+02  0.16573111767E+03  0.12508972870E+03 0.  0.
         23    2    1    2    0    0 -0.53937806072E+02  0.44280658333E+02 -0.31907994320E+03  0.33890811004E+03  0.90424738148E+02 0.  0.
          5    1    3    3  502    0 -0.35935925146E+02 -0.37019796296E+02 -0.20204391576E+02  0.55565689710E+02  0.41800000000E+01 0. -1.
         -5    1    3    3    0  502  0.89873731218E+02 -0.72608620363E+01 -0.63158067087E+02  0.11016542797E+03  0.41800000000E+01 0. -1.
        -11    1    4    4    0    0 -0.75006547664E+02  0.17055736139E+02 -0.18232971698E+03  0.19789139956E+03  0.00000000000E+00 0.  1.
         11    1    4    4    0    0  0.21068741592E+02  0.27224922194E+02 -0.13675022622E+03  0.14101671048E+03  0.00000000000E+00 0. -1.
</event>
<event>
 8    1  0.6505836E-009  0.3293378E+03  0.7561462E-02  0.1071430E+00
         -2   -1    0    0    0  501 -0.00000000000E+00  0.00000000000E+00  0.19440861179E+03  0.19440861179E+03  0.00000000000E+00 0.  1.
          2   -1    0    0  501    0  0.00000000000E+00 -0.00000000000E+00 -0.61870457566E+03  0.61870457566E+03  0.00000000000E+00 0. -1.
         25    2    1    2    0    0 -0.10127676212E+02 -0.31436238170E+03 -0.10226779093E+03  0.35359906382E+03  0.12508924822E+03 0.  0.
         23    2    1    2    0    0  0.10127676212E+02  0.31436238170E+03 -0.32202817294E+03  0.45951412364E+03  0.92329891141E+02 0.  0.
          5    1    3    3  502    0 -0.62784809929E+02 -0.17272253959E+03 -0.81224398592E+02  0.20097234478E+03  0.41800000000E+01 0.  1.
         -5    1    3    3    0  502  0.52657133716E+02 -0.14163984211E+03 -0.21043392335E+02  0.15262671904E+03  0.41800000000E+01 0.  1.
        -11    1    4    4    0    0 -0.32396300313E+02  0.99236123398E+02 -0.71283202823E+02  0.12640657999E+03  0.00000000000E+00 0.  1.
         11    1    4    4    0    0  0.42523976526E+02  0.21512625830E+03 -0.25074497012E+03  0.33310754364E+03  0.00000000000E+00 0. -1.
</event>
<event>
 8    1  0.6505836E-009  0.1375462E+03  0.7561462E-02  0.1216669E+00
         -2   -1    0    0    0  501 -0.00000000000E+00  0.00000000000E+00  0.46089604721E+02  0.46089604721E+02  0.00000000000E+00 0.  1.
          2   -1    0    0  501    0  0.00000000000E+00 -0.00000000000E+00 -0.55518594395E+03  0.55518594395E+03  0.00000000000E+00 0. -1.
         25    2    1    2    0    0 -0.10902694265E+03 -0.16694809173E+02 -0.34490599987E+03  0.38311017311E+03  0.12509062763E+03 0.  0.
         23    2    1    2    0    0  0.10902694265E+03  0.16694809173E+02 -0.16419033935E+03  0.21816537555E+03  0.92043862786E+02 0.  0.
          5    1    3    3  502    0  0.10308587035E+01 -0.44163058373E+02 -0.16092456821E+03  0.16693000763E+03  0.41800000000E+01 0. -1.
         -5    1    3    3    0  502 -0.11005780135E+03  0.27468249200E+02 -0.18398143166E+03  0.21618016548E+03  0.41800000000E+01 0. -1.
        -11    1    4    4    0    0  0.43407740926E+02  0.26506057672E+02 -0.12169127335E+02  0.52296182707E+02  0.00000000000E+00 0.  1.
         11    1    4    4    0    0  0.65619201720E+02 -0.98112484992E+01 -0.15202121202E+03  0.16586919285E+03  0.00000000000E+00 0. -1.
</event>
<event>
 8    1  0.6505836E-009  0.7305930E+02  0.7561462E-02  0.1349988E+00
         -3   -1    0    0    0  501 -0.00000000000E+00  0.00000000000E+00  0.51132115268E+02  0.51132115268E+02  0.00000000000E+00 0.  1.
          3   -1    0    0  501    0  0.00000000000E+00 -0.00000000000E+00 -0.28626063646E+03  0.28626063646E+03  0.00000000000E+00 0. -1.
         25    2    1    2    0    0  0.65848048237E+01  0.29444297939E+02 -0.19486273434E+03  0.23351561653E+03  0.12509089332E+03 0.  0.
         23    2    1    2    0    0 -0.65848048237E+01 -0.29444297939E+02 -0.40265786849E+02  0.10387713520E+03  0.90877936214E+02 0.  0.
          5    1    3    3  502    0 -0.16266389513E+01 -0.17124111672E+02 -0.18395836461E+03  0.18480809902E+03  0.41800000000E+01 0.  1.
         -5    1    3    3    0  502  0.82114437749E+01  0.46568409611E+02 -0.10904369736E+02  0.48707517509E+02  0.41800000000E+01 0.  1.
        -11    1    4    4    0    0  0.20627892445E+02 -0.45069643453E+02  0.38771606006E+01  0.49717351921E+02  0.00000000000E+00 0.  1.
         11    1    4    4    0    0 -0.27212697269E+02  0.15625345514E+02 -0.44142947450E+02  0.54159783277E+02  0.00000000000E+00 0. -1.
</event>
<event>
 8    1  0.6505836E-009  0.1068243E+03  0.7561462E-02  0.1266566E+00
         -2   -1    0    0    0  501 -0.00000000000E+00  0.00000000000E+00  0.47735419100E+03  0.47735419100E+03  0.00000000000E+00 0.  1.
          2   -1    0    0  501    0  0.00000000000E+00 -0.00000000000E+00 -0.31365766741E+02  0.31365766741E+02  0.00000000000E+00 0. -1.
         25    2    1    2    0    0  0.13946951452E+02  0.39061218442E+02  0.32796502441E+03  0.35344988187E+03  0.12508183526E+03 0.  0.
         23    2    1    2    0    0 -0.13946951452E+02 -0.39061218442E+02  0.11802339985E+03  0.15527007587E+03  0.91972698717E+02 0.  0.
          5    1    3    3  502    0 -0.41175305610E+02 -0.19088609126E+02  0.17354650510E+03  0.17943144268E+03  0.41800000000E+01 0.  1.
         -5    1    3    3    0  502  0.55122257062E+02  0.58149827568E+02  0.15441851931E+03  0.17401843918E+03  0.41800000000E+01 0.  1.
        -11    1    4    4    0    0 -0.40468085464E+02  0.18865782090E+00  0.17393260386E+02  0.44048008352E+02  0.00000000000E+00 0. -1.
         11    1    4    4    0    0  0.26521134012E+02 -0.39249876263E+02  0.10063013946E+03  0.11122206752E+03  0.00000000000E+00 0.  1.
</event>
<event>
 8    1  0.6505836E-009  0.1173725E+03  0.7561462E-02  0.1247496E+00
         -2   -1    0    0    0  501 -0.00000000000E+00  0.00000000000E+00  0.32111311800E+02  0.32111311800E+02  0.00000000000E+00 0. -1.
          2   -1    0    0  501    0  0.00000000000E+00 -0.00000000000E+00 -0.58516332832E+03  0.58516332832E+03  0.00000000000E+00 0.  1.
         25    2    1    2    0    0  0.79875051631E+01  0.68525529185E+02 -0.40804086438E+03  0.43232219105E+03  0.12508229886E+03 0.  0.
         23    2    1    2    0    0 -0.79875051631E+01 -0.68525529185E+02 -0.14501115214E+03  0.18495244907E+03  0.91758518848E+02 0.  0.
          5    1    3    3  502    0 -0.56876091815E+02  0.38438259604E+02 -0.16017663025E+03  0.17431699545E+03  0.41800000000E+01 0.  1.
         -5    1    3    3    0  502  0.64863596978E+02  0.30087269581E+02 -0.24786423412E+03  0.25800519561E+03  0.41800000000E+01 0.  1.
        -11    1    4    4    0    0  0.28189262332E+02 -0.24362583572E+02 -0.10318121460E+02  0.38660491714E+02  0.00000000000E+00 0. -1.
         11    1    4    4    0    0 -0.36176767495E+02 -0.44162945613E+02 -0.13469303068E+03  0.14629195735E+03  0.00000000000E+00 0.  1.
</event>
<event>
 8    1  0.6505836E-009  0.1513644E+03  0.7561462E-02  0.1198806E+00
          1   -1    0    0  501    0  0.00000000000E+00  0.00000000000E+00  0.81506436658E+03  0.81506436658E+03  0.00000000000E+00 0. -1.
         -1   -1    0    0    0  501 -0.00000000000E+00 -0.00000000000E+00 -0.33000223692E+02  0.33000223692E+02  0.00000000000E+00 0.  1.
         25    2    1    2    0    0 -0.11311029302E+03 -0.38480875152E+02  0.34426265498E+03  0.38527705098E+03  0.12508762633E+03 0.  0.
         23    2    1    2    0    0  0.11311029302E+03  0.38480875152E+02  0.43780148791E+03  0.46278753929E+03  0.90705278602E+02 0.  0.
          5    1    3    3  502    0 -0.84310576814E+02  0.23479991258E+02  0.10678894133E+03  0.13813375309E+03  0.41800000000E+01 0.  1.
         -5    1    3    3    0  502 -0.28799716204E+02 -0.61960866410E+02  0.23747371365E+03  0.24714329789E+03  0.41800000000E+01 0.  1.
        -11    1    4    4    0    0  0.98501104270E+02 -0.71329260007E+01  0.24570320189E+03  0.26480825062E+03  0.00000000000E+00 0.  1.
         11    1    4    4    0    0  0.14609188748E+02  0.45613801153E+02  0.19209828602E+03  0.19797928867E+03  0.00000000000E+00 0. -1.
</event>
<event>
 8    1  0.6505836E-009  0.9445427E+02  0.7561462E-02  0.1292410E+00
          1   -1    0    0  501    0  0.00000000000E+00  0.00000000000E+00  0.12900977061E+03  0.12900977061E+03  0.00000000000E+00 0. -1.
         -1   -1    0    0    0  501 -0.00000000000E+00 -0.00000000000E+00 -0.12690305137E+03  0.12690305137E+03  0.00000000000E+00 0.  1.
         25    2    1    2    0    0  0.58727842736E+02  0.10229372061E+02 -0.29995618904E+02  0.14177642007E+03  0.12508883471E+03 0.  0.
         23    2    1    2    0    0 -0.58727842736E+02 -0.10229372061E+02  0.32102338150E+02  0.11413640191E+03  0.91885573196E+02 0.  0.
          5    1    3    3  502    0  0.53428025416E+02 -0.21379023904E+02 -0.69762614664E+02  0.90531272871E+02  0.41800000000E+01 0. -1.
         -5    1    3    3    0  502  0.52998173203E+01  0.31608395965E+02  0.39766995761E+02  0.51245147194E+02  0.41800000000E+01 0. -1.
        -11    1    4    4    0    0 -0.41149797557E+02 -0.44354338181E+02 -0.50526569418E+01  0.60713610472E+02  0.00000000000E+00 0.  1.
         11    1    4    4    0    0 -0.17578045179E+02  0.34124966120E+02  0.37154995092E+02  0.53422791440E+02  0.00000000000E+00 0. -1.
</event>
<event>
 8    1  0.6505836E-009  0.1367374E+03  0.7561462E-02  0.1217788E+00
          2   -1    0    0  501    0  0.00000000000E+00  0.00000000000E+00  0.21507016723E+03  0.21507016723E+03  0.00000000000E+00 0. -1.
         -2   -1    0    0    0  501 -0.00000000000E+00 -0.00000000000E+00 -0.13862895173E+03  0.13862895173E+03  0.00000000000E+00 0.  1.
         25    2    1    2    0    0  0.12981663035E+03  0.14410820513E+02  0.10044485873E+02  0.18113008203E+03  0.12508871115E+03 0.  0.
         23    2    1    2    0    0 -0.12981663035E+03 -0.14410820513E+02  0.66396729629E+02  0.17256903693E+03  0.91167524584E+02 0.  0.
          5    1    3    3  502    0  0.10281652298E+02 -0.40792156712E+01 -0.46186653653E+02  0.47676322741E+02  0.41800000000E+01 0.  1.
         -5    1    3    3    0  502  0.11953497805E+03  0.18490036184E+02  0.56231139526E+02  0.13345375929E+03  0.41800000000E+01 0.  1.
        -11    1    4    4    0    0 -0.10664820723E+03 -0.32208917879E+02  0.83036502369E+02  0.13894716702E+03  0.00000000000E+00 0. -1.
         11    1    4    4    0    0 -0.23168423116E+02  0.17798097366E+02 -0.16639772740E+02  0.33621869912E+02  0.00000000000E+00 0.  1.
</event>
<event>
 8    1  0.6505836E-009  0.1416960E+03  0.7561462E-02  0.1211065E+00
          2   -1    0    0  501    0  0.00000000000E+00  0.00000000000E+00  0.41250013953E+03  0.41250013953E+03  0.00000000000E+00 0. -1.
         -2   -1    0    0    0  501 -0.00000000000E+00 -0.00000000000E+00 -0.57019587516E+02  0.57019587516E+02  0.00000000000E+00 0.  1.
         25    2    1    2    0    0  0.17036708549E+02 -0.10718882596E+03  0.19133023493E+03  0.25304494780E+03  0.12507914679E+03 0.  0.
         23    2    1    2    0    0 -0.17036708549E+02  0.10718882596E+03  0.16415031708E+03  0.21647477924E+03  0.90201494454E+02 0.  0.
          5    1    3    3  502    0 -0.40095739925E+02  0.38105378133E+01  0.41598350463E+02  0.58052422171E+02  0.41800000000E+01 0.  1.
         -5    1    3    3    0  502  0.57132448474E+02 -0.11099936377E+03  0.14973188447E+03  0.19499252563E+03  0.41800000000E+01 0.  1.
        -11    1    4    4    0    0  0.71817205950E+01  0.84496208545E+02  0.16243908327E+03  0.18324203159E+03  0.00000000000E+00 0. -1.
         11    1    4    4    0    0 -0.24218429144E+02  0.22692617412E+02  0.17112338141E+01  0.33232747651E+02  0.00000000000E+00 0.  1.
</event>
<event>
 8    1  0.6505836E-009  0.1759075E+03  0.7561462E-02  0.1171824E+00
         -1   -1    0    0    0  501 -0.00000000000E+00  0.00000000000E+00  0.60632480621E+03  0.60632480621E+03  0.00000000000E+00 0.  1.
          1   -1    0    0  501    0  0.00000000000E+00 -0.00000000000E+00 -0.60610422369E+02  0.60610422369E+02  0.00000000000E+00 0. -1.
         25    2    1    2    0    0  0.13193643773E+03  0.72288097698E+02  0.38159949792E+03  0.42883420254E+03  0.12509118190E+03 0.  0.
         23    2    1    2    0    0 -0.13193643773E+03 -0.72288097698E+02  0.16411488592E+03  0.23810102604E+03  0.84413329215E+02 0.  0.
          5    1    3    3  502    0  0.65683269829E+02  0.94853793895E+02  0.16662117874E+03  0.20271068979E+03  0.41800000000E+01 0.  1.
         -5    1    3    3    0  502  0.66253167899E+02 -0.22565696198E+02  0.21497831918E+03  0.22612351275E+03  0.41800000000E+01 0.  1.
        -11    1    4    4    0    0 -0.99869223815E+02 -0.85593983965E+02  0.10013910567E+03  0.16531192468E+03  0.00000000000E+00 0. -1.
         11    1    4    4    0    0 -0.32067213913E+02  0.13305886267E+02  0.63975780258E+02  0.72789101362E+02  0.00000000000E+00 0.  1.
</event>
<event>
 8    1  0.6505836E-009  0.1623709E+03  0.7561462E-02  0.1186046E+00
         -1   -1    0    0    0  501 -0.00000000000E+00  0.00000000000E+00  0.18574803727E+02  0.18574803727E+02  0.00000000000E+00 0.  1.
          1   -1    0    0  501    0  0.00000000000E+00 -0.00000000000E+00 -0.18089886243E+04  0.18089886243E+04  0.00000000000E+00 0. -1.
         25    2    1    2    0    0  0.11976415227E+03 -0.80400796046E+02 -0.10479224998E+04  0.10651746995E+04  0.12509130492E+03 0.  0.
         23    2    1    2    0    0 -0.11976415227E+03  0.80400796046E+02 -0.74249132075E+03  0.76238872857E+03  0.95579662485E+02 0.  0.
          5    1    3    3  502    0  0.73647932448E+02 -0.76166430236E+02 -0.35009068076E+03  0.36579543491E+03  0.41800000000E+01 0. -1.
         -5    1    3    3    0  502  0.46116219818E+02 -0.42343658096E+01 -0.69783181907E+03  0.69937926455E+03  0.41800000000E+01 0. -1.
        -11    1    4    4    0    0 -0.13404812097E+03  0.58945382112E+02 -0.60214325106E+03  0.61969343356E+03  0.00000000000E+00 0. -1.
         11    1    4    4    0    0  0.14283968704E+02  0.21455413934E+02 -0.14034806970E+03  0.14269529501E+03  0.00000000000E+00 0.  1.
</event>
<event>
 8    1  0.6505836E-009  0.9365283E+02  0.7561462E-02  0.1294239E+00
          1   -1    0    0  501    0  0.00000000000E+00  0.00000000000E+00  0.28117955223E+03  0.28117955223E+03  0.00000000000E+00 0. -1.
         -1   -1    0    0    0  501 -0.00000000000E+00 -0.00000000000E+00 -0.46761432860E+02  0.46761432860E+02  0.00000000000E+00 0.  1.
         25    2    1    2    0    0 -0.82784552218E+01 -0.19799748169E+02  0.11301569987E+03  0.16994320872E+03  0.12509029909E+03 0.  0.
         23    2    1    2    0    0  0.82784552218E+01  0.19799748169E+02  0.12140241950E+03  0.15799777636E+03  0.98813900987E+02 0.  0.
          5    1    3    3  502    0  0.35472761751E+02 -0.56954144016E+02  0.45253041667E+02  0.81039505965E+02  0.41800000000E+01 0. -1.
         -5    1    3    3    0  502 -0.43751216973E+02  0.37154395847E+02  0.67762658204E+02  0.88903702759E+02  0.41800000000E+01 0. -1.
        -11    1    4    4    0    0  0.30832099504E+02 -0.23426691242E+01 -0.16364551626E+01  0.30964244605E+02  0.00000000000E+00 0.  1.
         11    1    4    4    0    0 -0.22553644282E+02  0.22142417293E+02  0.12303887466E+03  0.12703353176E+03  0.00000000000E+00 0. -1.
</event>
<event>
 8    1  0.6505836E-009  0.8491607E+02  0.7561462E-02  0.1315652E+00
          1   -1    0    0  501    0  0.00000000000E+00  0.00000000000E+00  0.30435043293E+03  0.30435043293E+03  0.00000000000E+00 0. -1.
         -1   -1    0    0    0  501 -0.00000000000E+00 -0.00000000000E+00 -0.48050301670E+02  0.48050301670E+02  0.00000000000E+00 0.  1.
         25    2    1    2    0    0 -0.52493900663E+02 -0.15698376394E+02  0.15648776820E+03  0.20769653971E+03  0.12508949749E+03 0.  0.
         23    2    1    2    0    0  0.52493900663E+02  0.15698376394E+02  0.99812363052E+02  0.14470419489E+03  0.89301442161E+02 0.  0.
          5    1    3    3  502    0 -0.72707653642E+02 -0.69150228156E+01  0.29724202104E+02  0.78963415766E+02  0.41800000000E+01 0.  1.
         -5    1    3    3    0  502  0.20213752979E+02 -0.87833535780E+01  0.12676356610E+03  0.12873312394E+03  0.41800000000E+01 0.  1.
        -11    1    4    4    0    0  0.34775501080E+02 -0.15728367914E+02  0.10165080557E+03  0.10857993971E+03  0.00000000000E+00 0. -1.
         11    1    4    4    0    0  0.17718399583E+02  0.31426744308E+02 -0.18384425222E+01  0.36124255183E+02  0.00000000000E+00 0.  1.
</event>
<event>
 8    1  0.6505836E-009  0.7824356E+02  0.7561462E-02  0.1334111E+00
          2   -1    0    0  501    0  0.00000000000E+00  0.00000000000E+00  0.67674743773E+02  0.67674743773E+02  0.00000000000E+00 0. -1.
         -2   -1    0    0    0  501 -0.00000000000E+00 -0.00000000000E+00 -0.18473880951E+03  0.18473880951E+03  0.00000000000E+00 0.  1.
         25    2    1    2    0    0  0.15511611602E+02 -0.42589998524E+01 -0.88269973876E+02  0.15394138323E+03  0.12509041533E+03 0.  0.
         23    2    1    2    0    0 -0.15511611602E+02  0.42589998524E+01 -0.28794091855E+02  0.98472170051E+02  0.92784262537E+02 0.  0.
          5    1    3    3  502    0  0.41256116905E+02  0.41699616832E+02 -0.81738765623E+02  0.10069569719E+03  0.41800000000E+01 0. -1.
         -5    1    3    3    0  502 -0.25744505303E+02 -0.45958616685E+02 -0.65312082531E+01  0.53245686042E+02  0.41800000000E+01 0. -1.
        -11    1    4    4    0    0  0.63486656786E+01  0.17951369108E+02 -0.57091210380E+02  0.60182750946E+02  0.00000000000E+00 0.  1.
         11    1    4    4    0    0 -0.21860277281E+02 -0.13692369255E+02  0.28297118525E+02  0.38289419105E+02  0.00000000000E+00 0. -1.
</event>
<event>
 8    1  0.6505836E-009  0.1766025E+03  0.7561462E-02  0.1171132E+00
         -1   -1    0    0    0  501 -0.00000000000E+00  0.00000000000E+00  0.36620791147E+02  0.36620791147E+02  0.00000000000E+00 0.  1.
          1   -1    0    0  501    0  0.00000000000E+00 -0.00000000000E+00 -0.98041430251E+03  0.98041430251E+03  0.00000000000E+00 0. -1.
         25    2    1    2    0    0  0.10018216040E+03 -0.10984471580E+03 -0.59991717051E+03  0.63059576933E+03  0.12509230981E+03 0.  0.
         23    2    1    2    0    0 -0.10018216040E+03  0.10984471580E+03 -0.34387634085E+03  0.38643932432E+03  0.94773871594E+02 0.  0.
          5    1    3    3  502    0  0.38558740336E+02 -0.11646772368E+03 -0.48117241179E+03  0.49658420170E+03  0.41800000000E+01 0.  1.
         -5    1    3    3    0  502  0.61623420065E+02  0.66230078823E+01 -0.11874475872E+03  0.13401156763E+03  0.41800000000E+01 0.  1.
        -11    1    4    4    0    0 -0.40415452869E+02  0.99868749734E+02 -0.27120430433E+03  0.29182006561E+03  0.00000000000E+00 0. -1.
         11    1    4    4    0    0 -0.59766707532E+02  0.99759660614E+01 -0.72672036517E+02  0.94619258715E+02  0.00000000000E+00 0.  1.
</event>
<event>
 8    1  0.6505836E-009  0.9509946E+02  0.7561462E-02  0.1290952E+00
          2   -1    0    0  501    0  0.00000000000E+00  0.00000000000E+00  0.91551733013E+03  0.91551733013E+03  0.00000000000E+00 0. -1.
         -2   -1    0    0    0  501 -0.00000000000E+00 -0.00000000000E+00 -0.17235490642E+02  0.17235490642E+02  0.00000000000E+00 0.  1.
         25    2    1    2    0    0  0.59900760163E+01  0.53728224902E+02  0.38750368415E+03  0.41076672641E+03  0.12509034786E+03 0.  0.
         23    2    1    2    0    0 -0.59900760163E+01 -0.53728224902E+02  0.51077815533E+03  0.52198609436E+03  0.93019114073E+02 0.  0.
          5    1    3    3  502    0 -0.19962860957E+02 -0.25382028170E+01  0.31342991101E+03  0.31410307194E+03  0.41800000000E+01 0. -1.
         -5    1    3    3    0  502  0.25952936973E+02  0.56266427719E+02  0.74073773147E+02  0.96663654463E+02  0.41800000000E+01 0. -1.
        -11    1    4    4    0    0 -0.35571998062E+02 -0.66424846239E+02  0.36481057324E+03  0.37251091473E+03  0.00000000000E+00 0.  1.
         11    1    4    4    0    0  0.29581922045E+02  0.12696621337E+02  0.14596758209E+03  0.14947517964E+03  0.00000000000E+00 0. -1.
</event>
<event>
 8    1  0.6505836E-009  0.9843667E+02  0.7561462E-02  0.1283618E+00
          2   -1    0    0  501    0  0.00000000000E+00  0.00000000000E+00  0.39964677195E+03  0.39964677195E+03  0.00000000000E+00 0. -1.
         -2   -1    0    0    0  501 -0.00000000000E+00 -0.00000000000E+00 -0.39142293997E+02  0.39142293997E+02  0.00000000000E+00 0.  1.
         25    2    1    2    0    0 -0.56936245684E+02  0.80907438517E+01  0.19205954669E+03  0.23630780425E+03  0.12508921882E+03 0.  0.
         23    2    1    2    0    0  0.56936245684E+02 -0.80907438517E+01  0.16844493126E+03  0.20248126170E+03  0.96528598162E+02 0.  0.
          5    1    3    3  502    0 -0.25545326380E+02  0.44136907483E+02  0.15676330852E+02  0.53514951658E+02  0.41800000000E+01 0. -1.
         -5    1    3    3    0  502 -0.31390919303E+02 -0.36046163631E+02  0.17638321584E+03  0.18279285259E+03  0.41800000000E+01 0. -1.
        -11    1    4    4    0    0  0.62524911193E+02  0.22634267451E+02  0.15465221932E+03  0.16834186504E+03  0.00000000000E+00 0. -1.
         11    1    4    4    0    0 -0.55886655094E+01 -0.30725011303E+02  0.13792711936E+02  0.34139396660E+02  0.00000000000E+00 0.  1.
</event>
<event>
 8    1  0.6505836E-009  0.1131103E+03  0.7561462E-02  0.1254916E+00
          1   -1    0    0  501    0  0.00000000000E+00  0.00000000000E+00  0.28013019460E+03  0.28013019460E+03  0.00000000000E+00 0. -1.
         -1   -1    0    0    0  501 -0.00000000000E+00 -0.00000000000E+00 -0.59748709628E+02  0.59748709628E+02  0.00000000000E+00 0.  1.
         25    2    1    2    0    0 -0.32869567382E+02 -0.62236805104E+02  0.11032588418E+03  0.18103482718E+03  0.12509188447E+03 0.  0.
         23    2    1    2    0    0  0.32869567382E+02  0.62236805104E+02  0.11005560078E+03  0.15884407705E+03  0.90362476614E+02 0.  0.
          5    1    3    3  502    0  0.10321855787E+02  0.19605655011E+02 -0.13586001198E+02  0.26324403960E+02  0.41800000000E+01 0.  1.
         -5    1    3    3    0  502 -0.43191423169E+02 -0.81842460115E+02  0.12391188538E+03  0.15471042322E+03  0.41800000000E+01 0.  1.
        -11    1    4    4    0    0 -0.19685005702E+02 -0.97032662102E+01  0.39541407134E+02  0.45223618860E+02  0.00000000000E+00 0.  1.
         11    1    4    4    0    0  0.52554573084E+02  0.71940071315E+02  0.70514193650E+02  0.11362045819E+03  0.00000000000E+00 0. -1.
</event>
<event>
 8    1  0.6505836E-009  0.1372907E+03  0.7561462E-02  0.1217022E+00
         -2   -1    0    0    0  501 -0.00000000000E+00  0.00000000000E+00  0.24894042850E+03  0.24894042850E+03  0.00000000000E+00 0.  1.
          2   -1    0    0  501    0  0.00000000000E+00 -0.00000000000E+00 -0.10242165808E+03  0.10242165808E+03  0.00000000000E+00 0. -1.
         25    2    1    2    0    0  0.93193768173E+02 -0.56777724792E+02  0.35488630704E+02  0.16974691479E+03  0.12508310722E+03 0.  0.
         23    2    1    2    0    0 -0.93193768173E+02  0.56777724792E+02  0.11103013972E+03  0.18161517179E+03  0.93528553061E+02 0.  0.
          5    1    3    3  502    0 -0.13139834995E+02 -0.33776456297E+01  0.47975114366E+02  0.50031467619E+02  0.41800000000E+01 0.  1.
         -5    1    3    3    0  502  0.10633360317E+03 -0.53400079163E+02 -0.12486483662E+02  0.11971544717E+03  0.41800000000E+01 0.  1.
        -11    1    4    4    0    0  0.18079356809E+02  0.64268293421E+01  0.27947999307E+02  0.33900707121E+02  0.00000000000E+00 0.  1.
         11    1    4    4    0    0 -0.11127312498E+03  0.50350895450E+02  0.83082140417E+02  0.14771446467E+03  0.00000000000E+00 0. -1.
</event>
<event>
 8    1  0.6505836E-009  0.1694443E+03  0.7561462E-02  0.1178429E+00
          2   -1    0    0  501    0  0.00000000000E+00  0.00000000000E+00  0.12609012729E+04  0.12609012729E+04  0.00000000000E+00 0. -1.
         -2   -1    0    0    0  501 -0.00000000000E+00 -0.00000000000E+00 -0.32433347710E+02  0.32433347710E+02  0.00000000000E+00 0.  1.
         25    2    1    2    0    0 -0.15140707621E+03 -0.25581447706E+02  0.88140177478E+03  0.90338007978E+03  0.12509183333E+03 0.  0.
         23    2    1    2    0    0  0.15140707621E+03  0.25581447706E+02  0.34706615042E+03  0.38995454084E+03  0.89616504949E+02 0.  0.
          5    1    3    3  502    0 -0.15289650672E+03 -0.20078000082E+02  0.88279682373E+03  0.89617418633E+03  0.41800000000E+01 0. -1.
         -5    1    3    3    0  502  0.14894305070E+01 -0.55034476242E+01 -0.13950489435E+01  0.72058934590E+01  0.41800000000E+01 0. -1.
        -11    1    4    4    0    0  0.10631403615E+03 -0.25587939401E+02  0.22344620811E+03  0.24876821510E+03  0.00000000000E+00 0. -1.
         11    1    4    4    0    0  0.45093040066E+02  0.51169387106E+02  0.12361994230E+03  0.14118632574E+03  0.00000000000E+00 0.  1.
</event>
<event>
 8    1  0.6505836E-009  0.1285154E+03  0.7561462E-02  0.1229675E+00
          2   -1    0    0  501    0  0.00000000000E+00  0.00000000000E+00  0.76758011986E+02  0.76758011986E+02  0.00000000000E+00 0. -1.
         -2   -1    0    0    0  501 -0.00000000000E+00 -0.00000000000E+00 -0.27835158308E+03  0.27835158308E+03  0.00000000000E+00 0.  1.
         25    2    1    2    0    0 -0.66096902106E+02  0.44986464392E+02 -0.16400143281E+03  0.22121708176E+03  0.12509174574E+03 0.  0.
         23    2    1    2    0    0  0.66096902106E+02 -0.44986464392E+02 -0.37592138280E+02  0.13389251330E+03  0.10060543629E+03 0.  0.
          5    1    3    3  502    0 -0.64869275740E+02 -0.30896935938E+02 -0.70902945999E+02  0.10103139976E+03  0.41800000000E+01 0.  1.
         -5    1    3    3    0  502 -0.12276263654E+01  0.75883400329E+02 -0.93098486815E+02  0.12018568201E+03  0.41800000000E+01 0.  1.
        -11    1    4    4    0    0  0.18538217712E+02 -0.57048425170E+02 -0.55441680000E+02  0.81682116841E+02  0.00000000000E+00 0.  1.
         11    1    4    4    0    0  0.47558684394E+02  0.12061960778E+02  0.17849541720E+02  0.52210396462E+02  0.00000000000E+00 0. -1.
</event>
<event>
 8    1  0.6505836E-009  0.7296319E+02  0.7561462E-02  0.1350297E+00
          2   -1    0    0  501    0  0.00000000000E+00  0.00000000000E+00  0.15298541529E+03  0.15298541529E+03  0.00000000000E+00 0. -1.
         -2   -1    0    0    0  501 -0.00000000000E+00 -0.00000000000E+00 -0.77428700297E+02  0.77428700297E+02  0.00000000000E+00 0.  1.
         25    2    1    2    0    0  0.97596519584E+01 -0.82389395672E+01  0.48812408826E+02  0.13488189624E+03  0.12508934306E+03 0.  0.
         23    2    1    2    0    0 -0.97596519584E+01  0.82389395672E+01  0.26744306163E+02  0.95532219340E+02  0.90818588892E+02 0.  0.
          5    1    3    3  502    0  0.43815468776E+02  0.40674252067E+02  0.45127103030E+02  0.75020783208E+02  0.41800000000E+01 0. -1.
         -5    1    3    3    0  502 -0.34055816818E+02 -0.48913191634E+02  0.36853057958E+01  0.59861113035E+02  0.41800000000E+01 0. -1.
        -11    1    4    4    0    0 -0.29988032441E+01  0.15813511293E+02 -0.32051707671E+02  0.35866027448E+02  0.00000000000E+00 0.  1.
         11    1    4    4    0    0 -0.67608487143E+01 -0.75745717258E+01  0.58796013833E+02  0.59666191892E+02  0.00000000000E+00 0. -1.
</event>
<event>
 8    1  0.6505836E-009  0.7670168E+02  0.7561462E-02  0.1338681E+00
          2   -1    0    0  501    0  0.00000000000E+00  0.00000000000E+00  0.31446354140E+02  0.31446354140E+02  0.00000000000E+00 0. -1.
         -2   -1    0    0    0  501 -0.00000000000E+00 -0.00000000000E+00 -0.39960300848E+03  0.39960300848E+03  0.00000000000E+00 0.  1.
         25    2    1    2    0    0  0.24441619805E+02 -0.13496783705E+02 -0.28005569707E+03  0.30798633456E+03  0.12507930631E+03 0.  0.
         23    2    1    2    0    0 -0.24441619805E+02  0.13496783705E+02 -0.88100957267E+02  0.12306302805E+03  0.81259917878E+02 0.  0.
          5    1    3    3  502    0  0.75492706549E+01  0.46017030588E+02 -0.20669671658E+03  0.21193292249E+03  0.41800000000E+01 0.  1.
         -5    1    3    3    0  502  0.16892349150E+02 -0.59513814293E+02 -0.73358980491E+02  0.96053412069E+02  0.41800000000E+01 0.  1.
        -11    1    4    4    0    0 -0.13868412445E+01 -0.10913867651E+02  0.12708426422E+02  0.16808924352E+02  0.00000000000E+00 0. -1.
         11    1    4    4    0    0 -0.23054778560E+02  0.24410651356E+02 -0.10080938369E+03  0.10625410370E+03  0.00000000000E+00 0.  1.
</event>
<event>
 8    1  0.6505836E-009  0.5517482E+02  0.7561462E-02  0.1419274E+00
          3   -1    0    0  501    0  0.00000000000E+00  0.00000000000E+00  0.17308387867E+03  0.17308387867E+03  0.00000000000E+00 0. -1.
         -3   -1    0    0    0  501 -0.00000000000E+00 -0.00000000000E+00 -0.79325075011E+02  0.79325075011E+02  0.00000000000E+00 0.  1.
         25    2    1    2    0    0  0.34463537008E+02  0.21720477121E+02  0.31819871466E+02  0.13534359601E+03  0.12508345314E+03 0.  0.
         23    2    1    2    0    0 -0.34463537008E+02 -0.21720477121E+02  0.61938932193E+02  0.11706535767E+03  0.90599956603E+02 0.  0.
          5    1    3    3  502    0  0.19169444892E+02  0.11021598311E+02  0.80211791704E+02  0.83308746091E+02  0.41800000000E+01 0.  1.
         -5    1    3    3    0  502  0.15294092116E+02  0.10698878811E+02 -0.48391920238E+02  0.52034849916E+02  0.41800000000E+01 0.  1.
        -11    1    4    4    0    0 -0.46928318892E+02 -0.40614825711E+01 -0.43856628347E+01  0.47307470797E+02  0.00000000000E+00 0.  1.
         11    1    4    4    0    0  0.12464781884E+02 -0.17658994550E+02  0.66324595028E+02  0.69757886877E+02  0.00000000000E+00 0. -1.
</event>
<event>
 8    1  0.6505836E-009  0.6391608E+02  0.7561462E-02  0.1382096E+00
         -2   -1    0    0    0  501 -0.00000000000E+00  0.00000000000E+00  0.90499206497E+02  0.90499206497E+02  0.00000000000E+00 0.  1.
          2   -1    0    0  501    0  0.00000000000E+00 -0.00000000000E+00 -0.14527698492E+03  0.14527698492E+03  0.00000000000E+00 0. -1.
         25    2    1    2    0    0  0.18747210721E+02  0.12641268646E+02 -0.65413837293E+02  0.14295942535E+03  0.12508863898E+03 0.  0.
         23    2    1    2    0    0 -0.18747210721E+02 -0.12641268646E+02  0.10636058873E+02  0.92816766067E+02  0.89389969975E+02 0.  0.
          5    1    3    3  502    0  0.28899897472E+02 -0.24889903982E+02  0.24077196024E+02  0.45297849425E+02  0.41800000000E+01 0.  1.
         -5    1    3    3    0  502 -0.10152686751E+02  0.37531172629E+02 -0.89491033317E+02  0.97661575920E+02  0.41800000000E+01 0.  1.
        -11    1    4    4    0    0 -0.23563601246E+02  0.11161748796E+02  0.44242443256E+02  0.51353887147E+02  0.00000000000E+00 0.  1.
         11    1    4    4    0    0  0.48163905251E+01 -0.23803017442E+02 -0.33606384383E+02  0.41462878920E+02  0.00000000000E+00 0. -1.
</event>
<event>
 8    1  0.6505836E-009  0.1045635E+03  0.7561462E-02  0.1270982E+00
          2   -1    0    0  501    0  0.00000000000E+00  0.00000000000E+00  0.25199686180E+03  0.25199686180E+03  0.00000000000E+00 0. -1.
         -2   -1    0    0    0  501 -0.00000000000E+00 -0.00000000000E+00 -0.70543407653E+02  0.70543407653E+02  0.00000000000E+00 0.  1.
         25    2    1    2    0    0 -0.36063173126E+02 -0.30071975362E+02  0.26304366838E+02  0.13618038143E+03  0.12509316693E+03 0.  0.
         23    2    1    2    0    0  0.36063173126E+02  0.30071975362E+02  0.15514908731E+03  0.18635988802E+03  0.91945051060E+02 0.  0.
          5    1    3    3  502    0 -0.65416140149E+02  0.19956081484E+02  0.35716033999E+02  0.77269813413E+02  0.41800000000E+01 0.  1.
         -5    1    3    3    0  502  0.29352967023E+02 -0.50028056846E+02 -0.94116671615E+01  0.58910568013E+02  0.41800000000E+01 0.  1.
        -11    1    4    4    0    0 -0.45533595836E+01 -0.18548781963E+02  0.35484162489E+00  0.19102782740E+02  0.00000000000E+00 0.  1.
         11    1    4    4    0    0  0.40616532710E+02  0.48620757325E+02  0.15479424568E+03  0.16725710528E+03  0.00000000000E+00 0. -1.
</event>
<event>
 8    1  0.6505836E-009  0.1089107E+03  0.7561462E-02  0.1262600E+00
          2   -1    0    0  501    0  0.00000000000E+00  0.00000000000E+00  0.67141960921E+03  0.67141960921E+03  0.00000000000E+00 0.  1.
         -2   -1    0    0    0  501 -0.00000000000E+00 -0.00000000000E+00 -0.36029463235E+02  0.36029463235E+02  0.00000000000E+00 0. -1.
         25    2    1    2    0    0  0.23812473698E+02  0.10045518190E+03  0.43327246782E+03  0.46263440954E+03  0.12508912043E+03 0.  0.
         23    2    1    2    0    0 -0.23812473698E+02 -0.10045518190E+03  0.20211767815E+03  0.24481466290E+03  0.91784453343E+02 0.  0.
          5    1    3    3  502    0 -0.12972839446E+02  0.18250225800E+02  0.29491643049E+01  0.22968136083E+02  0.41800000000E+01 0.  1.
         -5    1    3    3    0  502  0.36785313143E+02  0.82204956096E+02  0.43032330352E+03  0.43966627346E+03  0.41800000000E+01 0.  1.
        -11    1    4    4    0    0 -0.61073365504E+01 -0.64700766207E+02  0.19332951195E+03  0.20396026304E+03  0.00000000000E+00 0.  1.
         11    1    4    4    0    0 -0.17705137147E+02 -0.35754415689E+02  0.87881661986E+01  0.40854399859E+02  0.00000000000E+00 0. -1.
</event>
<event>
 8    1  0.6505836E-009  0.9971567E+02  0.7561462E-02  0.1280895E+00
          4   -1    0    0  501    0  0.00000000000E+00  0.00000000000E+00  0.31716899885E+03  0.31716899885E+03  0.00000000000E+00 0. -1.
         -4   -1    0    0    0  501 -0.00000000000E+00 -0.00000000000E+00 -0.41402214631E+02  0.41402214631E+02  0.00000000000E+00 0.  1.
         25    2    1    2    0    0  0.31230901045E+02 -0.19326188550E+02  0.15544117536E+03  0.20288895649E+03  0.12511234521E+03 0.  0.
         23    2    1    2    0    0 -0.31230901045E+02  0.19326188550E+02  0.12032560886E+03  0.15568225699E+03  0.91705192060E+02 0.  0.
          5    1    3    3  502    0  0.34720351638E+01 -0.70838051726E+02  0.74753591802E+02  0.10312931924E+03  0.41800000000E+01 0. -1.
         -5    1    3    3    0  502  0.27758865881E+02  0.51511863176E+02  0.80687583558E+02  0.99759637245E+02  0.41800000000E+01 0. -1.
        -11    1    4    4    0    0 -0.31201211892E+02  0.39057226036E+02  0.20674222320E+02  0.54096266023E+02  0.00000000000E+00 0.  1.
         11    1    4    4    0    0 -0.29689153265E-01 -0.19731037486E+02  0.99651386542E+02  0.10158599097E+03  0.00000000000E+00 0. -1.
</event>
<event>
 7    1  0.6505836E-009  0.1077789E+03  0.7561462E-02  0.1264739E+00
         -4   -1    0    0    0  501 -0.00000000000E+00  0.00000000000E+00  0.60847259019E+02  0.60847259019E+02  0.00000000000E+00 0.  1.
          4   -1    0    0  501    0  0.00000000000E+00 -0.00000000000E+00 -0.27772284272E+03  0.27772284272E+03  0.00000000000E+00 0. -1.
         25    2    1    2    0    0 -0.12622822905E+02  0.19151757123E+02 -0.10690807616E+03  0.16614104655E+03  0.12508950851E+03 0.  0.
          5    1    3    3  502    0 -0.49073476480E+02  0.12929955249E+02 -0.11698570414E+03  0.12758729251E+03  0.41800000000E+01 0. -1.
         -5    1    3    3    0  502  0.36450653574E+02  0.62218018733E+01  0.10077627981E+02  0.38553754036E+02  0.41800000000E+01 0. -1.
        -11    1    1    2    0    0 -0.42962723330E+02  0.30663614090E+02 -0.22327118362E+02  0.57311020226E+02  0.00000000000E+00 0. -1.
         11    1    1    2    0    0  0.55585546235E+02 -0.49815371213E+02 -0.87640389183E+02  0.11511803497E+03  0.00000000000E+00 0.  1.
</event>
<event>
 8    1  0.6505836E-009  0.9243920E+02  0.7561462E-02  0.1297050E+00
          1   -1    0    0  501    0  0.00000000000E+00  0.00000000000E+00  0.25363685665E+03  0.25363685665E+03  0.00000000000E+00 0. -1.
         -1   -1    0    0    0  501 -0.00000000000E+00 -0.00000000000E+00 -0.63996153473E+02  0.63996153473E+02  0.00000000000E+00 0.  1.
         25    2    1    2    0    0 -0.16400590875E+02  0.43564518443E+02  0.16081455058E+03  0.20896401443E+03  0.12505116153E+03 0.  0.
         23    2    1    2    0    0  0.16400590875E+02 -0.43564518443E+02  0.28826152595E+02  0.10866899569E+03  0.93867762853E+02 0.  0.
          5    1    3    3  502    0  0.50956257735E+02  0.36311721538E+02  0.98820189905E+02  0.11703838540E+03  0.41800000000E+01 0.  1.
         -5    1    3    3    0  502 -0.67356848609E+02  0.72527969050E+01  0.61994360675E+02  0.91925629033E+02  0.41800000000E+01 0.  1.
        -11    1    4    4    0    0  0.15778914410E+02 -0.62469013138E+01  0.58547794182E+02  0.60957707631E+02  0.00000000000E+00 0. -1.
         11    1    4    4    0    0  0.62167646513E+00 -0.37317617129E+02 -0.29721641587E+02  0.47711288061E+02  0.00000000000E+00 0.  1.
</event>
<event>
 8    1  0.6505836E-009  0.1176746E+03  0.7561462E-02  0.1246983E+00
          4   -1    0    0  501    0  0.00000000000E+00  0.00000000000E+00  0.28058684677E+03  0.28058684677E+03  0.00000000000E+00 0. -1.
         -4   -1    0    0    0  501 -0.00000000000E+00 -0.00000000000E+00 -0.74863880302E+02  0.74863880302E+02  0.00000000000E+00 0.  1.
         25    2    1    2    0    0 -0.72323874356E+02  0.32152714553E+02  0.45167065989E+02  0.15476120406E+03  0.12508567695E+03 0.  0.
         23    2    1    2    0    0  0.72323874356E+02 -0.32152714553E+02  0.16055590048E+03  0.20068952302E+03  0.90738898017E+02 0.  0.
          5    1    3    3  502    0  0.35139930918E+02 -0.81524332440E+00  0.13723341049E+02  0.37964218103E+02  0.41800000000E+01 0. -1.
         -5    1    3    3    0  502 -0.10746380527E+03  0.32967957878E+02  0.31443724940E+02  0.11679698596E+03  0.41800000000E+01 0. -1.
        -11    1    4    4    0    0  0.57953582951E+02 -0.68345694355E+01  0.27544072275E+02  0.64529102223E+02  0.00000000000E+00 0.  1.
         11    1    4    4    0    0  0.14370291405E+02 -0.25318145118E+02  0.13301182821E+03  0.13616042079E+03  0.00000000000E+00 0. -1.
</event>
<event>
 8    1  0.6505836E-009  0.1063110E+03  0.7561462E-02  0.1267558E+00
         -2   -1    0    0    0  501 -0.00000000000E+00  0.00000000000E+00  0.24686709093E+02  0.24686709093E+02  0.00000000000E+00 0.  1.
          2   -1    0    0  501    0  0.00000000000E+00 -0.00000000000E+00 -0.56032948353E+03  0.56032948353E+03  0.00000000000E+00 0. -1.
         25    2    1    2    0    0  0.25861683579E+02 -0.21665039315E+02 -0.22911138663E+03  0.26319895618E+03  0.12507382800E+03 0.  0.
         23    2    1    2    0    0 -0.25861683579E+02  0.21665039315E+02 -0.30653138781E+03  0.32181723643E+03  0.92014354034E+02 0.  0.
          5    1    3    3  502    0  0.52754129928E+02  0.36028286807E+02 -0.13621694195E+03  0.15051100740E+03  0.41800000000E+01 0. -1.
         -5    1    3    3    0  502 -0.26892446349E+02 -0.57693326122E+02 -0.92894444677E+02  0.11268794879E+03  0.41800000000E+01 0. -1.
        -11    1    4    4    0    0 -0.44778417349E+02 -0.11856396018E+02 -0.24423641460E+03  0.24859023916E+03  0.00000000000E+00 0.  1.
         11    1    4    4    0    0  0.18916733770E+02  0.33521435334E+02 -0.62294973207E+02  0.73226997277E+02  0.00000000000E+00 0. -1.
</event>
<event>
 8    1  0.6505836E-009  0.1210449E+03  0.7561462E-02  0.1241383E+00
         -1   -1    0    0    0  501 -0.00000000000E+00  0.00000000000E+00  0.26216455129E+03  0.26216455129E+03  0.00000000000E+00 0.  1.
          1   -1    0    0  501    0  0.00000000000E+00 -0.00000000000E+00 -0.86304530489E+02  0.86304530489E+02  0.00000000000E+00 0. -1.
         25    2    1    2    0    0 -0.85989880377E+02  0.58243305084E+02  0.89219682660E+02  0.18545558177E+03  0.12508828451E+03 0.  0.
         23    2    1    2    0    0  0.85989880377E+02 -0.58243305084E+02  0.86640338140E+02  0.16301350001E+03  0.90996213538E+02 0.  0.
          5    1    3    3  502    0 -0.47159389930E+02  0.74807371282E+02  0.20989008363E+01  0.88555229329E+02  0.41800000000E+01 0.  1.
         -5    1    3    3    0  502 -0.38830490446E+02 -0.16564066198E+02  0.87120781823E+02  0.96900352439E+02  0.41800000000E+01 0.  1.
        -11    1    4    4    0    0  0.51129981302E+02 -0.10790680989E+02 -0.66683940747E+01  0.52679989215E+02  0.00000000000E+00 0. -1.
         11    1    4    4    0    0  0.34859899075E+02 -0.47452624094E+02  0.93308732214E+02  0.11033351080E+03  0.00000000000E+00 0.  1.
</event>
<event>
 8    1  0.6505836E-009  0.1052277E+03  0.7561462E-02  0.1269672E+00
          2   -1    0    0  501    0  0.00000000000E+00  0.00000000000E+00  0.16500831882E+03  0.16500831882E+03  0.00000000000E+00 0. -1.
         -2   -1    0    0    0  501 -0.00000000000E+00 -0.00000000000E+00 -0.16746352674E+03  0.16746352674E+03  0.00000000000E+00 0.  1.
         25    2    1    2    0    0 -0.69115239611E+02 -0.38717454021E+02 -0.95940225833E+02  0.17642221054E+03  0.12507722353E+03 0.  0.
         23    2    1    2    0    0  0.69115239611E+02  0.38717454021E+02  0.93485017913E+02  0.15604963501E+03  0.96623405139E+02 0.  0.
          5    1    3    3  502    0 -0.72603285323E+02 -0.49360787212E+02 -0.86506436899E+01  0.88317780713E+02  0.41800000000E+01 0.  1.
         -5    1    3    3    0  502  0.34880457127E+01  0.10643333191E+02 -0.87289582143E+02  0.88104429826E+02  0.41800000000E+01 0.  1.
        -11    1    4    4    0    0 -0.17206817901E+02  0.48287533724E+01 -0.71074913451E+01  0.19232989228E+02  0.00000000000E+00 0.  1.
         11    1    4    4    0    0  0.86322057511E+02  0.33888700649E+02  0.10059250926E+03  0.13681664578E+03  0.00000000000E+00 0. -1.
</event>
<event>
 8    1  0.6505836E-009  0.2023796E+03  0.7561462E-02  0.1147747E+00
         -2   -1    0    0    0  501 -0.00000000000E+00  0.00000000000E+00  0.22781158970E+03  0.22781158970E+03  0.00000000000E+00 0.  1.
          2   -1    0    0  501    0  0.00000000000E+00 -0.00000000000E+00 -0.22615706741E+03  0.22615706741E+03  0.00000000000E+00 0. -1.
         25    2    1    2    0    0  0.17125730312E+03  0.99664595927E+02  0.21210232190E+02  0.23528790196E+03  0.12509367413E+03 0.  0.
         23    2    1    2    0    0 -0.17125730312E+03 -0.99664595927E+02 -0.19555709907E+02  0.21868075514E+03  0.90425390936E+02 0.  0.
          5    1    3    3  502    0  0.17398929221E+03  0.90493557024E+02  0.51866973944E+02  0.20290148608E+03  0.41800000000E+01 0.  1.
         -5    1    3    3    0  502 -0.27319890875E+01  0.91710389028E+01 -0.30656741754E+02  0.32386415885E+02  0.41800000000E+01 0.  1.
        -11    1    4    4    0    0 -0.14041195219E+03 -0.80828754015E+02  0.22118504255E+02  0.16351768108E+03  0.00000000000E+00 0.  1.
         11    1    4    4    0    0 -0.30845350931E+02 -0.18835841913E+02 -0.41674214162E+02  0.55163074068E+02  0.00000000000E+00 0. -1.
</event>
<event>
 8    1  0.6505836E-009  0.9177387E+02  0.7561462E-02  0.1298612E+00
          3   -1    0    0  501    0  0.00000000000E+00  0.00000000000E+00  0.19723603354E+03  0.19723603354E+03  0.00000000000E+00 0. -1.
         -3   -1    0    0    0  501 -0.00000000000E+00 -0.00000000000E+00 -0.68148906507E+02  0.68148906507E+02  0.00000000000E+00 0.  1.
         25    2    1    2    0    0  0.11814790098E+02  0.33044395204E+02  0.46889199293E+02  0.13812235826E+03  0.12509063722E+03 0.  0.
         23    2    1    2    0    0 -0.11814790098E+02 -0.33044395204E+02  0.82197927742E+02  0.12726258179E+03  0.90596600816E+02 0.  0.
          5    1    3    3  502    0 -0.43893610760E+02 -0.60599391824E+01  0.53522029967E+02  0.69609281136E+02  0.41800000000E+01 0. -1.
         -5    1    3    3    0  502  0.55708400858E+02  0.39104334387E+02 -0.66328306740E+01  0.68513077122E+02  0.41800000000E+01 0. -1.
        -11    1    4    4    0    0  0.25344800590E+02 -0.10874156806E+02 -0.67103266689E+01  0.28383704607E+02  0.00000000000E+00 0.  1.
         11    1    4    4    0    0 -0.37159590688E+02 -0.22170238398E+02  0.88908254411E+02  0.98878877183E+02  0.00000000000E+00 0. -1.
</event>
<event>
 8    1  0.6505836E-009  0.1297870E+03  0.7561462E-02  0.1227772E+00
         -2   -1    0    0    0  501 -0.00000000000E+00  0.00000000000E+00  0.81359434380E+02  0.81359434380E+02  0.00000000000E+00 0. -1.
          2   -1    0    0  501    0  0.00000000000E+00 -0.00000000000E+00 -0.22651842488E+03  0.22651842488E+03  0.00000000000E+00 0.  1.
         25    2    1    2    0    0 -0.56911522329E+02  0.44718311962E+02 -0.11491449149E+03  0.18467697039E+03  0.12514629135E+03 0.  0.
         23    2    1    2    0    0  0.56911522329E+02 -0.44718311962E+02 -0.30244499008E+02  0.12320088887E+03  0.95000423685E+02 0.  0.
          5    1    3    3  502    0  0.36053213629E+02 -0.61955244019E+01 -0.17954148110E+02  0.40963917903E+02  0.41800000000E+01 0.  1.
         -5    1    3    3    0  502 -0.92964735959E+02  0.50913836364E+02 -0.96960343381E+02  0.14371305248E+03  0.41800000000E+01 0.  1.
        -11    1    4    4    0    0  0.26644649708E+02 -0.71475147364E+02 -0.32102724580E+02  0.82760008303E+02  0.00000000000E+00 0.  1.
         11    1    4    4    0    0  0.30266872621E+02  0.26756835402E+02  0.18582255726E+01  0.40440880570E+02  0.00000000000E+00 0. -1.
</event>
<event>
 8    1  0.6505836E-009  0.7031530E+02  0.7561462E-02  0.1359024E+00
         -1   -1    0    0    0  501 -0.00000000000E+00  0.00000000000E+00  0.22556647864E+02  0.22556647864E+02  0.00000000000E+00 0.  1.
          1   -1    0    0  501    0  0.00000000000E+00 -0.00000000000E+00 -0.68781496460E+03  0.68781496460E+03  0.00000000000E+00 0. -1.
         25    2    1    2    0    0  0.12936302253E+02 -0.54245879511E+02 -0.38754250597E+03  0.41103108030E+03  0.12508953467E+03 0.  0.
         23    2    1    2    0    0 -0.12936302253E+02  0.54245879511E+02 -0.27771581077E+03  0.29934053216E+03  0.96792144736E+02 0.  0.
          5    1    3    3  502    0 -0.10458738390E+02 -0.46934698287E+02 -0.38265928807E+03  0.38569139770E+03  0.41800000000E+01 0. -1.
         -5    1    3    3    0  502  0.23395040642E+02 -0.73111812238E+01 -0.48832178969E+01  0.25339682606E+02  0.41800000000E+01 0. -1.
        -11    1    4    4    0    0  0.10718833226E+02  0.31170271306E+01  0.41429902882E+01  0.11906872485E+02  0.00000000000E+00 0.  1.
         11    1    4    4    0    0 -0.23655135478E+02  0.51128852380E+02 -0.28185880106E+03  0.28743365968E+03  0.00000000000E+00 0. -1.
</event>
<event>
 8    1  0.6505836E-009  0.1057365E+03  0.7561462E-02  0.1268675E+00
          1   -1    0    0  501    0  0.00000000000E+00  0.00000000000E+00  0.70303212532E+02  0.70303212532E+02  0.00000000000E+00 0. -1.
         -1   -1    0    0    0  501 -0.00000000000E+00 -0.00000000000E+00 -0.19557270999E+03  0.19557270999E+03  0.00000000000E+00 0.  1.
         25    2    1    2    0    0 -0.36783539792E+02 -0.22128194111E+02 -0.70480061470E+02  0.14985522451E+03  0.12508582444E+03 0.  0.
         23    2    1    2    0    0  0.36783539792E+02  0.22128194111E+02 -0.54789435991E+02  0.11602069801E+03  0.92823673148E+02 0.  0.
          5    1    3    3  502    0 -0.71868203760E+02  0.20227144849E+02 -0.54169991173E+02  0.92336539052E+02  0.41800000000E+01 0. -1.
         -5    1    3    3    0  502  0.35084663968E+02 -0.42355338959E+02 -0.16310070297E+02  0.57518685461E+02  0.41800000000E+01 0. -1.
        -11    1    4    4    0    0  0.41750694739E+02  0.43088030131E+02 -0.31630502102E+01  0.60080810068E+02  0.00000000000E+00 0. -1.
         11    1    4    4    0    0 -0.49671549476E+01 -0.20959836021E+02 -0.51626385781E+02  0.55939887943E+02  0.00000000000E+00 0.  1.
</event>
<event>
 8    1  0.6505836E-009  0.1163613E+03  0.7561462E-02  0.1249223E+00
         -3   -1    0    0    0  501 -0.00000000000E+00  0.00000000000E+00  0.95581956092E+02  0.95581956092E+02  0.00000000000E+00 0.  1.
          3   -1    0    0  501    0  0.00000000000E+00 -0.00000000000E+00 -0.27140206992E+03  0.27140206992E+03  0.00000000000E+00 0. -1.
         25    2    1    2    0    0 -0.99832533519E+02  0.44239222756E+02 -0.13726286768E+03  0.21543468258E+03  0.12508942417E+03 0.  0.
         23    2    1    2    0    0  0.99832533519E+02 -0.44239222756E+02 -0.38557246152E+02  0.15154934343E+03  0.97759391792E+02 0.  0.
          5    1    3    3  502    0 -0.65661179490E+02  0.16639836521E+02 -0.15396281426E+03  0.16825663501E+03  0.41800000000E+01 0.  1.
         -5    1    3    3    0  502 -0.34171354029E+02  0.27599386235E+02  0.16699946582E+02  0.47178047571E+02  0.41800000000E+01 0.  1.
        -11    1    4    4    0    0  0.12858121124E+02  0.11649204569E+02  0.24822321505E+02  0.30285027503E+02  0.00000000000E+00 0.  1.
         11    1    4    4    0    0  0.86974412395E+02 -0.55888427325E+02 -0.63379567657E+02  0.12126431592E+03  0.00000000000E+00 0. -1.
</event>
<event>
 8    1  0.6505836E-009  0.9397755E+02  0.7561462E-02  0.1293496E+00
          1   -1    0    0  501    0  0.00000000000E+00  0.00000000000E+00  0.23586495524E+02  0.23586495524E+02  0.00000000000E+00 0. -1.
         -1   -1    0    0    0  501 -0.00000000000E+00 -0.00000000000E+00 -0.65004660796E+03  0.65004660796E+03  0.00000000000E+00 0.  1.
         25    2    1    2    0    0  0.35242353612E+02  0.40758800133E+02 -0.42681631762E+03  0.44802198603E+03  0.12509287628E+03 0.  0.
         23    2    1    2    0    0 -0.35242353612E+02 -0.40758800133E+02 -0.19964379481E+03  0.22561111746E+03  0.90218779851E+02 0.  0.
          5    1    3    3  502    0  0.60396341816E+02  0.14234532042E+02 -0.39350601572E+03  0.39839025693E+03  0.41800000000E+01 0.  1.
         -5    1    3    3    0  502 -0.25153988204E+02  0.26524268091E+02 -0.33310301907E+02  0.49631729100E+02  0.41800000000E+01 0.  1.
        -11    1    4    4    0    0 -0.11183536221E+02  0.20391740195E+02 -0.10765253365E+02  0.25627821417E+02  0.00000000000E+00 0. -1.
         11    1    4    4    0    0 -0.24058817391E+02 -0.61150540327E+02 -0.18887854145E+03  0.19998329604E+03  0.00000000000E+00 0.  1.
</event>
<event>
 8    1  0.6505836E-009  0.2157145E+03  0.7561462E-02  0.1137119E+00
         -1   -1    0    0    0  501 -0.00000000000E+00  0.00000000000E+00  0.24577313422E+03  0.24577313422E+03  0.00000000000E+00 0.  1.
          1   -1    0    0  501    0  0.00000000000E+00 -0.00000000000E+00 -0.25686100027E+03  0.25686100027E+03  0.00000000000E+00 0. -1.
         25    2    1    2    0    0  0.12021947402E+03  0.14770767281E+03  0.10977936993E+03  0.25292312234E+03  0.12509323407E+03 0.  0.
         23    2    1    2    0    0 -0.12021947402E+03 -0.14770767281E+03 -0.12086723597E+03  0.24971101215E+03  0.10712806503E+03 0.  0.
          5    1    3    3  502    0  0.23373020269E+01 -0.13974089080E+02 -0.11664515693E+02  0.18822100646E+02  0.41800000000E+01 0.  1.
         -5    1    3    3    0  502  0.11788217199E+03  0.16168176189E+03  0.12144388562E+03  0.23410102169E+03  0.41800000000E+01 0.  1.
        -11    1    4    4    0    0 -0.76160413874E+02 -0.16248427694E+02 -0.27631260327E+02  0.82631147827E+02  0.00000000000E+00 0.  1.
         11    1    4    4    0    0 -0.44059060147E+02 -0.13145924512E+03 -0.93235975645E+02  0.16707986433E+03  0.00000000000E+00 0. -1.
</event>
<event>
 7    1  0.6505836E-009  0.9452122E+02  0.7561462E-02  0.1292258E+00
          1   -1    0    0  501    0  0.00000000000E+00  0.00000000000E+00  0.30068748827E+02  0.30068748827E+02  0.00000000000E+00 0. -1.
         -1   -1    0    0    0  501 -0.00000000000E+00 -0.00000000000E+00 -0.52365086399E+03  0.52365086399E+03  0.00000000000E+00 0.  1.
         23    2    1    2    0    0 -0.36502762140E+02 -0.28755747836E+02 -0.22478104795E+03  0.25353077016E+03  0.10766609134E+03 0.  0.
          5    1    1    2  502    0  0.50036347286E+02  0.15427514239E+02 -0.29788025906E+02  0.60385785849E+02  0.41800000000E+01 0.  1.
         -5    1    1    2    0  502 -0.13533585146E+02  0.13328233597E+02 -0.23901304132E+03  0.23980305681E+03  0.41800000000E+01 0.  1.
        -11    1    3    3    0    0  0.24753319335E+02 -0.47026257193E+02 -0.10944868732E+03  0.12166844636E+03  0.00000000000E+00 0.  1.
         11    1    3    3    0    0 -0.61256081475E+02  0.18270509357E+02 -0.11533236062E+03  0.13186232380E+03  0.00000000000E+00 0. -1.
</event>
<event>
 8    1  0.6505836E-009  0.1078222E+03  0.7561462E-02  0.1264657E+00
          3   -1    0    0  501    0  0.00000000000E+00  0.00000000000E+00  0.24316992797E+02  0.24316992797E+02  0.00000000000E+00 0. -1.
         -3   -1    0    0    0  501 -0.00000000000E+00 -0.00000000000E+00 -0.64346695726E+03  0.64346695726E+03  0.00000000000E+00 0.  1.
         25    2    1    2    0    0 -0.35598917869E+02 -0.35908423809E+02 -0.44481736252E+03  0.46482841683E+03  0.12508506402E+03 0.  0.
         23    2    1    2    0    0  0.35598917869E+02  0.35908423809E+02 -0.17433260194E+03  0.20295553323E+03  0.90787634142E+02 0.  0.
          5    1    3    3  502    0 -0.80871400803E+02 -0.25824142967E+02 -0.33352743919E+03  0.34418758682E+03  0.41800000000E+01 0. -1.
         -5    1    3    3    0  502  0.45272482935E+02 -0.10084280842E+02 -0.11128992334E+03  0.12064083002E+03  0.41800000000E+01 0. -1.
        -11    1    4    4    0    0  0.24163787222E+02 -0.17258551863E+02 -0.12834446034E+03  0.13173475899E+03  0.00000000000E+00 0.  1.
         11    1    4    4    0    0  0.11435130646E+02  0.53166975672E+02 -0.45988141600E+02  0.71220774237E+02  0.00000000000E+00 0. -1.
</event>
<event>
 8    1  0.6505836E-009  0.1009179E+03  0.7561462E-02  0.1278377E+00
         -2   -1    0    0    0  501 -0.00000000000E+00  0.00000000000E+00  0.15496559698E+02  0.15496559698E+02  0.00000000000E+00 0.  1.
          2   -1    0    0  501    0  0.00000000000E+00 -0.00000000000E+00 -0.81623867105E+03  0.81623867105E+03  0.00000000000E+00 0. -1.
         25    2    1    2    0    0 -0.18573001772E+02  0.61564284281E+01 -0.49115934803E+03  0.50721507913E+03  0.12508706302E+03 0.  0.
         23    2    1    2    0    0  0.18573001772E+02 -0.61564284281E+01 -0.30958276332E+03  0.32452015162E+03  0.95336160265E+02 0.  0.
          5    1    3    3  502    0  0.40075055518E+02 -0.19621237438E+02 -0.85760227545E+02  0.96764105235E+02  0.41800000000E+01 0. -1.
         -5    1    3    3    0  502 -0.58648057290E+02  0.25777665866E+02 -0.40539912049E+03  0.41045097390E+03  0.41800000000E+01 0. -1.
        -11    1    4    4    0    0  0.55213257952E+02  0.21320663643E+01 -0.13365062803E+03  0.14462205895E+03  0.00000000000E+00 0.  1.
         11    1    4    4    0    0 -0.36640256180E+02 -0.82884947924E+01 -0.17593213529E+03  0.17989809267E+03  0.00000000000E+00 0. -1.
</event>
<event>
 8    1  0.6505836E-009  0.1221118E+03  0.7561462E-02  0.1239653E+00
         -1   -1    0    0    0  501 -0.00000000000E+00  0.00000000000E+00  0.28918730004E+03  0.28918730004E+03  0.00000000000E+00 0.  1.
          1   -1    0    0  501    0  0.00000000000E+00 -0.00000000000E+00 -0.70927710569E+02  0.70927710569E+02  0.00000000000E+00 0. -1.
         25    2    1    2    0    0  0.47603104250E+01  0.71420090236E+02  0.19304155758E+03  0.24090669159E+03  0.12508997263E+03 0.  0.
         23    2    1    2    0    0 -0.47603104250E+01 -0.71420090236E+02  0.25218031893E+02  0.11920831903E+03  0.91930323333E+02 0.  0.
          5    1    3    3  502    0 -0.54657597735E+01 -0.29506265658E+02  0.95204597125E+02  0.99909368714E+02  0.41800000000E+01 0.  1.
         -5    1    3    3    0  502  0.10226070199E+02  0.10092635589E+03  0.97836960455E+02  0.14099732287E+03  0.41800000000E+01 0.  1.
        -11    1    4    4    0    0 -0.24380589678E+01  0.20400943567E+02  0.17580352114E+02  0.27040921035E+02  0.00000000000E+00 0.  1.
         11    1    4    4    0    0 -0.23222514572E+01 -0.91821033802E+02  0.76376797788E+01  0.92167397993E+02  0.00000000000E+00 0. -1.
</event>
<event>
 8    1  0.6505836E-009  0.2286816E+03  0.7561462E-02  0.1127571E+00
          1   -1    0    0  501    0  0.00000000000E+00  0.00000000000E+00  0.76181741945E+02  0.76181741945E+02  0.00000000000E+00 0. -1.
         -1   -1    0    0    0  501 -0.00000000000E+00 -0.00000000000E+00 -0.80934280224E+03  0.80934280224E+03  0.00000000000E+00 0.  1.
         25    2    1    2    0    0 -0.11446870682E+03  0.16982969091E+03 -0.22381446268E+03  0.32815424681E+03  0.12508831776E+03 0.  0.
         23    2    1    2    0    0  0.11446870682E+03 -0.16982969091E+03 -0.50934659761E+03  0.55737029737E+03  0.96345644073E+02 0.  0.
          5    1    3    3  502    0  0.90903183806E+01 -0.99048587308E+01  0.19510706643E+01  0.14213345541E+02  0.41800000000E+01 0. -1.
         -5    1    3    3    0  502 -0.12355902520E+03  0.17973454964E+03 -0.22576553334E+03  0.31394090127E+03  0.41800000000E+01 0. -1.
        -11    1    4    4    0    0 -0.15332392640E+01 -0.75786419238E+02 -0.14527312909E+03  0.16386034969E+03  0.00000000000E+00 0. -1.
         11    1    4    4    0    0  0.11600194609E+03 -0.94043271676E+02 -0.36407346852E+03  0.39350994768E+03  0.00000000000E+00 0.  1.
</event>
<event>
 8    1  0.6505836E-009  0.1220525E+03  0.7561462E-02  0.1239749E+00
         -1   -1    0    0    0  501 -0.00000000000E+00  0.00000000000E+00  0.91776204357E+03  0.91776204357E+03  0.00000000000E+00 0.  1.
          1   -1    0    0  501    0  0.00000000000E+00 -0.00000000000E+00 -0.20660707948E+02  0.20660707948E+02  0.00000000000E+00 0. -1.
         25    2    1    2    0    0  0.28808630291E+02 -0.76940948772E+02  0.42320330856E+03  0.44888133061E+03  0.12507422522E+03 0.  0.
         23    2    1    2    0    0 -0.28808630291E+02  0.76940948772E+02  0.47389802706E+03  0.48954142092E+03  0.91222891641E+02 0.  0.
          5    1    3    3  502    0  0.34160789739E+02  0.86961858610E+01  0.30221893455E+02  0.46619936166E+02  0.41800000000E+01 0.  1.
         -5    1    3    3    0  502 -0.53521594477E+01 -0.85637134633E+02  0.39298141510E+03  0.40226139444E+03  0.41800000000E+01 0.  1.
        -11    1    4    4    0    0  0.26907128379E+02 -0.96317276284E+00  0.97573824787E+02  0.10122041564E+03  0.00000000000E+00 0.  1.
         11    1    4    4    0    0 -0.55715758670E+02  0.77904121534E+02  0.37632420228E+03  0.38832100527E+03  0.00000000000E+00 0. -1.
</event>
<event>
 8    1  0.6505836E-009  0.1649036E+03  0.7561462E-02  0.1183269E+00
          1   -1    0    0  501    0  0.00000000000E+00  0.00000000000E+00  0.11503296319E+03  0.11503296319E+03  0.00000000000E+00 0. -1.
         -1   -1    0    0    0  501 -0.00000000000E+00 -0.00000000000E+00 -0.28801934889E+03  0.28801934889E+03  0.00000000000E+00 0.  1.
         25    2    1    2    0    0 -0.10303721497E+03  0.72330774622E+02 -0.17219680216E+03  0.24728128410E+03  0.12509151117E+03 0.  0.
         23    2    1    2    0    0  0.10303721497E+03 -0.72330774622E+02 -0.78958354266E+00  0.15577102798E+03  0.91736476333E+02 0.  0.
          5    1    3    3  502    0 -0.68433780675E+02  0.10684134241E+03 -0.10928368061E+03  0.16750716413E+03  0.41800000000E+01 0. -1.
         -5    1    3    3    0  502 -0.34603434290E+02 -0.34510567792E+02 -0.62913121547E+02  0.79774119969E+02  0.41800000000E+01 0. -1.
        -11    1    4    4    0    0 -0.94174522195E+01 -0.33564881113E+02  0.10181061580E+02  0.36317264012E+02  0.00000000000E+00 0. -1.
         11    1    4    4    0    0  0.11245466718E+03 -0.38765893509E+02 -0.10970645123E+02  0.11945376397E+03  0.00000000000E+00 0.  1.
</event>
<event>
 8    1  0.6505836E-009  0.2470476E+03  0.7561462E-02  0.1115185E+00
         -2   -1    0    0    0  501 -0.00000000000E+00  0.00000000000E+00  0.85257010920E+02  0.85257010920E+02  0.00000000000E+00 0.  1.
          2   -1    0    0  501    0  0.00000000000E+00 -0.00000000000E+00 -0.81704890736E+03  0.81704890736E+03  0.00000000000E+00 0. -1.
         25    2    1    2    0    0  0.21485264574E+03  0.77519497608E+02 -0.24748971535E+03  0.35926351955E+03  0.12509270714E+03 0.  0.
         23    2    1    2    0    0 -0.21485264574E+03 -0.77519497608E+02 -0.48430218110E+03  0.54304239874E+03  0.90418539689E+02 0.  0.
          5    1    3    3  502    0  0.16824748674E+03  0.11185173656E+03 -0.19937031657E+03  0.28387325216E+03  0.41800000000E+01 0.  1.
         -5    1    3    3    0  502  0.46605159009E+02 -0.34332238949E+02 -0.48119398780E+02  0.75390267386E+02  0.41800000000E+01 0.  1.
        -11    1    4    4    0    0 -0.74513189897E+02 -0.18386808480E+01 -0.24004062893E+03  0.25134657299E+03  0.00000000000E+00 0. -1.
         11    1    4    4    0    0 -0.14033945585E+03 -0.75680816760E+02 -0.24426155217E+03  0.29169582575E+03  0.00000000000E+00 0.  1.
</event>
<event>
 8    1  0.6505836E-009  0.1621567E+03  0.7561462E-02  0.1186283E+00
         -2   -1    0    0    0  501 -0.00000000000E+00  0.00000000000E+00  0.37716520324E+02  0.37716520324E+02  0.00000000000E+00 0.  1.
          2   -1    0    0  501    0  0.00000000000E+00 -0.00000000000E+00 -0.82467164774E+03  0.82467164774E+03  0.00000000000E+00 0. -1.
         25    2    1    2    0    0  0.92134357623E+02  0.92086943594E+02 -0.53586678725E+03  0.56548056933E+03  0.12508523325E+03 0.  0.
         23    2    1    2    0    0 -0.92134357623E+02 -0.92086943594E+02 -0.25108834016E+03  0.29690759873E+03  0.90222073699E+02 0.  0.
          5    1    3    3  502    0  0.78959710628E+02  0.12023524814E+03 -0.37663847362E+03  0.40319370408E+03  0.41800000000E+01 0.  1.
         -5    1    3    3    0  502  0.13174646994E+02 -0.28148304544E+02 -0.15922831363E+03  0.16228686525E+03  0.41800000000E+01 0.  1.
        -11    1    4    4    0    0  0.86913483313E+01 -0.28622798450E+02 -0.17407605476E+02  0.34609664190E+02  0.00000000000E+00 0.  1.
         11    1    4    4    0    0 -0.10082570595E+03 -0.63464145144E+02 -0.23368073468E+03  0.26229793454E+03  0.00000000000E+00 0. -1.
</event>
<event>
 8    1  0.6505836E-009  0.1285473E+03  0.7561462E-02  0.1229627E+00
          1   -1    0    0  501    0  0.00000000000E+00  0.00000000000E+00  0.63631664975E+03  0.63631664975E+03  0.00000000000E+00 0.  1.
         -1   -1    0    0    0  501 -0.00000000000E+00 -0.00000000000E+00 -0.44283575149E+02  0.44283575149E+02  0.00000000000E+00 0. -1.
         25    2    1    2    0    0  0.71623098701E+02  0.91332570613E+02  0.42558266634E+03  0.45852123145E+03  0.12509838961E+03 0.  0.
         23    2    1    2    0    0 -0.71623098701E+02 -0.91332570613E+02  0.16645040826E+03  0.22207899345E+03  0.90232112893E+02 0.  0.
          5    1    3    3  502    0  0.66048362050E+02  0.31463114920E+02  0.83181617238E+02  0.11085561590E+03  0.41800000000E+01 0. -1.
         -5    1    3    3    0  502  0.55747366506E+01  0.59869455692E+02  0.34240104910E+03  0.34766561555E+03  0.41800000000E+01 0. -1.
        -11    1    4    4    0    0 -0.49470454334E+02 -0.28894308703E+02  0.18883898596E+02  0.60322537693E+02  0.00000000000E+00 0. -1.
         11    1    4    4    0    0 -0.22152644366E+02 -0.62438261909E+02  0.14756650967E+03  0.16175645575E+03  0.00000000000E+00 0.  1.
</event>
<event>
 8    1  0.6505836E-009  0.1422355E+03  0.7561462E-02  0.1210352E+00
          1   -1    0    0  501    0  0.00000000000E+00  0.00000000000E+00  0.19062612413E+03  0.19062612413E+03  0.00000000000E+00 0. -1.
         -1   -1    0    0    0  501 -0.00000000000E+00 -0.00000000000E+00 -0.17878282280E+03  0.17878282280E+03  0.00000000000E+00 0.  1.
         25    2    1    2    0    0  0.11319742755E+03  0.86213309460E+01 -0.91583285171E+02  0.19215238219E+03  0.12508818852E+03 0.  0.
         23    2    1    2    0    0 -0.11319742755E+03 -0.86213309460E+01  0.10342658650E+03  0.17725656474E+03  0.88514665449E+02 0.  0.
          5    1    3    3  502    0  0.39636954726E+02 -0.55427168527E+02 -0.55809457862E+02  0.88178382712E+02  0.41800000000E+01 0.  1.
         -5    1    3    3    0  502  0.73560472824E+02  0.64048499473E+02 -0.35773827309E+02  0.10397399948E+03  0.41800000000E+01 0.  1.
        -11    1    4    4    0    0 -0.98504533046E+02 -0.19344178858E+02  0.34778856076E+02  0.10623986595E+03  0.00000000000E+00 0.  1.
         11    1    4    4    0    0 -0.14692894503E+02  0.10722847912E+02  0.68647730422E+02  0.71016698799E+02  0.00000000000E+00 0. -1.
</event>
<event>
 8    1  0.6505836E-009  0.1085713E+03  0.7561462E-02  0.1263239E+00
          1   -1    0    0  501    0  0.00000000000E+00  0.00000000000E+00  0.18781414772E+02  0.18781414772E+02  0.00000000000E+00 0. -1.
         -1   -1    0    0    0  501 -0.00000000000E+00 -0.00000000000E+00 -0.77268832318E+03  0.77268832318E+03  0.00000000000E+00 0.  1.
         25    2    1    2    0    0  0.20042049812E+02  0.44102597179E+02 -0.51841779504E+03  0.53549299438E+03  0.12509601900E+03 0.  0.
         23    2    1    2    0    0 -0.20042049812E+02 -0.44102597179E+02 -0.23548911337E+03  0.25597674358E+03  0.87876321610E+02 0.  0.
          5    1    3    3  502    0  0.35395533007E+02 -0.28890969783E+02 -0.32370114732E+03  0.32693644193E+03  0.41800000000E+01 0. -1.
         -5    1    3    3    0  502 -0.15353483196E+02  0.72993566962E+02 -0.19471664773E+03  0.20855655244E+03  0.41800000000E+01 0. -1.
        -11    1    4    4    0    0  0.32774202018E+02 -0.20864577450E+02 -0.13068330962E+03  0.13633637197E+03  0.00000000000E+00 0.  1.
         11    1    4    4    0    0 -0.52816251829E+02 -0.23238019730E+02 -0.10480580375E+03  0.11964037161E+03  0.00000000000E+00 0. -1.
</event>
<event>
 8    1  0.6505836E-009  0.1064007E+03  0.7561462E-02  0.1267384E+00
          2   -1    0    0  501    0  0.00000000000E+00  0.00000000000E+00  0.29646360025E+03  0.29646360025E+03  0.00000000000E+00 0. -1.
         -2   -1    0    0    0  501 -0.00000000000E+00 -0.00000000000E+00 -0.56657228378E+02  0.56657228378E+02  0.00000000000E+00 0.  1.
         25    2    1    2    0    0 -0.37746730738E+02  0.45657957667E+02  0.12547883107E+03  0.18681953445E+03  0.12508851516E+03 0.  0.
         23    2    1    2    0    0  0.37746730738E+02 -0.45657957667E+02  0.11432754081E+03  0.16630129418E+03  0.10524195494E+03 0.  0.
          5    1    3    3  502    0 -0.66134444863E+02  0.46747955767E+02  0.13420856033E+03  0.15680735388E+03  0.41800000000E+01 0. -1.
         -5    1    3    3    0  502  0.28387714125E+02 -0.10899980996E+01 -0.87297292658E+01  0.30012180563E+02  0.41800000000E+01 0. -1.
        -11    1    4    4    0    0 -0.22170216481E+02 -0.36030767342E+02  0.92665133253E+02  0.10186540931E+03  0.00000000000E+00 0. -1.
         11    1    4    4    0    0  0.59916947219E+02 -0.96271903258E+01  0.21662407553E+02  0.64435884867E+02  0.00000000000E+00 0.  1.
</event>
<event>
 8    1  0.6505836E-009  0.5276424E+02  0.7561462E-02  0.1430978E+00
          1   -1    0    0  501    0  0.00000000000E+00  0.00000000000E+00  0.50022699355E+03  0.50022699355E+03  0.00000000000E+00 0. -1.
         -1   -1    0    0    0  501 -0.00000000000E+00 -0.00000000000E+00 -0.24549592565E+02  0.24549592565E+02  0.00000000000E+00 0.  1.
         25    2    1    2    0    0  0.96224943034E+01  0.37910761399E+02  0.28419943379E+03  0.31295528411E+03  0.12506747563E+03 0.  0.
         23    2    1    2    0    0 -0.96224943034E+01 -0.37910761399E+02  0.19147796719E+03  0.21182130200E+03  0.81698432267E+02 0.  0.
          5    1    3    3  502    0  0.11059261058E+02  0.19086674494E+02  0.29144334425E+03  0.29230686565E+03  0.41800000000E+01 0. -1.
         -5    1    3    3    0  502 -0.14367667544E+01  0.18824086905E+02 -0.72439104545E+01  0.20648418467E+02  0.41800000000E+01 0. -1.
        -11    1    4    4    0    0 -0.19176547915E+02  0.49686521034E+01  0.52664517607E+01  0.20497878129E+02  0.00000000000E+00 0.  1.
         11    1    4    4    0    0  0.95540536116E+01 -0.42879413503E+02  0.18621151543E+03  0.19132342387E+03  0.00000000000E+00 0. -1.
</event>
<event>
 8    1  0.6505836E-009  0.1235038E+03  0.7561462E-02  0.1237426E+00
          2   -1    0    0  501    0  0.00000000000E+00  0.00000000000E+00  0.14045311213E+04  0.14045311213E+04  0.00000000000E+00 0.  1.
         -2   -1    0    0    0  501 -0.00000000000E+00 -0.00000000000E+00 -0.11998731407E+02  0.11998731407E+02  0.00000000000E+00 0. -1.
         25    2    1    2    0    0 -0.29264605230E+00 -0.68245741188E+02  0.89623769719E+03  0.90749478022E+03  0.12508876618E+03 0.  0.
         23    2    1    2    0    0  0.29264605230E+00  0.68245741188E+02  0.49629469266E+03  0.50903507244E+03  0.90281316924E+02 0.  0.
          5    1    3    3  502    0  0.45550964879E+02 -0.75254946901E+02  0.71364178095E+03  0.71905511705E+03  0.41800000000E+01 0. -1.
         -5    1    3    3    0  502 -0.45843610932E+02  0.70092057138E+01  0.18259591624E+03  0.18843966317E+03  0.41800000000E+01 0. -1.
        -11    1    4    4    0    0 -0.38929273201E+02  0.61192604735E+02  0.34814864504E+03  0.35562269645E+03  0.00000000000E+00 0.  1.
         11    1    4    4    0    0  0.39221919253E+02  0.70531364532E+01  0.14814604762E+03  0.15341237599E+03  0.00000000000E+00 0. -1.
</event>
<event>
 8    1  0.6505836E-009  0.1295877E+03  0.7561462E-02  0.1228069E+00
         -2   -1    0    0    0  501 -0.00000000000E+00  0.00000000000E+00  0.13807357565E+03  0.13807357565E+03  0.00000000000E+00 0. -1.
          2   -1    0    0  501    0  0.00000000000E+00 -0.00000000000E+00 -0.19284497651E+03  0.19284497651E+03  0.00000000000E+00 0.  1.
         25    2    1    2    0    0  0.59793363248E+02  0.90573596758E+02  0.28986589972E+02  0.16812506921E+03  0.12508794419E+03 0.  0.
         23    2    1    2    0    0 -0.59793363248E+02 -0.90573596758E+02 -0.83757990828E+02  0.16279348295E+03  0.87792336481E+02 0.  0.
          5    1    3    3  502    0  0.59080319093E+02 -0.70568467837E+00 -0.22356574810E+02  0.63310906898E+02  0.41800000000E+01 0. -1.
         -5    1    3    3    0  502  0.71304415432E+00  0.91279281436E+02  0.51343164782E+02  0.10481416231E+03  0.41800000000E+01 0. -1.
        -11    1    4    4    0    0 -0.46711942310E+02 -0.68628834504E+02 -0.10191692008E+03  0.13144953815E+03  0.00000000000E+00 0.  1.
         11    1    4    4    0    0 -0.13081420937E+02 -0.21944762254E+02  0.18158929254E+02  0.31343944802E+02  0.00000000000E+00 0. -1.
</event>
<event>
 8    1  0.6505836E-009  0.1224824E+03  0.7561462E-02  0.1239057E+00
         -2   -1    0    0    0  501 -0.00000000000E+00  0.00000000000E+00  0.45959950755E+02  0.45959950755E+02  0.00000000000E+00 0.  1.
          2   -1    0    0  501    0  0.00000000000E+00 -0.00000000000E+00 -0.35226395249E+03  0.35226395249E+03  0.00000000000E+00 0. -1.
         25    2    1    2    0    0  0.46309095313E+02  0.41642871153E+02 -0.19775822786E+03  0.24214540527E+03  0.12508964617E+03 0.  0.
         23    2    1    2    0    0 -0.46309095313E+02 -0.41642871153E+02 -0.10854577387E+03  0.15607849798E+03  0.93271922236E+02 0.  0.
          5    1    3    3  502    0  0.48794890568E+02  0.83305453463E+02 -0.12295704727E+03  0.15638621358E+03  0.41800000000E+01 0. -1.
         -5    1    3    3    0  502 -0.24857952544E+01 -0.41662582310E+02 -0.74801180583E+02  0.85759191690E+02  0.41800000000E+01 0. -1.
        -11    1    4    4    0    0  0.12906891791E+02  0.18124155225E+02 -0.46469905985E+02  0.51522082844E+02  0.00000000000E+00 0.  1.
         11    1    4    4    0    0 -0.59215987105E+02 -0.59767026378E+02 -0.62075867889E+02  0.10455641513E+03  0.00000000000E+00 0. -1.
</event>
<event>
 8    1  0.6505836E-009  0.1873199E+03  0.7561462E-02  0.1160901E+00
         -2   -1    0    0    0  501 -0.00000000000E+00  0.00000000000E+00  0.28702774315E+03  0.28702774315E+03  0.00000000000E+00 0.  1.
          2   -1    0    0  501    0  0.00000000000E+00 -0.00000000000E+00 -0.13946475195E+03  0.13946475195E+03  0.00000000000E+00 0. -1.
         25    2    1    2    0    0  0.11647536077E+03 -0.11561585955E+03  0.11265297354E+03  0.23510100769E+03  0.12509298431E+03 0.  0.
         23    2    1    2    0    0 -0.11647536077E+03  0.11561585955E+03  0.34910017662E+02  0.19139148740E+03  0.92078528822E+02 0.  0.
          5    1    3    3  502    0  0.10083874441E+03 -0.20966323594E+02  0.89052276551E+02  0.13621974695E+03  0.41800000000E+01 0.  1.
         -5    1    3    3    0  502  0.15636616361E+02 -0.94649535960E+02  0.23600696989E+02  0.98881260748E+02  0.41800000000E+01 0.  1.
        -11    1    4    4    0    0 -0.92071730612E+02  0.48380354921E+02 -0.13703520128E+02  0.10490781088E+03  0.00000000000E+00 0. -1.
         11    1    4    4    0    0 -0.24403630160E+02  0.67235504633E+02  0.48613537790E+02  0.86483676521E+02  0.00000000000E+00 0.  1.
</event>
<event>
 8    1  0.6505836E-009  0.9601788E+02  0.7561462E-02  0.1288900E+00
          2   -1    0    0  501    0  0.00000000000E+00  0.00000000000E+00  0.12446311642E+03  0.12446311642E+03  0.00000000000E+00 0. -1.
         -2   -1    0    0    0  501 -0.00000000000E+00 -0.00000000000E+00 -0.14880302886E+03  0.14880302886E+03  0.00000000000E+00 0.  1.
         25    2    1    2    0    0  0.12372764225E+02  0.34393344661E+02  0.60205129087E+02  0.14355584211E+03  0.12509050637E+03 0.  0.
         23    2    1    2    0    0 -0.12372764225E+02 -0.34393344661E+02 -0.84545041524E+02  0.12971030317E+03  0.91328589443E+02 0.  0.
          5    1    3    3  502    0  0.51759023181E+02  0.35647138979E+02 -0.91809474008E+01  0.63651215175E+02  0.41800000000E+01 0.  1.
         -5    1    3    3    0  502 -0.39386258956E+02 -0.12537943185E+01  0.69386076487E+02  0.79904626932E+02  0.41800000000E+01 0.  1.
        -11    1    4    4    0    0  0.18472219143E+02 -0.51105456652E+02 -0.23292747542E+02  0.59123114496E+02  0.00000000000E+00 0. -1.
         11    1    4    4    0    0 -0.30844983368E+02  0.16712111991E+02 -0.61252293982E+02  0.70587188670E+02  0.00000000000E+00 0.  1.
</event>
<event>
 8    1  0.6505836E-009  0.1911109E+03  0.7561462E-02  0.1157463E+00
         -1   -1    0    0    0  501 -0.00000000000E+00  0.00000000000E+00  0.31748559199E+02  0.31748559199E+02  0.00000000000E+00 0.  1.
          1   -1    0    0  501    0  0.00000000000E+00 -0.00000000000E+00 -0.12383284822E+04  0.12383284822E+04  0.00000000000E+00 0. -1.
         25    2    1    2    0    0  0.19225266539E+02  0.16334464675E+03 -0.56311155178E+03  0.59982877554E+03  0.12509538652E+03 0.  0.
         23    2    1    2    0    0 -0.19225266539E+02 -0.16334464675E+03 -0.64346837125E+03  0.67024826588E+03  0.90167114979E+02 0.  0.
          5    1    3    3  502    0  0.57288105289E+02  0.42819920913E+02 -0.12770695508E+03  0.14643091002E+03  0.41800000000E+01 0.  1.
         -5    1    3    3    0  502 -0.38062838750E+02  0.12052472584E+03 -0.43540459670E+03  0.45339786552E+03  0.41800000000E+01 0.  1.
        -11    1    4    4    0    0  0.30104261406E+02 -0.96187654778E+02 -0.41484143533E+03  0.42690953135E+03  0.00000000000E+00 0. -1.
         11    1    4    4    0    0 -0.49329527945E+02 -0.67156991973E+02 -0.22862693591E+03  0.24333873453E+03  0.00000000000E+00 0.  1.
</event>
<event>
 8    1  0.6505836E-009  0.1094950E+03  0.7561462E-02  0.1261508E+00
          1   -1    0    0  501    0  0.00000000000E+00  0.00000000000E+00  0.27327831877E+03  0.27327831877E+03  0.00000000000E+00 0. -1.
         -1   -1    0    0    0  501 -0.00000000000E+00 -0.00000000000E+00 -0.86721479552E+02  0.86721479552E+02  0.00000000000E+00 0.  1.
         25    2    1    2    0    0  0.10447324135E+00 -0.66882071686E+02  0.12516857237E+01  0.14185208771E+03  0.12508887097E+03 0.  0.
         23    2    1    2    0    0 -0.10447324135E+00  0.66882071686E+02  0.18530515349E+03  0.21814771062E+03  0.93686718954E+02 0.  0.
          5    1    3    3  502    0  0.98126590505E+01  0.25166230164E+02 -0.33197401194E+02  0.43001944890E+02  0.41800000000E+01 0.  1.
         -5    1    3    3    0  502 -0.97081858092E+01 -0.92048301850E+02  0.34449086918E+02  0.98850142815E+02  0.41800000000E+01 0.  1.
        -11    1    4    4    0    0  0.35096877692E+02  0.20060240257E+02  0.13503540652E+03  0.14095660707E+03  0.00000000000E+00 0. -1.
         11    1    4    4    0    0 -0.35201350933E+02  0.46821831428E+02  0.50269746973E+02  0.77191103546E+02  0.00000000000E+00 0.  1.
</event>
<event>
 8    1  0.6505836E-009  0.9030698E+02  0.7561462E-02  0.1302110E+00
          1   -1    0    0  501    0  0.00000000000E+00  0.00000000000E+00  0.40109343992E+02  0.40109343992E+02  0.00000000000E+00 0. -1.
         -1   -1    0    0    0  501 -0.00000000000E+00 -0.00000000000E+00 -0.52552238907E+03  0.52552238907E+03  0.00000000000E+00 0.  1.
         25    2    1    2    0    0  0.35538146832E+02 -0.63650771953E+02 -0.13886102581E+03  0.20060749821E+03  0.12508638295E+03 0.  0.
         23    2    1    2    0    0 -0.35538146832E+02  0.63650771953E+02 -0.34655201926E+03  0.36502423484E+03  0.88487339870E+02 0.  0.
          5    1    3    3  502    0  0.26756824691E+02 -0.36932133612E+02  0.11795071995E+02  0.47291714750E+02  0.41800000000E+01 0. -1.
         -5    1    3    3    0  502  0.87813221416E+01 -0.26718638341E+02 -0.15065609780E+03  0.15331578346E+03  0.41800000000E+01 0. -1.
        -11    1    4    4    0    0  0.13843371336E+02  0.54411305541E+02 -0.11360492641E+03  0.12672138101E+03  0.00000000000E+00 0. -1.
         11    1    4    4    0    0 -0.49381518169E+02  0.92394664122E+01 -0.23294709285E+03  0.23830285383E+03  0.00000000000E+00 0.  1.
</event>
<event>
 7    1  0.6505836E-009  0.1312829E+03  0.7561462E-02  0.1225564E+00
         -1   -1    0    0    0  501 -0.00000000000E+00  0.00000000000E+00  0.64889423403E+03  0.64889423403E+03  0.00000000000E+00 0.  1.
          1   -1    0    0  501    0  0.00000000000E+00 -0.00000000000E+00 -0.36717025272E+02  0.36717025272E+02  0.00000000000E+00 0. -1.
         23    2    1    2    0    0  0.16674837299E+02  0.10450655811E+03  0.20426952781E+03  0.24598027711E+03  0.87066559876E+02 0.  0.
          5    1    1    2  502    0  0.15476260506E+02 -0.89333551052E+02  0.38840145157E+03  0.39886483671E+03  0.41800000000E+01 0. -1.
         -5    1    1    2    0  502 -0.32151097805E+02 -0.15173007054E+02  0.19506229381E+02  0.40766145486E+02  0.41800000000E+01 0. -1.
        -11    1    3    3    0    0 -0.35184336578E+02  0.41872478458E+02  0.67661977922E+02  0.87002214046E+02  0.00000000000E+00 0. -1.
         11    1    3    3    0    0  0.51859173877E+02  0.62634079648E+02  0.13660754989E+03  0.15897806306E+03  0.00000000000E+00 0.  1.
</event>
<event>
 8    1  0.6505836E-009  0.6282164E+02  0.7561462E-02  0.1386358E+00
         -4   -1    0    0    0  501 -0.00000000000E+00  0.00000000000E+00  0.99728916038E+02  0.99728916038E+02  0.00000000000E+00 0.  1.
          4   -1    0    0  501    0  0.00000000000E+00 -0.00000000000E+00 -0.15121299252E+03  0.15121299252E+03  0.00000000000E+00 0. -1.
         25    2    1    2    0    0  0.51501555786E+01 -0.59205458254E+02 -0.33266542564E+02  0.14242577046E+03  0.12508647748E+03 0.  0.
         23    2    1    2    0    0 -0.51501555786E+01  0.59205458254E+02 -0.18217533922E+02  0.10851613810E+03  0.88949779631E+02 0.  0.
          5    1    3    3  502    0  0.73098863485E+01 -0.40080105361E+02 -0.81012870761E+02  0.90776687057E+02  0.41800000000E+01 0.  1.
         -5    1    3    3    0  502 -0.21597307698E+01 -0.19125352894E+02  0.47746328196E+02  0.51649083405E+02  0.41800000000E+01 0.  1.
        -11    1    4    4    0    0 -0.12287268927E+02  0.11742389435E+02  0.33742104582E+02  0.37780819326E+02  0.00000000000E+00 0.  1.
         11    1    4    4    0    0  0.71371133480E+01  0.47463068819E+02 -0.51959638504E+02  0.70735318774E+02  0.00000000000E+00 0. -1.
</event>
<event>
 8    1  0.6505836E-009  0.1462692E+03  0.7561462E-02  0.1205134E+00
          2   -1    0    0  501    0  0.00000000000E+00  0.00000000000E+00  0.48105341653E+03  0.48105341653E+03  0.00000000000E+00 0. -1.
         -2   -1    0    0    0  501 -0.00000000000E+00 -0.00000000000E+00 -0.57784965412E+02  0.57784965412E+02  0.00000000000E+00 0.  1.
         25    2    1    2    0    0  0.12312170953E+03 -0.67687182963E+01  0.18153203136E+03  0.25259504068E+03  0.12508239388E+03 0.  0.
         23    2    1    2    0    0 -0.12312170953E+03  0.67687182963E+01  0.24173641975E+03  0.28624334126E+03  0.91071306540E+02 0.  0.
          5    1    3    3  502    0  0.35655559052E+02 -0.52084912568E+02  0.12198500503E+03  0.13741168386E+03  0.41800000000E+01 0. -1.
         -5    1    3    3    0  502  0.87466150482E+02  0.45316194272E+02  0.59547026330E+02  0.11518335682E+03  0.41800000000E+01 0. -1.
        -11    1    4    4    0    0 -0.95348567096E+02 -0.13501057670E+02  0.94048729167E+02  0.13460605953E+03  0.00000000000E+00 0.  1.
         11    1    4    4    0    0 -0.27773142438E+02  0.20269775966E+02  0.14768769059E+03  0.15163728173E+03  0.00000000000E+00 0. -1.
</event>
<event>
 8    1  0.6505836E-009  0.7647936E+02  0.7561462E-02  0.1339350E+00
          3   -1    0    0  501    0  0.00000000000E+00  0.00000000000E+00  0.13509373603E+03  0.13509373603E+03  0.00000000000E+00 0. -1.
         -3   -1    0    0    0  501 -0.00000000000E+00 -0.00000000000E+00 -0.96285778571E+02  0.96285778571E+02  0.00000000000E+00 0.  1.
         25    2    1    2    0    0  0.11162029997E+02 -0.34451989941E+02  0.21274866768E+02  0.13195309656E+03  0.12508984456E+03 0.  0.
         23    2    1    2    0    0 -0.11162029997E+02  0.34451989941E+02  0.17533090686E+02  0.99426418035E+02  0.90921245096E+02 0.  0.
          5    1    3    3  502    0  0.25212872277E+02 -0.30757164396E+02 -0.47180703086E+02  0.61848065724E+02  0.41800000000E+01 0. -1.
         -5    1    3    3    0  502 -0.14050842280E+02 -0.36948255451E+01  0.68455569854E+02  0.70105030837E+02  0.41800000000E+01 0. -1.
        -11    1    4    4    0    0 -0.46213753278E+02  0.41483245769E+02  0.10233921911E+02  0.62938889641E+02  0.00000000000E+00 0.  1.
         11    1    4    4    0    0  0.35051723282E+02 -0.70312558275E+01  0.72991687751E+01  0.36487528394E+02  0.00000000000E+00 0. -1.
</event>
<event>
 8    1  0.6505836E-009  0.1107503E+03  0.7561462E-02  0.1259187E+00
          3   -1    0    0  501    0  0.00000000000E+00  0.00000000000E+00  0.62088037914E+03  0.62088037914E+03  0.00000000000E+00 0. -1.
         -3   -1    0    0    0  501 -0.00000000000E+00 -0.00000000000E+00 -0.32977881879E+02  0.32977881879E+02  0.00000000000E+00 0.  1.
         25    2    1    2    0    0 -0.96177106871E+02 -0.15437960262E+02  0.33048707177E+03  0.36654971287E+03  0.12509444790E+03 0.  0.
         23    2    1    2    0    0  0.96177106871E+02  0.15437960262E+02  0.25741542549E+03  0.28730854815E+03  0.82432603108E+02 0.  0.
          5    1    3    3  502    0 -0.58132750373E+02  0.23841624274E+01  0.31686173547E+03  0.32218617708E+03  0.41800000000E+01 0.  1.
         -5    1    3    3    0  502 -0.38044356498E+02 -0.17822122689E+02  0.13625336299E+02  0.44363535789E+02  0.41800000000E+01 0.  1.
        -11    1    4    4    0    0  0.18813800379E+02 -0.26848143809E+02  0.11701810520E+03  0.12152373782E+03  0.00000000000E+00 0. -1.
         11    1    4    4    0    0  0.77363306492E+02  0.42286104070E+02  0.14039732030E+03  0.16578481033E+03  0.00000000000E+00 0.  1.
</event>
<event>
 8    1  0.6505836E-009  0.1142495E+03  0.7561462E-02  0.1252897E+00
          1   -1    0    0  501    0  0.00000000000E+00  0.00000000000E+00  0.14827828198E+03  0.14827828198E+03  0.00000000000E+00 0. -1.
         -1   -1    0    0    0  501 -0.00000000000E+00 -0.00000000000E+00 -0.11812117638E+03  0.11812117638E+03  0.00000000000E+00 0.  1.
         25    2    1    2    0    0 -0.50969039836E+02  0.42504878755E+02 -0.20174521447E+02  0.14303588515E+03  0.12509094846E+03 0.  0.
         23    2    1    2    0    0  0.50969039836E+02 -0.42504878755E+02  0.50331627050E+02  0.12336357321E+03  0.90998850392E+02 0.  0.
          5    1    3    3  502    0  0.27370641832E+02  0.52919450854E+02 -0.22603325315E+02  0.63859243875E+02  0.41800000000E+01 0.  1.
         -5    1    3    3    0  502 -0.78339681668E+02 -0.10414572099E+02  0.24288038675E+01  0.79176641278E+02  0.41800000000E+01 0.  1.
        -11    1    4    4    0    0  0.69608739174E+01  0.15402419108E+02 -0.17199295726E+02  0.24114395152E+02  0.00000000000E+00 0.  1.
         11    1    4    4    0    0  0.44008165919E+02 -0.57907297863E+02  0.67530922776E+02  0.99249178054E+02  0.00000000000E+00 0. -1.
</event>
<event>
 8    1  0.6505836E-009  0.7623345E+02  0.7561462E-02  0.1340093E+00
          2   -1    0    0  501    0  0.00000000000E+00  0.00000000000E+00  0.43389226939E+03  0.43389226939E+03  0.00000000000E+00 0.  1.
         -2   -1    0    0    0  501 -0.00000000000E+00 -0.00000000000E+00 -0.32365103436E+02  0.32365103436E+02  0.00000000000E+00 0. -1.
         25    2    1    2    0    0  0.30594980547E+02 -0.38457023423E+02  0.25015454512E+03  0.28396995602E+03  0.12508654600E+03 0.  0.
         23    2    1    2    0    0 -0.30594980547E+02  0.38457023423E+02  0.15137262084E+03  0.18228741681E+03  0.88882149520E+02 0.  0.
          5    1    3    3  502    0  0.24947925095E+01 -0.11934518400E+02  0.24433068818E+03  0.24467041976E+03  0.41800000000E+01 0. -1.
         -5    1    3    3    0  502  0.28100188037E+02 -0.26522505023E+02  0.58238569406E+01  0.39299536258E+02  0.41800000000E+01 0. -1.
        -11    1    4    4    0    0 -0.41715751331E+02  0.61969601205E+02  0.10133740417E+03  0.12589561099E+03  0.00000000000E+00 0. -1.
         11    1    4    4    0    0  0.11120770784E+02 -0.23512577782E+02  0.50035216671E+02  0.56391805825E+02  0.00000000000E+00 0.  1.
</event>
<event>
 8    1  0.6505836E-009  0.1213078E+03  0.7561462E-02  0.1240955E+00
         -2   -1    0    0    0  501 -0.00000000000E+00  0.00000000000E+00  0.57111676179E+02  0.57111676179E+02  0.00000000000E+00 0.  1.
          2   -1    0    0  501    0  0.00000000000E+00 -0.00000000000E+00 -0.49659285620E+03  0.49659285620E+03  0.00000000000E+00 0. -1.
         25    2    1    2    0    0  0.92820138505E+02 -0.92170488645E+01 -0.37943153218E+03  0.41026293117E+03  0.12508738135E+03 0.  0.
         23    2    1    2    0    0 -0.92820138505E+02  0.92170488645E+01 -0.60049647842E+02  0.14344160121E+03  0.90934045611E+02 0.  0.
          5    1    3    3  502    0 -0.26163079310E+02 -0.68820925680E+01 -0.27798585805E+02  0.39014147304E+02  0.41800000000E+01 0.  1.
         -5    1    3    3    0  502  0.11898321781E+03 -0.23349562965E+01 -0.35163294638E+03  0.37124878387E+03  0.41800000000E+01 0.  1.
        -11    1    4    4    0    0 -0.39998487775E+02  0.15647550413E+02  0.19953086682E+02  0.47358742872E+02  0.00000000000E+00 0.  1.
         11    1    4    4    0    0 -0.52821650730E+02 -0.64305015489E+01 -0.80002734524E+02  0.96082858343E+02  0.00000000000E+00 0. -1.
</event>
<event>
 8    1  0.6505836E-009  0.2098450E+03  0.7561462E-02  0.1141689E+00
          2   -1    0    0  501    0  0.00000000000E+00  0.00000000000E+00  0.12342659023E+04  0.12342659023E+04  0.00000000000E+00 0.  1.
         -2   -1    0    0    0  501 -0.00000000000E+00 -0.00000000000E+00 -0.39213962363E+02  0.39213962363E+02  0.00000000000E+00 0. -1.
         25    2    1    2    0    0  0.17618326428E+03 -0.73780863120E+02  0.63852768777E+03  0.67812574887E+03  0.12511101014E+03 0.  0.
         23    2    1    2    0    0 -0.17618326428E+03  0.73780863120E+02  0.55652425217E+03  0.59535411579E+03  0.90791638188E+02 0.  0.
          5    1    3    3  502    0  0.76844773842E+02 -0.99282662884E+02  0.34282660969E+03  0.36511604063E+03  0.41800000000E+01 0.  1.
         -5    1    3    3    0  502  0.99338490436E+02  0.25501799764E+02  0.29570107808E+03  0.31300970823E+03  0.41800000000E+01 0.  1.
        -11    1    4    4    0    0 -0.16298997316E+03  0.71733279038E+02  0.55380156909E+03  0.58172809164E+03  0.00000000000E+00 0.  1.
         11    1    4    4    0    0 -0.13193291114E+02  0.20475840826E+01  0.27226830719E+01  0.13626024149E+02  0.00000000000E+00 0. -1.
</event>
<event>
 8    1  0.6505836E-009  0.1128038E+03  0.7561462E-02  0.1255464E+00
         -2   -1    0    0    0  501 -0.00000000000E+00  0.00000000000E+00  0.40744888088E+02  0.40744888088E+02  0.00000000000E+00 0.  1.
          2   -1    0    0  501    0  0.00000000000E+00 -0.00000000000E+00 -0.63570724791E+03  0.63570724791E+03  0.00000000000E+00 0. -1.
         25    2    1    2    0    0  0.58533189673E+02 -0.84674820835E+02 -0.18896304364E+03  0.24889766961E+03  0.12508820287E+03 0.  0.
         23    2    1    2    0    0 -0.58533189673E+02  0.84674820835E+02 -0.40599931619E+03  0.42755446639E+03  0.85856959018E+02 0.  0.
          5    1    3    3  502    0  0.37251421005E+02 -0.41934929938E+02 -0.24228067669E+01  0.56298748729E+02  0.41800000000E+01 0. -1.
         -5    1    3    3    0  502  0.21281768668E+02 -0.42739890897E+02 -0.18654023687E+03  0.19259892088E+03  0.41800000000E+01 0. -1.
        -11    1    4    4    0    0 -0.85833804782E+00 -0.10290346319E+02 -0.50488111790E+01  0.11494279703E+02  0.00000000000E+00 0.  1.
         11    1    4    4    0    0 -0.57674851625E+02  0.94965167154E+02 -0.40095050501E+03  0.41606018669E+03  0.00000000000E+00 0. -1.
</event>
<event>
 7    1  0.6505836E-009  0.2664970E+03  0.7561462E-02  0.1103301E+00
          2   -1    0    0  501    0  0.00000000000E+00  0.00000000000E+00  0.21697642663E+04  0.21697642663E+04  0.00000000000E+00 0. -1.
         -2   -1    0    0    0  501 -0.00000000000E+00 -0.00000000000E+00 -0.37156486490E+02  0.37156486490E+02  0.00000000000E+00 0.  1.
         23    2    1    2    0    0 -0.11994628282E+03 -0.23246401146E+03  0.11654750880E+04  0.11972654289E+04  0.81766124536E+02 0.  0.
          5    1    1    2  502    0  0.88670845970E+02  0.18601067165E+03  0.52561078233E+03  0.56457652784E+03  0.41800000000E+01 0. -1.
         -5    1    1    2    0  502  0.31275436855E+02  0.46453339804E+02  0.44152190955E+03  0.44507879610E+03  0.41800000000E+01 0. -1.
        -11    1    3    3    0    0 -0.61899417661E+00 -0.65533720078E+02  0.36951476618E+03  0.37528151306E+03  0.00000000000E+00 0. -1.
         11    1    3    3    0    0 -0.11932728865E+03 -0.16693029138E+03  0.79596032177E+03  0.82198391579E+03  0.00000000000E+00 0.  1.
</event>
<event>
 8    1  0.6505836E-009  0.7962240E+02  0.7561462E-02  0.1330126E+00
         -2   -1    0    0    0  501 -0.00000000000E+00  0.00000000000E+00  0.55442488727E+02  0.55442488727E+02  0.00000000000E+00 0.  1.
          2   -1    0    0  501    0  0.00000000000E+00 -0.00000000000E+00 -0.25114623389E+03  0.25114623389E+03  0.00000000000E+00 0. -1.
         25    2    1    2    0    0 -0.24073935679E+02  0.27188805991E+02 -0.73753786836E+02  0.14969554529E+03  0.12510135753E+03 0.  0.
         23    2    1    2    0    0  0.24073935679E+02 -0.27188805991E+02 -0.12194995833E+03  0.15689317733E+03  0.91787206114E+02 0.  0.
          5    1    3    3  502    0  0.31359371686E+02 -0.17545675596E+02 -0.69333521528E+02  0.78204031432E+02  0.41800000000E+01 0. -1.
         -5    1    3    3    0  502 -0.55433307365E+02  0.44734481587E+02 -0.44202653083E+01  0.71491513858E+02  0.41800000000E+01 0. -1.
        -11    1    4    4    0    0 -0.29996398084E+01 -0.24302190524E+02  0.67056067220E+01  0.25388175687E+02  0.00000000000E+00 0.  1.
         11    1    4    4    0    0  0.27073575487E+02 -0.28866154677E+01 -0.12865556505E+03  0.13150500164E+03  0.00000000000E+00 0. -1.
</event>
<event>
 7    1  0.6505836E-009  0.1298517E+03  0.7561462E-02  0.1227676E+00
          1   -1    0    0  501    0  0.00000000000E+00  0.00000000000E+00  0.66520393830E+02  0.66520393830E+02  0.00000000000E+00 0. -1.
         -1   -1    0    0    0  501 -0.00000000000E+00 -0.00000000000E+00 -0.38515309768E+03  0.38515309768E+03  0.00000000000E+00 0.  1.
         23    2    1    2    0    0  0.11617617154E+02  0.11146352376E+03 -0.97838189952E+02  0.17430221437E+03  0.90828763976E+02 0.  0.
          5    1    1    2  502    0 -0.18123957367E+02 -0.24261501010E+02 -0.17674518411E+03  0.17936953690E+03  0.41800000000E+01 0. -1.
         -5    1    1    2    0  502  0.65063402133E+01 -0.87202022748E+02 -0.44049329785E+02  0.98001740234E+02  0.41800000000E+01 0. -1.
        -11    1    3    3    0    0 -0.29253607212E+02  0.91576987361E+02 -0.50178835843E+02  0.10844368915E+03  0.00000000000E+00 0.  1.
         11    1    3    3    0    0  0.40871224365E+02  0.19886536397E+02 -0.47659354110E+02  0.65858525228E+02  0.00000000000E+00 0. -1.
</event>
<event>
 8    1  0.6505836E-009  0.1565647E+03  0.7561462E-02  0.1192631E+00
         -1   -1    0    0    0  501 -0.00000000000E+00  0.00000000000E+00  0.91225770405E+02  0.91225770405E+02  0.00000000000E+00 0.  1.
          1   -1    0    0  501    0  0.00000000000E+00 -0.00000000000E+00 -0.46339012969E+03  0.46339012969E+03  0.00000000000E+00 0. -1.
         25    2    1    2    0    0 -0.10544990522E+03  0.52263059084E+02 -0.36688369687E+03  0.40509396472E+03  0.12508542430E+03 0.  0.
         23    2    1    2    0    0  0.10544990522E+03 -0.52263059084E+02 -0.52806624203E+01  0.14952193537E+03  0.92075044973E+02 0.  0.
          5    1    3    3  502    0 -0.10365920958E+03  0.85134666936E+02 -0.32527441202E+03  0.35187221936E+03  0.41800000000E+01 0. -1.
         -5    1    3    3    0  502 -0.17906956384E+01 -0.32871607852E+02 -0.41609284850E+02  0.53221745362E+02  0.41800000000E+01 0. -1.
        -11    1    4    4    0    0 -0.10281198656E+01 -0.38343356866E+02  0.13188645534E+02  0.40561193488E+02  0.00000000000E+00 0.  1.
         11    1    4    4    0    0  0.10647802509E+03 -0.13919702218E+02 -0.18469307954E+02  0.10896074189E+03  0.00000000000E+00 0. -1.
</event>
<event>
 8    1  0.6505836E-009  0.1106214E+03  0.7561462E-02  0.1259424E+00
          1   -1    0    0  501    0  0.00000000000E+00  0.00000000000E+00  0.67655986028E+03  0.67655986028E+03  0.00000000000E+00 0. -1.
         -1   -1    0    0    0  501 -0.00000000000E+00 -0.00000000000E+00 -0.21345614587E+02  0.21345614587E+02  0.00000000000E+00 0.  1.
         25    2    1    2    0    0  0.96910511844E+01 -0.50162232930E+02  0.42809430786E+03  0.44891245126E+03  0.12508991319E+03 0.  0.
         23    2    1    2    0    0 -0.96910511844E+01  0.50162232930E+02  0.22711993783E+03  0.24899302361E+03  0.88339648863E+02 0.  0.
          5    1    3    3  502    0  0.51653185245E+02 -0.67669149969E+02  0.32804444174E+03  0.33893626769E+03  0.41800000000E+01 0.  1.
         -5    1    3    3    0  502 -0.41962134061E+02  0.17506917039E+02  0.10004986612E+03  0.10997618356E+03  0.41800000000E+01 0.  1.
        -11    1    4    4    0    0 -0.36536949005E+02  0.51874393349E+02  0.95530050680E+02  0.11468169824E+03  0.00000000000E+00 0.  1.
         11    1    4    4    0    0  0.26845897821E+02 -0.17121604186E+01  0.13158988715E+03  0.13431132537E+03  0.00000000000E+00 0. -1.
</event>
<event>
 8    1  0.6505836E-009  0.1137109E+03  0.7561462E-02  0.1253848E+00
          2   -1    0    0  501    0  0.00000000000E+00  0.00000000000E+00  0.28765792541E+03  0.28765792541E+03  0.00000000000E+00 0.  1.
         -2   -1    0    0    0  501 -0.00000000000E+00 -0.00000000000E+00 -0.60031009826E+02  0.60031009826E+02  0.00000000000E+00 0. -1.
         25    2    1    2    0    0  0.99085925359E+00  0.50725019189E+02  0.54647837022E+02  0.14563166912E+03  0.12509271596E+03 0.  0.
         23    2    1    2    0    0 -0.99085925359E+00 -0.50725019189E+02  0.17297907857E+03  0.20205726612E+03  0.91276326596E+02 0.  0.
          5    1    3    3  502    0  0.14962536161E+02 -0.40014201472E+02  0.14100948426E+02  0.45181002139E+02  0.41800000000E+01 0. -1.
         -5    1    3    3    0  502 -0.13971676907E+02  0.90739220661E+02  0.40546888596E+02  0.10045066698E+03  0.41800000000E+01 0. -1.
        -11    1    4    4    0    0 -0.26118288921E+02  0.91383766412E+01  0.10277548544E+03  0.10643531064E+03  0.00000000000E+00 0.  1.
         11    1    4    4    0    0  0.25127429667E+02 -0.59863395830E+02  0.70203593126E+02  0.95621955480E+02  0.00000000000E+00 0. -1.
</event>
<event>
 8    1  0.6505836E-009  0.1000744E+03  0.7561462E-02  0.1280140E+00
         -1   -1    0    0    0  501 -0.00000000000E+00  0.00000000000E+00  0.18483576874E+02  0.18483576874E+02  0.00000000000E+00 0.  1.
          1   -1    0    0  501    0  0.00000000000E+00 -0.00000000000E+00 -0.60694480572E+03  0.60694480572E+03  0.00000000000E+00 0. -1.
         25    2    1    2    0    0 -0.18659442638E+02  0.89506511309E+01 -0.27957414457E+03  0.30698232853E+03  0.12509260076E+03 0.  0.
         23    2    1    2    0    0  0.18659442638E+02 -0.89506511309E+01 -0.30888708428E+03  0.31844605407E+03  0.74621508689E+02 0.  0.
          5    1    3    3  502    0  0.50658851201E+02 -0.90449019200E+01 -0.83228073183E+02  0.97941380537E+02  0.41800000000E+01 0. -1.
         -5    1    3    3    0  502 -0.69318293839E+02  0.17995553051E+02 -0.19634607138E+03  0.20904094799E+03  0.41800000000E+01 0. -1.
        -11    1    4    4    0    0  0.25506033307E+02  0.28767689586E+02 -0.13397046501E+03  0.13937798677E+03  0.00000000000E+00 0.  1.
         11    1    4    4    0    0 -0.68465906691E+01 -0.37718340717E+02 -0.17491661927E+03  0.17906806730E+03  0.00000000000E+00 0. -1.
</event>
<event>
 7    1  0.6505836E-009  0.1872903E+03  0.7561462E-02  0.1160928E+00
         -1   -1    0    0    0  501 -0.00000000000E+00  0.00000000000E+00  0.57610870580E+02  0.57610870580E+02  0.00000000000E+00 0.  1.
          1   -1    0    0  501    0  0.00000000000E+00 -0.00000000000E+00 -0.74340724866E+03  0.74340724866E+03  0.00000000000E+00 0. -1.
         23    2    1    2    0    0 -0.55159260816E+02 -0.16595715728E+03 -0.31307598486E+03  0.37076406632E+03  0.94154651878E+02 0.  0.
          5    1    1    2  502    0 -0.23609591243E+02  0.54110473407E+02 -0.20715339627E+03  0.21544223847E+03  0.41800000000E+01 0. -1.
         -5    1    1    2    0  502  0.78768852059E+02  0.11184668387E+03 -0.16556699694E+03  0.21481181444E+03  0.41800000000E+01 0. -1.
        -11    1    3    3    0    0 -0.49109027280E+02 -0.91640688041E+02 -0.25771359375E+03  0.27789567948E+03  0.00000000000E+00 0. -1.
         11    1    3    3    0    0 -0.60502335359E+01 -0.74316469239E+02 -0.55362391108E+02  0.92868386845E+02  0.00000000000E+00 0.  1.
</event>
<event>
 8    1  0.6505836E-009  0.1276813E+03  0.7561462E-02  0.1230937E+00
         -2   -1    0    0    0  501 -0.00000000000E+00  0.00000000000E+00  0.30733900900E+02  0.30733900900E+02  0.00000000000E+00 0.  1.
          2   -1    0    0  501    0  0.00000000000E+00 -0.00000000000E+00 -0.76516062382E+03  0.76516062382E+03  0.00000000000E+00 0. -1.
         25    2    1    2    0    0 -0.53238694490E+02 -0.94071871708E+02 -0.41893105027E+03  0.45037163930E+03  0.12509001943E+03 0.  0.
         23    2    1    2    0    0  0.53238694490E+02  0.94071871708E+02 -0.31549567264E+03  0.34552288542E+03  0.90358559396E+02 0.  0.
          5    1    3    3  502    0 -0.45158896893E+02 -0.41980047442E+02 -0.55341053397E+02  0.82956343596E+02  0.41800000000E+01 0. -1.
         -5    1    3    3    0  502 -0.80797975965E+01 -0.52091824266E+02 -0.36358999688E+03  0.36741529570E+03  0.41800000000E+01 0. -1.
        -11    1    4    4    0    0  0.14932224480E+02  0.10070570428E+03 -0.23637321212E+03  0.25736531547E+03  0.00000000000E+00 0.  1.
         11    1    4    4    0    0  0.38306470009E+02 -0.66338325751E+01 -0.79122460526E+02  0.88157569946E+02  0.00000000000E+00 0. -1.
</event>
<event>
 8    1  0.6505836E-009  0.1134191E+03  0.7561462E-02  0.1254366E+00
         -1   -1    0    0    0  501 -0.00000000000E+00  0.00000000000E+00  0.33718326421E+03  0.33718326421E+03  0.00000000000E+00 0.  1.
          1   -1    0    0  501    0  0.00000000000E+00 -0.00000000000E+00 -0.46574053006E+02  0.46574053006E+02  0.00000000000E+00 0. -1.
         25    2    1    2    0    0 -0.42525316953E+02  0.37198600621E+02  0.19882103702E+03  0.24159713805E+03  0.12508890391E+03 0.  0.
         23    2    1    2    0    0  0.42525316953E+02 -0.37198600621E+02  0.91788174186E+02  0.14216017917E+03  0.92694709401E+02 0.  0.
          5    1    3    3  502    0 -0.79474493216E+02  0.25349898130E+02  0.76724180403E+02  0.11341465807E+03  0.41800000000E+01 0.  1.
         -5    1    3    3    0  502  0.36949176262E+02  0.11848702491E+02  0.12209685661E+03  0.12818247997E+03  0.41800000000E+01 0.  1.
        -11    1    4    4    0    0  0.65326161222E+02 -0.45946030390E+02  0.51443355111E+02  0.94999809651E+02  0.00000000000E+00 0. -1.
         11    1    4    4    0    0 -0.22800844268E+02  0.87474297692E+01  0.40344819075E+02  0.47160369519E+02  0.00000000000E+00 0.  1.
</event>
<event>
 8    1  0.6505836E-009  0.8739364E+02  0.7561462E-02  0.1309289E+00
         -2   -1    0    0    0  501 -0.00000000000E+00  0.00000000000E+00  0.22441312219E+02  0.22441312219E+02  0.00000000000E+00 0.  1.
          2   -1    0    0  501    0  0.00000000000E+00 -0.00000000000E+00 -0.66834856312E+03  0.66834856312E+03  0.00000000000E+00 0. -1.
         25    2    1    2    0    0 -0.39547174214E+02 -0.17849990797E+02 -0.26885608297E+03  0.29969045808E+03  0.12509267027E+03 0.  0.
         23    2    1    2    0    0  0.39547174214E+02  0.17849990797E+02 -0.37705116793E+03  0.39109941726E+03  0.94385220141E+02 0.  0.
          5    1    3    3  502    0 -0.53181239892E+02  0.10600615173E+01 -0.33188284491E+02  0.62835520483E+02  0.41800000000E+01 0. -1.
         -5    1    3    3    0  502  0.13634065678E+02 -0.18910052314E+02 -0.23566779848E+03  0.23685493760E+03  0.41800000000E+01 0. -1.
        -11    1    4    4    0    0  0.67044897209E+02  0.20533423348E+02 -0.32149328457E+03  0.32905101693E+03  0.00000000000E+00 0. -1.
         11    1    4    4    0    0 -0.27497722995E+02 -0.26834325514E+01 -0.55557883360E+02  0.62048400330E+02  0.00000000000E+00 0.  1.
</event>
<event>
 8    1  0.6505836E-009  0.1263048E+03  0.7561462E-02  0.1233044E+00
         -2   -1    0    0    0  501 -0.00000000000E+00  0.00000000000E+00  0.20152576651E+03  0.20152576651E+03  0.00000000000E+00 0.  1.
          2   -1    0    0  501    0  0.00000000000E+00 -0.00000000000E+00 -0.13361689819E+03  0.13361689819E+03  0.00000000000E+00 0. -1.
         25    2    1    2    0    0  0.72062568975E+02  0.79486327516E+02  0.97045580672E+02  0.19126447623E+03  0.12511260939E+03 0.  0.
         23    2    1    2    0    0 -0.72062568975E+02 -0.79486327516E+02 -0.29136712353E+02  0.14387818848E+03  0.91328500497E+02 0.  0.
          5    1    3    3  502    0  0.80036650340E+01  0.74555169838E+02  0.35708563341E+00  0.75100811671E+02  0.41800000000E+01 0. -1.
         -5    1    3    3    0  502  0.64058903941E+02  0.49311576777E+01  0.96688495039E+02  0.11616366456E+03  0.41800000000E+01 0. -1.
        -11    1    4    4    0    0 -0.45796974527E+02 -0.23927840086E+02 -0.56537171200E+02  0.76592141466E+02  0.00000000000E+00 0. -1.
         11    1    4    4    0    0 -0.26265594449E+02 -0.55558487429E+02  0.27400458847E+02  0.67286047010E+02  0.00000000000E+00 0.  1.
</event>
<event>
 8    1  0.6505836E-009  0.9400341E+02  0.7561462E-02  0.1293437E+00
          1   -1    0    0  501    0  0.00000000000E+00  0.00000000000E+00  0.42268220341E+03  0.42268220341E+03  0.00000000000E+00 0. -1.
         -1   -1    0    0    0  501 -0.00000000000E+00 -0.00000000000E+00 -0.27038637751E+02  0.27038637751E+02  0.00000000000E+00 0.  1.
         25    2    1    2    0    0 -0.74615153012E+01  0.18715669490E+02  0.18009995570E+03  0.22020208170E+03  0.12508801801E+03 0.  0.
         23    2    1    2    0    0  0.74615153012E+01 -0.18715669490E+02  0.21554360996E+03  0.22951875946E+03  0.76248689517E+02 0.  0.
          5    1    3    3  502    0 -0.59734049263E+02  0.26759634739E+02  0.59938722381E+02  0.88850197149E+02  0.41800000000E+01 0. -1.
         -5    1    3    3    0  502  0.52272533962E+02 -0.80439652482E+01  0.12016123332E+03  0.13135188456E+03  0.41800000000E+01 0. -1.
        -11    1    4    4    0    0  0.17159479164E+01 -0.43698230602E+02  0.76377700147E+02  0.88011549894E+02  0.00000000000E+00 0.  1.
         11    1    4    4    0    0  0.57455673848E+01  0.24982561112E+02  0.13916590981E+03  0.14150720956E+03  0.00000000000E+00 0. -1.
</event>
<event>
 8    1  0.6505836E-009  0.9497720E+02  0.7561462E-02  0.1291227E+00
          1   -1    0    0  501    0  0.00000000000E+00  0.00000000000E+00  0.82092080059E+03  0.82092080059E+03  0.00000000000E+00 0. -1.
         -1   -1    0    0    0  501 -0.00000000000E+00 -0.00000000000E+00 -0.21967714145E+02  0.21967714145E+02  0.00000000000E+00 0.  1.
         25    2    1    2    0    0 -0.27782484808E+02  0.62209981075E+02  0.57304557152E+03  0.59048468941E+03  0.12509593591E+03 0.  0.
         23    2    1    2    0    0  0.27782484808E+02 -0.62209981075E+02  0.22590751493E+03  0.25240382533E+03  0.89618845853E+02 0.  0.
          5    1    3    3  502    0  0.26440659895E+02  0.16257514960E+02  0.42557911555E+03  0.42672997467E+03  0.41800000000E+01 0.  1.
         -5    1    3    3    0  502 -0.54223144703E+02  0.45952466114E+02  0.14746645597E+03  0.16375471474E+03  0.41800000000E+01 0.  1.
        -11    1    4    4    0    0 -0.29333417995E+01 -0.56028148823E+02  0.20980370637E+03  0.21717585769E+03  0.00000000000E+00 0. -1.
         11    1    4    4    0    0  0.30715826608E+02 -0.61818322513E+01  0.16103808558E+02  0.35227967643E+02  0.00000000000E+00 0.  1.
</event>
<event>
 8    1  0.6505836E-009  0.1238109E+03  0.7561462E-02  0.1236939E+00
         -1   -1    0    0    0  501 -0.00000000000E+00  0.00000000000E+00  0.30897919240E+03  0.30897919240E+03  0.00000000000E+00 0.  1.
          1   -1    0    0  501    0  0.00000000000E+00 -0.00000000000E+00 -0.73689001471E+02  0.73689001471E+02  0.00000000000E+00 0. -1.
         25    2    1    2    0    0  0.52461341899E+01  0.92520738448E+02  0.18919100232E+03  0.24500547066E+03  0.12508731481E+03 0.  0.
         23    2    1    2    0    0 -0.52461341899E+01 -0.92520738448E+02  0.46099188607E+02  0.13766272321E+03  0.90764977853E+02 0.  0.
          5    1    3    3  502    0  0.19113084690E+02  0.10348463041E+03  0.74791677184E+02  0.12917293104E+03  0.41800000000E+01 0.  1.
         -5    1    3    3    0  502 -0.13866950500E+02 -0.10963891961E+02  0.11439932514E+03  0.11583253962E+03  0.41800000000E+01 0.  1.
        -11    1    4    4    0    0 -0.76275985314E+01 -0.10810495648E+03  0.24819514871E+02  0.11117945041E+03  0.00000000000E+00 0. -1.
         11    1    4    4    0    0  0.23814643415E+01  0.15584218030E+02  0.21279673736E+02  0.26483272803E+02  0.00000000000E+00 0.  1.
</event>
<event>
 8    1  0.6505836E-009  0.5285056E+02  0.7561462E-02  0.1430546E+00
          4   -1    0    0  501    0  0.00000000000E+00  0.00000000000E+00  0.25571142466E+03  0.25571142466E+03  0.00000000000E+00 0. -1.
         -4   -1    0    0    0  501 -0.00000000000E+00 -0.00000000000E+00 -0.71141654268E+02  0.71141654268E+02  0.00000000000E+00 0.  1.
         25    2    1    2    0    0  0.56784009774E+01 -0.41125255727E+02  0.19575491572E+03  0.23598564831E+03  0.12508280571E+03 0.  0.
         23    2    1    2    0    0 -0.56784009774E+01  0.41125255727E+02 -0.11185145321E+02  0.90867430622E+02  0.80051555736E+02 0.  0.
          5    1    3    3  502    0  0.10214256480E+02  0.59658234076E+01  0.18733148835E+03  0.18775111454E+03  0.41800000000E+01 0. -1.
         -5    1    3    3    0  502 -0.45358555023E+01 -0.47091079135E+02  0.84234273657E+01  0.48234533768E+02  0.41800000000E+01 0. -1.
        -11    1    4    4    0    0  0.62890207470E+01  0.23719932668E+02 -0.44850127950E+02  0.51124563224E+02  0.00000000000E+00 0.  1.
         11    1    4    4    0    0 -0.11967421724E+02  0.17405323059E+02  0.33664982630E+02  0.39742867398E+02  0.00000000000E+00 0. -1.
</event>
<event>
 8    1  0.6505836E-009  0.1168895E+03  0.7561462E-02  0.1248318E+00
          2   -1    0    0  501    0  0.00000000000E+00  0.00000000000E+00  0.54082496104E+03  0.54082496104E+03  0.00000000000E+00 0. -1.
         -2   -1    0    0    0  501 -0.00000000000E+00 -0.00000000000E+00 -0.32181361919E+02  0.32181361919E+02  0.00000000000E+00 0.  1.
         25    2    1    2    0    0 -0.55028854768E+02  0.31769939323E+02  0.36897618946E+03  0.39475168377E+03  0.12509180448E+03 0.  0.
         23    2    1    2    0    0  0.55028854768E+02 -0.31769939323E+02  0.13966740966E+03  0.17825463919E+03  0.90720599480E+02 0.  0.
          5    1    3    3  502    0  0.31652116392E+02  0.40367721859E+02  0.16705879148E+03  0.17480709840E+03  0.41800000000E+01 0. -1.
         -5    1    3    3    0  502 -0.86680971160E+02 -0.85977825360E+01  0.20191739798E+03  0.21994458537E+03  0.41800000000E+01 0. -1.
        -11    1    4    4    0    0 -0.21461442737E+00 -0.39344326242E+02  0.15769647630E+02  0.42387543608E+02  0.00000000000E+00 0.  1.
         11    1    4    4    0    0  0.55243469195E+02  0.75743869187E+01  0.12389776203E+03  0.13586709558E+03  0.00000000000E+00 0. -1.
</event>
<event>
 8    1  0.6505836E-009  0.1355209E+03  0.7561462E-02  0.1219486E+00
          2   -1    0    0  501    0  0.00000000000E+00  0.00000000000E+00  0.14506721734E+04  0.14506721734E+04  0.00000000000E+00 0. -1.
         -2   -1    0    0    0  501 -0.00000000000E+00 -0.00000000000E+00 -0.22882564660E+02  0.22882564660E+02  0.00000000000E+00 0.  1.
         25    2    1    2    0    0 -0.98001197966E+02  0.25401787810E+02  0.11670593426E+04  0.11781019375E+04  0.12508868998E+03 0.  0.
         23    2    1    2    0    0  0.98001197966E+02 -0.25401787810E+02  0.26073026609E+03  0.29545280051E+03  0.95197689300E+02 0.  0.
          5    1    3    3  502    0 -0.38085445970E+02  0.74053131142E+02  0.63854833016E+03  0.64396879566E+03  0.41800000000E+01 0.  1.
         -5    1    3    3    0  502 -0.59915751996E+02 -0.48651343331E+02  0.52851101248E+03  0.53413314188E+03  0.41800000000E+01 0.  1.
        -11    1    4    4    0    0  0.42513901142E+01 -0.15530994980E+02 -0.20904523505E+01  0.16237491001E+02  0.00000000000E+00 0.  1.
         11    1    4    4    0    0  0.93749807852E+02 -0.98707928298E+01  0.26282071844E+03  0.27921530951E+03  0.00000000000E+00 0. -1.
</event>
<event>
 8    1  0.6505836E-009  0.7709067E+02  0.7561462E-02  0.1337516E+00
          1   -1    0    0  501    0  0.00000000000E+00  0.00000000000E+00  0.95097754226E+02  0.95097754226E+02  0.00000000000E+00 0. -1.
         -1   -1    0    0    0  501 -0.00000000000E+00 -0.00000000000E+00 -0.16040082577E+03  0.16040082577E+03  0.00000000000E+00 0.  1.
         25    2    1    2    0    0 -0.24442895371E+02  0.45404408564E+02 -0.81640724320E+00  0.13530575321E+03  0.12509182579E+03 0.  0.
         23    2    1    2    0    0  0.24442895371E+02 -0.45404408564E+02 -0.64486664301E+02  0.12019282679E+03  0.87342831918E+02 0.  0.
          5    1    3    3  502    0 -0.25789128455E+02  0.20393249313E+02 -0.61312079802E+02  0.69696537172E+02  0.41800000000E+01 0.  1.
         -5    1    3    3    0  502  0.13462330835E+01  0.25011159251E+02  0.60495672559E+02  0.65609216037E+02  0.41800000000E+01 0.  1.
        -11    1    4    4    0    0  0.49964565497E+02 -0.48867778441E+02 -0.27462341445E+02  0.75091262958E+02  0.00000000000E+00 0.  1.
         11    1    4    4    0    0 -0.25521670126E+02  0.34633698772E+01 -0.37024322856E+02  0.45101563829E+02  0.00000000000E+00 0. -1.
</event>
<event>
 8    1  0.6505836E-009  0.7832398E+02  0.7561462E-02  0.1333876E+00
         -4   -1    0    0    0  501 -0.00000000000E+00  0.00000000000E+00  0.21046007212E+03  0.21046007212E+03  0.00000000000E+00 0.  1.
          4   -1    0    0  501    0  0.00000000000E+00 -0.00000000000E+00 -0.14316777550E+03  0.14316777550E+03  0.00000000000E+00 0. -1.
         25    2    1    2    0    0  0.59095828911E+02  0.52893472783E-02 -0.87214717430E+02  0.16354030681E+03  0.12508680183E+03 0.  0.
         23    2    1    2    0    0 -0.59095828911E+02 -0.52893472783E-02  0.15450701405E+03  0.19008754081E+03  0.93640476055E+02 0.  0.
          5    1    3    3  502    0  0.51118141822E+02  0.31035159222E+02  0.10287511889E+02  0.60823933054E+02  0.41800000000E+01 0. -1.
         -5    1    3    3    0  502  0.79776870898E+01 -0.31029869875E+02 -0.97502229318E+02  0.10271637376E+03  0.41800000000E+01 0. -1.
        -11    1    4    4    0    0 -0.18136420249E+02  0.11952319698E+02 -0.71709903106E+01  0.22873801338E+02  0.00000000000E+00 0. -1.
         11    1    4    4    0    0 -0.40959408662E+02 -0.11957609045E+02  0.16167800437E+03  0.16721373947E+03  0.00000000000E+00 0.  1.
</event>
<event>
 8    1  0.6505836E-009  0.1847665E+03  0.7561462E-02  0.1163268E+00
         -1   -1    0    0    0  501 -0.00000000000E+00  0.00000000000E+00  0.90043731266E+03  0.90043731266E+03  0.00000000000E+00 0.  1.
          1   -1    0    0  501    0  0.00000000000E+00 -0.00000000000E+00 -0.39270892408E+02  0.39270892408E+02  0.00000000000E+00 0. -1.
         25    2    1    2    0    0 -0.19103702011E+02  0.14924374580E+03  0.38062087441E+03  0.42797034933E+03  0.12509085808E+03 0.  0.
         23    2    1    2    0    0  0.19103702011E+02 -0.14924374580E+03  0.48054554584E+03  0.51173785574E+03  0.91175458754E+02 0.  0.
          5    1    3    3  502    0 -0.59324636470E+01 -0.21704507530E+02  0.62583322180E+02  0.66636509416E+02  0.41800000000E+01 0.  1.
         -5    1    3    3    0  502 -0.13171238364E+02  0.17094825333E+03  0.31803755223E+03  0.36133383991E+03  0.41800000000E+01 0.  1.
        -11    1    4    4    0    0 -0.31637936931E+02 -0.23096546159E+02  0.12888066447E+03  0.13470202364E+03  0.00000000000E+00 0.  1.
         11    1    4    4    0    0  0.50741638942E+02 -0.12614719964E+03  0.35166488137E+03  0.37703583210E+03  0.00000000000E+00 0. -1.
</event>
<event>
 8    1  0.6505836E-009  0.1274602E+03  0.7561462E-02  0.1231274E+00
         -2   -1    0    0    0  501 -0.00000000000E+00  0.00000000000E+00  0.54487172717E+02  0.54487172717E+02  0.00000000000E+00 0.  1.
          2   -1    0    0  501    0  0.00000000000E+00 -0.00000000000E+00 -0.15804789501E+04  0.15804789501E+04  0.00000000000E+00 0. -1.
         25    2    1    2    0    0  0.45343155054E+02 -0.79473784425E+02 -0.14937657447E+04  0.15017838908E+04  0.12508665221E+03 0.  0.
         23    2    1    2    0    0 -0.45343155054E+02  0.79473784425E+02 -0.32226032621E+02  0.13318223194E+03  0.91251880005E+02 0.  0.
          5    1    3    3  502    0 -0.90492543132E+01 -0.91383417611E+02 -0.69245573738E+03  0.69853077144E+03  0.41800000000E+01 0. -1.
         -5    1    3    3    0  502  0.54392409367E+02  0.11909633186E+02 -0.80131000734E+03  0.80325311940E+03  0.41800000000E+01 0. -1.
        -11    1    4    4    0    0 -0.57606885792E+02  0.54345029770E+02  0.12757457960E+02  0.80216508805E+02  0.00000000000E+00 0.  1.
         11    1    4    4    0    0  0.12263730737E+02  0.25128754655E+02 -0.44983490581E+02  0.52965723133E+02  0.00000000000E+00 0. -1.
</event>
<event>
 8    1  0.6505836E-009  0.1079950E+03  0.7561462E-02  0.1264329E+00
         -1   -1    0    0    0  501 -0.00000000000E+00  0.00000000000E+00  0.12633448009E+03  0.12633448009E+03  0.00000000000E+00 0.  1.
          1   -1    0    0  501    0  0.00000000000E+00 -0.00000000000E+00 -0.24605967586E+03  0.24605967586E+03  0.00000000000E+00 0. -1.
         25    2    1    2    0    0  0.51526203976E+01  0.88313235780E+02  0.48976179186E+02  0.16084847210E+03  0.12509111775E+03 0.  0.
         23    2    1    2    0    0 -0.51526203976E+01 -0.88313235780E+02 -0.16870137495E+03  0.21154568385E+03  0.92008941588E+02 0.  0.
          5    1    3    3  502    0 -0.47288771347E+01  0.50140549437E+02  0.90361678884E+02  0.10353329120E+03  0.41800000000E+01 0. -1.
         -5    1    3    3    0  502  0.98814975322E+01  0.38172686344E+02 -0.41385499699E+02  0.57315180899E+02  0.41800000000E+01 0. -1.
        -11    1    4    4    0    0  0.24750702087E+02 -0.92366425296E+02 -0.14232774335E+03  0.17146819035E+03  0.00000000000E+00 0.  1.
         11    1    4    4    0    0 -0.29903322484E+02  0.40531895152E+01 -0.26373631603E+02  0.40077493494E+02  0.00000000000E+00 0. -1.
</event>
<event>
 8    1  0.6505836E-009  0.1464059E+03  0.7561462E-02  0.1204960E+00
          1   -1    0    0  501    0  0.00000000000E+00  0.00000000000E+00  0.51555361586E+03  0.51555361586E+03  0.00000000000E+00 0. -1.
         -1   -1    0    0    0  501 -0.00000000000E+00 -0.00000000000E+00 -0.53355746335E+02  0.53355746335E+02  0.00000000000E+00 0.  1.
         25    2    1    2    0    0  0.92881291095E+02 -0.84641598507E+02  0.23410434853E+03  0.29367265416E+03  0.12509055668E+03 0.  0.
         23    2    1    2    0    0 -0.92881291095E+02  0.84641598507E+02  0.22809352100E+03  0.27523670804E+03  0.89092405371E+02 0.  0.
          5    1    3    3  502    0  0.47152703222E+02  0.19319008191E+02  0.12943368303E+03  0.13916591609E+03  0.41800000000E+01 0. -1.
         -5    1    3    3    0  502  0.45728587873E+02 -0.10396060670E+03  0.10467066550E+03  0.15450673807E+03  0.41800000000E+01 0. -1.
        -11    1    4    4    0    0 -0.68969928583E+02  0.47079524459E+02  0.21206215460E+03  0.22791158392E+03  0.00000000000E+00 0. -1.
         11    1    4    4    0    0 -0.23911362512E+02  0.37562074048E+02  0.16031366404E+02  0.47325124118E+02  0.00000000000E+00 0.  1.
</event>
<event>
 8    1  0.6505836E-009  0.1922882E+03  0.7561462E-02  0.1156414E+00
         -1   -1    0    0    0  501 -0.00000000000E+00  0.00000000000E+00  0.11814263397E+03  0.11814263397E+03  0.00000000000E+00 0.  1.
          1   -1    0    0  501    0  0.00000000000E+00 -0.00000000000E+00 -0.32111644618E+03  0.32111644618E+03  0.00000000000E+00 0. -1.
         25    2    1    2    0    0  0.14375271732E+03  0.69551700685E+02 -0.81689405930E+02  0.21868732950E+03  0.12509478901E+03 0.  0.
         23    2    1    2    0    0 -0.14375271732E+03 -0.69551700685E+02 -0.12128440628E+03  0.22057175066E+03  0.91867878914E+02 0.  0.
          5    1    3    3  502    0  0.16324230406E+03  0.46283858801E+02 -0.80939794558E+02  0.18803980473E+03  0.41800000000E+01 0. -1.
         -5    1    3    3    0  502 -0.19489586739E+02  0.23267841884E+02 -0.74961137179E+00  0.30647524768E+02  0.41800000000E+01 0. -1.
        -11    1    4    4    0    0 -0.85911484398E+02 -0.88502655081E+02 -0.82873884395E+02  0.14859873426E+03  0.00000000000E+00 0.  1.
         11    1    4    4    0    0 -0.57841232920E+02  0.18950954395E+02 -0.38410521886E+02  0.71973016400E+02  0.00000000000E+00 0. -1.
</event>
<event>
 8    1  0.6505836E-009  0.9833396E+02  0.7561462E-02  0.1283839E+00
          1   -1    0    0  501    0  0.00000000000E+00  0.00000000000E+00  0.20135783652E+03  0.20135783652E+03  0.00000000000E+00 0. -1.
         -1   -1    0    0    0  501 -0.00000000000E+00 -0.00000000000E+00 -0.80164915659E+02  0.80164915659E+02  0.00000000000E+00 0.  1.
         25    2    1    2    0    0 -0.30986813946E+02  0.50248037610E+02  0.10250040246E+03  0.17216086870E+03  0.12509190336E+03 0.  0.
         23    2    1    2    0    0  0.30986813946E+02 -0.50248037610E+02  0.18692518402E+02  0.10936188348E+03  0.90141906965E+02 0.  0.
          5    1    3    3  502    0  0.27763401335E+02  0.48574582174E+02  0.25838943136E+01  0.56164449582E+02  0.41800000000E+01 0.  1.
         -5    1    3    3    0  502 -0.58750215281E+02  0.16734554366E+01  0.99916508146E+02  0.11599641912E+03  0.41800000000E+01 0.  1.
        -11    1    4    4    0    0  0.18094893243E+02  0.95556051276E+01  0.39712062553E+02  0.44674183406E+02  0.00000000000E+00 0. -1.
         11    1    4    4    0    0  0.12891920703E+02 -0.59803642738E+02 -0.21019544151E+02  0.64687700071E+02  0.00000000000E+00 0.  1.
</event>
<event>
 8    1  0.6505836E-009  0.1023660E+03  0.7561462E-02  0.1275398E+00
          2   -1    0    0  501    0  0.00000000000E+00  0.00000000000E+00  0.35527673811E+03  0.35527673811E+03  0.00000000000E+00 0. -1.
         -2   -1    0    0    0  501 -0.00000000000E+00 -0.00000000000E+00 -0.37632375791E+02  0.37632375791E+02  0.00000000000E+00 0.  1.
         25    2    1    2    0    0  0.19900871954E+02  0.25883660523E+02  0.13933678785E+03  0.19007286666E+03  0.12508775161E+03 0.  0.
         23    2    1    2    0    0 -0.19900871954E+02 -0.25883660523E+02  0.17830757447E+03  0.20283624725E+03  0.91010677935E+02 0.  0.
          5    1    3    3  502    0  0.67331656441E+02  0.27825625369E+02  0.48883819535E+02  0.87834603651E+02  0.41800000000E+01 0.  1.
         -5    1    3    3    0  502 -0.47430784487E+02 -0.19419648459E+01  0.90452968318E+02  0.10223826300E+03  0.41800000000E+01 0.  1.
        -11    1    4    4    0    0 -0.47583591830E+02 -0.21381598161E+01  0.14780584717E+03  0.15529114075E+03  0.00000000000E+00 0. -1.
         11    1    4    4    0    0  0.27682719876E+02 -0.23745500707E+02  0.30501727303E+02  0.47545106499E+02  0.00000000000E+00 0.  1.
</event>
<event>
 8    1  0.6505836E-009  0.1168602E+03  0.7561462E-02  0.1248368E+00
         -1   -1    0    0    0  501 -0.00000000000E+00  0.00000000000E+00  0.18237668569E+02  0.18237668569E+02  0.00000000000E+00 0.  1.
          1   -1    0    0  501    0  0.00000000000E+00 -0.00000000000E+00 -0.90473177693E+03  0.90473177693E+03  0.00000000000E+00 0. -1.
         25    2    1    2    0    0 -0.65591250562E+02 -0.19083245914E+02 -0.50970934529E+03  0.52925993878E+03  0.12508430635E+03 0.  0.
         23    2    1    2    0    0  0.65591250562E+02  0.19083245914E+02 -0.37678476308E+03  0.39370950672E+03  0.91509756714E+02 0.  0.
          5    1    3    3  502    0  0.11176933779E+02  0.27319731632E+02 -0.29535072937E+03  0.29685150719E+03  0.41800000000E+01 0.  1.
         -5    1    3    3    0  502 -0.76768184340E+02 -0.46402977545E+02 -0.21435861592E+03  0.23240843158E+03  0.41800000000E+01 0.  1.
        -11    1    4    4    0    0 -0.17726417604E+01  0.42690665783E+02 -0.13374211293E+03  0.14040152412E+03  0.00000000000E+00 0.  1.
         11    1    4    4    0    0  0.67363892322E+02 -0.23607419870E+02 -0.24304265014E+03  0.25330798260E+03  0.00000000000E+00 0. -1.
</event>
<event>
 8    1  0.6505836E-009  0.1818157E+03  0.7561462E-02  0.1166057E+00
          2   -1    0    0  501    0  0.00000000000E+00  0.00000000000E+00  0.56685633488E+03  0.56685633488E+03  0.00000000000E+00 0. -1.
         -2   -1    0    0    0  501 -0.00000000000E+00 -0.00000000000E+00 -0.74322399464E+02  0.74322399464E+02  0.00000000000E+00 0.  1.
         25    2    1    2    0    0  0.11063662136E+03 -0.11412900957E+03  0.14706845352E+03  0.25008880529E+03  0.12509751276E+03 0.  0.
         23    2    1    2    0    0 -0.11063662136E+03  0.11412900957E+03  0.34546548189E+03  0.39108992906E+03  0.91318347649E+02 0.  0.
          5    1    3    3  502    0  0.12239554699E+03 -0.84739344896E+02  0.65878811253E+02  0.16284629768E+03  0.41800000000E+01 0. -1.
         -5    1    3    3    0  502 -0.11758925631E+02 -0.29389664670E+02  0.81189642272E+02  0.87242507607E+02  0.41800000000E+01 0. -1.
        -11    1    4    4    0    0 -0.12389761987E+03  0.83524903090E+02  0.27016324500E+03  0.30873161256E+03  0.00000000000E+00 0.  1.
         11    1    4    4    0    0  0.13260998506E+02  0.30604106477E+02  0.75302236897E+02  0.82358316498E+02  0.00000000000E+00 0. -1.
</event>
<event>
 8    1  0.6505836E-009  0.9445138E+02  0.7561462E-02  0.1292417E+00
         -1   -1    0    0    0  501 -0.00000000000E+00  0.00000000000E+00  0.15479269686E+03  0.15479269686E+03  0.00000000000E+00 0.  1.
          1   -1    0    0  501    0  0.00000000000E+00 -0.00000000000E+00 -0.83360924327E+02  0.83360924327E+02  0.00000000000E+00 0. -1.
         25    2    1    2    0    0  0.50167245586E+01  0.19754199881E+02  0.19655871590E+02  0.12825409377E+03  0.12508942139E+03 0.  0.
         23    2    1    2    0    0 -0.50167245586E+01 -0.19754199881E+02  0.51775900948E+02  0.10989952742E+03  0.94772180885E+02 0.  0.
          5    1    3    3  502    0  0.29659977866E+02 -0.33288493677E+02 -0.27896343826E+02  0.52759041852E+02  0.41800000000E+01 0.  1.
         -5    1    3    3    0  502 -0.24643253308E+02  0.53042693558E+02  0.47552215416E+02  0.75495051920E+02  0.41800000000E+01 0.  1.
        -11    1    4    4    0    0 -0.29817313830E+02 -0.42444365577E+02  0.55634740531E+02  0.76064582607E+02  0.00000000000E+00 0.  1.
         11    1    4    4    0    0  0.24800589271E+02  0.22690165696E+02 -0.38588395832E+01  0.33834944812E+02  0.00000000000E+00 0. -1.
</event>
<event>
 8    1  0.6505836E-009  0.1051116E+03  0.7561462E-02  0.1269900E+00
         -2   -1    0    0    0  501 -0.00000000000E+00  0.00000000000E+00  0.13689055361E+03  0.13689055361E+03  0.00000000000E+00 0.  1.
          2   -1    0    0  501    0  0.00000000000E+00 -0.00000000000E+00 -0.12726619465E+03  0.12726619465E+03  0.00000000000E+00 0. -1.
         25    2    1    2    0    0  0.43805561437E+02  0.42243914766E+02 -0.38530331276E+02  0.14434856557E+03  0.12509375046E+03 0.  0.
         23    2    1    2    0    0 -0.43805561437E+02 -0.42243914766E+02  0.48154690242E+02  0.11980818269E+03  0.91277877387E+02 0.  0.
          5    1    3    3  502    0  0.75816425815E+02  0.78027523043E+01 -0.55294352583E+02  0.94254714442E+02  0.41800000000E+01 0. -1.
         -5    1    3    3    0  502 -0.32010864378E+02  0.34441162462E+02  0.16764021308E+02  0.50093851123E+02  0.41800000000E+01 0. -1.
        -11    1    4    4    0    0  0.22179354268E+01 -0.40571754877E+02  0.59806172786E+02  0.72303283706E+02  0.00000000000E+00 0.  1.
         11    1    4    4    0    0 -0.46023496864E+02 -0.16721598890E+01 -0.11651482544E+02  0.47504898987E+02  0.00000000000E+00 0. -1.
</event>
<event>
 8    1  0.6505836E-009  0.8358034E+02  0.7561462E-02  0.1319187E+00
         -1   -1    0    0    0  501 -0.00000000000E+00  0.00000000000E+00  0.15460441606E+03  0.15460441606E+03  0.00000000000E+00 0.  1.
          1   -1    0    0  501    0  0.00000000000E+00 -0.00000000000E+00 -0.10630511160E+03  0.10630511160E+03  0.00000000000E+00 0. -1.
         25    2    1    2    0    0  0.13472163015E+01  0.67227756542E+02  0.20227745852E+02  0.14345135387E+03  0.12509093885E+03 0.  0.
         23    2    1    2    0    0 -0.13472163015E+01 -0.67227756542E+02  0.28071558608E+02  0.11745817378E+03  0.92125045153E+02 0.  0.
          5    1    3    3  502    0  0.33167908567E+02  0.42007726875E+02  0.64043389535E+02  0.83569057785E+02  0.41800000000E+01 0.  1.
         -5    1    3    3    0  502 -0.31820692265E+02  0.25220029667E+02 -0.43815643683E+02  0.59882296082E+02  0.41800000000E+01 0.  1.
        -11    1    4    4    0    0 -0.11502878857E+02 -0.57340456416E+02 -0.24205182151E+02  0.63294036109E+02  0.00000000000E+00 0. -1.
         11    1    4    4    0    0  0.10155662555E+02 -0.98873001264E+01  0.52276740759E+02  0.54164137675E+02  0.00000000000E+00 0.  1.
</event>
<event>
 8    1  0.6505836E-009  0.9057755E+02  0.7561462E-02  0.1301459E+00
          2   -1    0    0  501    0  0.00000000000E+00  0.00000000000E+00  0.24849502592E+03  0.24849502592E+03  0.00000000000E+00 0. -1.
         -2   -1    0    0    0  501 -0.00000000000E+00 -0.00000000000E+00 -0.57867726015E+02  0.57867726015E+02  0.00000000000E+00 0.  1.
         25    2    1    2    0    0 -0.39936924097E+02 -0.72472970867E+01  0.66029694043E+02  0.14715651592E+03  0.12509052106E+03 0.  0.
         23    2    1    2    0    0  0.39936924097E+02  0.72472970867E+01  0.12459760586E+03  0.15920623601E+03  0.90413389379E+02 0.  0.
          5    1    3    3  502    0  0.26728471265E+02  0.24220164978E+02  0.63652145903E+02  0.73280936442E+02  0.41800000000E+01 0. -1.
         -5    1    3    3    0  502 -0.66665395362E+02 -0.31467462065E+02  0.23775481394E+01  0.73875579475E+02  0.41800000000E+01 0. -1.
        -11    1    4    4    0    0 -0.54457230539E+01 -0.18185548911E+02 -0.49373473467E+01  0.19614981203E+02  0.00000000000E+00 0.  1.
         11    1    4    4    0    0  0.45382647151E+02  0.25432845998E+02  0.12953495321E+03  0.13959125481E+03  0.00000000000E+00 0. -1.
</event>
<event>
 8    1  0.6505836E-009  0.1282467E+03  0.7561462E-02  0.1230081E+00
         -2   -1    0    0    0  501 -0.00000000000E+00  0.00000000000E+00  0.38280289114E+02  0.38280289114E+02  0.00000000000E+00 0. -1.
          2   -1    0    0  501    0  0.00000000000E+00 -0.00000000000E+00 -0.74678989204E+03  0.74678989204E+03  0.00000000000E+00 0.  1.
         25    2    1    2    0    0 -0.82249141699E+02 -0.31946189570E+02 -0.16054842379E+03  0.22182954454E+03  0.12508824930E+03 0.  0.
         23    2    1    2    0    0  0.82249141699E+02  0.31946189570E+02 -0.54796117913E+03  0.56324063661E+03  0.95880553556E+02 0.  0.
          5    1    3    3  502    0 -0.86039083824E+02 -0.61086968659E+02 -0.70392068717E+02  0.12691279456E+03  0.41800000000E+01 0.  1.
         -5    1    3    3    0  502  0.37899421248E+01  0.29140779089E+02 -0.90156355071E+02  0.94916749981E+02  0.41800000000E+01 0.  1.
        -11    1    4    4    0    0  0.69774953972E+01  0.44373417561E+02 -0.11230359812E+03  0.12095364309E+03  0.00000000000E+00 0. -1.
         11    1    4    4    0    0  0.75271646302E+02 -0.12427227991E+02 -0.43565758102E+03  0.44228699351E+03  0.00000000000E+00 0.  1.
</event>
<event>
 8    1  0.6505836E-009  0.1412977E+03  0.7561462E-02  0.1211593E+00
         -1   -1    0    0    0  501 -0.00000000000E+00  0.00000000000E+00  0.56057306522E+03  0.56057306522E+03  0.00000000000E+00 0.  1.
          1   -1    0    0  501    0  0.00000000000E+00 -0.00000000000E+00 -0.51941705439E+02  0.51941705439E+02  0.00000000000E+00 0. -1.
         25    2    1    2    0    0 -0.11856499513E+03  0.86290760448E+01  0.35935847618E+03  0.39864978797E+03  0.12510403677E+03 0.  0.
         23    2    1    2    0    0  0.11856499513E+03 -0.86290760448E+01  0.14927288360E+03  0.21386498270E+03  0.96559401513E+02 0.  0.
          5    1    3    3  502    0 -0.47658803971E+02  0.28548285184E+02  0.34519079777E+02  0.65539342776E+02  0.41800000000E+01 0.  1.
         -5    1    3    3    0  502 -0.70906191162E+02 -0.19919209140E+02  0.32483939640E+03  0.33311044519E+03  0.41800000000E+01 0.  1.
        -11    1    4    4    0    0  0.12417506107E+03 -0.32691306045E+02  0.12693872468E+03  0.18055915127E+03  0.00000000000E+00 0. -1.
         11    1    4    4    0    0 -0.56100659382E+01  0.24062230001E+02  0.22334158923E+02  0.33305831430E+02  0.00000000000E+00 0.  1.
</event>
<event>
 8    1  0.6505836E-009  0.2520252E+03  0.7561462E-02  0.1112032E+00
         -2   -1    0    0    0  501 -0.00000000000E+00  0.00000000000E+00  0.14728885401E+03  0.14728885401E+03  0.00000000000E+00 0.  1.
          2   -1    0    0  501    0  0.00000000000E+00 -0.00000000000E+00 -0.55496547221E+03  0.55496547221E+03  0.00000000000E+00 0. -1.
         25    2    1    2    0    0 -0.21182334714E+03 -0.12703649873E+03 -0.32558866003E+03  0.42739146876E+03  0.12509232439E+03 0.  0.
         23    2    1    2    0    0  0.21182334714E+03  0.12703649873E+03 -0.82087958174E+02  0.27486285746E+03  0.88338865355E+02 0.  0.
          5    1    3    3  502    0 -0.14565008336E+03 -0.48066336821E+02 -0.11119343077E+03  0.18948818159E+03  0.41800000000E+01 0.  1.
         -5    1    3    3    0  502 -0.66173263782E+02 -0.78970161905E+02 -0.21439522927E+03  0.23790328716E+03  0.41800000000E+01 0.  1.
        -11    1    4    4    0    0  0.20090230045E+03  0.12429104554E+03 -0.97671975943E+02  0.25563609528E+03  0.00000000000E+00 0. -1.
         11    1    4    4    0    0  0.10921046693E+02  0.27454531869E+01  0.15584017769E+02  0.19226762180E+02  0.00000000000E+00 0.  1.
</event>
<event>
 8    1  0.6505836E-009  0.9219898E+02  0.7561462E-02  0.1297612E+00
          1   -1    0    0  501    0  0.00000000000E+00  0.00000000000E+00  0.32858215630E+03  0.32858215630E+03  0.00000000000E+00 0. -1.
         -1   -1    0    0    0  501 -0.00000000000E+00 -0.00000000000E+00 -0.10385937176E+03  0.10385937176E+03  0.00000000000E+00 0.  1.
         25    2    1    2    0    0 -0.34676598580E+02 -0.18810784385E+01  0.29484276247E+03  0.32215796390E+03  0.12508994435E+03 0.  0.
         23    2    1    2    0    0  0.34676598580E+02  0.18810784385E+01 -0.70119977930E+02  0.11028356415E+03  0.77715174017E+02 0.  0.
          5    1    3    3  502    0  0.31096138924E+02 -0.41083686900E+02  0.14286223231E+03  0.15192738069E+03  0.41800000000E+01 0. -1.
         -5    1    3    3    0  502 -0.65772737504E+02  0.39202608461E+02  0.15198053017E+03  0.17023058321E+03  0.41800000000E+01 0. -1.
        -11    1    4    4    0    0  0.22435462381E+02 -0.20576787386E+02 -0.77827962680E+02  0.83570006140E+02  0.00000000000E+00 0.  1.
         11    1    4    4    0    0  0.12241136199E+02  0.22457865825E+02  0.77079847500E+01  0.26713558014E+02  0.00000000000E+00 0. -1.
</event>
<event>
 8    1  0.6505836E-009  0.1566305E+03  0.7561462E-02  0.1192554E+00
          1   -1    0    0  501    0  0.00000000000E+00  0.00000000000E+00  0.17852743459E+03  0.17852743459E+03  0.00000000000E+00 0. -1.
         -1   -1    0    0    0  501 -0.00000000000E+00 -0.00000000000E+00 -0.20577500897E+03  0.20577500897E+03  0.00000000000E+00 0.  1.
         25    2    1    2    0    0  0.61849973424E+02  0.10345398531E+03 -0.11566922139E+03  0.20869953555E+03  0.12509189052E+03 0.  0.
         23    2    1    2    0    0 -0.61849973424E+02 -0.10345398531E+03  0.88421647003E+02  0.17560290801E+03  0.92140367661E+02 0.  0.
          5    1    3    3  502    0 -0.11648317529E+02 -0.16993300416E+02 -0.47488286228E+02  0.51933277281E+02  0.41800000000E+01 0. -1.
         -5    1    3    3    0  502  0.73498290953E+02  0.12044728573E+03 -0.68180935158E+02  0.15676625827E+03  0.41800000000E+01 0. -1.
        -11    1    4    4    0    0  0.13717922306E+02 -0.64722486249E+02  0.46769774779E+02  0.81022178763E+02  0.00000000000E+00 0. -1.
         11    1    4    4    0    0 -0.75567895730E+02 -0.38731499063E+02  0.41651872224E+02  0.94580729245E+02  0.00000000000E+00 0.  1.
</event>
<event>
 8    1  0.6505836E-009  0.9025794E+02  0.7561462E-02  0.1302228E+00
         -2   -1    0    0    0  501 -0.00000000000E+00  0.00000000000E+00  0.88144756487E+02  0.88144756487E+02  0.00000000000E+00 0.  1.
          2   -1    0    0  501    0  0.00000000000E+00 -0.00000000000E+00 -0.14246887574E+03  0.14246887574E+03  0.00000000000E+00 0. -1.
         25    2    1    2    0    0 -0.27683017836E+02  0.30948109492E+01 -0.30644628595E+02  0.13176751363E+03  0.12509059539E+03 0.  0.
         23    2    1    2    0    0  0.27683017836E+02 -0.30948109492E+01 -0.23679490660E+02  0.98846118598E+02  0.91836319355E+02 0.  0.
          5    1    3    3  502    0 -0.43429540258E+02  0.32352875216E+02  0.30323341832E+02  0.62207804668E+02  0.41800000000E+01 0. -1.
         -5    1    3    3    0  502  0.15746522422E+02 -0.29258064267E+02 -0.60967970427E+02  0.69559708963E+02  0.41800000000E+01 0. -1.
        -11    1    4    4    0    0  0.17644260352E+02 -0.45674402093E+02  0.28603837079E+00  0.48964811323E+02  0.00000000000E+00 0. -1.
         11    1    4    4    0    0  0.10038757484E+02  0.42579591144E+02 -0.23965529031E+02  0.49881307276E+02  0.00000000000E+00 0.  1.
</event>
<event>
 8    1  0.6505836E-009  0.1278769E+03  0.7561462E-02  0.1230640E+00
         -1   -1    0    0    0  501 -0.00000000000E+00  0.00000000000E+00  0.13357049782E+02  0.13357049782E+02  0.00000000000E+00 0.  1.
          1   -1    0    0  501    0  0.00000000000E+00 -0.00000000000E+00 -0.15860985232E+04  0.15860985232E+04  0.00000000000E+00 0. -1.
         25    2    1    2    0    0  0.73809289508E+02  0.49853954985E+02 -0.10579433826E+04  0.10690300011E+04  0.12509082495E+03 0.  0.
         23    2    1    2    0    0 -0.73809289508E+02 -0.49853954985E+02 -0.51479809082E+03  0.53042557185E+03  0.91656886913E+02 0.  0.
          5    1    3    3  502    0  0.91948566680E+02  0.64916857879E+01 -0.45613421212E+03  0.46537358408E+03  0.41800000000E+01 0. -1.
         -5    1    3    3    0  502 -0.18139277172E+02  0.43362269197E+02 -0.60180917044E+03  0.60365641700E+03  0.41800000000E+01 0. -1.
        -11    1    4    4    0    0 -0.29676732038E+02  0.18469991403E+02 -0.69893670665E+02  0.78147131783E+02  0.00000000000E+00 0. -1.
         11    1    4    4    0    0 -0.44132557470E+02 -0.68323946388E+02 -0.44490442015E+03  0.45227844007E+03  0.00000000000E+00 0.  1.
</event>
<event>
 8    1  0.6505836E-009  0.1148367E+03  0.7561462E-02  0.1251866E+00
         -3   -1    0    0    0  501 -0.00000000000E+00  0.00000000000E+00  0.76688430700E+02  0.76688430700E+02  0.00000000000E+00 0.  1.
          3   -1    0    0  501    0  0.00000000000E+00 -0.00000000000E+00 -0.42776164170E+03  0.42776164170E+03  0.00000000000E+00 0. -1.
         25    2    1    2    0    0  0.33508599712E+02  0.40602103369E+02 -0.36826620742E+03  0.39247857316E+03  0.12509226116E+03 0.  0.
         23    2    1    2    0    0 -0.33508599712E+02 -0.40602103369E+02  0.17192996428E+02  0.11197149924E+03  0.97317318415E+02 0.  0.
          5    1    3    3  502    0 -0.33876896531E+02  0.54744724514E+02 -0.21353036944E+03  0.22306348884E+03  0.41800000000E+01 0.  1.
         -5    1    3    3    0  502  0.67385496243E+02 -0.14142621145E+02 -0.15473583799E+03  0.16941508432E+03  0.41800000000E+01 0.  1.
        -11    1    4    4    0    0 -0.59842199076E+02 -0.34758904834E+02  0.37029765056E+02  0.78488685527E+02  0.00000000000E+00 0.  1.
         11    1    4    4    0    0  0.26333599364E+02 -0.58431985356E+01 -0.19836768629E+02  0.33482813714E+02  0.00000000000E+00 0. -1.
</event>
<event>
 8    1  0.6505836E-009  0.1092762E+03  0.7561462E-02  0.1261916E+00
         -1   -1    0    0    0  501 -0.00000000000E+00  0.00000000000E+00  0.54923153460E+02  0.54923153460E+02  0.00000000000E+00 0.  1.
          1   -1    0    0  501    0  0.00000000000E+00 -0.00000000000E+00 -0.36773748195E+03  0.36773748195E+03  0.00000000000E+00 0. -1.
         25    2    1    2    0    0  0.28978925209E+02  0.35070537140E+02 -0.52459412670E+02  0.14307097818E+03  0.12509034391E+03 0.  0.
         23    2    1    2    0    0 -0.28978925209E+02 -0.35070537140E+02 -0.26035491582E+03  0.27958965723E+03  0.91191959934E+02 0.  0.
          5    1    3    3  502    0 -0.18461390245E+02 -0.34263704601E+02  0.73913313832E+01  0.39836271944E+02  0.41800000000E+01 0. -1.
         -5    1    3    3    0  502  0.47440315454E+02  0.69334241741E+02 -0.59850744053E+02  0.10323470624E+03  0.41800000000E+01 0. -1.
        -11    1    4    4    0    0 -0.34183406588E+02  0.20248034205E+02 -0.16021739409E+03  0.16506998983E+03  0.00000000000E+00 0.  1.
         11    1    4    4    0    0  0.52044813784E+01 -0.55318571344E+02 -0.10013752173E+03  0.11451966739E+03  0.00000000000E+00 0. -1.
</event>
<event>
 8    1  0.6505836E-009  0.1141034E+03  0.7561462E-02  0.1253154E+00
          1   -1    0    0  501    0  0.00000000000E+00  0.00000000000E+00  0.29963380855E+03  0.29963380855E+03  0.00000000000E+00 0. -1.
         -1   -1    0    0    0  501 -0.00000000000E+00 -0.00000000000E+00 -0.75167960389E+02  0.75167960389E+02  0.00000000000E+00 0.  1.
         25    2    1    2    0    0  0.39791022612E+02  0.86495318469E+02  0.69682813805E+02  0.17195075112E+03  0.12508637286E+03 0.  0.
         23    2    1    2    0    0 -0.39791022612E+02 -0.86495318469E+02  0.15478303436E+03  0.20285101782E+03  0.90144229469E+02 0.  0.
          5    1    3    3  502    0  0.60388189539E+01  0.30418185018E+01  0.80764184207E+02  0.81154456716E+02  0.41800000000E+01 0. -1.
         -5    1    3    3    0  502  0.33752203658E+02  0.83453499967E+02 -0.11081370402E+02  0.90796294409E+02  0.41800000000E+01 0. -1.
        -11    1    4    4    0    0 -0.57275441899E+02 -0.94819112569E+02  0.13979183055E+03  0.17836170060E+03  0.00000000000E+00 0. -1.
         11    1    4    4    0    0  0.17484419287E+02  0.83237941004E+01  0.14991203811E+02  0.24489317217E+02  0.00000000000E+00 0.  1.
</event>
<event>
 8    1  0.6505836E-009  0.1192142E+03  0.7561462E-02  0.1244399E+00
         -2   -1    0    0    0  501 -0.00000000000E+00  0.00000000000E+00  0.21759950352E+03  0.21759950352E+03  0.00000000000E+00 0.  1.
          2   -1    0    0  501    0  0.00000000000E+00 -0.00000000000E+00 -0.73102764026E+02  0.73102764026E+02  0.00000000000E+00 0. -1.
         25    2    1    2    0    0 -0.62355637448E+02  0.11723538507E+01  0.59679780607E+02  0.15198341525E+03  0.12509069655E+03 0.  0.
         23    2    1    2    0    0  0.62355637448E+02 -0.11723538507E+01  0.84816958889E+02  0.13871885230E+03  0.90329416759E+02 0.  0.
          5    1    3    3  502    0 -0.91000397902E+02  0.23540700530E+02  0.65904485005E+02  0.11487432500E+03  0.41800000000E+01 0.  1.
         -5    1    3    3    0  502  0.28644760454E+02 -0.22368346679E+02 -0.62247043982E+01  0.37109090254E+02  0.41800000000E+01 0.  1.
        -11    1    4    4    0    0  0.68905387537E+01 -0.39654599772E+02  0.19266378129E+02  0.44622417388E+02  0.00000000000E+00 0.  1.
         11    1    4    4    0    0  0.55465098694E+02  0.38482245921E+02  0.65550580760E+02  0.94096434908E+02  0.00000000000E+00 0. -1.
</event>
<event>
 8    1  0.6505836E-009  0.1245847E+03  0.7561462E-02  0.1235720E+00
          2   -1    0    0  501    0  0.00000000000E+00  0.00000000000E+00  0.48670527285E+03  0.48670527285E+03  0.00000000000E+00 0. -1.
         -2   -1    0    0    0  501 -0.00000000000E+00 -0.00000000000E+00 -0.36346030341E+02  0.36346030341E+02  0.00000000000E+00 0.  1.
         25    2    1    2    0    0  0.17613857829E+02 -0.70425700085E+02  0.19691091172E+03  0.24431824139E+03  0.12508984252E+03 0.  0.
         23    2    1    2    0    0 -0.17613857829E+02  0.70425700085E+02  0.25344833079E+03  0.27873306180E+03  0.90476716015E+02 0.  0.
          5    1    3    3  502    0 -0.37851714792E+02  0.80569663169E+01  0.10203563042E+03  0.10920810086E+03  0.41800000000E+01 0.  1.
         -5    1    3    3    0  502  0.55465572621E+02 -0.78482666402E+02  0.94875281301E+02  0.13511014053E+03  0.41800000000E+01 0.  1.
        -11    1    4    4    0    0  0.34807431282E+02  0.15434574345E+02  0.11007206766E+03  0.11647164220E+03  0.00000000000E+00 0. -1.
         11    1    4    4    0    0 -0.52421289111E+02  0.54991125740E+02  0.14337626313E+03  0.16226141960E+03  0.00000000000E+00 0.  1.
</event>
<event>
 8    1  0.6505836E-009  0.1078162E+03  0.7561462E-02  0.1264668E+00
          2   -1    0    0  501    0  0.00000000000E+00  0.00000000000E+00  0.31424968976E+03  0.31424968976E+03  0.00000000000E+00 0. -1.
         -2   -1    0    0    0  501 -0.00000000000E+00 -0.00000000000E+00 -0.78374677704E+02  0.78374677704E+02  0.00000000000E+00 0.  1.
         25    2    1    2    0    0 -0.45979476630E+02 -0.69743425645E+01 -0.20267130496E+01  0.13346885047E+03  0.12508825986E+03 0.  0.
         23    2    1    2    0    0  0.45979476630E+02  0.69743425645E+01  0.23790172510E+03  0.25915551699E+03  0.91660228328E+02 0.  0.
          5    1    3    3  502    0  0.19533798570E+02 -0.36757262087E+02  0.33037335704E+02  0.53306693324E+02  0.41800000000E+01 0.  1.
         -5    1    3    3    0  502 -0.65513275200E+02  0.29782919522E+02 -0.35064048754E+02  0.80162157142E+02  0.41800000000E+01 0.  1.
        -11    1    4    4    0    0  0.63813949686E+02 -0.22159551953E+02  0.13954117050E+03  0.15503226820E+03  0.00000000000E+00 0.  1.
         11    1    4    4    0    0 -0.17834473057E+02  0.29133894517E+02  0.98360554602E+02  0.10412324880E+03  0.00000000000E+00 0. -1.
</event>
<event>
 8    1  0.6505836E-009  0.2426606E+03  0.7561462E-02  0.1118033E+00
         -2   -1    0    0    0  501 -0.00000000000E+00  0.00000000000E+00  0.11273812420E+03  0.11273812420E+03  0.00000000000E+00 0. -1.
          2   -1    0    0  501    0  0.00000000000E+00 -0.00000000000E+00 -0.62063187641E+03  0.62063187641E+03  0.00000000000E+00 0.  1.
         25    2    1    2    0    0 -0.22178530810E+03 -0.59362652748E+02 -0.35974265966E+03  0.44471961466E+03  0.12509239406E+03 0.  0.
         23    2    1    2    0    0  0.22178530810E+03  0.59362652748E+02 -0.14815109255E+03  0.28865038595E+03  0.93046502639E+02 0.  0.
          5    1    3    3  502    0 -0.36486000453E+01  0.21794961703E+02 -0.10050662502E+02  0.24633734079E+02  0.41800000000E+01 0.  1.
         -5    1    3    3    0  502 -0.21813670806E+03 -0.81157614451E+02 -0.34969199716E+03  0.42008588058E+03  0.41800000000E+01 0.  1.
        -11    1    4    4    0    0  0.20245248386E+03  0.58331525617E+02 -0.16121732335E+03  0.26529342330E+03  0.00000000000E+00 0.  1.
         11    1    4    4    0    0  0.19332824247E+02  0.10311271310E+01  0.13066230803E+02  0.23356962643E+02  0.00000000000E+00 0. -1.
</event>
<event>
 8    1  0.6505836E-009  0.6379218E+02  0.7561462E-02  0.1382573E+00
          1   -1    0    0  501    0  0.00000000000E+00  0.00000000000E+00  0.43596019839E+02  0.43596019839E+02  0.00000000000E+00 0. -1.
         -1   -1    0    0    0  501 -0.00000000000E+00 -0.00000000000E+00 -0.29271119336E+03  0.29271119336E+03  0.00000000000E+00 0.  1.
         25    2    1    2    0    0  0.25576274327E+02 -0.10531909294E+02 -0.12406184953E+03  0.17833382989E+03  0.12508615213E+03 0.  0.
         23    2    1    2    0    0 -0.25576274327E+02  0.10531909294E+02 -0.12505332399E+03  0.15797338331E+03  0.92478046420E+02 0.  0.
          5    1    3    3  502    0  0.22837195949E+02 -0.11704889906E+02  0.20852073518E+02  0.33329016435E+02  0.41800000000E+01 0.  1.
         -5    1    3    3    0  502  0.27390783778E+01  0.11729806117E+01 -0.14491392304E+03  0.14500481346E+03  0.41800000000E+01 0.  1.
        -11    1    4    4    0    0 -0.54113304536E+02 -0.17077249957E+02 -0.70486875688E+02  0.90489125525E+02  0.00000000000E+00 0.  1.
         11    1    4    4    0    0  0.28537030209E+02  0.27609159252E+02 -0.54566448305E+02  0.67484257782E+02  0.00000000000E+00 0. -1.
</event>
<event>
 8    1  0.6505836E-009  0.1229295E+03  0.7561462E-02  0.1238341E+00
         -2   -1    0    0    0  501 -0.00000000000E+00  0.00000000000E+00  0.14491315833E+03  0.14491315833E+03  0.00000000000E+00 0.  1.
          2   -1    0    0  501    0  0.00000000000E+00 -0.00000000000E+00 -0.14592794769E+03  0.14592794769E+03  0.00000000000E+00 0. -1.
         25    2    1    2    0    0 -0.66388410681E+02 -0.58373537470E+02 -0.38715213968E+02  0.15799110830E+03  0.12508969406E+03 0.  0.
         23    2    1    2    0    0  0.66388410681E+02  0.58373537470E+02  0.37700424603E+02  0.13284999771E+03  0.91721910838E+02 0.  0.
          5    1    3    3  502    0 -0.10118248304E+03 -0.45264620635E+02 -0.45627479999E+02  0.11994215308E+03  0.41800000000E+01 0. -1.
         -5    1    3    3    0  502  0.34794072356E+02 -0.13108916834E+02  0.69122660318E+01  0.38048955221E+02  0.41800000000E+01 0. -1.
        -11    1    4    4    0    0  0.36999088524E+02  0.57178254072E+02  0.63952572895E+02  0.93424926386E+02  0.00000000000E+00 0.  1.
         11    1    4    4    0    0  0.29389322156E+02  0.11952833981E+01 -0.26252148292E+02  0.39425071327E+02  0.00000000000E+00 0. -1.
</event>
<event>
 8    1  0.6505836E-009  0.1138955E+03  0.7561462E-02  0.1253521E+00
         -1   -1    0    0    0  501 -0.00000000000E+00  0.00000000000E+00  0.28952500812E+03  0.28952500812E+03  0.00000000000E+00 0.  1.
          1   -1    0    0  501    0  0.00000000000E+00 -0.00000000000E+00 -0.73065597971E+02  0.73065597971E+02  0.00000000000E+00 0. -1.
         25    2    1    2    0    0  0.55596074379E+02 -0.20603529854E+02  0.22241904764E+02  0.14017595628E+03  0.12505665701E+03 0.  0.
         23    2    1    2    0    0 -0.55596074379E+02  0.20603529854E+02  0.19421750538E+03  0.22241464981E+03  0.90732618853E+02 0.  0.
          5    1    3    3  502    0  0.74823978657E+01  0.43580798878E+02 -0.20801652906E+02  0.49045422541E+02  0.41800000000E+01 0. -1.
         -5    1    3    3    0  502  0.48113676513E+02 -0.64184328732E+02  0.43043557670E+02  0.91130533737E+02  0.41800000000E+01 0. -1.
        -11    1    4    4    0    0  0.12490574113E+02 -0.20144291439E+02  0.20131946426E+02  0.31098266610E+02  0.00000000000E+00 0. -1.
         11    1    4    4    0    0 -0.68086648492E+02  0.40747821293E+02  0.17408555896E+03  0.19131638320E+03  0.00000000000E+00 0.  1.
</event>
<event>
 8    1  0.6505836E-009  0.9025101E+02  0.7561462E-02  0.1302245E+00
          2   -1    0    0  501    0  0.00000000000E+00  0.00000000000E+00  0.88300634458E+03  0.88300634458E+03  0.00000000000E+00 0. -1.
         -2   -1    0    0    0  501 -0.00000000000E+00 -0.00000000000E+00 -0.24238827517E+02  0.24238827517E+02  0.00000000000E+00 0.  1.
         25    2    1    2    0    0 -0.22314417899E+02  0.58925019864E+01  0.76150058269E+03  0.77205166257E+03  0.12509187589E+03 0.  0.
         23    2    1    2    0    0  0.22314417899E+02 -0.58925019864E+01  0.97266934376E+02  0.13519350953E+03  0.91015238672E+02 0.  0.
          5    1    3    3  502    0 -0.55890251928E+02  0.22049495846E+02  0.67616629269E+03  0.67884330173E+03  0.41800000000E+01 0.  1.
         -5    1    3    3    0  502  0.33575834029E+02 -0.16156993860E+02  0.85334290000E+02  0.93208360843E+02  0.41800000000E+01 0.  1.
        -11    1    4    4    0    0 -0.16698899591E+02 -0.31820641360E+02  0.11964714432E+02  0.37875597098E+02  0.00000000000E+00 0.  1.
         11    1    4    4    0    0  0.39013317490E+02  0.25928139374E+02  0.85302219943E+02  0.97317912432E+02  0.00000000000E+00 0. -1.
</event>
<event>
 8    1  0.6505836E-009  0.1935162E+03  0.7561462E-02  0.1155328E+00
         -2   -1    0    0    0  501 -0.00000000000E+00  0.00000000000E+00  0.56899323951E+02  0.56899323951E+02  0.00000000000E+00 0.  1.
          2   -1    0    0  501    0  0.00000000000E+00 -0.00000000000E+00 -0.67497260003E+03  0.67497260003E+03  0.00000000000E+00 0. -1.
         25    2    1    2    0    0 -0.93695939504E+02 -0.13256464464E+03 -0.33632927773E+03  0.39384699038E+03  0.12508299117E+03 0.  0.
         23    2    1    2    0    0  0.93695939504E+02  0.13256464464E+03 -0.28174399835E+03  0.33802493361E+03  0.92351832925E+02 0.  0.
          5    1    3    3  502    0 -0.84049314543E+02 -0.15549797305E+03 -0.26858476897E+03  0.32155739366E+03  0.41800000000E+01 0. -1.
         -5    1    3    3    0  502 -0.96466249611E+01  0.22933328412E+02 -0.67744508765E+02  0.72289596714E+02  0.41800000000E+01 0. -1.
        -11    1    4    4    0    0  0.64251939906E+02  0.18026171791E+02 -0.80061227175E+02  0.10422597924E+03  0.00000000000E+00 0.  1.
         11    1    4    4    0    0  0.29443999598E+02  0.11453847285E+03 -0.20168277118E+03  0.23379895437E+03  0.00000000000E+00 0. -1.
</event>
<event>
 8    1  0.6505836E-009  0.8862075E+02  0.7561462E-02  0.1306227E+00
          1   -1    0    0  501    0  0.00000000000E+00  0.00000000000E+00  0.41037760511E+02  0.41037760511E+02  0.00000000000E+00 0. -1.
         -1   -1    0    0    0  501 -0.00000000000E+00 -0.00000000000E+00 -0.38793103689E+03  0.38793103689E+03  0.00000000000E+00 0.  1.
         25    2    1    2    0    0 -0.50840678436E+02 -0.35185717266E+02 -0.22797516044E+03  0.26728911846E+03  0.12509192534E+03 0.  0.
         23    2    1    2    0    0  0.50840678436E+02  0.35185717266E+02 -0.11891811594E+03  0.16167967894E+03  0.90421186679E+02 0.  0.
          5    1    3    3  502    0 -0.73324668664E+02 -0.33450388023E+02 -0.67576829563E+02  0.10525937387E+03  0.41800000000E+01 0.  1.
         -5    1    3    3    0  502  0.22483990228E+02 -0.17353292436E+01 -0.16039833087E+03  0.16202974459E+03  0.41800000000E+01 0.  1.
        -11    1    4    4    0    0  0.44260700278E+01  0.25892546430E+02 -0.11052735931E+03  0.11360594708E+03  0.00000000000E+00 0.  1.
         11    1    4    4    0    0  0.46414608408E+02  0.92931708362E+01 -0.83907566282E+01  0.48073731857E+02  0.00000000000E+00 0. -1.
</event>
<event>
 8    1  0.6505836E-009  0.1715472E+03  0.7561462E-02  0.1176244E+00
          2   -1    0    0  501    0  0.00000000000E+00  0.00000000000E+00  0.79848010305E+03  0.79848010305E+03  0.00000000000E+00 0. -1.
         -2   -1    0    0    0  501 -0.00000000000E+00 -0.00000000000E+00 -0.39317138967E+02  0.39317138967E+02  0.00000000000E+00 0.  1.
         25    2    1    2    0    0  0.11612274663E+03 -0.73796926902E+02  0.34043654938E+03  0.38791042019E+03  0.12508785407E+03 0.  0.
         23    2    1    2    0    0 -0.11612274663E+03  0.73796926902E+02  0.41872641470E+03  0.44988682182E+03  0.90199020934E+02 0.  0.
          5    1    3    3  502    0  0.42995273021E+02  0.30751422513E+02  0.61842976316E+02  0.81463302218E+02  0.41800000000E+01 0.  1.
         -5    1    3    3    0  502  0.73127473608E+02 -0.10454834941E+03  0.27859357307E+03  0.30644711798E+03  0.41800000000E+01 0.  1.
        -11    1    4    4    0    0 -0.64238567946E+00  0.42857135052E+02  0.14473517024E+03  0.15094838916E+03  0.00000000000E+00 0. -1.
         11    1    4    4    0    0 -0.11548036095E+03  0.30939791849E+02  0.27399124446E+03  0.29893843266E+03  0.00000000000E+00 0.  1.
</event>
<event>
 8    1  0.6505836E-009  0.8914459E+02  0.7561462E-02  0.1304937E+00
         -1   -1    0    0    0  501 -0.00000000000E+00  0.00000000000E+00  0.96045703656E+02  0.96045703656E+02  0.00000000000E+00 0.  1.
          1   -1    0    0  501    0  0.00000000000E+00 -0.00000000000E+00 -0.17997052477E+03  0.17997052477E+03  0.00000000000E+00 0. -1.
         25    2    1    2    0    0  0.83536287146E+01  0.30562337234E+02  0.24222378186E+02  0.13129399228E+03  0.12509016442E+03 0.  0.
         23    2    1    2    0    0 -0.83536287146E+01 -0.30562337234E+02 -0.10814719930E+03  0.14472223614E+03  0.90801262919E+02 0.  0.
          5    1    3    3  502    0  0.10621008866E+02 -0.33226628278E+02  0.51016204205E+02  0.61943039540E+02  0.41800000000E+01 0.  1.
         -5    1    3    3    0  502 -0.22673801513E+01  0.63788965512E+02 -0.26793826019E+02  0.69350952745E+02  0.41800000000E+01 0.  1.
        -11    1    4    4    0    0 -0.37469681853E+02 -0.68967145834E+00 -0.93128699585E+02  0.10038629085E+03  0.00000000000E+00 0. -1.
         11    1    4    4    0    0  0.29116053138E+02 -0.29872665776E+02 -0.15018499713E+02  0.44335945288E+02  0.00000000000E+00 0.  1.
</event>
<event>
 8    1  0.6505836E-009  0.1254395E+03  0.7561462E-02  0.1234384E+00
         -2   -1    0    0    0  501 -0.00000000000E+00  0.00000000000E+00  0.12408904852E+03  0.12408904852E+03  0.00000000000E+00 0.  1.
          2   -1    0    0  501    0  0.00000000000E+00 -0.00000000000E+00 -0.15439685764E+03  0.15439685764E+03  0.00000000000E+00 0. -1.
         25    2    1    2    0    0  0.45090773311E+02 -0.64473661438E+02  0.10962330806E+02  0.14818362137E+03  0.12509269398E+03 0.  0.
         23    2    1    2    0    0 -0.45090773311E+02  0.64473661438E+02 -0.41270139920E+02  0.13030228479E+03  0.95317522611E+02 0.  0.
          5    1    3    3  502    0 -0.20379815589E+02  0.22405143186E+02 -0.18067192264E+02  0.35513703847E+02  0.41800000000E+01 0. -1.
         -5    1    3    3    0  502  0.65470588901E+02 -0.86878804624E+02  0.29029523070E+02  0.11266991752E+03  0.41800000000E+01 0. -1.
        -11    1    4    4    0    0  0.10634688077E+02  0.53621987770E+02  0.78533765230E+01  0.55227617056E+02  0.00000000000E+00 0.  1.
         11    1    4    4    0    0 -0.55725461388E+02  0.10851673668E+02 -0.49123516443E+02  0.75074667738E+02  0.00000000000E+00 0. -1.
</event>
<event>
 8    1  0.6505836E-009  0.1016101E+03  0.7561462E-02  0.1276946E+00
          2   -1    0    0  501    0  0.00000000000E+00  0.00000000000E+00  0.40273334315E+03  0.40273334315E+03  0.00000000000E+00 0. -1.
         -2   -1    0    0    0  501 -0.00000000000E+00 -0.00000000000E+00 -0.35905425280E+02  0.35905425280E+02  0.00000000000E+00 0.  1.
         25    2    1    2    0    0  0.14616391339E+02  0.15199665474E+02  0.12084183507E+03  0.17520259056E+03  0.12509408424E+03 0.  0.
         23    2    1    2    0    0 -0.14616391339E+02 -0.15199665474E+02  0.24598608280E+03  0.26343617787E+03  0.91895582863E+02 0.  0.
          5    1    3    3  502    0  0.44470988566E+02  0.47247511494E+02  0.24846740328E+02  0.69604806381E+02  0.41800000000E+01 0. -1.
         -5    1    3    3    0  502 -0.29854597227E+02 -0.32047846020E+02  0.95995094740E+02  0.10559778418E+03  0.41800000000E+01 0. -1.
        -11    1    4    4    0    0 -0.27707447304E+02 -0.49921665813E+02  0.15437212730E+03  0.16459231161E+03  0.00000000000E+00 0.  1.
         11    1    4    4    0    0  0.13091055965E+02  0.34722000339E+02  0.91613955506E+02  0.98843866260E+02  0.00000000000E+00 0. -1.
</event>
<event>
 8    1  0.6505836E-009  0.1149579E+03  0.7561462E-02  0.1251655E+00
         -1   -1    0    0    0  501 -0.00000000000E+00  0.00000000000E+00  0.10542406899E+03  0.10542406899E+03  0.00000000000E+00 0.  1.
          1   -1    0    0  501    0  0.00000000000E+00 -0.00000000000E+00 -0.15853291231E+03  0.15853291231E+03  0.00000000000E+00 0. -1.
         25    2    1    2    0    0 -0.68178147458E+02 -0.81662984560E+01 -0.21433613681E+02  0.14429941172E+03  0.12509185508E+03 0.  0.
         23    2    1    2    0    0  0.68178147458E+02  0.81662984560E+01 -0.31675229637E+02  0.11965756957E+03  0.92734381768E+02 0.  0.
          5    1    3    3  502    0 -0.34608363231E+02  0.46583067315E+02 -0.47255211715E+02  0.74954975820E+02  0.41800000000E+01 0. -1.
         -5    1    3    3    0  502 -0.33569784227E+02 -0.54749365771E+02  0.25821598034E+02  0.69344435901E+02  0.41800000000E+01 0. -1.
        -11    1    4    4    0    0  0.20342396786E+01 -0.30627402756E+02  0.10127379262E+02  0.32322434026E+02  0.00000000000E+00 0.  1.
         11    1    4    4    0    0  0.66143907780E+02  0.38793701212E+02 -0.41802608898E+02  0.87335135546E+02  0.00000000000E+00 0. -1.
</event>
<event>
 8    1  0.6505836E-009  0.1002336E+03  0.7561462E-02  0.1279805E+00
          1   -1    0    0  501    0  0.00000000000E+00  0.00000000000E+00  0.39486170417E+03  0.39486170417E+03  0.00000000000E+00 0. -1.
         -1   -1    0    0    0  501 -0.00000000000E+00 -0.00000000000E+00 -0.49358051237E+02  0.49358051237E+02  0.00000000000E+00 0.  1.
         25    2    1    2    0    0  0.67981408978E+02  0.34368060484E+02  0.12568624530E+03  0.19299446039E+03  0.12508874425E+03 0.  0.
         23    2    1    2    0    0 -0.67981408978E+02 -0.34368060484E+02  0.21981740763E+03  0.25122529501E+03  0.94825210818E+02 0.  0.
          5    1    3    3  502    0 -0.10938336461E+02  0.15779751808E+02 -0.18842267496E+02  0.27224092566E+02  0.41800000000E+01 0.  1.
         -5    1    3    3    0  502  0.78919745439E+02  0.18588308675E+02  0.14452851279E+03  0.16577036783E+03  0.41800000000E+01 0.  1.
        -11    1    4    4    0    0 -0.77612415217E+02 -0.41154351301E+02  0.22243685133E+03  0.23915584973E+03  0.00000000000E+00 0. -1.
         11    1    4    4    0    0  0.96310062389E+01  0.67862908177E+01 -0.26194436987E+01  0.12069445287E+02  0.00000000000E+00 0.  1.
</event>
<event>
 8    1  0.6505836E-009  0.1053266E+03  0.7561462E-02  0.1269477E+00
         -2   -1    0    0    0  501 -0.00000000000E+00  0.00000000000E+00  0.32616867860E+03  0.32616867860E+03  0.00000000000E+00 0.  1.
          2   -1    0    0  501    0  0.00000000000E+00 -0.00000000000E+00 -0.66620199677E+02  0.66620199677E+02  0.00000000000E+00 0. -1.
         25    2    1    2    0    0 -0.90802571158E+02 -0.12453122450E+02  0.19367638444E+03  0.24810763054E+03  0.12508663900E+03 0.  0.
         23    2    1    2    0    0  0.90802571158E+02  0.12453122450E+02  0.65872094476E+02  0.14468124773E+03  0.90517089136E+02 0.  0.
          5    1    3    3  502    0 -0.90119389422E+02  0.79805896527E+01  0.51055078034E+02  0.10396772362E+03  0.41800000000E+01 0. -1.
         -5    1    3    3    0  502 -0.68318173630E+00 -0.20433712102E+02  0.14262130641E+03  0.14413990693E+03  0.41800000000E+01 0. -1.
        -11    1    4    4    0    0  0.26361323935E+02  0.21663159164E+02 -0.17947525224E+02  0.38552892579E+02  0.00000000000E+00 0. -1.
         11    1    4    4    0    0  0.64441247223E+02 -0.92100367138E+01  0.83819619700E+02  0.10612835515E+03  0.00000000000E+00 0.  1.
</event>
<event>
 8    1  0.6505836E-009  0.2184201E+03  0.7561462E-02  0.1135066E+00
         -2   -1    0    0    0  501 -0.00000000000E+00  0.00000000000E+00  0.80226251642E+02  0.80226251642E+02  0.00000000000E+00 0.  1.
          2   -1    0    0  501    0  0.00000000000E+00 -0.00000000000E+00 -0.97536024455E+03  0.97536024455E+03  0.00000000000E+00 0. -1.
         25    2    1    2    0    0  0.18991465948E+03 -0.91569130586E+02 -0.73866224527E+03  0.77828173590E+03  0.12509222315E+03 0.  0.
         23    2    1    2    0    0 -0.18991465948E+03  0.91569130586E+02 -0.15647174764E+03  0.27730476029E+03  0.89230256688E+02 0.  0.
          5    1    3    3  502    0  0.15650581553E+02 -0.24458415308E+00 -0.26505879720E+01  0.16416410721E+02  0.41800000000E+01 0.  1.
         -5    1    3    3    0  502  0.17426407793E+03 -0.91324546433E+02 -0.73601165729E+03  0.76186532518E+03  0.41800000000E+01 0.  1.
        -11    1    4    4    0    0 -0.14118991002E+03  0.28306601584E+02 -0.12758279263E+03  0.19238821004E+03  0.00000000000E+00 0.  1.
         11    1    4    4    0    0 -0.48724749458E+02  0.63262529002E+02 -0.28888955006E+02  0.84916550253E+02  0.00000000000E+00 0. -1.
</event>
<event>
 8    1  0.6505836E-009  0.1136560E+03  0.7561462E-02  0.1253945E+00
         -1   -1    0    0    0  501 -0.00000000000E+00  0.00000000000E+00  0.47573679647E+03  0.47573679647E+03  0.00000000000E+00 0.  1.
          1   -1    0    0  501    0  0.00000000000E+00 -0.00000000000E+00 -0.29782215308E+02  0.29782215308E+02  0.00000000000E+00 0. -1.
         25    2    1    2    0    0  0.65882302114E+01  0.47806213743E+02  0.24553674614E+03  0.27975904848E+03  0.12509193680E+03 0.  0.
         23    2    1    2    0    0 -0.65882302114E+01 -0.47806213743E+02  0.20041783503E+03  0.22575996330E+03  0.92040282390E+02 0.  0.
          5    1    3    3  502    0  0.58113747911E+02  0.56987455077E+02  0.15383874734E+03  0.17409368259E+03  0.41800000000E+01 0. -1.
         -5    1    3    3    0  502 -0.51525517700E+02 -0.91812413335E+01  0.91697998796E+02  0.10566536590E+03  0.41800000000E+01 0. -1.
        -11    1    4    4    0    0  0.30400597931E+02  0.29065384697E+01  0.11955680999E+03  0.12339560420E+03  0.00000000000E+00 0.  1.
         11    1    4    4    0    0 -0.36988828142E+02 -0.50712752213E+02  0.80861025038E+02  0.10236435910E+03  0.00000000000E+00 0. -1.
</event>
<event>
 8    1  0.6505836E-009  0.1071732E+03  0.7561462E-02  0.1265896E+00
         -1   -1    0    0    0  501 -0.00000000000E+00  0.00000000000E+00  0.41234737918E+03  0.41234737918E+03  0.00000000000E+00 0.  1.
          1   -1    0    0  501    0  0.00000000000E+00 -0.00000000000E+00 -0.48962387835E+02  0.48962387835E+02  0.00000000000E+00 0. -1.
         25    2    1    2    0    0 -0.65193309301E+02 -0.25711652688E+02  0.27601022290E+03  0.31103041895E+03  0.12508805582E+03 0.  0.
         23    2    1    2    0    0  0.65193309301E+02  0.25711652688E+02  0.87374768453E+02  0.15027934807E+03  0.10019119538E+03 0.  0.
          5    1    3    3  502    0 -0.44510527391E+02  0.22554484325E+02  0.27761600014E+02  0.57254437794E+02  0.41800000000E+01 0.  1.
         -5    1    3    3    0  502 -0.20682781909E+02 -0.48266137013E+02  0.24824862288E+03  0.25377598116E+03  0.41800000000E+01 0.  1.
        -11    1    4    4    0    0  0.66042772436E+02  0.52762782382E+02  0.89528093688E+02  0.12312935700E+03  0.00000000000E+00 0.  1.
         11    1    4    4    0    0 -0.84946313564E+00 -0.27051129694E+02 -0.21533252349E+01  0.27149991067E+02  0.00000000000E+00 0. -1.
</event>
<event>
 8    1  0.6505836E-009  0.1003514E+03  0.7561462E-02  0.1279559E+00
          1   -1    0    0  501    0  0.00000000000E+00  0.00000000000E+00  0.31157294416E+03  0.31157294416E+03  0.00000000000E+00 0. -1.
         -1   -1    0    0    0  501 -0.00000000000E+00 -0.00000000000E+00 -0.51888209547E+02  0.51888209547E+02  0.00000000000E+00 0.  1.
         25    2    1    2    0    0 -0.16556514034E+02 -0.59529504663E+02  0.17519291416E+03  0.22396029998E+03  0.12509108167E+03 0.  0.
         23    2    1    2    0    0  0.16556514034E+02  0.59529504663E+02  0.84491820454E+02  0.13950085373E+03  0.92215727425E+02 0.  0.
          5    1    3    3  502    0  0.28489764025E+02 -0.23706523041E+02 -0.22542533652E+01  0.37366026644E+02  0.41800000000E+01 0. -1.
         -5    1    3    3    0  502 -0.45046278059E+02 -0.35822981622E+02  0.17744716752E+03  0.18659427333E+03  0.41800000000E+01 0. -1.
        -11    1    4    4    0    0 -0.29798567916E+02 -0.56482418231E+00  0.44921158511E+02  0.53909035961E+02  0.00000000000E+00 0. -1.
         11    1    4    4    0    0  0.46355081950E+02  0.60094328846E+02  0.39570661943E+02  0.85591817767E+02  0.00000000000E+00 0.  1.
</event>
<event>
 8    1  0.6505836E-009  0.1258192E+03  0.7561462E-02  0.1233794E+00
         -1   -1    0    0    0  501 -0.00000000000E+00  0.00000000000E+00  0.37383443380E+02  0.37383443380E+02  0.00000000000E+00 0.  1.
          1   -1    0    0  501    0  0.00000000000E+00 -0.00000000000E+00 -0.45502420581E+03  0.45502420581E+03  0.00000000000E+00 0. -1.
         25    2    1    2    0    0  0.65473332405E+02 -0.24434121548E+02 -0.25594324319E+03  0.29332421332E+03  0.12509343240E+03 0.  0.
         23    2    1    2    0    0 -0.65473332405E+02  0.24434121548E+02 -0.16169751924E+03  0.19908343588E+03  0.92759598744E+02 0.  0.
          5    1    3    3  502    0  0.40024738421E+02  0.46625543315E+02 -0.73846182200E+02  0.96159513312E+02  0.41800000000E+01 0.  1.
         -5    1    3    3    0  502  0.25448593985E+02 -0.71059664863E+02 -0.18209706099E+03  0.19716470000E+03  0.41800000000E+01 0.  1.
        -11    1    4    4    0    0 -0.72578837578E+02  0.49858632983E+02 -0.13746553376E+03  0.16324933053E+03  0.00000000000E+00 0. -1.
         11    1    4    4    0    0  0.71055051732E+01 -0.25424511435E+02 -0.24231985486E+02  0.35834105347E+02  0.00000000000E+00 0.  1.
</event>
<event>
 8    1  0.6505836E-009  0.1296511E+03  0.7561462E-02  0.1227974E+00
          1   -1    0    0  501    0  0.00000000000E+00  0.00000000000E+00  0.46039976450E+03  0.46039976450E+03  0.00000000000E+00 0. -1.
         -1   -1    0    0    0  501 -0.00000000000E+00 -0.00000000000E+00 -0.49718447467E+02  0.49718447467E+02  0.00000000000E+00 0.  1.
         25    2    1    2    0    0  0.84943244371E+02 -0.86287502333E+01  0.32702770999E+03  0.36039422282E+03  0.12508821945E+03 0.  0.
         23    2    1    2    0    0 -0.84943244371E+02  0.86287502333E+01  0.83653607038E+02  0.14972398914E+03  0.90163944344E+02 0.  0.
          5    1    3    3  502    0  0.34369433834E+02  0.56952694620E+02  0.17427521853E+03  0.18658561467E+03  0.41800000000E+01 0. -1.
         -5    1    3    3    0  502  0.50573810537E+02 -0.65581444854E+02  0.15275249146E+03  0.17380860815E+03  0.41800000000E+01 0. -1.
        -11    1    4    4    0    0 -0.96628274781E+02  0.12468157980E+02  0.41653322944E+02  0.10595979314E+03  0.00000000000E+00 0.  1.
         11    1    4    4    0    0  0.11685030410E+02 -0.38394077470E+01  0.42000284095E+02  0.43764196001E+02  0.00000000000E+00 0. -1.
</event>
<event>
 8    1  0.6505836E-009  0.1262363E+03  0.7561462E-02  0.1233150E+00
         -1   -1    0    0    0  501 -0.00000000000E+00  0.00000000000E+00  0.17970014363E+03  0.17970014363E+03  0.00000000000E+00 0.  1.
          1   -1    0    0  501    0  0.00000000000E+00 -0.00000000000E+00 -0.26960540930E+03  0.26960540930E+03  0.00000000000E+00 0. -1.
         25    2    1    2    0    0 -0.43202218481E+02  0.10816295039E+03  0.10765273507E+03  0.20199344930E+03  0.12508631690E+03 0.  0.
         23    2    1    2    0    0  0.43202218481E+02 -0.10816295039E+03 -0.19755800073E+03  0.24731210363E+03  0.92565962588E+02 0.  0.
          5    1    3    3  502    0 -0.64653740480E+01  0.61254612268E+02 -0.16773034565E+02  0.63974492371E+02  0.41800000000E+01 0. -1.
         -5    1    3    3    0  502 -0.36736844433E+02  0.46908338118E+02  0.12442576963E+03  0.13801895693E+03  0.41800000000E+01 0. -1.
        -11    1    4    4    0    0  0.54422457541E+02 -0.57715333069E+02 -0.17252378429E+03  0.18988765021E+03  0.00000000000E+00 0. -1.
         11    1    4    4    0    0 -0.11220239060E+02 -0.50447617317E+02 -0.25034216440E+02  0.57424453417E+02  0.00000000000E+00 0.  1.
</event>
<event>
 8    1  0.6505836E-009  0.2338529E+03  0.7561462E-02  0.1123957E+00
          1   -1    0    0  501    0  0.00000000000E+00  0.00000000000E+00  0.29300223644E+03  0.29300223644E+03  0.00000000000E+00 0. -1.
         -1   -1    0    0    0  501 -0.00000000000E+00 -0.00000000000E+00 -0.20506891892E+03  0.20506891892E+03  0.00000000000E+00 0.  1.
         25    2    1    2    0    0 -0.18238212660E+03 -0.11991270826E+03  0.27010664267E+02  0.25302307979E+03  0.12509518462E+03 0.  0.
         23    2    1    2    0    0  0.18238212660E+03  0.11991270826E+03  0.60922653253E+02  0.24504807557E+03  0.93245332076E+02 0.  0.
          5    1    3    3  502    0 -0.44438831424E+02  0.20803978465E+02 -0.15040209042E+02  0.51490732626E+02  0.41800000000E+01 0. -1.
         -5    1    3    3    0  502 -0.13794329518E+03 -0.14071668673E+03  0.42050873309E+02  0.20153234716E+03  0.41800000000E+01 0. -1.
        -11    1    4    4    0    0  0.13305166040E+03  0.10598694200E+03  0.64175873640E+01  0.17022679471E+03  0.00000000000E+00 0. -1.
         11    1    4    4    0    0  0.49330466199E+02  0.13925766262E+02  0.54505065889E+02  0.74821280856E+02  0.00000000000E+00 0.  1.
</event>
<event>
 8    1  0.6505836E-009  0.5357562E+02  0.7561462E-02  0.1426957E+00
         -3   -1    0    0    0  501 -0.00000000000E+00  0.00000000000E+00  0.27155666124E+02  0.27155666124E+02  0.00000000000E+00 0.  1.
          3   -1    0    0  501    0  0.00000000000E+00 -0.00000000000E+00 -0.46487707388E+03  0.46487707388E+03  0.00000000000E+00 0. -1.
         25    2    1    2    0    0 -0.29064826191E+02  0.91579092645E+01 -0.22656155250E+03  0.26058792592E+03  0.12508916277E+03 0.  0.
         23    2    1    2    0    0  0.29064826191E+02 -0.91579092645E+01 -0.21115985526E+03  0.23144481408E+03  0.89719485455E+02 0.  0.
          5    1    3    3  502    0 -0.30834195034E+02  0.18875767509E+02 -0.24036647309E+03  0.24310605910E+03  0.41800000000E+01 0.  1.
         -5    1    3    3    0  502  0.17693688427E+01 -0.97178582440E+01  0.13804920596E+02  0.17481866823E+02  0.41800000000E+01 0.  1.
        -11    1    4    4    0    0  0.36366851422E+02 -0.23943548329E+02 -0.21048418524E+03  0.21494053509E+03  0.00000000000E+00 0. -1.
         11    1    4    4    0    0 -0.73020252304E+01  0.14785639064E+02 -0.67567001398E+00  0.16504278990E+02  0.00000000000E+00 0.  1.
</event>
<event>
 8    1  0.6505836E-009  0.1090703E+03  0.7561462E-02  0.1262301E+00
          1   -1    0    0  501    0  0.00000000000E+00  0.00000000000E+00  0.11996108087E+03  0.11996108087E+03  0.00000000000E+00 0. -1.
         -1   -1    0    0    0  501 -0.00000000000E+00 -0.00000000000E+00 -0.13486600929E+03  0.13486600929E+03  0.00000000000E+00 0.  1.
         25    2    1    2    0    0 -0.33751552671E+02  0.47637899054E+02 -0.36866274592E+02  0.14288961052E+03  0.12509908816E+03 0.  0.
         23    2    1    2    0    0  0.33751552671E+02 -0.47637899054E+02  0.21961346174E+02  0.11193747963E+03  0.92947091868E+02 0.  0.
          5    1    3    3  502    0  0.30816898452E+02 -0.23902075685E+01  0.25296149966E+02  0.40159207233E+02  0.41800000000E+01 0.  1.
         -5    1    3    3    0  502 -0.64568451123E+02  0.50028106623E+02 -0.62162424558E+02  0.10273040329E+03  0.41800000000E+01 0.  1.
        -11    1    4    4    0    0  0.30464867988E+02  0.20643807495E+02  0.23312898475E+02  0.43563358511E+02  0.00000000000E+00 0.  1.
         11    1    4    4    0    0  0.32866846826E+01 -0.68281706550E+02 -0.13515523012E+01  0.68374121122E+02  0.00000000000E+00 0. -1.
</event>
<event>
 8    1  0.6505836E-009  0.2224238E+03  0.7561462E-02  0.1132089E+00
         -2   -1    0    0    0  501 -0.00000000000E+00  0.00000000000E+00  0.21108286136E+02  0.21108286136E+02  0.00000000000E+00 0.  1.
          2   -1    0    0  501    0  0.00000000000E+00 -0.00000000000E+00 -0.23703810353E+04  0.23703810353E+04  0.00000000000E+00 0. -1.
         25    2    1    2    0    0  0.10122689736E+03 -0.16654475203E+03 -0.12685229998E+04  0.12894872681E+04  0.12507107783E+03 0.  0.
         23    2    1    2    0    0 -0.10122689736E+03  0.16654475203E+03 -0.10807497494E+04  0.11020020533E+04  0.91675872110E+02 0.  0.
          5    1    3    3  502    0  0.94041367053E+01 -0.13315514789E+03 -0.76035796250E+03  0.77199769089E+03  0.41800000000E+01 0.  1.
         -5    1    3    3    0  502  0.91822760650E+02 -0.33389604146E+02 -0.50816503726E+03  0.51748957722E+03  0.41800000000E+01 0.  1.
        -11    1    4    4    0    0 -0.38092474645E+02  0.13986704660E+03 -0.79833857614E+03  0.81139282071E+03  0.00000000000E+00 0. -1.
         11    1    4    4    0    0 -0.63134422711E+02  0.26677705430E+02 -0.28241117327E+03  0.29060923262E+03  0.00000000000E+00 0.  1.
</event>
<event>
 8    1  0.6505836E-009  0.1871996E+03  0.7561462E-02  0.1161012E+00
          2   -1    0    0  501    0  0.00000000000E+00  0.00000000000E+00  0.11672710554E+03  0.11672710554E+03  0.00000000000E+00 0. -1.
         -2   -1    0    0    0  501 -0.00000000000E+00 -0.00000000000E+00 -0.31333003619E+03  0.31333003619E+03  0.00000000000E+00 0.  1.
         25    2    1    2    0    0 -0.15447122367E+03  0.12333862548E+02 -0.74485342056E+02  0.21262522026E+03  0.12509170637E+03 0.  0.
         23    2    1    2    0    0  0.15447122367E+03 -0.12333862548E+02 -0.12211758859E+03  0.21743192147E+03  0.91380807213E+02 0.  0.
          5    1    3    3  502    0  0.16621696741E+02 -0.15560875644E+02  0.17271155135E+01  0.23213723987E+02  0.41800000000E+01 0. -1.
         -5    1    3    3    0  502 -0.17109292041E+03  0.27894738192E+02 -0.76212457569E+02  0.18941149627E+03  0.41800000000E+01 0. -1.
        -11    1    4    4    0    0  0.38014308170E+02 -0.43026407250E+02 -0.55250669811E+02  0.79680586476E+02  0.00000000000E+00 0. -1.
         11    1    4    4    0    0  0.11645691549E+03  0.30692544702E+02 -0.66866918777E+02  0.13775133500E+03  0.00000000000E+00 0.  1.
</event>
<event>
 8    1  0.6505836E-009  0.1083044E+03  0.7561462E-02  0.1263743E+00
          1   -1    0    0  501    0  0.00000000000E+00  0.00000000000E+00  0.15196943365E+04  0.15196943365E+04  0.00000000000E+00 0.  1.
         -1   -1    0    0    0  501 -0.00000000000E+00 -0.00000000000E+00 -0.17520680946E+02  0.17520680946E+02  0.00000000000E+00 0. -1.
         25    2    1    2    0    0  0.49293554153E+02 -0.60515115206E+02  0.12469501064E+04  0.12556358716E+04  0.12507973624E+03 0.  0.
         23    2    1    2    0    0 -0.49293554153E+02  0.60515115206E+02  0.25522354909E+03  0.28157914583E+03  0.89754229476E+02 0.  0.
          5    1    3    3  502    0  0.63695560902E+02 -0.59367101145E+02  0.44034725877E+03  0.44889281335E+03  0.41800000000E+01 0.  1.
         -5    1    3    3    0  502 -0.14402006749E+02 -0.11480140618E+01  0.80660284767E+03  0.80674305823E+03  0.41800000000E+01 0.  1.
        -11    1    4    4    0    0  0.33397064307E+01 -0.18861389927E+02  0.78741962755E+02  0.81038277175E+02  0.00000000000E+00 0. -1.
         11    1    4    4    0    0 -0.52633260584E+02  0.79376505133E+02  0.17648158633E+03  0.20054086865E+03  0.00000000000E+00 0.  1.
</event>
<event>
 8    1  0.6505836E-009  0.9793023E+02  0.7561462E-02  0.1284710E+00
          2   -1    0    0  501    0  0.00000000000E+00  0.00000000000E+00  0.93431814037E+02  0.93431814037E+02  0.00000000000E+00 0. -1.
         -2   -1    0    0    0  501 -0.00000000000E+00 -0.00000000000E+00 -0.23509185986E+03  0.23509185986E+03  0.00000000000E+00 0.  1.
         25    2    1    2    0    0 -0.85442536452E+01  0.96749541943E+02 -0.12729689870E+03  0.20318632977E+03  0.12508679407E+03 0.  0.
         23    2    1    2    0    0  0.85442536452E+01 -0.96749541943E+02 -0.14363147124E+02  0.12533734413E+03  0.77908097790E+02 0.  0.
          5    1    3    3  502    0  0.10190158592E+01  0.22384443605E+02  0.24724971036E+02  0.33628831404E+02  0.41800000000E+01 0.  1.
         -5    1    3    3    0  502 -0.95632695044E+01  0.74365098338E+02 -0.15202186974E+03  0.16955749837E+03  0.41800000000E+01 0.  1.
        -11    1    4    4    0    0  0.10142590775E+02 -0.42285871777E+02 -0.45206357580E+02  0.62726245426E+02  0.00000000000E+00 0.  1.
         11    1    4    4    0    0 -0.15983371301E+01 -0.54463670166E+02  0.30843210456E+02  0.62611098703E+02  0.00000000000E+00 0. -1.
</event>
<event>
 8    1  0.6505836E-009  0.7758945E+02  0.7561462E-02  0.1336035E+00
         -1   -1    0    0    0  501 -0.00000000000E+00  0.00000000000E+00  0.14568812825E+03  0.14568812825E+03  0.00000000000E+00 0.  1.
          1   -1    0    0  501    0  0.00000000000E+00 -0.00000000000E+00 -0.10454335807E+03  0.10454335807E+03  0.00000000000E+00 0. -1.
         25    2    1    2    0    0 -0.24237895040E+02 -0.21425241532E+02  0.72406749420E+02  0.14810869728E+03  0.12508769850E+03 0.  0.
         23    2    1    2    0    0  0.24237895040E+02  0.21425241532E+02 -0.31261979237E+02  0.10212278905E+03  0.91680075082E+02 0.  0.
          5    1    3    3  502    0  0.25568619597E+02 -0.24069096831E+02 -0.21720910099E+02  0.41501157404E+02  0.41800000000E+01 0.  1.
         -5    1    3    3    0  502 -0.49806514637E+02  0.26438552989E+01  0.94127659518E+02  0.10660753987E+03  0.41800000000E+01 0.  1.
        -11    1    4    4    0    0 -0.16463212063E+02  0.23862149382E+02  0.21028787119E+02  0.35814095161E+02  0.00000000000E+00 0.  1.
         11    1    4    4    0    0  0.40701107102E+02 -0.24369078497E+01 -0.52290766356E+02  0.66308693890E+02  0.00000000000E+00 0. -1.
</event>
<event>
 8    1  0.6505836E-009  0.1057183E+03  0.7561462E-02  0.1268711E+00
          1   -1    0    0  501    0  0.00000000000E+00  0.00000000000E+00  0.21683919978E+02  0.21683919978E+02  0.00000000000E+00 0. -1.
         -1   -1    0    0    0  501 -0.00000000000E+00 -0.00000000000E+00 -0.56157120323E+03  0.56157120323E+03  0.00000000000E+00 0.  1.
         25    2    1    2    0    0  0.15870677982E+02 -0.12720540209E+02 -0.35310793550E+03  0.37515838855E+03  0.12507962193E+03 0.  0.
         23    2    1    2    0    0 -0.15870677982E+02  0.12720540209E+02 -0.18677934775E+03  0.20809673466E+03  0.89465276319E+02 0.  0.
          5    1    3    3  502    0 -0.36789248596E+02 -0.49793548966E+02 -0.18175550421E+03  0.19205567433E+03  0.41800000000E+01 0.  1.
         -5    1    3    3    0  502  0.52659926578E+02  0.37073008757E+02 -0.17135243129E+03  0.18310271422E+03  0.41800000000E+01 0.  1.
        -11    1    4    4    0    0 -0.24448222182E+02 -0.31460498086E+02 -0.12805127441E+03  0.13410670150E+03  0.00000000000E+00 0. -1.
         11    1    4    4    0    0  0.85775441993E+01  0.44181038295E+02 -0.58728073335E+02  0.73990033160E+02  0.00000000000E+00 0.  1.
</event>
<event>
 8    1  0.6505836E-009  0.1513401E+03  0.7561462E-02  0.1198836E+00
         -2   -1    0    0    0  501 -0.00000000000E+00  0.00000000000E+00  0.55303795485E+02  0.55303795485E+02  0.00000000000E+00 0.  1.
          2   -1    0    0  501    0  0.00000000000E+00 -0.00000000000E+00 -0.56097458711E+03  0.56097458711E+03  0.00000000000E+00 0. -1.
         25    2    1    2    0    0 -0.11575870294E+03 -0.36693082353E+02 -0.15047091917E+03  0.23029394053E+03  0.12508933579E+03 0.  0.
         23    2    1    2    0    0  0.11575870294E+03  0.36693082353E+02 -0.35519987245E+03  0.38598444206E+03  0.89836409830E+02 0.  0.
          5    1    3    3  502    0  0.14910143665E+02  0.20552348643E+01  0.10884240082E+02  0.19038788213E+02  0.41800000000E+01 0.  1.
         -5    1    3    3    0  502 -0.13066884661E+03 -0.38748317217E+02 -0.16135515926E+03  0.21125515231E+03  0.41800000000E+01 0.  1.
        -11    1    4    4    0    0  0.82410805099E+02  0.66561713621E+02 -0.23733101513E+03  0.25990000627E+03  0.00000000000E+00 0.  1.
         11    1    4    4    0    0  0.33347897841E+02 -0.29868631268E+02 -0.11786885731E+03  0.12608443579E+03  0.00000000000E+00 0. -1.
</event>
<event>
 8    1  0.6505836E-009  0.1045244E+03  0.7561462E-02  0.1271060E+00
          2   -1    0    0  501    0  0.00000000000E+00  0.00000000000E+00  0.10528765496E+04  0.10528765496E+04  0.00000000000E+00 0. -1.
         -2   -1    0    0    0  501 -0.00000000000E+00 -0.00000000000E+00 -0.14730543718E+02  0.14730543718E+02  0.00000000000E+00 0.  1.
         25    2    1    2    0    0  0.47328700659E+02 -0.36387201608E+02  0.63407122805E+03  0.64904459445E+03  0.12509408058E+03 0.  0.
         23    2    1    2    0    0 -0.47328700659E+02  0.36387201608E+02  0.40407477786E+03  0.41856249890E+03  0.91400793398E+02 0.  0.
          5    1    3    3  502    0 -0.22021324714E+02 -0.15832847031E+02  0.30056264345E+02  0.40699744639E+02  0.41800000000E+01 0.  1.
         -5    1    3    3    0  502  0.69350025373E+02 -0.20554354576E+02  0.60401496371E+03  0.60834484981E+03  0.41800000000E+01 0.  1.
        -11    1    4    4    0    0  0.27736925791E+02  0.12050037016E+02  0.10871142455E+03  0.11283932945E+03  0.00000000000E+00 0. -1.
         11    1    4    4    0    0 -0.75065626451E+02  0.24337164591E+02  0.29536335332E+03  0.30572316945E+03  0.00000000000E+00 0.  1.
</event>
<event>
 8    1  0.6505836E-009  0.1021134E+03  0.7561462E-02  0.1275914E+00
          2   -1    0    0  501    0  0.00000000000E+00  0.00000000000E+00  0.14333523343E+04  0.14333523343E+04  0.00000000000E+00 0. -1.
         -2   -1    0    0    0  501 -0.00000000000E+00 -0.00000000000E+00 -0.13267530690E+02  0.13267530690E+02  0.00000000000E+00 0.  1.
         25    2    1    2    0    0  0.39006463310E+02 -0.51631966902E+02  0.10620632495E+04  0.10713562773E+04  0.12505423941E+03 0.  0.
         23    2    1    2    0    0 -0.39006463310E+02  0.51631966902E+02  0.35802155412E+03  0.37526358770E+03  0.91956309466E+02 0.  0.
          5    1    3    3  502    0  0.52136532530E+02 -0.62314820207E+02  0.36007362701E+03  0.36915016471E+03  0.41800000000E+01 0.  1.
         -5    1    3    3    0  502 -0.13130069219E+02  0.10682853304E+02  0.70198962245E+03  0.70220611255E+03  0.41800000000E+01 0.  1.
        -11    1    4    4    0    0  0.49466967937E+01 -0.20433427091E+02  0.30531224245E+02  0.37069534739E+02  0.00000000000E+00 0. -1.
         11    1    4    4    0    0 -0.43953160104E+02  0.72065393994E+02  0.32749032988E+03  0.33819405296E+03  0.00000000000E+00 0.  1.
</event>
<event>
 8    1  0.6505836E-009  0.1056455E+03  0.7561462E-02  0.1268853E+00
          1   -1    0    0  501    0  0.00000000000E+00  0.00000000000E+00  0.30090279994E+03  0.30090279994E+03  0.00000000000E+00 0. -1.
         -1   -1    0    0    0  501 -0.00000000000E+00 -0.00000000000E+00 -0.42545755519E+02  0.42545755519E+02  0.00000000000E+00 0.  1.
         25    2    1    2    0    0  0.23704520691E+02  0.49693364414E+01  0.18114637050E+03  0.22146890982E+03  0.12509145402E+03 0.  0.
         23    2    1    2    0    0 -0.23704520691E+02 -0.49693364414E+01  0.77210673924E+02  0.12197964564E+03  0.91274022459E+02 0.  0.
          5    1    3    3  502    0  0.20734613175E+02 -0.59277463830E+02  0.87292144356E+02  0.10761567157E+03  0.41800000000E+01 0.  1.
         -5    1    3    3    0  502  0.29699075163E+01  0.64246800271E+02  0.93854226143E+02  0.11385323825E+03  0.41800000000E+01 0.  1.
        -11    1    4    4    0    0  0.24819645696E+02 -0.21296749917E+02  0.59335314955E+02  0.67751354011E+02  0.00000000000E+00 0.  1.
         11    1    4    4    0    0 -0.48524166387E+02  0.16327413475E+02  0.17875358969E+02  0.54228291626E+02  0.00000000000E+00 0. -1.
</event>
<event>
 8    1  0.6505836E-009  0.8182221E+02  0.7561462E-02  0.1323958E+00
          2   -1    0    0  501    0  0.00000000000E+00  0.00000000000E+00  0.38116134432E+03  0.38116134432E+03  0.00000000000E+00 0.  1.
         -2   -1    0    0    0  501 -0.00000000000E+00 -0.00000000000E+00 -0.30996851537E+02  0.30996851537E+02  0.00000000000E+00 0. -1.
         25    2    1    2    0    0  0.26702467012E+02  0.18693945957E+02  0.23835524402E+03  0.27114648742E+03  0.12507881486E+03 0.  0.
         23    2    1    2    0    0 -0.26702467012E+02 -0.18693945957E+02  0.11180924876E+03  0.14101170844E+03  0.79501625449E+02 0.  0.
          5    1    3    3  502    0 -0.23233127937E+02 -0.35256186284E+02  0.15125522313E+03  0.15709357666E+03  0.41800000000E+01 0. -1.
         -5    1    3    3    0  502  0.49935594949E+02  0.53950132241E+02  0.87100020893E+02  0.11405291075E+03  0.41800000000E+01 0. -1.
        -11    1    4    4    0    0 -0.27523453251E+02  0.13174513336E+01  0.13459743509E+00  0.27555294833E+02  0.00000000000E+00 0. -1.
         11    1    4    4    0    0  0.82098623911E+00 -0.20011397291E+02  0.11167465133E+03  0.11345641361E+03  0.00000000000E+00 0.  1.
</event>
<event>
 8    1  0.6505836E-009  0.9336824E+02  0.7561462E-02  0.1294894E+00
          2   -1    0    0  501    0  0.00000000000E+00  0.00000000000E+00  0.11918874729E+03  0.11918874729E+03  0.00000000000E+00 0. -1.
         -2   -1    0    0    0  501 -0.00000000000E+00 -0.00000000000E+00 -0.10838630585E+03  0.10838630585E+03  0.00000000000E+00 0.  1.
         25    2    1    2    0    0 -0.18197846649E+02 -0.24875056255E+02 -0.17207277443E+02  0.12996686877E+03  0.12508143960E+03 0.  0.
         23    2    1    2    0    0  0.18197846649E+02  0.24875056255E+02  0.28009718887E+02  0.97608184369E+02  0.88277308848E+02 0.  0.
          5    1    3    3  502    0 -0.64728504874E+02 -0.53822542712E+01  0.18914661691E+02  0.67778940912E+02  0.41800000000E+01 0. -1.
         -5    1    3    3    0  502  0.46530658225E+02 -0.19492801983E+02 -0.36121939134E+02  0.62187927854E+02  0.41800000000E+01 0. -1.
        -11    1    4    4    0    0 -0.73722855612E+01 -0.18925432932E+02  0.40559374931E+02  0.45360616187E+02  0.00000000000E+00 0. -1.
         11    1    4    4    0    0  0.25570132210E+02  0.43800489186E+02 -0.12549656044E+02  0.52247568183E+02  0.00000000000E+00 0.  1.
</event>
<event>
 8    1  0.6505836E-009  0.1388545E+03  0.7561462E-02  0.1214879E+00
          2   -1    0    0  501    0  0.00000000000E+00  0.00000000000E+00  0.15547641864E+03  0.15547641864E+03  0.00000000000E+00 0. -1.
         -2   -1    0    0    0  501 -0.00000000000E+00 -0.00000000000E+00 -0.16829448539E+03  0.16829448539E+03  0.00000000000E+00 0.  1.
         25    2    1    2    0    0  0.14360124211E+02 -0.10117117916E+03 -0.68045924004E+02  0.17526970980E+03  0.12508957886E+03 0.  0.
         23    2    1    2    0    0 -0.14360124211E+02  0.10117117916E+03  0.55227857255E+02  0.14850119423E+03  0.92523876969E+02 0.  0.
          5    1    3    3  502    0  0.68466461112E+02 -0.69619489651E+02 -0.50912860489E+02  0.11020036933E+03  0.41800000000E+01 0.  1.
         -5    1    3    3    0  502 -0.54106336901E+02 -0.31551689510E+02 -0.17133063514E+02  0.65069340470E+02  0.41800000000E+01 0.  1.
        -11    1    4    4    0    0  0.14111078278E+02  0.22808927361E+01 -0.17420362773E+02  0.22534285899E+02  0.00000000000E+00 0.  1.
         11    1    4    4    0    0 -0.28471202488E+02  0.98890286425E+02  0.72648220027E+02  0.12596690833E+03  0.00000000000E+00 0. -1.
</event>
<event>
 8    1  0.6505836E-009  0.9942336E+02  0.7561462E-02  0.1281513E+00
         -2   -1    0    0    0  501 -0.00000000000E+00  0.00000000000E+00  0.42022493402E+03  0.42022493402E+03  0.00000000000E+00 0.  1.
          2   -1    0    0  501    0  0.00000000000E+00 -0.00000000000E+00 -0.42682915917E+02  0.42682915917E+02  0.00000000000E+00 0. -1.
         25    2    1    2    0    0  0.16079869395E+02 -0.75740714157E+02  0.20798093341E+03  0.25475330643E+03  0.12509180826E+03 0.  0.
         23    2    1    2    0    0 -0.16079869395E+02  0.75740714157E+02  0.16956108469E+03  0.20815454350E+03  0.92639810871E+02 0.  0.
          5    1    3    3  502    0  0.46598657083E+01 -0.53204872302E+02  0.22002622248E+03  0.22645415378E+03  0.41800000000E+01 0. -1.
         -5    1    3    3    0  502  0.11420003686E+02 -0.22535841855E+02 -0.12045289067E+02  0.28299152655E+02  0.41800000000E+01 0. -1.
        -11    1    4    4    0    0 -0.28968050147E+02 -0.11729425055E+02  0.57172521694E+02  0.65156922720E+02  0.00000000000E+00 0.  1.
         11    1    4    4    0    0  0.12888180753E+02  0.87470139212E+02  0.11238856300E+03  0.14299762078E+03  0.00000000000E+00 0. -1.
</event>
<event>
 8    1  0.6505836E-009  0.1537671E+03  0.7561462E-02  0.1195919E+00
          1   -1    0    0  501    0  0.00000000000E+00  0.00000000000E+00  0.18152583419E+04  0.18152583419E+04  0.00000000000E+00 0. -1.
         -1   -1    0    0    0  501 -0.00000000000E+00 -0.00000000000E+00 -0.14346067282E+02  0.14346067282E+02  0.00000000000E+00 0.  1.
         25    2    1    2    0    0  0.10370010421E+03 -0.53570032638E+02  0.10756252887E+04  0.10891468372E+04  0.12509041237E+03 0.  0.
         23    2    1    2    0    0 -0.10370010421E+03  0.53570032638E+02  0.72528698594E+03  0.74045757201E+03  0.92804870368E+02 0.  0.
          5    1    3    3  502    0  0.10465785634E+03 -0.80440836254E+02  0.68756004975E+03  0.70012876633E+03  0.41800000000E+01 0. -1.
         -5    1    3    3    0  502 -0.95775213278E+00  0.26870803616E+02  0.38806523894E+03  0.38901807085E+03  0.41800000000E+01 0. -1.
        -11    1    4    4    0    0 -0.76108436918E+02 -0.12064670647E+02  0.41650839569E+03  0.42357678658E+03  0.00000000000E+00 0.  1.
         11    1    4    4    0    0 -0.27591667289E+02  0.65634703285E+02  0.30877859025E+03  0.31688078543E+03  0.00000000000E+00 0. -1.
</event>
<event>
 8    1  0.6505836E-009  0.1686113E+03  0.7561462E-02  0.1179304E+00
          2   -1    0    0  501    0  0.00000000000E+00  0.00000000000E+00  0.52513309583E+03  0.52513309583E+03  0.00000000000E+00 0. -1.
         -2   -1    0    0    0  501 -0.00000000000E+00 -0.00000000000E+00 -0.70091081919E+02  0.70091081919E+02  0.00000000000E+00 0.  1.
         25    2    1    2    0    0 -0.11917936835E+03  0.99338684188E+02  0.18900801065E+03  0.27466860578E+03  0.12508764484E+03 0.  0.
         23    2    1    2    0    0  0.11917936835E+03 -0.99338684188E+02  0.26603400326E+03  0.32055557198E+03  0.88937550085E+02 0.  0.
          5    1    3    3  502    0 -0.45285184153E+01 -0.15898830693E+01 -0.17013923062E+02  0.18165384256E+02  0.41800000000E+01 0. -1.
         -5    1    3    3    0  502 -0.11465084994E+03  0.10092856726E+03  0.20602193371E+03  0.25650322152E+03  0.41800000000E+01 0. -1.
        -11    1    4    4    0    0  0.28762023596E+02  0.14877233484E+02  0.60687333369E+02  0.68786179636E+02  0.00000000000E+00 0. -1.
         11    1    4    4    0    0  0.90417344757E+02 -0.11421591767E+03  0.20534666990E+03  0.25176939234E+03  0.00000000000E+00 0.  1.
</event>
<event>
 8    1  0.6505836E-009  0.1304146E+03  0.7561462E-02  0.1226842E+00
         -2   -1    0    0    0  501 -0.00000000000E+00  0.00000000000E+00  0.18341006184E+03  0.18341006184E+03  0.00000000000E+00 0.  1.
          2   -1    0    0  501    0  0.00000000000E+00 -0.00000000000E+00 -0.14129822034E+03  0.14129822034E+03  0.00000000000E+00 0. -1.
         25    2    1    2    0    0  0.94230992586E+02 -0.94550727655E+01 -0.49266009312E+02  0.16444905826E+03  0.12508986659E+03 0.  0.
         23    2    1    2    0    0 -0.94230992586E+02  0.94550727655E+01  0.91377850813E+02  0.16025922393E+03  0.91456158190E+02 0.  0.
          5    1    3    3  502    0  0.58333157828E+02  0.52711825394E+02 -0.26977468433E+01  0.78778449316E+02  0.41800000000E+01 0.  1.
         -5    1    3    3    0  502  0.35897834758E+02 -0.62166898160E+02 -0.46568262468E+02  0.85670608942E+02  0.41800000000E+01 0.  1.
        -11    1    4    4    0    0  0.18049723215E+01 -0.11709642546E+02 -0.12495109805E+02  0.17219216668E+02  0.00000000000E+00 0. -1.
         11    1    4    4    0    0 -0.96035964908E+02  0.21164715312E+02  0.10387296062E+03  0.14304000726E+03  0.00000000000E+00 0.  1.
</event>
<event>
 8    1  0.6505836E-009  0.1019287E+03  0.7561462E-02  0.1276292E+00
          3   -1    0    0  501    0  0.00000000000E+00  0.00000000000E+00  0.45902697198E+02  0.45902697198E+02  0.00000000000E+00 0. -1.
         -3   -1    0    0    0  501 -0.00000000000E+00 -0.00000000000E+00 -0.32204583768E+03  0.32204583768E+03  0.00000000000E+00 0.  1.
         25    2    1    2    0    0  0.24598121648E+02  0.47326614822E+02 -0.18908997886E+03  0.23291028235E+03  0.12508918202E+03 0.  0.
         23    2    1    2    0    0 -0.24598121648E+02 -0.47326614822E+02 -0.87053161620E+02  0.13503825253E+03  0.88386654194E+02 0.  0.
          5    1    3    3  502    0 -0.48656140087E+01 -0.28359615064E+02 -0.22797840828E+01  0.29165249557E+02  0.41800000000E+01 0.  1.
         -5    1    3    3    0  502  0.29463735657E+02  0.75686229886E+02 -0.18681019478E+03  0.20374503279E+03  0.41800000000E+01 0.  1.
        -11    1    4    4    0    0 -0.32370983393E+02  0.11321693012E+02 -0.61873291100E+02  0.70741539778E+02  0.00000000000E+00 0. -1.
         11    1    4    4    0    0  0.77728617451E+01 -0.58648307835E+02 -0.25179870520E+02  0.64296712754E+02  0.00000000000E+00 0.  1.
</event>
<event>
 8    1  0.6505836E-009  0.1543176E+03  0.7561462E-02  0.1195266E+00
         -2   -1    0    0    0  501 -0.00000000000E+00  0.00000000000E+00  0.11634268880E+03  0.11634268880E+03  0.00000000000E+00 0.  1.
          2   -1    0    0  501    0  0.00000000000E+00 -0.00000000000E+00 -0.49319237462E+03  0.49319237462E+03  0.00000000000E+00 0. -1.
         25    2    1    2    0    0  0.36167284670E+02  0.11464667452E+03  0.29642402209E+02  0.17600481532E+03  0.12508833098E+03 0.  0.
         23    2    1    2    0    0 -0.36167284670E+02 -0.11464667452E+03 -0.40649208803E+03  0.43353024810E+03  0.90888535693E+02 0.  0.
          5    1    3    3  502    0  0.10724968585E+01 -0.22291360194E+02 -0.15566866419E+02  0.27529161247E+02  0.41800000000E+01 0. -1.
         -5    1    3    3    0  502  0.35094787812E+02  0.13693803471E+03  0.45209268629E+02  0.14847565407E+03  0.41800000000E+01 0. -1.
        -11    1    4    4    0    0  0.79689866051E+01 -0.96426800240E+02 -0.32481920562E+03  0.33892351481E+03  0.00000000000E+00 0. -1.
         11    1    4    4    0    0 -0.44136271276E+02 -0.18219874280E+02 -0.81672882411E+02  0.94606733281E+02  0.00000000000E+00 0.  1.
</event>
<event>
 8    1  0.6505836E-009  0.1674132E+03  0.7561462E-02  0.1180573E+00
         -2   -1    0    0    0  501 -0.00000000000E+00  0.00000000000E+00  0.11322696960E+03  0.11322696960E+03  0.00000000000E+00 0.  1.
          2   -1    0    0  501    0  0.00000000000E+00 -0.00000000000E+00 -0.30109754033E+03  0.30109754033E+03  0.00000000000E+00 0. -1.
         25    2    1    2    0    0  0.13909999194E+03 -0.29415543271E+02 -0.49347312493E+02  0.19569649815E+03  0.12509148730E+03 0.  0.
         23    2    1    2    0    0 -0.13909999194E+03  0.29415543271E+02 -0.13852325823E+03  0.21862801178E+03  0.91626592857E+02 0.  0.
          5    1    3    3  502    0  0.11617198059E+03  0.33661275688E+02 -0.21518339198E+02  0.12292079514E+03  0.41800000000E+01 0.  1.
         -5    1    3    3    0  502  0.22928011350E+02 -0.63076818959E+02 -0.27828973296E+02  0.72775703014E+02  0.41800000000E+01 0.  1.
        -11    1    4    4    0    0 -0.97571187873E+02  0.35538313460E+01 -0.13880459687E+03  0.16970410287E+03  0.00000000000E+00 0.  1.
         11    1    4    4    0    0 -0.41528804072E+02  0.25861711925E+02  0.28133863560E+00  0.48923908907E+02  0.00000000000E+00 0. -1.
</event>
<event>
 8    1  0.6505836E-009  0.9374605E+02  0.7561462E-02  0.1294026E+00
          1   -1    0    0  501    0  0.00000000000E+00  0.00000000000E+00  0.54232803979E+03  0.54232803979E+03  0.00000000000E+00 0. -1.
         -1   -1    0    0    0  501 -0.00000000000E+00 -0.00000000000E+00 -0.33783131144E+02  0.33783131144E+02  0.00000000000E+00 0.  1.
         25    2    1    2    0    0 -0.48114671716E+01  0.69395501323E+02  0.19095465291E+03  0.23863514415E+03  0.12507664346E+03 0.  0.
         23    2    1    2    0    0  0.48114671716E+01 -0.69395501323E+02  0.31759025574E+03  0.33747602678E+03  0.90485425845E+02 0.  0.
          5    1    3    3  502    0  0.42617565290E+02  0.27703899336E+02  0.17378741856E+02  0.53881870588E+02  0.41800000000E+01 0. -1.
         -5    1    3    3    0  502 -0.47429032461E+02  0.41691601987E+02  0.17357591105E+03  0.18475327357E+03  0.41800000000E+01 0. -1.
        -11    1    4    4    0    0  0.11653530154E+02 -0.18600271373E+02  0.75254440217E+01  0.23203602477E+02  0.00000000000E+00 0.  1.
         11    1    4    4    0    0 -0.68420629823E+01 -0.50795229949E+02  0.31006481172E+03  0.31427242430E+03  0.00000000000E+00 0. -1.
</event>
<event>
 8    1  0.6505836E-009  0.1082470E+03  0.7561462E-02  0.1263851E+00
          4   -1    0    0  501    0  0.00000000000E+00  0.00000000000E+00  0.37812278538E+03  0.37812278538E+03  0.00000000000E+00 0. -1.
         -4   -1    0    0    0  501 -0.00000000000E+00 -0.00000000000E+00 -0.32168623704E+02  0.32168623704E+02  0.00000000000E+00 0.  1.
         25    2    1    2    0    0  0.84962815826E+01  0.33947950339E+01  0.20788115228E+03  0.24278971255E+03  0.12509420297E+03 0.  0.
         23    2    1    2    0    0 -0.84962815826E+01 -0.33947950339E+01  0.13807300940E+03  0.16750169653E+03  0.94387239508E+02 0.  0.
          5    1    3    3  502    0  0.43584506385E+02  0.47971515446E+02  0.13923239848E+03  0.15363596153E+03  0.41800000000E+01 0. -1.
         -5    1    3    3    0  502 -0.35088224803E+02 -0.44576720412E+02  0.68648753802E+02  0.89153751020E+02  0.41800000000E+01 0. -1.
        -11    1    4    4    0    0 -0.51068011201E+02  0.48535224367E+01  0.69835905490E+02  0.86651902136E+02  0.00000000000E+00 0.  1.
         11    1    4    4    0    0  0.42571729619E+02 -0.82483174706E+01  0.68237103908E+02  0.80849794394E+02  0.00000000000E+00 0. -1.
</event>
<event>
 8    1  0.6505836E-009  0.1085101E+03  0.7561462E-02  0.1263354E+00
         -1   -1    0    0    0  501 -0.00000000000E+00  0.00000000000E+00  0.14341786221E+02  0.14341786221E+02  0.00000000000E+00 0.  1.
          1   -1    0    0  501    0  0.00000000000E+00 -0.00000000000E+00 -0.10929239953E+04  0.10929239953E+04  0.00000000000E+00 0. -1.
         25    2    1    2    0    0  0.33724818473E+02  0.45999185380E+02 -0.69679181111E+03  0.71022510265E+03  0.12509028726E+03 0.  0.
         23    2    1    2    0    0 -0.33724818473E+02 -0.45999185380E+02 -0.38179039792E+03  0.39704067883E+03  0.92866055476E+02 0.  0.
          5    1    3    3  502    0 -0.95472404745E+01 -0.25727846630E+02 -0.42215036575E+03  0.42306202334E+03  0.41800000000E+01 0.  1.
         -5    1    3    3    0  502  0.43272058947E+02  0.71727032010E+02 -0.27464144536E+03  0.28716307931E+03  0.41800000000E+01 0.  1.
        -11    1    4    4    0    0  0.13555206690E+01  0.25611137231E+02 -0.14317006944E+03  0.14544908583E+03  0.00000000000E+00 0. -1.
         11    1    4    4    0    0 -0.35080339142E+02 -0.71610322611E+02 -0.23862032849E+03  0.25159159300E+03  0.00000000000E+00 0.  1.
</event>
<event>
 8    1  0.6505836E-009  0.9537631E+02  0.7561462E-02  0.1290331E+00
          2   -1    0    0  501    0  0.00000000000E+00  0.00000000000E+00  0.72705079199E+03  0.72705079199E+03  0.00000000000E+00 0. -1.
         -2   -1    0    0    0  501 -0.00000000000E+00 -0.00000000000E+00 -0.18668370331E+02  0.18668370331E+02  0.00000000000E+00 0.  1.
         25    2    1    2    0    0  0.22853903351E+02  0.13999617349E+02  0.49648241834E+03  0.51269915163E+03  0.12508932078E+03 0.  0.
         23    2    1    2    0    0 -0.22853903351E+02 -0.13999617349E+02  0.21190000332E+03  0.23302001070E+03  0.93158058123E+02 0.  0.
          5    1    3    3  502    0  0.56246015490E+02 -0.22494789975E+01  0.10305580930E+03  0.11750168784E+03  0.41800000000E+01 0.  1.
         -5    1    3    3    0  502 -0.33392112139E+02  0.16249096347E+02  0.39342660904E+03  0.39519746379E+03  0.41800000000E+01 0.  1.
        -11    1    4    4    0    0 -0.58964183909E+02 -0.14889686696E+02  0.13266442844E+03  0.14593946802E+03  0.00000000000E+00 0. -1.
         11    1    4    4    0    0  0.36110280558E+02  0.89006934630E+00  0.79235574883E+02  0.87080542675E+02  0.00000000000E+00 0.  1.
</event>
<event>
 8    1  0.6505836E-009  0.2027752E+03  0.7561462E-02  0.1147418E+00
         -2   -1    0    0    0  501 -0.00000000000E+00  0.00000000000E+00  0.76424401672E+02  0.76424401672E+02  0.00000000000E+00 0. -1.
          2   -1    0    0  501    0  0.00000000000E+00 -0.00000000000E+00 -0.59591952977E+03  0.59591952977E+03  0.00000000000E+00 0.  1.
         25    2    1    2    0    0 -0.16803813971E+03  0.52913266170E+02 -0.18949485928E+03  0.28738920013E+03  0.12509044936E+03 0.  0.
         23    2    1    2    0    0  0.16803813971E+03 -0.52913266170E+02 -0.33000026881E+03  0.38495473131E+03  0.90847881710E+02 0.  0.
          5    1    3    3  502    0 -0.28657259237E+02  0.62997949764E+02 -0.30727552220E+02  0.75839534854E+02  0.41800000000E+01 0. -1.
         -5    1    3    3    0  502 -0.13938088047E+03 -0.10084683594E+02 -0.15876730707E+03  0.21154966527E+03  0.41800000000E+01 0. -1.
        -11    1    4    4    0    0  0.74542502315E+02 -0.68955189263E+02 -0.19644980542E+03  0.22114232708E+03  0.00000000000E+00 0.  1.
         11    1    4    4    0    0  0.93495637393E+02  0.16041923092E+02 -0.13355046340E+03  0.16381240424E+03  0.00000000000E+00 0. -1.
</event>
<event>
 8    1  0.6505836E-009  0.1536717E+03  0.7561462E-02  0.1196032E+00
         -1   -1    0    0    0  501 -0.00000000000E+00  0.00000000000E+00  0.88779384197E+02  0.88779384197E+02  0.00000000000E+00 0.  1.
          1   -1    0    0  501    0  0.00000000000E+00 -0.00000000000E+00 -0.31275512707E+03  0.31275512707E+03  0.00000000000E+00 0. -1.
         25    2    1    2    0    0 -0.12231640595E+03 -0.52252533163E+01 -0.81450079075E+02  0.19305512446E+03  0.12509020449E+03 0.  0.
         23    2    1    2    0    0  0.12231640595E+03  0.52252533163E+01 -0.14252566380E+03  0.20847938681E+03  0.90340928966E+02 0.  0.
          5    1    3    3  502    0 -0.13192092164E+03 -0.33089043623E+02 -0.39634818529E+02  0.14172651697E+03  0.41800000000E+01 0.  1.
         -5    1    3    3    0  502  0.96045156832E+01  0.27863790307E+02 -0.41815260546E+02  0.51328607484E+02  0.41800000000E+01 0.  1.
        -11    1    4    4    0    0  0.12401609426E+02  0.26765104849E+02 -0.31363282498E+01  0.29664917138E+02  0.00000000000E+00 0. -1.
         11    1    4    4    0    0  0.10991479653E+03 -0.21539851532E+02 -0.13938933555E+03  0.17881446967E+03  0.00000000000E+00 0.  1.
</event>
<event>
 8    1  0.6505836E-009  0.1598291E+03  0.7561462E-02  0.1188890E+00
         -2   -1    0    0    0  501 -0.00000000000E+00  0.00000000000E+00  0.16359967268E+02  0.16359967268E+02  0.00000000000E+00 0.  1.
          2   -1    0    0  501    0  0.00000000000E+00 -0.00000000000E+00 -0.29015248925E+04  0.29015248925E+04  0.00000000000E+00 0. -1.
         25    2    1    2    0    0 -0.46164146077E+02  0.14557429867E+03 -0.22517762358E+04  0.22604128196E+04  0.12508754610E+03 0.  0.
         23    2    1    2    0    0  0.46164146077E+02 -0.14557429867E+03 -0.63338868944E+03  0.65747204015E+03  0.88120638084E+02 0.  0.
          5    1    3    3  502    0  0.15372760259E+02  0.44505518819E+02 -0.13586890281E+04  0.13595110924E+04  0.41800000000E+01 0.  1.
         -5    1    3    3    0  502 -0.61536906337E+02  0.10106877985E+03 -0.89308720770E+03  0.90090172719E+03  0.41800000000E+01 0.  1.
        -11    1    4    4    0    0  0.19325713151E+02 -0.32882028009E+02 -0.51059710670E+02  0.63732291725E+02  0.00000000000E+00 0.  1.
         11    1    4    4    0    0  0.26838432926E+02 -0.11269227066E+03 -0.58232897877E+03  0.59373974842E+03  0.00000000000E+00 0. -1.
</event>
<event>
 8    1  0.6505836E-009  0.9592504E+02  0.7561462E-02  0.1289106E+00
         -1   -1    0    0    0  501 -0.00000000000E+00  0.00000000000E+00  0.98459482799E+02  0.98459482799E+02  0.00000000000E+00 0.  1.
          1   -1    0    0  501    0  0.00000000000E+00 -0.00000000000E+00 -0.15049273633E+03  0.15049273633E+03  0.00000000000E+00 0. -1.
         25    2    1    2    0    0 -0.10834865028E+02 -0.23444325928E+02  0.20879412168E+02  0.12942464489E+03  0.12509099941E+03 0.  0.
         23    2    1    2    0    0  0.10834865028E+02  0.23444325928E+02 -0.72912665699E+02  0.11952757424E+03  0.91123835883E+02 0.  0.
          5    1    3    3  502    0 -0.67653513092E+02 -0.18958892475E+02  0.15091807492E+02  0.71983834928E+02  0.41800000000E+01 0. -1.
         -5    1    3    3    0  502  0.56818648064E+02 -0.44854334530E+01  0.57876046759E+01  0.57440809961E+02  0.41800000000E+01 0. -1.
        -11    1    4    4    0    0  0.16243215744E+02  0.41977921869E+02 -0.85399188979E+02  0.96535016758E+02  0.00000000000E+00 0. -1.
         11    1    4    4    0    0 -0.54083507163E+01 -0.18533595941E+02  0.12486523280E+02  0.22992557482E+02  0.00000000000E+00 0.  1.
</event>
<event>
 8    1  0.6505836E-009  0.1099382E+03  0.7561462E-02  0.1260684E+00
          2   -1    0    0  501    0  0.00000000000E+00  0.00000000000E+00  0.11397495645E+04  0.11397495645E+04  0.00000000000E+00 0.  1.
         -2   -1    0    0    0  501 -0.00000000000E+00 -0.00000000000E+00 -0.13850640451E+02  0.13850640451E+02  0.00000000000E+00 0. -1.
         25    2    1    2    0    0  0.36282839321E+02  0.12567708818E+02  0.85990458387E+03  0.86980443143E+03  0.12509781712E+03 0.  0.
         23    2    1    2    0    0 -0.36282839321E+02 -0.12567708818E+02  0.26599434017E+03  0.28379577351E+03  0.91173791870E+02 0.  0.
          5    1    3    3  502    0 -0.37551908970E+02  0.36021156431E+02  0.29273842375E+03  0.29735656495E+03  0.41800000000E+01 0. -1.
         -5    1    3    3    0  502  0.73834748291E+02 -0.23453447612E+02  0.56716616012E+03  0.57244786648E+03  0.41800000000E+01 0. -1.
        -11    1    4    4    0    0 -0.35132173874E+02  0.30791626240E+02  0.78493931546E+02  0.91343807547E+02  0.00000000000E+00 0. -1.
         11    1    4    4    0    0 -0.11506654464E+01 -0.43359335059E+02  0.18750040862E+03  0.19245196596E+03  0.00000000000E+00 0.  1.
</event>
<event>
 8    1  0.6505836E-009  0.9034280E+02  0.7561462E-02  0.1302024E+00
         -2   -1    0    0    0  501 -0.00000000000E+00  0.00000000000E+00  0.71778352219E+02  0.71778352219E+02  0.00000000000E+00 0.  1.
          2   -1    0    0  501    0  0.00000000000E+00 -0.00000000000E+00 -0.34787047580E+03  0.34787047580E+03  0.00000000000E+00 0. -1.
         25    2    1    2    0    0  0.53724415039E+02  0.13656801549E+02 -0.27775074612E+03  0.30962011178E+03  0.12508523352E+03 0.  0.
         23    2    1    2    0    0 -0.53724415039E+02 -0.13656801549E+02  0.16586225381E+01  0.11002871625E+03  0.95030239243E+02 0.  0.
          5    1    3    3  502    0 -0.22512270557E+00  0.16482891473E+02  0.79882944719E+01  0.18788870112E+02  0.41800000000E+01 0.  1.
         -5    1    3    3    0  502  0.53949537745E+02 -0.28260899232E+01 -0.28573904059E+03  0.29083124166E+03  0.41800000000E+01 0.  1.
        -11    1    4    4    0    0 -0.24407875451E+02 -0.54211672675E+02 -0.44319464896E+01  0.59617883122E+02  0.00000000000E+00 0. -1.
         11    1    4    4    0    0 -0.29316539588E+02  0.40554871125E+02  0.60905690277E+01  0.50410833126E+02  0.00000000000E+00 0.  1.
</event>
<event>
 8    1  0.6505836E-009  0.1171671E+03  0.7561462E-02  0.1247845E+00
         -2   -1    0    0    0  501 -0.00000000000E+00  0.00000000000E+00  0.98906497599E+01  0.98906497599E+01  0.00000000000E+00 0. -1.
          2   -1    0    0  501    0  0.00000000000E+00 -0.00000000000E+00 -0.15977234483E+04  0.15977234483E+04  0.00000000000E+00 0.  1.
         25    2    1    2    0    0 -0.19387774987E+02  0.41676359919E+02 -0.11624920408E+04  0.11701057086E+04  0.12508724839E+03 0.  0.
         23    2    1    2    0    0  0.19387774987E+02 -0.41676359919E+02 -0.42534075777E+03  0.43750838943E+03  0.91575246710E+02 0.  0.
          5    1    3    3  502    0  0.35354139861E+02  0.64600472827E+02 -0.65047164091E+03  0.65464033204E+03  0.41800000000E+01 0.  1.
         -5    1    3    3    0  502 -0.54741914849E+02 -0.22924112908E+02 -0.51202039986E+03  0.51546537659E+03  0.41800000000E+01 0.  1.
        -11    1    4    4    0    0 -0.27289036811E+02  0.12116367763E+02 -0.16077741516E+03  0.16352637439E+03  0.00000000000E+00 0.  1.
         11    1    4    4    0    0  0.46676811798E+02 -0.53792727682E+02 -0.26456334261E+03  0.27398201504E+03  0.00000000000E+00 0. -1.
</event>
<event>
 8    1  0.6505836E-009  0.1640679E+03  0.7561462E-02  0.1184179E+00
         -2   -1    0    0    0  501 -0.00000000000E+00  0.00000000000E+00  0.63925280732E+02  0.63925280732E+02  0.00000000000E+00 0.  1.
          2   -1    0    0  501    0  0.00000000000E+00 -0.00000000000E+00 -0.50524013234E+03  0.50524013234E+03  0.00000000000E+00 0. -1.
         25    2    1    2    0    0 -0.11963667034E+03  0.72215594600E+02 -0.28355295705E+03  0.33996731478E+03  0.12508985042E+03 0.  0.
         23    2    1    2    0    0  0.11963667034E+03 -0.72215594600E+02 -0.15776189456E+03  0.22919809828E+03  0.90082894549E+02 0.  0.
          5    1    3    3  502    0  0.25706163624E+02  0.41033681436E+01 -0.50318496860E+02  0.56807288306E+02  0.41800000000E+01 0. -1.
         -5    1    3    3    0  502 -0.14534283396E+03  0.68112226456E+02 -0.23323446019E+03  0.28316002648E+03  0.41800000000E+01 0. -1.
        -11    1    4    4    0    0  0.61111972013E+02 -0.48658466034E+02 -0.24685600702E+02  0.81924955429E+02  0.00000000000E+00 0.  1.
         11    1    4    4    0    0  0.58524698323E+02 -0.23557128566E+02 -0.13307629386E+03  0.14727314285E+03  0.00000000000E+00 0. -1.
</event>
<event>
 8    1  0.6505836E-009  0.2807246E+03  0.7561462E-02  0.1095294E+00
         -4   -1    0    0    0  501 -0.00000000000E+00  0.00000000000E+00  0.39878231796E+03  0.39878231796E+03  0.00000000000E+00 0.  1.
          4   -1    0    0  501    0  0.00000000000E+00 -0.00000000000E+00 -0.25656775779E+03  0.25656775779E+03  0.00000000000E+00 0. -1.
         25    2    1    2    0    0  0.26017811259E+03 -0.71389763095E+02 -0.62831745822E+02  0.30394746838E+03  0.12508831563E+03 0.  0.
         23    2    1    2    0    0 -0.26017811259E+03  0.71389763095E+02  0.20504630599E+03  0.35140260738E+03  0.93008904563E+02 0.  0.
          5    1    3    3  502    0  0.91120026849E+02  0.16299229317E+02 -0.65436592087E+02  0.11343696114E+03  0.41800000000E+01 0.  1.
         -5    1    3    3    0  502  0.16905808574E+03 -0.87688992412E+02  0.26048462649E+01  0.19051050724E+03  0.41800000000E+01 0.  1.
        -11    1    4    4    0    0 -0.11892387261E+03 -0.23611130175E+01  0.12687362894E+03  0.17391198938E+03  0.00000000000E+00 0.  1.
         11    1    4    4    0    0 -0.14125423997E+03  0.73750876113E+02  0.78172677050E+02  0.17749061799E+03  0.00000000000E+00 0. -1.
</event>
<event>
 8    1  0.6505836E-009  0.1144469E+03  0.7561462E-02  0.1252550E+00
         -2   -1    0    0    0  501 -0.00000000000E+00  0.00000000000E+00  0.13585229519E+03  0.13585229519E+03  0.00000000000E+00 0.  1.
          2   -1    0    0  501    0  0.00000000000E+00 -0.00000000000E+00 -0.11965698698E+03  0.11965698698E+03  0.00000000000E+00 0. -1.
         25    2    1    2    0    0 -0.31459669262E+02 -0.53128161930E+02  0.24820409612E+02  0.14168827170E+03  0.12508877337E+03 0.  0.
         23    2    1    2    0    0  0.31459669262E+02  0.53128161930E+02 -0.86251014036E+01  0.11382101047E+03  0.95228764934E+02 0.  0.
          5    1    3    3  502    0 -0.67250246233E+02  0.59414852764E+01  0.26050357777E+02  0.72484414918E+02  0.41800000000E+01 0. -1.
         -5    1    3    3    0  502  0.35790576971E+02 -0.59069647206E+02 -0.12299481655E+01  0.69203856782E+02  0.41800000000E+01 0. -1.
        -11    1    4    4    0    0  0.89080552170E+01  0.65658760675E+02 -0.36656834992E+02  0.75724169542E+02  0.00000000000E+00 0. -1.
         11    1    4    4    0    0  0.22551614045E+02 -0.12530598745E+02  0.28031733589E+02  0.38096840932E+02  0.00000000000E+00 0.  1.
</event>
<event>
 8    1  0.6505836E-009  0.1587589E+03  0.7561462E-02  0.1190105E+00
          1   -1    0    0  501    0  0.00000000000E+00  0.00000000000E+00  0.64596080419E+03  0.64596080419E+03  0.00000000000E+00 0. -1.
         -1   -1    0    0    0  501 -0.00000000000E+00 -0.00000000000E+00 -0.45635217269E+02  0.45635217269E+02  0.00000000000E+00 0.  1.
         25    2    1    2    0    0 -0.12474503808E+03 -0.43260248917E+02  0.29001533888E+03  0.34232660784E+03  0.12508331617E+03 0.  0.
         23    2    1    2    0    0  0.12474503808E+03  0.43260248917E+02  0.31031024803E+03  0.34926941362E+03  0.90905993162E+02 0.  0.
          5    1    3    3  502    0 -0.11397815808E+03  0.10201642096E+02  0.24865014853E+03  0.27375073112E+03  0.41800000000E+01 0.  1.
         -5    1    3    3    0  502 -0.10766879999E+02 -0.53461891012E+02  0.41365190349E+02  0.68575876721E+02  0.41800000000E+01 0.  1.
        -11    1    4    4    0    0  0.47866717767E+02  0.52307693111E+02  0.21554219991E+03  0.22690473193E+03  0.00000000000E+00 0.  1.
         11    1    4    4    0    0  0.76878320311E+02 -0.90474441943E+01  0.94768048122E+02  0.12236468169E+03  0.00000000000E+00 0. -1.
</event>
<event>
 8    1  0.6505836E-009  0.1179731E+03  0.7561462E-02  0.1246479E+00
          1   -1    0    0  501    0  0.00000000000E+00  0.00000000000E+00  0.96658377718E+03  0.96658377718E+03  0.00000000000E+00 0. -1.
         -1   -1    0    0    0  501 -0.00000000000E+00 -0.00000000000E+00 -0.15995906604E+02  0.15995906604E+02  0.00000000000E+00 0.  1.
         25    2    1    2    0    0  0.50292235199E+02  0.67389223691E+00  0.66325804251E+03  0.67682281889E+03  0.12509250244E+03 0.  0.
         23    2    1    2    0    0 -0.50292235199E+02 -0.67389223691E+00  0.28732982806E+03  0.30575686489E+03  0.91646425356E+02 0.  0.
          5    1    3    3  502    0  0.62606997627E+01 -0.58052914771E+02  0.36332669937E+03  0.36801236413E+03  0.41800000000E+01 0. -1.
         -5    1    3    3    0  502  0.44031535436E+02  0.58726807008E+02  0.29993134314E+03  0.30881045477E+03  0.41800000000E+01 0. -1.
        -11    1    4    4    0    0 -0.19452597416E+02  0.44858371510E+02  0.15236928073E+03  0.16002210707E+03  0.00000000000E+00 0.  1.
         11    1    4    4    0    0 -0.30839637783E+02 -0.45532263747E+02  0.13496054733E+03  0.14573475781E+03  0.00000000000E+00 0. -1.
</event>
<event>
 8    1  0.6505836E-009  0.1736696E+03  0.7561462E-02  0.1174074E+00
          2   -1    0    0  501    0  0.00000000000E+00  0.00000000000E+00  0.22339591873E+04  0.22339591873E+04  0.00000000000E+00 0. -1.
         -2   -1    0    0    0  501 -0.00000000000E+00 -0.00000000000E+00 -0.26866464083E+02  0.26866464083E+02  0.00000000000E+00 0.  1.
         25    2    1    2    0    0  0.88839801270E+02  0.10757417818E+03  0.19141321265E+04  0.19232821162E+04  0.12509031382E+03 0.  0.
         23    2    1    2    0    0 -0.88839801270E+02 -0.10757417818E+03  0.29296059669E+03  0.33754353518E+03  0.92978561113E+02 0.  0.
          5    1    3    3  502    0  0.11961387223E+03  0.75784927069E+02  0.13543768673E+04  0.13617654000E+04  0.41800000000E+01 0. -1.
         -5    1    3    3    0  502 -0.30774070956E+02  0.31789251110E+02  0.55975525923E+03  0.56151671619E+03  0.41800000000E+01 0. -1.
        -11    1    4    4    0    0 -0.80526031934E+01 -0.72862363629E+02  0.18029079740E+03  0.19462409943E+03  0.00000000000E+00 0. -1.
         11    1    4    4    0    0 -0.80787198077E+02 -0.34711814550E+02  0.11266979929E+03  0.14291943575E+03  0.00000000000E+00 0.  1.
</event>
<event>
 8    1  0.6505836E-009  0.1192762E+03  0.7561462E-02  0.1244296E+00
         -1   -1    0    0    0  501 -0.00000000000E+00  0.00000000000E+00  0.20777955069E+02  0.20777955069E+02  0.00000000000E+00 0.  1.
          1   -1    0    0  501    0  0.00000000000E+00 -0.00000000000E+00 -0.77807225950E+03  0.77807225950E+03  0.00000000000E+00 0. -1.
         25    2    1    2    0    0  0.36822986417E+02  0.53989304871E+02 -0.44591761473E+03  0.46771915426E+03  0.12509160949E+03 0.  0.
         23    2    1    2    0    0 -0.36822986417E+02 -0.53989304871E+02 -0.31137668970E+03  0.33113106031E+03  0.91769051666E+02 0.  0.
          5    1    3    3  502    0  0.45511799343E+02 -0.25520426039E+02 -0.26106720889E+03  0.26626335832E+03  0.41800000000E+01 0. -1.
         -5    1    3    3    0  502 -0.86888129258E+01  0.79509730910E+02 -0.18485040584E+03  0.20145579594E+03  0.41800000000E+01 0. -1.
        -11    1    4    4    0    0 -0.62799356465E+02 -0.49021227137E+02 -0.17594324634E+03  0.19313949833E+03  0.00000000000E+00 0.  1.
         11    1    4    4    0    0  0.25976370048E+02 -0.49680777342E+01 -0.13543344336E+03  0.13799156198E+03  0.00000000000E+00 0. -1.
</event>
<event>
 8    1  0.6505836E-009  0.1283860E+03  0.7561462E-02  0.1229870E+00
         -1   -1    0    0    0  501 -0.00000000000E+00  0.00000000000E+00  0.48992915924E+02  0.48992915924E+02  0.00000000000E+00 0.  1.
          1   -1    0    0  501    0  0.00000000000E+00 -0.00000000000E+00 -0.34536106233E+03  0.34536106233E+03  0.00000000000E+00 0. -1.
         25    2    1    2    0    0  0.93075992767E+01 -0.71249766074E+02 -0.15626244751E+03  0.21267016253E+03  0.12508990751E+03 0.  0.
         23    2    1    2    0    0 -0.93075992767E+01  0.71249766074E+02 -0.14010569890E+03  0.18168381573E+03  0.90643485491E+02 0.  0.
          5    1    3    3  502    0 -0.33839207271E+02 -0.89983993047E+02 -0.93953452375E+02  0.13448767440E+03  0.41800000000E+01 0.  1.
         -5    1    3    3    0  502  0.43146806547E+02  0.18734226973E+02 -0.62308995131E+02  0.78182488127E+02  0.41800000000E+01 0.  1.
        -11    1    4    4    0    0  0.38074544497E+02  0.18228439531E+02 -0.70543358031E+02  0.82208955161E+02  0.00000000000E+00 0. -1.
         11    1    4    4    0    0 -0.47382143774E+02  0.53021326543E+02 -0.69562340871E+02  0.99474860565E+02  0.00000000000E+00 0.  1.
</event>
<event>
 8    1  0.6505836E-009  0.1721181E+03  0.7561462E-02  0.1175657E+00
         -2   -1    0    0    0  501 -0.00000000000E+00  0.00000000000E+00  0.23664518062E+02  0.23664518062E+02  0.00000000000E+00 0.  1.
          2   -1    0    0  501    0  0.00000000000E+00 -0.00000000000E+00 -0.13945289337E+04  0.13945289337E+04  0.00000000000E+00 0. -1.
         25    2    1    2    0    0  0.13572542781E+03  0.42409670775E+02 -0.82945726419E+03  0.85080351017E+03  0.12508911975E+03 0.  0.
         23    2    1    2    0    0 -0.13572542781E+03 -0.42409670775E+02 -0.54140715142E+03  0.56738994156E+03  0.92680473904E+02 0.  0.
          5    1    3    3  502    0  0.12532427464E+03  0.70810204670E+02 -0.51154107647E+03  0.53142450472E+03  0.41800000000E+01 0.  1.
         -5    1    3    3    0  502  0.10401153172E+02 -0.28400533895E+02 -0.31791618772E+03  0.31937900545E+03  0.41800000000E+01 0.  1.
        -11    1    4    4    0    0 -0.94803764091E+01  0.24890023598E+02 -0.89335877370E+02  0.93221723847E+02  0.00000000000E+00 0. -1.
         11    1    4    4    0    0 -0.12624505140E+03 -0.67299694373E+02 -0.45207127405E+03  0.47416821772E+03  0.00000000000E+00 0.  1.
</event>
<event>
 8    1  0.6505836E-009  0.9218901E+02  0.7561462E-02  0.1297636E+00
         -1   -1    0    0    0  501 -0.00000000000E+00  0.00000000000E+00  0.16160022680E+02  0.16160022680E+02  0.00000000000E+00 0.  1.
          1   -1    0    0  501    0  0.00000000000E+00 -0.00000000000E+00 -0.10931666099E+04  0.10931666099E+04  0.00000000000E+00 0. -1.
         25    2    1    2    0    0  0.81952075034E+01  0.23664480584E+02 -0.88959446632E+03  0.89869658822E+03  0.12510025615E+03 0.  0.
         23    2    1    2    0    0 -0.81952075034E+01 -0.23664480584E+02 -0.18741212088E+03  0.21063004435E+03  0.92814564921E+02 0.  0.
          5    1    3    3  502    0 -0.33307728970E+02  0.43149284017E+02 -0.74378214154E+03  0.74578858398E+03  0.41800000000E+01 0.  1.
         -5    1    3    3    0  502  0.41502936474E+02 -0.19484803433E+02 -0.14581232479E+03  0.15290800424E+03  0.41800000000E+01 0.  1.
        -11    1    4    4    0    0 -0.38666223421E+02 -0.34004609446E+02 -0.16089603306E+03  0.16893467303E+03  0.00000000000E+00 0.  1.
         11    1    4    4    0    0  0.30471015917E+02  0.10340128862E+02 -0.26516087817E+02  0.41695371314E+02  0.00000000000E+00 0. -1.
</event>
<event>
 8    1  0.6505836E-009  0.1115280E+03  0.7561462E-02  0.1257766E+00
         -2   -1    0    0    0  501 -0.00000000000E+00  0.00000000000E+00  0.16789181645E+03  0.16789181645E+03  0.00000000000E+00 0. -1.
          2   -1    0    0  501    0  0.00000000000E+00 -0.00000000000E+00 -0.79459537230E+02  0.79459537230E+02  0.00000000000E+00 0.  1.
         25    2    1    2    0    0 -0.20596665536E+02  0.31476163559E+02  0.66256850619E+02  0.14646084203E+03  0.12508331820E+03 0.  0.
         23    2    1    2    0    0  0.20596665536E+02 -0.31476163559E+02  0.22175428602E+02  0.10089051165E+03  0.90951493683E+02 0.  0.
          5    1    3    3  502    0 -0.51871627216E+01  0.77595103911E+02  0.57666266790E+02  0.96906024238E+02  0.41800000000E+01 0. -1.
         -5    1    3    3    0  502 -0.15409502815E+02 -0.46118940352E+02  0.85905838290E+01  0.49554817795E+02  0.41800000000E+01 0. -1.
        -11    1    4    4    0    0  0.29792794769E+02  0.25158583698E+02  0.19127756835E+02  0.43433121409E+02  0.00000000000E+00 0. -1.
         11    1    4    4    0    0 -0.91961292327E+01 -0.56634747257E+02  0.30476717667E+01  0.57457390238E+02  0.00000000000E+00 0.  1.
</event>
<event>
 8    1  0.6505836E-009  0.1030228E+03  0.7561462E-02  0.1274065E+00
          2   -1    0    0  501    0  0.00000000000E+00  0.00000000000E+00  0.17524405788E+03  0.17524405788E+03  0.00000000000E+00 0. -1.
         -2   -1    0    0    0  501 -0.00000000000E+00 -0.00000000000E+00 -0.87634485127E+02  0.87634485127E+02  0.00000000000E+00 0.  1.
         25    2    1    2    0    0  0.23467499508E+02 -0.25997213243E+02  0.10110683880E+03  0.16461080026E+03  0.12509014381E+03 0.  0.
         23    2    1    2    0    0 -0.23467499508E+02  0.25997213243E+02 -0.13497266055E+02  0.98267742745E+02  0.90817368623E+02 0.  0.
          5    1    3    3  502    0 -0.44058187228E+02  0.84429339347E+01  0.10237991932E+02  0.46202769117E+02  0.41800000000E+01 0. -1.
         -5    1    3    3    0  502  0.67525686736E+02 -0.34440147178E+02  0.90868846873E+02  0.11840803114E+03  0.41800000000E+01 0. -1.
        -11    1    4    4    0    0 -0.51630490768E+02  0.23724586856E+02 -0.31301217684E+02  0.64871641161E+02  0.00000000000E+00 0.  1.
         11    1    4    4    0    0  0.28162991260E+02  0.22726263875E+01  0.17803951629E+02  0.33396101584E+02  0.00000000000E+00 0. -1.
</event>
<event>
 7    1  0.6505836E-009  0.1026589E+03  0.7561462E-02  0.1274802E+00
          2   -1    0    0  501    0  0.00000000000E+00  0.00000000000E+00  0.38160322347E+03  0.38160322347E+03  0.00000000000E+00 0. -1.
         -2   -1    0    0    0  501 -0.00000000000E+00 -0.00000000000E+00 -0.47817216678E+02  0.47817216678E+02  0.00000000000E+00 0.  1.
         23    2    1    2    0    0  0.29618329211E+01  0.17975880787E+02  0.27399853018E+03  0.28975244901E+03  0.92462870497E+02 0.  0.
          5    1    1    2  502    0  0.33210357251E+02 -0.51607416461E+02 -0.63493176176E+00  0.61515272908E+02  0.41800000000E+01 0. -1.
         -5    1    1    2    0  502 -0.36172190172E+02  0.33631535674E+02  0.60422408379E+02  0.78152718238E+02  0.41800000000E+01 0. -1.
        -11    1    3    3    0    0  0.22538082054E+02 -0.32812452785E+02  0.11465409009E+03  0.12136796355E+03  0.00000000000E+00 0.  1.
         11    1    3    3    0    0 -0.19576249133E+02  0.50788333572E+02  0.15934444008E+03  0.16838448546E+03  0.00000000000E+00 0. -1.
</event>
<event>
 8    1  0.6505836E-009  0.1150557E+03  0.7561462E-02  0.1251484E+00
         -2   -1    0    0    0  501 -0.00000000000E+00  0.00000000000E+00  0.36614918518E+02  0.36614918518E+02  0.00000000000E+00 0.  1.
          2   -1    0    0  501    0  0.00000000000E+00 -0.00000000000E+00 -0.36343437159E+03  0.36343437159E+03  0.00000000000E+00 0. -1.
         25    2    1    2    0    0  0.97460301280E+01  0.39143285511E+02 -0.17585989524E+03  0.21952936177E+03  0.12505701109E+03 0.  0.
         23    2    1    2    0    0 -0.97460301280E+01 -0.39143285511E+02 -0.15095955783E+03  0.18051992834E+03  0.90396208560E+02 0.  0.
          5    1    3    3  502    0 -0.56647886719E+02  0.64069260747E+01 -0.72414958432E+02  0.92257413665E+02  0.41800000000E+01 0.  1.
         -5    1    3    3    0  502  0.66393916847E+02  0.32736359437E+02 -0.10344493681E+03  0.12727194811E+03  0.41800000000E+01 0.  1.
        -11    1    4    4    0    0 -0.14913994223E+02 -0.67935492926E+02 -0.10114864330E+03  0.12275465965E+03  0.00000000000E+00 0. -1.
         11    1    4    4    0    0  0.51679640947E+01  0.28792207415E+02 -0.49810914528E+02  0.57765268690E+02  0.00000000000E+00 0.  1.
</event>
<event>
 8    1  0.6505836E-009  0.1114332E+03  0.7561462E-02  0.1257939E+00
          1   -1    0    0  501    0  0.00000000000E+00  0.00000000000E+00  0.25416510706E+02  0.25416510706E+02  0.00000000000E+00 0. -1.
         -1   -1    0    0    0  501 -0.00000000000E+00 -0.00000000000E+00 -0.51575254941E+03  0.51575254941E+03  0.00000000000E+00 0.  1.
         25    2    1    2    0    0  0.30464083400E+02  0.23656338311E+02 -0.26360751262E+03  0.29431859139E+03  0.12508728874E+03 0.  0.
         23    2    1    2    0    0 -0.30464083400E+02 -0.23656338311E+02 -0.22672852608E+03  0.24685046873E+03  0.89675228757E+02 0.  0.
          5    1    3    3  502    0  0.78903198418E+02  0.21005823141E+02 -0.17677052890E+03  0.19476203843E+03  0.41800000000E+01 0. -1.
         -5    1    3    3    0  502 -0.48439115018E+02  0.26505151700E+01 -0.86836983728E+02  0.99556552960E+02  0.41800000000E+01 0. -1.
        -11    1    4    4    0    0 -0.50186411766E+02 -0.42030346408E+02 -0.11917068909E+03  0.13596646308E+03  0.00000000000E+00 0.  1.
         11    1    4    4    0    0  0.19722328366E+02  0.18374008097E+02 -0.10755783699E+03  0.11088400565E+03  0.00000000000E+00 0. -1.
</event>
<event>
 8    1  0.6505836E-009  0.1435106E+03  0.7561462E-02  0.1208682E+00
          1   -1    0    0  501    0  0.00000000000E+00  0.00000000000E+00  0.34988982720E+03  0.34988982720E+03  0.00000000000E+00 0. -1.
         -1   -1    0    0    0  501 -0.00000000000E+00 -0.00000000000E+00 -0.86018063645E+02  0.86018063645E+02  0.00000000000E+00 0.  1.
         25    2    1    2    0    0  0.10439231087E+03 -0.42507638127E+02  0.23365516528E+03  0.28800513947E+03  0.12509024834E+03 0.  0.
         23    2    1    2    0    0 -0.10439231087E+03  0.42507638127E+02  0.30216598277E+02  0.14790275138E+03  0.90870936969E+02 0.  0.
          5    1    3    3  502    0  0.58434615774E+02  0.41701586304E+02  0.89774834879E+02  0.11502443218E+03  0.41800000000E+01 0.  1.
         -5    1    3    3    0  502  0.45957695096E+02 -0.84209224431E+02  0.14388033040E+03  0.17298070729E+03  0.41800000000E+01 0.  1.
        -11    1    4    4    0    0 -0.50680436972E+02  0.41272399734E+02  0.58030473428E+02  0.87403967403E+02  0.00000000000E+00 0. -1.
         11    1    4    4    0    0 -0.53711873898E+02  0.12352383929E+01 -0.27813875151E+02  0.60498783975E+02  0.00000000000E+00 0.  1.
</event>
<event>
 8    1  0.6505836E-009  0.9640208E+02  0.7561462E-02  0.1288049E+00
         -1   -1    0    0    0  501 -0.00000000000E+00  0.00000000000E+00  0.13696498357E+03  0.13696498357E+03  0.00000000000E+00 0.  1.
          1   -1    0    0  501    0  0.00000000000E+00 -0.00000000000E+00 -0.98377911715E+02  0.98377911715E+02  0.00000000000E+00 0. -1.
         25    2    1    2    0    0  0.22251572667E+01  0.38058399311E+02  0.19433015928E+02  0.13220675819E+03  0.12509033424E+03 0.  0.
         23    2    1    2    0    0 -0.22251572667E+01 -0.38058399311E+02  0.19154055928E+02  0.10313613709E+03  0.93897773314E+02 0.  0.
          5    1    3    3  502    0 -0.49106206688E+02  0.44687859504E+02 -0.17132410095E+02  0.68698007234E+02  0.41800000000E+01 0. -1.
         -5    1    3    3    0  502  0.51331363955E+02 -0.66294601927E+01  0.36565426023E+02  0.63508750957E+02  0.41800000000E+01 0. -1.
        -11    1    4    4    0    0 -0.27805570375E+02  0.81282147285E+00  0.42718027865E+02  0.50976860705E+02  0.00000000000E+00 0.  1.
         11    1    4    4    0    0  0.25580413108E+02 -0.38871220784E+02 -0.23563971937E+02  0.52159276390E+02  0.00000000000E+00 0. -1.
</event>
<event>
 8    1  0.6505836E-009  0.1354267E+03  0.7561462E-02  0.1219619E+00
          2   -1    0    0  501    0  0.00000000000E+00  0.00000000000E+00  0.93303201489E+02  0.93303201489E+02  0.00000000000E+00 0. -1.
         -2   -1    0    0    0  501 -0.00000000000E+00 -0.00000000000E+00 -0.28250518817E+03  0.28250518817E+03  0.00000000000E+00 0.  1.
         25    2    1    2    0    0 -0.25388617591E+02  0.10059079455E+03 -0.17019455724E+03  0.23532212401E+03  0.12508886795E+03 0.  0.
         23    2    1    2    0    0  0.25388617591E+02 -0.10059079455E+03 -0.19007429449E+02  0.14048626565E+03  0.92800962335E+02 0.  0.
          5    1    3    3  502    0  0.48915966453E+02  0.60647515742E+02 -0.83612019369E+02  0.11436492086E+03  0.41800000000E+01 0. -1.
         -5    1    3    3    0  502 -0.74304584044E+02  0.39943278810E+02 -0.86582537868E+02  0.12095720316E+03  0.41800000000E+01 0. -1.
        -11    1    4    4    0    0 -0.48297160414E+01 -0.43495738023E+02  0.35195471373E+02  0.56159830737E+02  0.00000000000E+00 0. -1.
         11    1    4    4    0    0  0.30218333632E+02 -0.57095056528E+02 -0.54202900822E+02  0.84326434912E+02  0.00000000000E+00 0.  1.
</event>
<event>
 8    1  0.6505836E-009  0.1578053E+03  0.7561462E-02  0.1191197E+00
          2   -1    0    0  501    0  0.00000000000E+00  0.00000000000E+00  0.29680160598E+03  0.29680160598E+03  0.00000000000E+00 0. -1.
         -2   -1    0    0    0  501 -0.00000000000E+00 -0.00000000000E+00 -0.93729476085E+02  0.93729476085E+02  0.00000000000E+00 0.  1.
         25    2    1    2    0    0  0.69346172711E+01 -0.11711586955E+03  0.53370357066E+02  0.17961168710E+03  0.12509095617E+03 0.  0.
         23    2    1    2    0    0 -0.69346172711E+01  0.11711586955E+03  0.14970177283E+03  0.21091939496E+03  0.91171018237E+02 0.  0.
          5    1    3    3  502    0  0.14273008882E+02  0.24753632797E+02  0.39667344729E+01  0.29149073768E+02  0.41800000000E+01 0. -1.
         -5    1    3    3    0  502 -0.73383916106E+01 -0.14186950234E+03  0.49403622593E+02  0.15046261334E+03  0.41800000000E+01 0. -1.
        -11    1    4    4    0    0  0.37062996065E+02  0.75233250391E+02  0.11010585854E+03  0.13840884266E+03  0.00000000000E+00 0. -1.
         11    1    4    4    0    0 -0.43997613336E+02  0.41882619156E+02  0.39595914288E+02  0.72510552300E+02  0.00000000000E+00 0.  1.
</event>
<event>
 8    1  0.6505836E-009  0.1908383E+03  0.7561462E-02  0.1157707E+00
          1   -1    0    0  501    0  0.00000000000E+00  0.00000000000E+00  0.45134276438E+03  0.45134276438E+03  0.00000000000E+00 0. -1.
         -1   -1    0    0    0  501 -0.00000000000E+00 -0.00000000000E+00 -0.11727208601E+03  0.11727208601E+03  0.00000000000E+00 0.  1.
         25    2    1    2    0    0 -0.15723112631E+03 -0.62452802980E+02  0.31135490464E+03  0.37578102058E+03  0.12509004399E+03 0.  0.
         23    2    1    2    0    0  0.15723112631E+03  0.62452802980E+02  0.22715773734E+02  0.19283382980E+03  0.89704514148E+02 0.  0.
          5    1    3    3  502    0 -0.16068240380E+03 -0.88523629896E+02  0.27797861143E+03  0.33308384643E+03  0.41800000000E+01 0. -1.
         -5    1    3    3    0  502  0.34512774850E+01  0.26070826915E+02  0.33376293208E+02  0.42697174153E+02  0.41800000000E+01 0. -1.
        -11    1    4    4    0    0  0.58486885445E+02  0.38236027189E+02  0.51917897078E+02  0.87052728741E+02  0.00000000000E+00 0.  1.
         11    1    4    4    0    0  0.98744240866E+02  0.24216775791E+02 -0.29202123344E+02  0.10578110106E+03  0.00000000000E+00 0. -1.
</event>
<event>
 8    1  0.6505836E-009  0.8856289E+02  0.7561462E-02  0.1306370E+00
          3   -1    0    0  501    0  0.00000000000E+00  0.00000000000E+00  0.10786941220E+02  0.10786941220E+02  0.00000000000E+00 0.  1.
         -3   -1    0    0    0  501 -0.00000000000E+00 -0.00000000000E+00 -0.13810518338E+04  0.13810518338E+04  0.00000000000E+00 0. -1.
         25    2    1    2    0    0  0.90102341011E+01  0.38750309354E+02 -0.98781554930E+03  0.99649901229E+03  0.12509177138E+03 0.  0.
         23    2    1    2    0    0 -0.90102341011E+01 -0.38750309354E+02 -0.38244934330E+03  0.39533976275E+03  0.91887197288E+02 0.  0.
          5    1    3    3  502    0 -0.44238826277E+01  0.55378492275E+02 -0.18078608588E+03  0.18917565750E+03  0.41800000000E+01 0. -1.
         -5    1    3    3    0  502  0.13434116729E+02 -0.16628182921E+02 -0.80702946342E+03  0.80732335479E+03  0.41800000000E+01 0. -1.
        -11    1    4    4    0    0 -0.37225992104E+02  0.14030886109E+02 -0.17238152499E+03  0.17691249366E+03  0.00000000000E+00 0.  1.
         11    1    4    4    0    0  0.28215758002E+02 -0.52781195464E+02 -0.21006781831E+03  0.21842726909E+03  0.00000000000E+00 0. -1.
</event>
<event>
 8    1  0.6505836E-009  0.1160218E+03  0.7561462E-02  0.1249808E+00
          2   -1    0    0  501    0  0.00000000000E+00  0.00000000000E+00  0.51924636882E+03  0.51924636882E+03  0.00000000000E+00 0. -1.
         -2   -1    0    0    0  501 -0.00000000000E+00 -0.00000000000E+00 -0.43954351418E+02  0.43954351418E+02  0.00000000000E+00 0.  1.
         25    2    1    2    0    0  0.80008392787E+02 -0.69726956323E+02  0.24349551336E+03  0.29359853273E+03  0.12508733765E+03 0.  0.
         23    2    1    2    0    0 -0.80008392787E+02  0.69726956323E+02  0.23179650405E+03  0.26960218751E+03  0.87707062812E+02 0.  0.
          5    1    3    3  502    0  0.81699255320E+00 -0.40429256954E+02  0.18829192285E+03  0.19263050876E+03  0.41800000000E+01 0.  1.
         -5    1    3    3    0  502  0.79191400234E+02 -0.29297699369E+02  0.55203590507E+02  0.10096802397E+03  0.41800000000E+01 0.  1.
        -11    1    4    4    0    0 -0.21311348604E+02  0.11697688667E+02  0.82392115442E+00  0.24324644819E+02  0.00000000000E+00 0.  1.
         11    1    4    4    0    0 -0.58697044183E+02  0.58029267656E+02  0.23097258289E+03  0.24527754269E+03  0.00000000000E+00 0. -1.
</event>
<event>
 8    1  0.6505836E-009  0.1180548E+03  0.7561462E-02  0.1246341E+00
          1   -1    0    0  501    0  0.00000000000E+00  0.00000000000E+00  0.13403432909E+03  0.13403432909E+03  0.00000000000E+00 0. -1.
         -1   -1    0    0    0  501 -0.00000000000E+00 -0.00000000000E+00 -0.14537523399E+03  0.14537523399E+03  0.00000000000E+00 0.  1.
         25    2    1    2    0    0 -0.38363465948E+02 -0.54946571587E+02  0.50783064903E+02  0.15072230592E+03  0.12508961816E+03 0.  0.
         23    2    1    2    0    0  0.38363465948E+02  0.54946571587E+02 -0.62123969809E+02  0.12868725716E+03  0.90609829943E+02 0.  0.
          5    1    3    3  502    0 -0.35269842534E+02  0.26876338609E+02  0.52331854167E+02  0.68719682260E+02  0.41800000000E+01 0. -1.
         -5    1    3    3    0  502 -0.30936234140E+01 -0.81822910196E+02 -0.15487892638E+01  0.82002623659E+02  0.41800000000E+01 0. -1.
        -11    1    4    4    0    0  0.46069684495E+02  0.75044492089E+02 -0.36763056366E+02  0.95423340624E+02  0.00000000000E+00 0. -1.
         11    1    4    4    0    0 -0.77062185469E+01 -0.20097920502E+02 -0.25360913443E+02  0.33263916538E+02  0.00000000000E+00 0.  1.
</event>
<event>
 8    1  0.6505836E-009  0.1017390E+03  0.7561462E-02  0.1276681E+00
          1   -1    0    0  501    0  0.00000000000E+00  0.00000000000E+00  0.41380874797E+03  0.41380874797E+03  0.00000000000E+00 0. -1.
         -1   -1    0    0    0  501 -0.00000000000E+00 -0.00000000000E+00 -0.31140065759E+02  0.31140065759E+02  0.00000000000E+00 0.  1.
         25    2    1    2    0    0  0.34243841657E+02  0.23341030582E+01  0.22371746470E+03  0.25860326340E+03  0.12509218641E+03 0.  0.
         23    2    1    2    0    0 -0.34243841657E+02 -0.23341030582E+01  0.15895121751E+03  0.18634555033E+03  0.91000471710E+02 0.  0.
          5    1    3    3  502    0 -0.34017812568E+02  0.28604036816E+02  0.36844026326E+02  0.57882269911E+02  0.41800000000E+01 0. -1.
         -5    1    3    3    0  502  0.68261654225E+02 -0.26269933758E+02  0.18687343837E+03  0.20072099348E+03  0.41800000000E+01 0. -1.
        -11    1    4    4    0    0 -0.15472028714E+02 -0.40329424544E+02  0.35787336009E+02  0.56094380960E+02  0.00000000000E+00 0.  1.
         11    1    4    4    0    0 -0.18771812943E+02  0.37995321486E+02  0.12316388150E+03  0.13025116937E+03  0.00000000000E+00 0. -1.
</event>
<event>
 8    1  0.6505836E-009  0.1152044E+03  0.7561462E-02  0.1251225E+00
          2   -1    0    0  501    0  0.00000000000E+00  0.00000000000E+00  0.11940590144E+04  0.11940590144E+04  0.00000000000E+00 0.  1.
         -2   -1    0    0    0  501 -0.00000000000E+00 -0.00000000000E+00 -0.16282357725E+02  0.16282357725E+02  0.00000000000E+00 0. -1.
         25    2    1    2    0    0  0.25166065746E+02 -0.76282465997E+02  0.79704149544E+03  0.81078714834E+03  0.12509320113E+03 0.  0.
         23    2    1    2    0    0 -0.25166065746E+02  0.76282465997E+02  0.38073516127E+03  0.39955422382E+03  0.90730200403E+02 0.  0.
          5    1    3    3  502    0  0.73128999943E+02 -0.41498168836E+02  0.56630863440E+03  0.57253199949E+03  0.41800000000E+01 0.  1.
         -5    1    3    3    0  502 -0.47962934197E+02 -0.34784297160E+02  0.23073286104E+03  0.23825514884E+03  0.41800000000E+01 0.  1.
        -11    1    4    4    0    0 -0.15074301849E+02  0.75177791203E+02  0.38172935733E+03  0.38935361449E+03  0.00000000000E+00 0.  1.
         11    1    4    4    0    0 -0.10091763897E+02  0.11046747941E+01 -0.99419606463E+00  0.10200609334E+02  0.00000000000E+00 0. -1.
</event>
<event>
 8    1  0.6505836E-009  0.1587084E+03  0.7561462E-02  0.1190163E+00
          1   -1    0    0  501    0  0.00000000000E+00  0.00000000000E+00  0.80291252605E+02  0.80291252605E+02  0.00000000000E+00 0. -1.
         -1   -1    0    0    0  501 -0.00000000000E+00 -0.00000000000E+00 -0.38076707821E+03  0.38076707821E+03  0.00000000000E+00 0.  1.
         25    2    1    2    0    0  0.13370599829E+03 -0.88581850533E+01 -0.21114083217E+03  0.27961358213E+03  0.12509013902E+03 0.  0.
         23    2    1    2    0    0 -0.13370599829E+03  0.88581850533E+01 -0.89334993442E+02  0.18144474869E+03  0.83580466335E+02 0.  0.
          5    1    3    3  502    0  0.13496469361E+02  0.47925425416E+02 -0.65366195043E+02  0.82275226775E+02  0.41800000000E+01 0. -1.
         -5    1    3    3    0  502  0.12020952893E+03 -0.56783610469E+02 -0.14577463712E+03  0.19733835535E+03  0.41800000000E+01 0. -1.
        -11    1    4    4    0    0 -0.69779768602E+02 -0.82550474482E+00  0.16767803416E+01  0.69804793220E+02  0.00000000000E+00 0. -1.
         11    1    4    4    0    0 -0.63926229692E+02  0.96836897982E+01 -0.91011773784E+02  0.11163995547E+03  0.00000000000E+00 0.  1.
</event>
<event>
 8    1  0.6505836E-009  0.2147512E+03  0.7561462E-02  0.1137858E+00
         -2   -1    0    0    0  501 -0.00000000000E+00  0.00000000000E+00  0.83460627198E+03  0.83460627198E+03  0.00000000000E+00 0.  1.
          2   -1    0    0  501    0  0.00000000000E+00 -0.00000000000E+00 -0.67952333254E+02  0.67952333254E+02  0.00000000000E+00 0. -1.
         25    2    1    2    0    0  0.13746178384E+03  0.14060767856E+03  0.54313936223E+03  0.59103253694E+03  0.12511127700E+03 0.  0.
         23    2    1    2    0    0 -0.13746178384E+03 -0.14060767856E+03  0.22351457650E+03  0.31152606829E+03  0.91779431427E+02 0.  0.
          5    1    3    3  502    0  0.85393926197E+02  0.13624576951E+02  0.13462130249E+03  0.16005661253E+03  0.41800000000E+01 0. -1.
         -5    1    3    3    0  502  0.52067857644E+02  0.12698310161E+03  0.40851805973E+03  0.43097592441E+03  0.41800000000E+01 0. -1.
        -11    1    4    4    0    0 -0.55156161861E+01 -0.38199668975E+02  0.89571959891E+01  0.39621560945E+02  0.00000000000E+00 0. -1.
         11    1    4    4    0    0 -0.13194616766E+03 -0.10240800958E+03  0.21455738051E+03  0.27190450735E+03  0.00000000000E+00 0.  1.
</event>
<event>
 8    1  0.6505836E-009  0.1225463E+03  0.7561462E-02  0.1238955E+00
          2   -1    0    0  501    0  0.00000000000E+00  0.00000000000E+00  0.14441140116E+03  0.14441140116E+03  0.00000000000E+00 0. -1.
         -2   -1    0    0    0  501 -0.00000000000E+00 -0.00000000000E+00 -0.17553406791E+03  0.17553406791E+03  0.00000000000E+00 0.  1.
         25    2    1    2    0    0  0.23700865337E+02 -0.97133037073E+02  0.42368295749E+02  0.16564472178E+03  0.12508614415E+03 0.  0.
         23    2    1    2    0    0 -0.23700865337E+02  0.97133037073E+02 -0.73490962497E+02  0.15430074729E+03  0.91712818831E+02 0.  0.
          5    1    3    3  502    0  0.49515759346E+01  0.53428665557E+01  0.59409667560E+02  0.60000377722E+02  0.41800000000E+01 0.  1.
         -5    1    3    3    0  502  0.18749289403E+02 -0.10247590363E+03 -0.17041371811E+02  0.10564434406E+03  0.41800000000E+01 0.  1.
        -11    1    4    4    0    0  0.33025293476E+02  0.40754551448E+02 -0.45886515098E+02  0.69693441160E+02  0.00000000000E+00 0.  1.
         11    1    4    4    0    0 -0.56726158813E+02  0.56378485626E+02 -0.27604447399E+02  0.84607306135E+02  0.00000000000E+00 0. -1.
</event>
<event>
 8    1  0.6505836E-009  0.1145537E+03  0.7561462E-02  0.1252362E+00
         -1   -1    0    0    0  501 -0.00000000000E+00  0.00000000000E+00  0.31418711838E+03  0.31418711838E+03  0.00000000000E+00 0.  1.
          1   -1    0    0  501    0  0.00000000000E+00 -0.00000000000E+00 -0.69813091782E+02  0.69813091782E+02  0.00000000000E+00 0. -1.
         25    2    1    2    0    0 -0.34337679869E+02  0.73332714693E+02  0.66779769490E+02  0.16329220316E+03  0.12509213683E+03 0.  0.
         23    2    1    2    0    0  0.34337679869E+02 -0.73332714693E+02  0.17759425711E+03  0.22070800700E+03  0.10303174702E+03 0.  0.
          5    1    3    3  502    0  0.29120472049E+02  0.75782679400E+02  0.18401487313E+02  0.83349286288E+02  0.41800000000E+01 0.  1.
         -5    1    3    3    0  502 -0.63458151918E+02 -0.24499647078E+01  0.48378282177E+02  0.79942916874E+02  0.41800000000E+01 0.  1.
        -11    1    4    4    0    0  0.63903025619E+01 -0.40738190199E+02  0.17262963155E+03  0.17748641018E+03  0.00000000000E+00 0.  1.
         11    1    4    4    0    0  0.27947377307E+02 -0.32594524493E+02  0.49646255581E+01  0.43221596826E+02  0.00000000000E+00 0. -1.
</event>
<event>
 8    1  0.6505836E-009  0.1024126E+03  0.7561462E-02  0.1275303E+00
          1   -1    0    0  501    0  0.00000000000E+00  0.00000000000E+00  0.61200887289E+03  0.61200887289E+03  0.00000000000E+00 0. -1.
         -1   -1    0    0    0  501 -0.00000000000E+00 -0.00000000000E+00 -0.22945433715E+02  0.22945433715E+02  0.00000000000E+00 0.  1.
         25    2    1    2    0    0  0.11697662421E+02 -0.45057079271E+02  0.34146446566E+03  0.36662308177E+03  0.12509007586E+03 0.  0.
         23    2    1    2    0    0 -0.11697662421E+02  0.45057079271E+02  0.24759897352E+03  0.26833122484E+03  0.92354852815E+02 0.  0.
          5    1    3    3  502    0 -0.40531474256E+02 -0.14860508295E+02  0.26791900718E+03  0.27140689365E+03  0.41800000000E+01 0. -1.
         -5    1    3    3    0  502  0.52229136676E+02 -0.30196570976E+02  0.73545458478E+02  0.95216188117E+02  0.41800000000E+01 0. -1.
        -11    1    4    4    0    0 -0.42672078155E+02 -0.41086841758E+01  0.13467037251E+03  0.14132903726E+03  0.00000000000E+00 0. -1.
         11    1    4    4    0    0  0.30974415734E+02  0.49165763447E+02  0.11292860100E+03  0.12700218758E+03  0.00000000000E+00 0.  1.
</event>
<event>
 8    1  0.6505836E-009  0.1579444E+03  0.7561462E-02  0.1191037E+00
         -1   -1    0    0    0  501 -0.00000000000E+00  0.00000000000E+00  0.82896250774E+03  0.82896250774E+03  0.00000000000E+00 0. -1.
          1   -1    0    0  501    0  0.00000000000E+00 -0.00000000000E+00 -0.32438362178E+02  0.32438362178E+02  0.00000000000E+00 0.  1.
         25    2    1    2    0    0 -0.10974187425E+03  0.35497659924E+02  0.35975845882E+03  0.39796518552E+03  0.12508707913E+03 0.  0.
         23    2    1    2    0    0  0.10974187425E+03 -0.35497659924E+02  0.43676568674E+03  0.46343568440E+03  0.10346499717E+03 0.  0.
          5    1    3    3  502    0  0.15033917055E+02 -0.21915835275E+02  0.27785965101E+02  0.38676281548E+02  0.41800000000E+01 0.  1.
         -5    1    3    3    0  502 -0.12477579131E+03  0.57413495199E+02  0.33197249372E+03  0.35928890397E+03  0.41800000000E+01 0.  1.
        -11    1    4    4    0    0  0.11896412321E+03 -0.43034847672E+01  0.37756614750E+03  0.39588783554E+03  0.00000000000E+00 0. -1.
         11    1    4    4    0    0 -0.92222489527E+01 -0.31194175157E+02  0.59199539243E+02  0.67547848863E+02  0.00000000000E+00 0.  1.
</event>
<event>
 8    1  0.6505836E-009  0.1646480E+03  0.7561462E-02  0.1183547E+00
         -1   -1    0    0    0  501 -0.00000000000E+00  0.00000000000E+00  0.42606434979E+02  0.42606434979E+02  0.00000000000E+00 0.  1.
          1   -1    0    0  501    0  0.00000000000E+00 -0.00000000000E+00 -0.80478024708E+03  0.80478024708E+03  0.00000000000E+00 0. -1.
         25    2    1    2    0    0 -0.49428437892E+02  0.12590214749E+03 -0.25704284687E+03  0.31624965391E+03  0.12509315431E+03 0.  0.
         23    2    1    2    0    0  0.49428437892E+02 -0.12590214749E+03 -0.50513096523E+03  0.53113702816E+03  0.93030798269E+02 0.  0.
          5    1    3    3  502    0  0.24974424427E+02  0.10109089904E+03 -0.16609134929E+03  0.19607881184E+03  0.41800000000E+01 0. -1.
         -5    1    3    3    0  502 -0.74402862319E+02  0.24811248448E+02 -0.90951497579E+02  0.12017084207E+03  0.41800000000E+01 0. -1.
        -11    1    4    4    0    0  0.11317726141E+02 -0.99583873630E+02 -0.43966799438E+03  0.45094676415E+03  0.00000000000E+00 0. -1.
         11    1    4    4    0    0  0.38110711751E+02 -0.26318273856E+02 -0.65462970853E+02  0.80190264009E+02  0.00000000000E+00 0.  1.
</event>
<event>
 8    1  0.6505836E-009  0.9872071E+02  0.7561462E-02  0.1283009E+00
          2   -1    0    0  501    0  0.00000000000E+00  0.00000000000E+00  0.43512763328E+03  0.43512763328E+03  0.00000000000E+00 0. -1.
         -2   -1    0    0    0  501 -0.00000000000E+00 -0.00000000000E+00 -0.35445469900E+02  0.35445469900E+02  0.00000000000E+00 0.  1.
         25    2    1    2    0    0  0.27154149115E+02 -0.31596614441E+02  0.31988490492E+03  0.34599125858E+03  0.12509158551E+03 0.  0.
         23    2    1    2    0    0 -0.27154149115E+02  0.31596614441E+02  0.79797258464E+02  0.12458184460E+03  0.86123978579E+02 0.  0.
          5    1    3    3  502    0 -0.19289915426E+02  0.22905415619E+02  0.22511763575E+03  0.22713912307E+03  0.41800000000E+01 0.  1.
         -5    1    3    3    0  502  0.46444064541E+02 -0.54502030060E+02  0.94767269166E+02  0.11885213552E+03  0.41800000000E+01 0.  1.
        -11    1    4    4    0    0  0.28101962801E+02  0.28665656579E+02  0.37500424182E+02  0.54933796466E+02  0.00000000000E+00 0. -1.
         11    1    4    4    0    0 -0.55256111915E+02  0.29309578625E+01  0.42296834282E+02  0.69648048130E+02  0.00000000000E+00 0.  1.
</event>
<event>
 8    1  0.6505836E-009  0.1608332E+03  0.7561462E-02  0.1187759E+00
         -4   -1    0    0    0  501 -0.00000000000E+00  0.00000000000E+00  0.37112987535E+03  0.37112987535E+03  0.00000000000E+00 0.  1.
          4   -1    0    0  501    0  0.00000000000E+00 -0.00000000000E+00 -0.12912840162E+03  0.12912840162E+03  0.00000000000E+00 0. -1.
         25    2    1    2    0    0 -0.13553746619E+03  0.14898485081E+02 -0.25187136228E+02  0.18676372584E+03  0.12511565792E+03 0.  0.
         23    2    1    2    0    0  0.13553746619E+03 -0.14898485081E+02  0.26718860996E+03  0.31349455113E+03  0.91086281613E+02 0.  0.
          5    1    3    3  502    0  0.64951400056E+01 -0.13972950100E+02 -0.37983568377E+02  0.41202597550E+02  0.41800000000E+01 0.  1.
         -5    1    3    3    0  502 -0.14203260620E+03  0.28871435181E+02  0.12796432150E+02  0.14556112829E+03  0.41800000000E+01 0.  1.
        -11    1    4    4    0    0  0.95840900246E+02  0.30329355282E+02  0.13559337275E+03  0.16879250779E+03  0.00000000000E+00 0.  1.
         11    1    4    4    0    0  0.39696565946E+02 -0.45227840363E+02  0.13159523720E+03  0.14470204334E+03  0.00000000000E+00 0. -1.
</event>
<event>
 8    1  0.6505836E-009  0.1073566E+03  0.7561462E-02  0.1265545E+00
         -3   -1    0    0    0  501 -0.00000000000E+00  0.00000000000E+00  0.31617951423E+03  0.31617951423E+03  0.00000000000E+00 0.  1.
          3   -1    0    0  501    0  0.00000000000E+00 -0.00000000000E+00 -0.40124730667E+02  0.40124730667E+02  0.00000000000E+00 0. -1.
         25    2    1    2    0    0  0.38202086829E+01 -0.16571228102E+02  0.11615740469E+03  0.17154901221E+03  0.12508925345E+03 0.  0.
         23    2    1    2    0    0 -0.38202086829E+01  0.16571228102E+02  0.15989737887E+03  0.18475523269E+03  0.90984199956E+02 0.  0.
          5    1    3    3  502    0  0.29945870721E+02  0.46166854009E+02  0.33901086392E+02  0.64767967707E+02  0.41800000000E+01 0.  1.
         -5    1    3    3    0  502 -0.26125662038E+02 -0.62738082111E+02  0.82256318303E+02  0.10678104450E+03  0.41800000000E+01 0.  1.
        -11    1    4    4    0    0 -0.13922923477E+01  0.53955905184E+02  0.10814997570E+03  0.12087015937E+03  0.00000000000E+00 0.  1.
         11    1    4    4    0    0 -0.24279163351E+01 -0.37384677082E+02  0.51747403168E+02  0.63885073318E+02  0.00000000000E+00 0. -1.
</event>
<event>
 8    1  0.6505836E-009  0.1213532E+03  0.7561462E-02  0.1240881E+00
          2   -1    0    0  501    0  0.00000000000E+00  0.00000000000E+00  0.12183114290E+03  0.12183114290E+03  0.00000000000E+00 0. -1.
         -2   -1    0    0    0  501 -0.00000000000E+00 -0.00000000000E+00 -0.22023340557E+03  0.22023340557E+03  0.00000000000E+00 0.  1.
         25    2    1    2    0    0  0.96909441899E+02  0.71885606287E+02 -0.34774322559E+02  0.17723910690E+03  0.12508184194E+03 0.  0.
         23    2    1    2    0    0 -0.96909441899E+02 -0.71885606287E+02 -0.63627940110E+02  0.16482544158E+03  0.92519895741E+02 0.  0.
          5    1    3    3  502    0  0.70718043500E+02  0.55788717903E+02  0.38210741084E+02  0.97933425631E+02  0.41800000000E+01 0.  1.
         -5    1    3    3    0  502  0.26191398399E+02  0.16096888384E+02 -0.72985063643E+02  0.79305681264E+02  0.41800000000E+01 0.  1.
        -11    1    4    4    0    0 -0.58304979673E+02 -0.34381887517E+02  0.15202380661E+02  0.69373606088E+02  0.00000000000E+00 0. -1.
         11    1    4    4    0    0 -0.38604462226E+02 -0.37503718770E+02 -0.78830320771E+02  0.95451835489E+02  0.00000000000E+00 0.  1.
</event>
<event>
 8    1  0.6505836E-009  0.1261529E+03  0.7561462E-02  0.1233278E+00
         -2   -1    0    0    0  501 -0.00000000000E+00  0.00000000000E+00  0.18343167865E+02  0.18343167865E+02  0.00000000000E+00 0. -1.
          2   -1    0    0  501    0  0.00000000000E+00 -0.00000000000E+00 -0.97869618547E+03  0.97869618547E+03  0.00000000000E+00 0.  1.
         25    2    1    2    0    0 -0.22439874503E+02  0.70924921419E+02 -0.42685666003E+03  0.45098641094E+03  0.12509293426E+03 0.  0.
         23    2    1    2    0    0  0.22439874503E+02 -0.70924921419E+02 -0.53349635758E+03  0.54605294239E+03  0.89563161501E+02 0.  0.
          5    1    3    3  502    0 -0.24626019522E+02  0.10213494305E+03 -0.38152265547E+03  0.39574612628E+03  0.41800000000E+01 0. -1.
         -5    1    3    3    0  502  0.21861450194E+01 -0.31210021636E+02 -0.45334004560E+02  0.55240284666E+02  0.41800000000E+01 0. -1.
        -11    1    4    4    0    0  0.55698907870E+02 -0.56516850218E+02 -0.33454328160E+03  0.34382514445E+03  0.00000000000E+00 0. -1.
         11    1    4    4    0    0 -0.33259033367E+02 -0.14408071201E+02 -0.19895307598E+03  0.20222779794E+03  0.00000000000E+00 0.  1.
</event>
<event>
 8    1  0.6505836E-009  0.1722007E+03  0.7561462E-02  0.1175572E+00
         -2   -1    0    0    0  501 -0.00000000000E+00  0.00000000000E+00  0.31543377755E+03  0.31543377755E+03  0.00000000000E+00 0.  1.
          2   -1    0    0  501    0  0.00000000000E+00 -0.00000000000E+00 -0.14086975887E+03  0.14086975887E+03  0.00000000000E+00 0. -1.
         25    2    1    2    0    0 -0.10083852223E+03 -0.12607938640E+03  0.17804327392E+03  0.27095836578E+03  0.12511838137E+03 0.  0.
         23    2    1    2    0    0  0.10083852223E+03  0.12607938640E+03 -0.34792552440E+01  0.18534517064E+03  0.90974215159E+02 0.  0.
          5    1    3    3  502    0 -0.60134869515E+02 -0.21269177749E+02  0.44316142191E+01  0.64075674466E+02  0.41800000000E+01 0. -1.
         -5    1    3    3    0  502 -0.40703652718E+02 -0.10481020865E+03  0.17361165970E+03  0.20688269131E+03  0.41800000000E+01 0. -1.
        -11    1    4    4    0    0  0.73812846431E+02  0.55386100887E+02  0.37110975412E+02  0.99464470872E+02  0.00000000000E+00 0.  1.
         11    1    4    4    0    0  0.27025675802E+02  0.70693285509E+02 -0.40590230656E+02  0.85880699772E+02  0.00000000000E+00 0. -1.
</event>
<event>
 8    1  0.6505836E-009  0.9515035E+02  0.7561462E-02  0.1290838E+00
          1   -1    0    0  501    0  0.00000000000E+00  0.00000000000E+00  0.38618283478E+03  0.38618283478E+03  0.00000000000E+00 0. -1.
         -1   -1    0    0    0  501 -0.00000000000E+00 -0.00000000000E+00 -0.43945210382E+02  0.43945210382E+02  0.00000000000E+00 0.  1.
         25    2    1    2    0    0  0.56506946287E+02 -0.33396238604E+02  0.22970492594E+03  0.26966441834E+03  0.12508477838E+03 0.  0.
         23    2    1    2    0    0 -0.56506946287E+02  0.33396238604E+02  0.11253269845E+03  0.16046362682E+03  0.93683635606E+02 0.  0.
          5    1    3    3  502    0  0.17300957502E+02 -0.32459178714E+02  0.22714533833E+03  0.23014212682E+03  0.41800000000E+01 0. -1.
         -5    1    3    3    0  502  0.39205988785E+02 -0.93705989028E+00  0.25595876131E+01  0.39522291515E+02  0.41800000000E+01 0. -1.
        -11    1    4    4    0    0 -0.39502558324E+01  0.56352680111E+02  0.63681661656E+02  0.85126864785E+02  0.00000000000E+00 0.  1.
         11    1    4    4    0    0 -0.52556690454E+02 -0.22956441507E+02  0.48851036798E+02  0.75336762039E+02  0.00000000000E+00 0. -1.
</event>
<event>
 7    1  0.6505836E-009  0.1009176E+03  0.7561462E-02  0.1278378E+00
         -1   -1    0    0    0  501 -0.00000000000E+00  0.00000000000E+00  0.20639337392E+03  0.20639337392E+03  0.00000000000E+00 0.  1.
          1   -1    0    0  501    0  0.00000000000E+00 -0.00000000000E+00 -0.12916596797E+03  0.12916596797E+03  0.00000000000E+00 0. -1.
         25    2    1    2    0    0  0.14790225721E+02  0.36945149697E+02 -0.25319102754E+02  0.13368866090E+03  0.12509159135E+03 0.  0.
          5    1    3    3  502    0 -0.48932481004E+02  0.78033352979E+01  0.15997954526E+02  0.52236832676E+02  0.41800000000E+01 0.  1.
         -5    1    3    3    0  502  0.63722706725E+02  0.29141814399E+02 -0.41317057280E+02  0.81451828224E+02  0.41800000000E+01 0.  1.
        -11    1    1    2    0    0 -0.35277037509E+02  0.46157633992E+01 -0.39084690745E+02  0.52852508907E+02  0.00000000000E+00 0. -1.
         11    1    1    2    0    0  0.20486811788E+02 -0.41560913096E+02  0.14163119945E+03  0.14901817209E+03  0.00000000000E+00 0.  1.
</event>
<event>
 8    1  0.6505836E-009  0.1081087E+03  0.7561462E-02  0.1264113E+00
         -1   -1    0    0    0  501 -0.00000000000E+00  0.00000000000E+00  0.13854344110E+03  0.13854344110E+03  0.00000000000E+00 0.  1.
          1   -1    0    0  501    0  0.00000000000E+00 -0.00000000000E+00 -0.12465474581E+03  0.12465474581E+03  0.00000000000E+00 0. -1.
         25    2    1    2    0    0 -0.69060252911E+02 -0.21065571748E+02 -0.57860186968E+01  0.14454332576E+03  0.12508484387E+03 0.  0.
         23    2    1    2    0    0  0.69060252911E+02  0.21065571748E+02  0.19674713993E+02  0.11865486115E+03  0.92080426033E+02 0.  0.
          5    1    3    3  502    0 -0.69800994026E+02  0.21585911899E+02  0.38686108114E+02  0.82778123442E+02  0.41800000000E+01 0. -1.
         -5    1    3    3    0  502  0.74074111502E+00 -0.42651483647E+02 -0.44472126811E+02  0.61765202321E+02  0.41800000000E+01 0. -1.
        -11    1    4    4    0    0  0.63114539166E+02  0.43702690957E+02  0.40965737850E+02  0.87014722482E+02  0.00000000000E+00 0.  1.
         11    1    4    4    0    0  0.59457137452E+01 -0.22637119209E+02 -0.21291023857E+02  0.31640138667E+02  0.00000000000E+00 0. -1.
</event>
<event>
 8    1  0.6505836E-009  0.1160774E+03  0.7561462E-02  0.1249712E+00
          1   -1    0    0  501    0  0.00000000000E+00  0.00000000000E+00  0.37867780220E+02  0.37867780220E+02  0.00000000000E+00 0. -1.
         -1   -1    0    0    0  501 -0.00000000000E+00 -0.00000000000E+00 -0.53450138407E+03  0.53450138407E+03  0.00000000000E+00 0.  1.
         25    2    1    2    0    0  0.48261779128E+02  0.69110474529E+02 -0.19825806887E+03  0.24911551078E+03  0.12508724485E+03 0.  0.
         23    2    1    2    0    0 -0.48261779128E+02 -0.69110474529E+02 -0.29837553498E+03  0.32325365351E+03  0.91430342985E+02 0.  0.
          5    1    3    3  502    0  0.23344169507E+02 -0.93171058532E+01  0.82449310110E+01  0.26780776666E+02  0.41800000000E+01 0. -1.
         -5    1    3    3    0  502  0.24917609621E+02  0.78427580383E+02 -0.20650299988E+03  0.22233473411E+03  0.41800000000E+01 0. -1.
        -11    1    4    4    0    0 -0.53590711058E+02 -0.88889008461E+02 -0.25337742587E+03  0.27381260029E+03  0.00000000000E+00 0.  1.
         11    1    4    4    0    0  0.53289319305E+01  0.19778533932E+02 -0.44998109113E+02  0.49441053222E+02  0.00000000000E+00 0. -1.
</event>
<event>
 8    1  0.6505836E-009  0.7552294E+02  0.7561462E-02  0.1342259E+00
         -2   -1    0    0    0  501 -0.00000000000E+00  0.00000000000E+00  0.45846364029E+03  0.45846364029E+03  0.00000000000E+00 0.  1.
          2   -1    0    0  501    0  0.00000000000E+00 -0.00000000000E+00 -0.28872333551E+02  0.28872333551E+02  0.00000000000E+00 0. -1.
         25    2    1    2    0    0  0.33327111141E+02 -0.11744951618E+00  0.19749122425E+03  0.23613776444E+03  0.12509016750E+03 0.  0.
         23    2    1    2    0    0 -0.33327111141E+02  0.11744951618E+00  0.23210008249E+03  0.25119820940E+03  0.90107613360E+02 0.  0.
          5    1    3    3  502    0 -0.24406945353E+02  0.10891983165E+01 -0.52117650158E+01  0.25328249624E+02  0.41800000000E+01 0. -1.
         -5    1    3    3    0  502  0.57734056494E+02 -0.12066478326E+01  0.20270298927E+03  0.21080951482E+03  0.41800000000E+01 0. -1.
        -11    1    4    4    0    0  0.14255307057E+02  0.12756328840E+02  0.63708632158E+01  0.20162480078E+02  0.00000000000E+00 0. -1.
         11    1    4    4    0    0 -0.47582418199E+02 -0.12638879323E+02  0.22572921927E+03  0.23103572933E+03  0.00000000000E+00 0.  1.
</event>
<event>
 7    1  0.6505836E-009  0.1480172E+03  0.7561462E-02  0.1202931E+00
         -2   -1    0    0    0  501 -0.00000000000E+00  0.00000000000E+00  0.88290811871E+03  0.88290811871E+03  0.00000000000E+00 0.  1.
          2   -1    0    0  501    0  0.00000000000E+00 -0.00000000000E+00 -0.30899536925E+02  0.30899536925E+02  0.00000000000E+00 0. -1.
         25    2    1    2    0    0 -0.44309102599E+02 -0.54471964789E+02  0.36746802231E+03  0.39447531365E+03  0.12509010410E+03 0.  0.
          5    1    3    3  502    0 -0.54701612183E+01  0.38631768146E+02  0.14410854255E+03  0.14935555099E+03  0.41800000000E+01 0. -1.
         -5    1    3    3    0  502 -0.38838941381E+02 -0.93103732935E+02  0.22335947975E+03  0.24511976266E+03  0.41800000000E+01 0. -1.
        -11    1    1    2    0    0 -0.50501433784E+02  0.26189601836E+02  0.33649136369E+03  0.34126635916E+03  0.00000000000E+00 0.  1.
         11    1    1    2    0    0  0.94810536384E+02  0.28282362953E+02  0.14804919580E+03  0.17806598283E+03  0.00000000000E+00 0. -1.
</event>
<event>
 8    1  0.6505836E-009  0.1679175E+03  0.7561462E-02  0.1180037E+00
          2   -1    0    0  501    0  0.00000000000E+00  0.00000000000E+00  0.68875714385E+03  0.68875714385E+03  0.00000000000E+00 0. -1.
         -2   -1    0    0    0  501 -0.00000000000E+00 -0.00000000000E+00 -0.55124950969E+02  0.55124950969E+02  0.00000000000E+00 0.  1.
         25    2    1    2    0    0  0.73558473085E+02 -0.12210504521E+03  0.18693335615E+03  0.26629350426E+03  0.12509060611E+03 0.  0.
         23    2    1    2    0    0 -0.73558473085E+02  0.12210504521E+03  0.44669883673E+03  0.47758859056E+03  0.90722213764E+02 0.  0.
          5    1    3    3  502    0  0.33052231905E+02  0.73633969965E+01 -0.14042120317E+01  0.34148409343E+02  0.41800000000E+01 0. -1.
         -5    1    3    3    0  502  0.40506241180E+02 -0.12946844221E+03  0.18833756818E+03  0.23214509491E+03  0.41800000000E+01 0. -1.
        -11    1    4    4    0    0 -0.44204696526E+02  0.41016638858E+01  0.16278782660E+03  0.16873279269E+03  0.00000000000E+00 0.  1.
         11    1    4    4    0    0 -0.29353776559E+02  0.11800338133E+03  0.28391101013E+03  0.30885579787E+03  0.00000000000E+00 0. -1.
</event>
<event>
 8    1  0.6505836E-009  0.9710915E+02  0.7561462E-02  0.1286495E+00
         -1   -1    0    0    0  501 -0.00000000000E+00  0.00000000000E+00  0.60285178582E+03  0.60285178582E+03  0.00000000000E+00 0.  1.
          1   -1    0    0  501    0  0.00000000000E+00 -0.00000000000E+00 -0.20650084556E+02  0.20650084556E+02  0.00000000000E+00 0. -1.
         25    2    1    2    0    0  0.18431609396E+02 -0.82204702747E+01  0.30393653942E+03  0.32929023078E+03  0.12508931103E+03 0.  0.
         23    2    1    2    0    0 -0.18431609396E+02  0.82204702747E+01  0.27826516184E+03  0.29421163959E+03  0.93389979250E+02 0.  0.
          5    1    3    3  502    0  0.17435409710E+02 -0.54590229466E+02  0.25634262088E+03  0.26270344182E+03  0.41800000000E+01 0. -1.
         -5    1    3    3    0  502  0.99619968615E+00  0.46369759192E+02  0.47593918543E+02  0.66586788957E+02  0.41800000000E+01 0. -1.
        -11    1    4    4    0    0 -0.53005470409E+02  0.14719441238E+02  0.21389226687E+03  0.22085321748E+03  0.00000000000E+00 0. -1.
         11    1    4    4    0    0  0.34573861013E+02 -0.64989709629E+01  0.64372894963E+02  0.73358422112E+02  0.00000000000E+00 0.  1.
</event>
<event>
 8    1  0.6505836E-009  0.7992061E+02  0.7561462E-02  0.1329277E+00
         -1   -1    0    0    0  501 -0.00000000000E+00  0.00000000000E+00  0.53726027507E+02  0.53726027507E+02  0.00000000000E+00 0.  1.
          1   -1    0    0  501    0  0.00000000000E+00 -0.00000000000E+00 -0.24644020300E+03  0.24644020300E+03  0.00000000000E+00 0. -1.
         25    2    1    2    0    0  0.23408097234E+02 -0.28258252414E+02 -0.11951252547E+03  0.17685347006E+03  0.12508972093E+03 0.  0.
         23    2    1    2    0    0 -0.23408097234E+02  0.28258252414E+02 -0.73201650019E+02  0.12331276044E+03  0.92201342054E+02 0.  0.
          5    1    3    3  502    0  0.61933005182E+02 -0.40792679829E+02 -0.11355734312E+03  0.13569260273E+03  0.41800000000E+01 0.  1.
         -5    1    3    3    0  502 -0.38524907948E+02  0.12534427415E+02 -0.59551823522E+01  0.41160867336E+02  0.41800000000E+01 0.  1.
        -11    1    4    4    0    0 -0.18361141115E+02  0.24329085916E+01 -0.90136936883E+02  0.92020203966E+02  0.00000000000E+00 0. -1.
         11    1    4    4    0    0 -0.50469561186E+01  0.25825343823E+02  0.16935286864E+02  0.31292556476E+02  0.00000000000E+00 0.  1.
</event>
<event>
 8    1  0.6505836E-009  0.1064290E+03  0.7561462E-02  0.1267329E+00
         -1   -1    0    0    0  501 -0.00000000000E+00  0.00000000000E+00  0.60125491979E+02  0.60125491979E+02  0.00000000000E+00 0.  1.
          1   -1    0    0  501    0  0.00000000000E+00 -0.00000000000E+00 -0.24015564126E+03  0.24015564126E+03  0.00000000000E+00 0. -1.
         25    2    1    2    0    0 -0.41340769392E+02 -0.36188336929E+00 -0.14163543651E+03  0.19344745573E+03  0.12510847725E+03 0.  0.
         23    2    1    2    0    0  0.41340769392E+02  0.36188336929E+00 -0.38394712775E+02  0.10683367751E+03  0.90719846271E+02 0.  0.
          5    1    3    3  502    0 -0.37341027004E+02 -0.60491963040E+02 -0.72129190268E+02  0.10135937243E+03  0.41800000000E+01 0.  1.
         -5    1    3    3    0  502 -0.39997423882E+01  0.60130079671E+02 -0.69506246240E+02  0.92088083305E+02  0.41800000000E+01 0.  1.
        -11    1    4    4    0    0  0.47653773045E+02  0.26378136303E+02 -0.53287578777E+02  0.76198780910E+02  0.00000000000E+00 0. -1.
         11    1    4    4    0    0 -0.63130036524E+01 -0.26016252934E+02  0.14892866002E+02  0.30634896598E+02  0.00000000000E+00 0.  1.
</event>
<event>
 8    1  0.6505836E-009  0.1087940E+03  0.7561462E-02  0.1262820E+00
          2   -1    0    0  501    0  0.00000000000E+00  0.00000000000E+00  0.85594200700E+02  0.85594200700E+02  0.00000000000E+00 0. -1.
         -2   -1    0    0    0  501 -0.00000000000E+00 -0.00000000000E+00 -0.24517071485E+03  0.24517071485E+03  0.00000000000E+00 0.  1.
         25    2    1    2    0    0 -0.56790538305E+02  0.74587426074E+02 -0.10593781675E+03  0.18884137923E+03  0.12509914517E+03 0.  0.
         23    2    1    2    0    0  0.56790538305E+02 -0.74587426074E+02 -0.53638697400E+02  0.14192353632E+03  0.92069163860E+02 0.  0.
          5    1    3    3  502    0 -0.86840159962E+01 -0.10195916267E+02 -0.88647791105E+02  0.89751167737E+02  0.41800000000E+01 0.  1.
         -5    1    3    3    0  502 -0.48106522309E+02  0.84783342340E+02 -0.17290025647E+02  0.99090211494E+02  0.41800000000E+01 0.  1.
        -11    1    4    4    0    0 -0.36313110701E+01 -0.31663949793E+02 -0.59580521954E+02  0.67569451181E+02  0.00000000000E+00 0.  1.
         11    1    4    4    0    0  0.60421849376E+02 -0.42923476280E+02  0.59418245541E+01  0.74354085140E+02  0.00000000000E+00 0. -1.
</event>
<event>
 8    1  0.6505836E-009  0.1328225E+03  0.7561462E-02  0.1223327E+00
          1   -1    0    0  501    0  0.00000000000E+00  0.00000000000E+00  0.30406519704E+02  0.30406519704E+02  0.00000000000E+00 0. -1.
         -1   -1    0    0    0  501 -0.00000000000E+00 -0.00000000000E+00 -0.85786240351E+03  0.85786240351E+03  0.00000000000E+00 0.  1.
         25    2    1    2    0    0 -0.21502987079E+02  0.66395456435E+02 -0.65416206750E+03  0.66966027127E+03  0.12508450451E+03 0.  0.
         23    2    1    2    0    0  0.21502987079E+02 -0.66395456435E+02 -0.17329381630E+03  0.21860865195E+03  0.11352647642E+03 0.  0.
          5    1    3    3  502    0 -0.60349567295E+02 -0.18658007279E+01 -0.20831832421E+03  0.21693212784E+03  0.41800000000E+01 0. -1.
         -5    1    3    3    0  502  0.38846580216E+02  0.68261257163E+02 -0.44584374329E+03  0.45272814343E+03  0.41800000000E+01 0. -1.
        -11    1    4    4    0    0 -0.20977229162E+02 -0.79336183174E+02 -0.76834157914E+02  0.11241780075E+03  0.00000000000E+00 0. -1.
         11    1    4    4    0    0  0.42480216241E+02  0.12940726739E+02 -0.96459658391E+02  0.10619085119E+03  0.00000000000E+00 0.  1.
</event>
<event>
 8    1  0.6505836E-009  0.1103087E+03  0.7561462E-02  0.1259999E+00
         -2   -1    0    0    0  501 -0.00000000000E+00  0.00000000000E+00  0.38205671062E+02  0.38205671062E+02  0.00000000000E+00 0.  1.
          2   -1    0    0  501    0  0.00000000000E+00 -0.00000000000E+00 -0.39971134518E+03  0.39971134518E+03  0.00000000000E+00 0. -1.
         25    2    1    2    0    0  0.51930932877E+02 -0.26236469248E+02 -0.22160525459E+03  0.26103891237E+03  0.12508897153E+03 0.  0.
         23    2    1    2    0    0 -0.51930932877E+02  0.26236469248E+02 -0.13990041953E+03  0.17687810388E+03  0.91260956267E+02 0.  0.
          5    1    3    3  502    0  0.31768640876E+02 -0.63989607929E+02 -0.20098837525E+03  0.21334881263E+03  0.41800000000E+01 0. -1.
         -5    1    3    3    0  502  0.20162292001E+02  0.37753138681E+02 -0.20616879344E+02  0.47690099737E+02  0.41800000000E+01 0. -1.
        -11    1    4    4    0    0 -0.67271429014E+02  0.45656710735E+02 -0.12082315451E+03  0.14563040569E+03  0.00000000000E+00 0.  1.
         11    1    4    4    0    0  0.15340496137E+02 -0.19420241487E+02 -0.19077265016E+02  0.31247698181E+02  0.00000000000E+00 0. -1.
</event>
<event>
 8    1  0.6505836E-009  0.1288901E+03  0.7561462E-02  0.1229112E+00
          1   -1    0    0  501    0  0.00000000000E+00  0.00000000000E+00  0.43566453241E+03  0.43566453241E+03  0.00000000000E+00 0. -1.
         -1   -1    0    0    0  501 -0.00000000000E+00 -0.00000000000E+00 -0.43872927310E+02  0.43872927310E+02  0.00000000000E+00 0.  1.
         25    2    1    2    0    0 -0.26753821085E+02 -0.80473972065E+02  0.19807999191E+03  0.24914713355E+03  0.12508710500E+03 0.  0.
         23    2    1    2    0    0  0.26753821085E+02  0.80473972065E+02  0.19371161319E+03  0.23039032617E+03  0.91453191235E+02 0.  0.
          5    1    3    3  502    0 -0.36787234149E+02  0.12829899184E+02  0.12468635183E+02  0.41119899960E+02  0.41800000000E+01 0. -1.
         -5    1    3    3    0  502  0.10033413064E+02 -0.93303871250E+02  0.18561135673E+03  0.20802723359E+03  0.41800000000E+01 0. -1.
        -11    1    4    4    0    0  0.52871862452E+02  0.16222801950E+02  0.89505060286E+02  0.10521296954E+03  0.00000000000E+00 0.  1.
         11    1    4    4    0    0 -0.26118041367E+02  0.64251170115E+02  0.10420655290E+03  0.12517735664E+03  0.00000000000E+00 0. -1.
</event>
<event>
 8    1  0.6505836E-009  0.1365932E+03  0.7561462E-02  0.1217988E+00
          3   -1    0    0  501    0  0.00000000000E+00  0.00000000000E+00  0.14107362160E+03  0.14107362160E+03  0.00000000000E+00 0. -1.
         -3   -1    0    0    0  501 -0.00000000000E+00 -0.00000000000E+00 -0.18427480980E+03  0.18427480980E+03  0.00000000000E+00 0.  1.
         25    2    1    2    0    0 -0.99829732022E+02 -0.41384281016E+02  0.28213827694E+02  0.16769676317E+03  0.12509016826E+03 0.  0.
         23    2    1    2    0    0  0.99829732022E+02  0.41384281016E+02 -0.71415015891E+02  0.15765166823E+03  0.89862728045E+02 0.  0.
          5    1    3    3  502    0  0.89744561652E+01  0.23089005307E+02 -0.20174144500E+02  0.32219738296E+02  0.41800000000E+01 0.  1.
         -5    1    3    3    0  502 -0.10880418819E+03 -0.64473286323E+02  0.48387972194E+02  0.13547702488E+03  0.41800000000E+01 0.  1.
        -11    1    4    4    0    0  0.67275548496E+02 -0.19737132380E+01  0.84808573806E+00  0.67309837459E+02  0.00000000000E+00 0. -1.
         11    1    4    4    0    0  0.32554183525E+02  0.43357994254E+02 -0.72263101629E+02  0.90341830775E+02  0.00000000000E+00 0.  1.
</event>
<event>
 8    1  0.6505836E-009  0.1269949E+03  0.7561462E-02  0.1231984E+00
         -2   -1    0    0    0  501 -0.00000000000E+00  0.00000000000E+00  0.42512793550E+02  0.42512793550E+02  0.00000000000E+00 0.  1.
          2   -1    0    0  501    0  0.00000000000E+00 -0.00000000000E+00 -0.74042116542E+03  0.74042116542E+03  0.00000000000E+00 0. -1.
         25    2    1    2    0    0  0.11583721023E+03 -0.31072942714E+02 -0.53022343395E+03  0.55782175748E+03  0.12507772054E+03 0.  0.
         23    2    1    2    0    0 -0.11583721023E+03  0.31072942714E+02 -0.16768493792E+03  0.22511220148E+03  0.90407288471E+02 0.  0.
          5    1    3    3  502    0  0.52049287384E+02 -0.36838505037E+02 -0.76942321523E+02  0.10001898326E+03  0.41800000000E+01 0. -1.
         -5    1    3    3    0  502  0.63787922845E+02  0.57655623224E+01 -0.45328111242E+03  0.45780277423E+03  0.41800000000E+01 0. -1.
        -11    1    4    4    0    0 -0.17248214230E+02  0.20434130681E+02  0.38119295522E+01  0.27010838523E+02  0.00000000000E+00 0.  1.
         11    1    4    4    0    0 -0.98588995999E+02  0.10638812033E+02 -0.17149686747E+03  0.19810136296E+03  0.00000000000E+00 0. -1.
</event>
<event>
 8    1  0.6505836E-009  0.1244647E+03  0.7561462E-02  0.1235908E+00
         -1   -1    0    0    0  501 -0.00000000000E+00  0.00000000000E+00  0.10712531841E+03  0.10712531841E+03  0.00000000000E+00 0.  1.
          1   -1    0    0  501    0  0.00000000000E+00 -0.00000000000E+00 -0.22018441400E+03  0.22018441400E+03  0.00000000000E+00 0. -1.
         25    2    1    2    0    0  0.74327621857E+02  0.56074428969E+02 -0.28261189602E+00  0.15593909204E+03  0.12509190062E+03 0.  0.
         23    2    1    2    0    0 -0.74327621857E+02 -0.56074428969E+02 -0.11277648369E+03  0.17137064038E+03  0.89333219769E+02 0.  0.
          5    1    3    3  502    0  0.87293124023E+02  0.60225386973E+02  0.39838402589E+02  0.11336559204E+03  0.41800000000E+01 0.  1.
         -5    1    3    3    0  502 -0.12965502166E+02 -0.41509580038E+01 -0.40121014485E+02  0.42573499998E+02  0.41800000000E+01 0.  1.
        -11    1    4    4    0    0  0.16297056056E+02 -0.30184523646E+02 -0.23755861461E+02  0.41725776896E+02  0.00000000000E+00 0.  1.
         11    1    4    4    0    0 -0.90624677913E+02 -0.25889905323E+02 -0.89020622234E+02  0.12964486348E+03  0.00000000000E+00 0. -1.
</event>
<event>
 8    1  0.6505836E-009  0.1629886E+03  0.7561462E-02  0.1185363E+00
          1   -1    0    0  501    0  0.00000000000E+00  0.00000000000E+00  0.54121808681E+03  0.54121808681E+03  0.00000000000E+00 0. -1.
         -1   -1    0    0    0  501 -0.00000000000E+00 -0.00000000000E+00 -0.72743355475E+02  0.72743355475E+02  0.00000000000E+00 0.  1.
         25    2    1    2    0    0  0.70918787357E+02  0.11918737780E+03  0.10574943836E+03  0.21462751182E+03  0.12508764803E+03 0.  0.
         23    2    1    2    0    0 -0.70918787357E+02 -0.11918737780E+03  0.36272529298E+03  0.39933393047E+03  0.93074402644E+02 0.  0.
          5    1    3    3  502    0  0.17979640097E+02 -0.23865171602E+02  0.22659876602E+01  0.30255924604E+02  0.41800000000E+01 0. -1.
         -5    1    3    3    0  502  0.52939147261E+02  0.14305254940E+03  0.10348345070E+03  0.18437158721E+03  0.41800000000E+01 0. -1.
        -11    1    4    4    0    0 -0.36112757790E+02 -0.92672354689E+02  0.13636211634E+03  0.16878069609E+03  0.00000000000E+00 0.  1.
         11    1    4    4    0    0 -0.34806029567E+02 -0.26515023114E+02  0.22636317664E+03  0.23055323438E+03  0.00000000000E+00 0. -1.
</event>
<event>
 8    1  0.6505836E-009  0.1821737E+03  0.7561462E-02  0.1165716E+00
         -1   -1    0    0    0  501 -0.00000000000E+00  0.00000000000E+00  0.52623767408E+02  0.52623767408E+02  0.00000000000E+00 0.  1.
          1   -1    0    0  501    0  0.00000000000E+00 -0.00000000000E+00 -0.73324305532E+03  0.73324305532E+03  0.00000000000E+00 0. -1.
         25    2    1    2    0    0  0.16684686388E+03  0.89216533762E+00 -0.39101782659E+03  0.44314871736E+03  0.12508866070E+03 0.  0.
         23    2    1    2    0    0 -0.16684686388E+03 -0.89216533762E+00 -0.28960146132E+03  0.34271810537E+03  0.75815706866E+02 0.  0.
          5    1    3    3  502    0  0.55697272888E+02 -0.37343547277E+02 -0.25321283446E+03  0.26197507260E+03  0.41800000000E+01 0.  1.
         -5    1    3    3    0  502  0.11114959099E+03  0.38235712615E+02 -0.13780499213E+03  0.18117364475E+03  0.41800000000E+01 0.  1.
        -11    1    4    4    0    0 -0.60992248914E+02  0.31761056861E+02 -0.14573570474E+03  0.16114501170E+03  0.00000000000E+00 0.  1.
         11    1    4    4    0    0 -0.10585461496E+03 -0.32653222199E+02 -0.14386575658E+03  0.18157309367E+03  0.00000000000E+00 0. -1.
</event>
<event>
 8    1  0.6505836E-009  0.1074556E+03  0.7561462E-02  0.1265356E+00
         -2   -1    0    0    0  501 -0.00000000000E+00  0.00000000000E+00  0.44068225157E+02  0.44068225157E+02  0.00000000000E+00 0.  1.
          2   -1    0    0  501    0  0.00000000000E+00 -0.00000000000E+00 -0.37316387689E+03  0.37316387689E+03  0.00000000000E+00 0. -1.
         25    2    1    2    0    0  0.61853919478E+02  0.22061095891E+02 -0.15212153329E+03  0.20760785612E+03  0.12508981464E+03 0.  0.
         23    2    1    2    0    0 -0.61853919478E+02 -0.22061095891E+02 -0.17697411845E+03  0.20962424593E+03  0.91158579262E+02 0.  0.
          5    1    3    3  502    0  0.14599641211E+02  0.47004223481E+02 -0.14543616098E+03  0.15359588494E+03  0.41800000000E+01 0. -1.
         -5    1    3    3    0  502  0.47254278266E+02 -0.24943127591E+02 -0.66853723051E+01  0.54011971185E+02  0.41800000000E+01 0. -1.
        -11    1    4    4    0    0 -0.72425474071E+02 -0.45965477215E+02 -0.14306127099E+03  0.16680767862E+03  0.00000000000E+00 0. -1.
         11    1    4    4    0    0  0.10571554593E+02  0.23904381324E+02 -0.33912847462E+02  0.42816567307E+02  0.00000000000E+00 0.  1.
</event>
<event>
 8    1  0.6505836E-009  0.1183348E+03  0.7561462E-02  0.1245870E+00
         -1   -1    0    0    0  501 -0.00000000000E+00  0.00000000000E+00  0.18145374097E+03  0.18145374097E+03  0.00000000000E+00 0.  1.
          1   -1    0    0  501    0  0.00000000000E+00 -0.00000000000E+00 -0.93795305620E+02  0.93795305620E+02  0.00000000000E+00 0. -1.
         25    2    1    2    0    0 -0.70782017012E+02  0.18242285128E+02  0.48177197327E+02  0.15270007895E+03  0.12511353592E+03 0.  0.
         23    2    1    2    0    0  0.70782017012E+02 -0.18242285128E+02  0.39481238020E+02  0.12254896764E+03  0.90092210618E+02 0.  0.
          5    1    3    3  502    0 -0.10669465946E+03  0.20124815722E+02  0.37690328000E+02  0.11500779012E+03  0.41800000000E+01 0. -1.
         -5    1    3    3    0  502  0.35912642445E+02 -0.18825305935E+01  0.10486869327E+02  0.37692288828E+02  0.41800000000E+01 0. -1.
        -11    1    4    4    0    0  0.79288755634E+02 -0.99174001176E+01  0.59247834882E+02  0.99475461965E+02  0.00000000000E+00 0.  1.
         11    1    4    4    0    0 -0.85067386221E+01 -0.83248850105E+01 -0.19766596861E+02  0.23073505670E+02  0.00000000000E+00 0. -1.
</event>
<event>
 8    1  0.6505836E-009  0.1292428E+03  0.7561462E-02  0.1228584E+00
          2   -1    0    0  501    0  0.00000000000E+00  0.00000000000E+00  0.88328336159E+03  0.88328336159E+03  0.00000000000E+00 0.  1.
         -2   -1    0    0    0  501 -0.00000000000E+00 -0.00000000000E+00 -0.42515946098E+02  0.42515946098E+02  0.00000000000E+00 0. -1.
         25    2    1    2    0    0  0.16554634866E+02 -0.10617047476E+03  0.15868824556E+03  0.22885722210E+03  0.12508974052E+03 0.  0.
         23    2    1    2    0    0 -0.16554634866E+02  0.10617047476E+03  0.68207916993E+03  0.69694208558E+03  0.94604708978E+02 0.  0.
          5    1    3    3  502    0 -0.11533880731E+00 -0.95355241248E+02  0.32173986022E+02  0.10072374652E+03  0.41800000000E+01 0.  1.
         -5    1    3    3    0  502  0.16669973674E+02 -0.10815233508E+02  0.12651425954E+03  0.12813347558E+03  0.41800000000E+01 0.  1.
        -11    1    4    4    0    0 -0.37378605430E+02  0.11439242167E+03  0.59341671979E+03  0.60549664707E+03  0.00000000000E+00 0.  1.
         11    1    4    4    0    0  0.20823970564E+02 -0.82219469186E+01  0.88662450139E+02  0.91445438518E+02  0.00000000000E+00 0. -1.
</event>
<event>
 8    1  0.6505836E-009  0.1101175E+03  0.7561462E-02  0.1260352E+00
         -2   -1    0    0    0  501 -0.00000000000E+00  0.00000000000E+00  0.30783031373E+03  0.30783031373E+03  0.00000000000E+00 0.  1.
          2   -1    0    0  501    0  0.00000000000E+00 -0.00000000000E+00 -0.52777025369E+02  0.52777025369E+02  0.00000000000E+00 0. -1.
         25    2    1    2    0    0 -0.20614180444E+01  0.33634170224E+02  0.93538468855E+02  0.15978781279E+03  0.12508874093E+03 0.  0.
         23    2    1    2    0    0  0.20614180444E+01 -0.33634170224E+02  0.16151481950E+03  0.20081952631E+03  0.11448117041E+03 0.  0.
          5    1    3    3  502    0 -0.41416208991E+02  0.52207067100E+02  0.94915335798E+02  0.11604858290E+03  0.41800000000E+01 0. -1.
         -5    1    3    3    0  502  0.39354790946E+02 -0.18572896876E+02 -0.13768669429E+01  0.43739229890E+02  0.41800000000E+01 0. -1.
        -11    1    4    4    0    0  0.53105627622E+02 -0.12885865155E+02  0.11991415853E+03  0.13177882463E+03  0.00000000000E+00 0. -1.
         11    1    4    4    0    0 -0.51044209577E+02 -0.20748305069E+02  0.41600660971E+02  0.69040701676E+02  0.00000000000E+00 0.  1.
</event>
<event>
 8    1  0.6505836E-009  0.1607087E+03  0.7561462E-02  0.1187899E+00
         -1   -1    0    0    0  501 -0.00000000000E+00  0.00000000000E+00  0.37986352366E+02  0.37986352366E+02  0.00000000000E+00 0.  1.
          1   -1    0    0  501    0  0.00000000000E+00 -0.00000000000E+00 -0.89501620350E+03  0.89501620350E+03  0.00000000000E+00 0. -1.
         25    2    1    2    0    0 -0.32096458755E+02 -0.14289489003E+03 -0.40432304323E+03  0.44785634982E+03  0.12509618109E+03 0.  0.
         23    2    1    2    0    0  0.32096458755E+02  0.14289489003E+03 -0.45270680791E+03  0.48514620605E+03  0.94732544891E+02 0.  0.
          5    1    3    3  502    0 -0.28792065016E+02 -0.10046590301E+03 -0.38838210033E+03  0.40221947856E+03  0.41800000000E+01 0. -1.
         -5    1    3    3    0  502 -0.33043937391E+01 -0.42428987022E+02 -0.15940942900E+02  0.45636871258E+02  0.41800000000E+01 0. -1.
        -11    1    4    4    0    0 -0.32868083280E+02  0.34210571880E+02 -0.13772315305E+03  0.14566516746E+03  0.00000000000E+00 0. -1.
         11    1    4    4    0    0  0.64964542035E+02  0.10868431815E+03 -0.31498365486E+03  0.33948103859E+03  0.00000000000E+00 0.  1.
</event>
<event>
 8    1  0.6505836E-009  0.1225843E+03  0.7561462E-02  0.1238894E+00
          2   -1    0    0  501    0  0.00000000000E+00  0.00000000000E+00  0.35044325316E+03  0.35044325316E+03  0.00000000000E+00 0. -1.
         -2   -1    0    0    0  501 -0.00000000000E+00 -0.00000000000E+00 -0.71864055486E+02  0.71864055486E+02  0.00000000000E+00 0.  1.
         25    2    1    2    0    0 -0.84690172272E+02  0.54478797669E+02  0.22446188714E+03  0.27599078829E+03  0.12508961494E+03 0.  0.
         23    2    1    2    0    0  0.84690172272E+02 -0.54478797669E+02  0.54117310539E+02  0.14631652036E+03  0.91320732344E+02 0.  0.
          5    1    3    3  502    0 -0.31545686024E+02 -0.17860946865E+01  0.18737542322E+03  0.19006667796E+03  0.41800000000E+01 0.  1.
         -5    1    3    3    0  502 -0.53144486248E+02  0.56264892356E+02  0.37086463912E+02  0.85924110329E+02  0.41800000000E+01 0.  1.
        -11    1    4    4    0    0  0.18023382500E+02 -0.65750212505E+02  0.23712883730E+02  0.72181947992E+02  0.00000000000E+00 0. -1.
         11    1    4    4    0    0  0.66666789772E+02  0.11271414836E+02  0.30404426809E+02  0.74134572370E+02  0.00000000000E+00 0.  1.
</event>
<event>
 8    1  0.6505836E-009  0.1155374E+03  0.7561462E-02  0.1250646E+00
          1   -1    0    0  501    0  0.00000000000E+00  0.00000000000E+00  0.29500408402E+03  0.29500408402E+03  0.00000000000E+00 0. -1.
         -1   -1    0    0    0  501 -0.00000000000E+00 -0.00000000000E+00 -0.63611817414E+02  0.63611817414E+02  0.00000000000E+00 0.  1.
         25    2    1    2    0    0 -0.78310726755E+02 -0.35061287316E+01  0.17005397277E+03  0.22519026491E+03  0.12508972336E+03 0.  0.
         23    2    1    2    0    0  0.78310726755E+02  0.35061287316E+01  0.61338293839E+02  0.13342563653E+03  0.88854664084E+02 0.  0.
          5    1    3    3  502    0 -0.39583317346E+02 -0.42823980274E+02  0.15810559809E+03  0.16856922865E+03  0.41800000000E+01 0.  1.
         -5    1    3    3    0  502 -0.38727409410E+02  0.39317851543E+02  0.11948374680E+02  0.56621036259E+02  0.41800000000E+01 0.  1.
        -11    1    4    4    0    0  0.16458860303E+02 -0.38921442921E+02  0.13077612259E+02  0.44235695359E+02  0.00000000000E+00 0.  1.
         11    1    4    4    0    0  0.61851866453E+02  0.42427571652E+02  0.48260681580E+02  0.89189941173E+02  0.00000000000E+00 0. -1.
</event>
<event>
 8    1  0.6505836E-009  0.1630378E+03  0.7561462E-02  0.1185309E+00
          1   -1    0    0  501    0  0.00000000000E+00  0.00000000000E+00  0.20319524351E+03  0.20319524351E+03  0.00000000000E+00 0. -1.
         -1   -1    0    0    0  501 -0.00000000000E+00 -0.00000000000E+00 -0.17229324896E+03  0.17229324896E+03  0.00000000000E+00 0.  1.
         25    2    1    2    0    0 -0.10871783822E+03  0.10255022653E+03 -0.16018105162E+02  0.19554694864E+03  0.12508362051E+03 0.  0.
         23    2    1    2    0    0  0.10871783822E+03 -0.10255022653E+03  0.46920099711E+02  0.17994154384E+03  0.88551375674E+02 0.  0.
          5    1    3    3  502    0  0.13350900292E+02 -0.53600558951E+00 -0.31993306955E+02  0.34922455963E+02  0.41800000000E+01 0. -1.
         -5    1    3    3    0  502 -0.12206873851E+03  0.10308623212E+03  0.15975201792E+02  0.16062449267E+03  0.41800000000E+01 0. -1.
        -11    1    4    4    0    0  0.59503907234E+02 -0.75365243415E+02  0.70344905008E+02  0.11903377904E+03  0.00000000000E+00 0.  1.
         11    1    4    4    0    0  0.49213930985E+02 -0.27184983113E+02 -0.23424805297E+02  0.60907764801E+02  0.00000000000E+00 0. -1.
</event>
<event>
 8    1  0.6505836E-009  0.1403267E+03  0.7561462E-02  0.1212890E+00
         -1   -1    0    0    0  501 -0.00000000000E+00  0.00000000000E+00  0.12690143318E+03  0.12690143318E+03  0.00000000000E+00 0.  1.
          1   -1    0    0  501    0  0.00000000000E+00 -0.00000000000E+00 -0.20250683384E+03  0.20250683384E+03  0.00000000000E+00 0. -1.
         25    2    1    2    0    0  0.85564217175E+02  0.72988522229E+02 -0.67568666902E+02  0.18127384824E+03  0.12508446615E+03 0.  0.
         23    2    1    2    0    0 -0.85564217175E+02 -0.72988522229E+02 -0.80367337590E+01  0.14813441879E+03  0.96076309783E+02 0.  0.
          5    1    3    3  502    0  0.56496656272E+01 -0.33896870086E+02 -0.11815483032E+02  0.36578607992E+02  0.41800000000E+01 0. -1.
         -5    1    3    3    0  502  0.79914551548E+02  0.10688539231E+03 -0.55753183870E+02  0.14469524025E+03  0.41800000000E+01 0. -1.
        -11    1    4    4    0    0 -0.65474315630E+02 -0.57639159790E+02 -0.48959993538E+02  0.10003119371E+03  0.00000000000E+00 0. -1.
         11    1    4    4    0    0 -0.20089901545E+02 -0.15349362439E+02  0.40923259779E+02  0.48103225072E+02  0.00000000000E+00 0.  1.
</event>
<event>
 8    1  0.6505836E-009  0.1522036E+03  0.7561462E-02  0.1197791E+00
          2   -1    0    0  501    0  0.00000000000E+00  0.00000000000E+00  0.65351762345E+03  0.65351762345E+03  0.00000000000E+00 0. -1.
         -2   -1    0    0    0  501 -0.00000000000E+00 -0.00000000000E+00 -0.43790877162E+02  0.43790877162E+02  0.00000000000E+00 0.  1.
         25    2    1    2    0    0 -0.11688354611E+03  0.53065116759E+02  0.31430146855E+03  0.36181602725E+03  0.12509098477E+03 0.  0.
         23    2    1    2    0    0  0.11688354611E+03 -0.53065116759E+02  0.29542527774E+03  0.33549247337E+03  0.93815963424E+02 0.  0.
          5    1    3    3  502    0 -0.55443129912E+01 -0.28425834831E+02  0.11971898540E+03  0.12324315542E+03  0.41800000000E+01 0. -1.
         -5    1    3    3    0  502 -0.11133923312E+03  0.81490951590E+02  0.19458248316E+03  0.23857287183E+03  0.41800000000E+01 0. -1.
        -11    1    4    4    0    0  0.34058519648E+02 -0.41170448275E+02  0.40099316446E+02  0.66805267391E+02  0.00000000000E+00 0.  1.
         11    1    4    4    0    0  0.82825026461E+02 -0.11894668484E+02  0.25532596129E+03  0.26868720598E+03  0.00000000000E+00 0. -1.
</event>
<event>
 8    1  0.6505836E-009  0.1513363E+03  0.7561462E-02  0.1198841E+00
         -1   -1    0    0    0  501 -0.00000000000E+00  0.00000000000E+00  0.70514243999E+02  0.70514243999E+02  0.00000000000E+00 0.  1.
          1   -1    0    0  501    0  0.00000000000E+00 -0.00000000000E+00 -0.37435359019E+03  0.37435359019E+03  0.00000000000E+00 0. -1.
         25    2    1    2    0    0 -0.85642582783E+02  0.70731014989E+02 -0.99610665805E+02  0.19469825079E+03  0.12509034995E+03 0.  0.
         23    2    1    2    0    0  0.85642582783E+02 -0.70731014989E+02 -0.20422868039E+03  0.25016958340E+03  0.92400963738E+02 0.  0.
          5    1    3    3  502    0 -0.42523661337E+02 -0.29873909901E+02 -0.97967447657E+01  0.53048665151E+02  0.41800000000E+01 0.  1.
         -5    1    3    3    0  502 -0.43118921446E+02  0.10060492489E+03 -0.89813921040E+02  0.14164958564E+03  0.41800000000E+01 0.  1.
        -11    1    4    4    0    0 -0.14081953036E+02 -0.30261208543E+02 -0.27486797753E+02  0.43238480483E+02  0.00000000000E+00 0.  1.
         11    1    4    4    0    0  0.99724535818E+02 -0.40469806446E+02 -0.17674188264E+03  0.20693110292E+03  0.00000000000E+00 0. -1.
</event>
<event>
 8    1  0.6505836E-009  0.1440846E+03  0.7561462E-02  0.1207936E+00
          2   -1    0    0  501    0  0.00000000000E+00  0.00000000000E+00  0.37410386739E+03  0.37410386739E+03  0.00000000000E+00 0. -1.
         -2   -1    0    0    0  501 -0.00000000000E+00 -0.00000000000E+00 -0.67723740338E+02  0.67723740338E+02  0.00000000000E+00 0.  1.
         25    2    1    2    0    0 -0.57125938631E+02  0.99034180233E+02  0.12405561589E+03  0.21001654549E+03  0.12508401907E+03 0.  0.
         23    2    1    2    0    0  0.57125938631E+02 -0.99034180233E+02  0.18232451116E+03  0.23181106223E+03  0.86156830757E+02 0.  0.
          5    1    3    3  502    0 -0.92609752795E+02  0.55815336883E+02  0.56021781685E+02  0.12185167445E+03  0.41800000000E+01 0. -1.
         -5    1    3    3    0  502  0.35483814164E+02  0.43218843351E+02  0.68033834208E+02  0.88164871039E+02  0.41800000000E+01 0. -1.
        -11    1    4    4    0    0  0.15530561301E+01 -0.49245190035E+02  0.13436310814E+03  0.14311165416E+03  0.00000000000E+00 0.  1.
         11    1    4    4    0    0  0.55572882501E+02 -0.49788990198E+02  0.47961403013E+02  0.88699408078E+02  0.00000000000E+00 0. -1.
</event>
<event>
 8    1  0.6505836E-009  0.1083575E+03  0.7561462E-02  0.1263642E+00
         -1   -1    0    0    0  501 -0.00000000000E+00  0.00000000000E+00  0.11046610877E+03  0.11046610877E+03  0.00000000000E+00 0.  1.
          1   -1    0    0  501    0  0.00000000000E+00 -0.00000000000E+00 -0.11764582153E+03  0.11764582153E+03  0.00000000000E+00 0. -1.
         25    2    1    2    0    0  0.59639447684E+01 -0.37189090947E+02 -0.13466417649E-01  0.13063706466E+03  0.12508974922E+03 0.  0.
         23    2    1    2    0    0 -0.59639447684E+01  0.37189090947E+02 -0.71662463421E+01  0.97474865640E+02  0.89618063036E+02 0.  0.
          5    1    3    3  502    0 -0.55637187087E+02 -0.58090407013E+01  0.18286096023E+02  0.59000807186E+02  0.41800000000E+01 0. -1.
         -5    1    3    3    0  502  0.61601131855E+02 -0.31380050246E+02 -0.18299562440E+02  0.71636257473E+02  0.41800000000E+01 0. -1.
        -11    1    4    4    0    0 -0.52711479972E+01 -0.26827085779E+02  0.13109942726E+02  0.30320754127E+02  0.00000000000E+00 0.  1.
         11    1    4    4    0    0 -0.69279677123E+00  0.64016176726E+02 -0.20276189068E+02  0.67154111513E+02  0.00000000000E+00 0. -1.
</event>
<event>
 8    1  0.6505836E-009  0.1086485E+03  0.7561462E-02  0.1263093E+00
          1   -1    0    0  501    0  0.00000000000E+00  0.00000000000E+00  0.23554653884E+03  0.23554653884E+03  0.00000000000E+00 0. -1.
         -1   -1    0    0    0  501 -0.00000000000E+00 -0.00000000000E+00 -0.10225063213E+03  0.10225063213E+03  0.00000000000E+00 0.  1.
         25    2    1    2    0    0 -0.92084030597E+02 -0.65786249420E+01  0.13906618936E+03  0.20858926787E+03  0.12508929071E+03 0.  0.
         23    2    1    2    0    0  0.92084030597E+02  0.65786249420E+01 -0.57702826536E+01  0.12920790309E+03  0.90214406071E+02 0.  0.
          5    1    3    3  502    0 -0.82675931313E+02 -0.68038501946E+01  0.15376832896E+02  0.84472015400E+02  0.41800000000E+01 0.  1.
         -5    1    3    3    0  502 -0.94080992846E+01  0.22522525253E+00  0.12368935646E+03  0.12411725247E+03  0.41800000000E+01 0.  1.
        -11    1    4    4    0    0 -0.56126314978E+01  0.24046644236E+02 -0.16019445005E+02  0.29434084827E+02  0.00000000000E+00 0.  1.
         11    1    4    4    0    0  0.97696662095E+02 -0.17468019294E+02  0.10249162351E+02  0.99773818267E+02  0.00000000000E+00 0. -1.
</event>
<event>
 8    1  0.6505836E-009  0.1443840E+03  0.7561462E-02  0.1207549E+00
         -2   -1    0    0    0  501 -0.00000000000E+00  0.00000000000E+00  0.32480525391E+03  0.32480525391E+03  0.00000000000E+00 0.  1.
          2   -1    0    0  501    0  0.00000000000E+00 -0.00000000000E+00 -0.66724709919E+02  0.66724709919E+02  0.00000000000E+00 0. -1.
         25    2    1    2    0    0 -0.45341461036E+02 -0.84002785462E+02  0.17605624715E+03  0.23612684669E+03  0.12509104490E+03 0.  0.
         23    2    1    2    0    0  0.45341461036E+02  0.84002785462E+02  0.82024296844E+02  0.15540311714E+03  0.91158255187E+02 0.  0.
          5    1    3    3  502    0  0.29428165120E+02 -0.76153046298E+02  0.84247505013E+02  0.11739002455E+03  0.41800000000E+01 0. -1.
         -5    1    3    3    0  502 -0.74769626155E+02 -0.78497391648E+01  0.91808742137E+02  0.11873682215E+03  0.41800000000E+01 0. -1.
        -11    1    4    4    0    0 -0.14976572200E+01  0.84862815962E+02  0.48048061884E+02  0.97532337001E+02  0.00000000000E+00 0. -1.
         11    1    4    4    0    0  0.46839118256E+02 -0.86003049939E+00  0.33976234960E+02  0.57870780135E+02  0.00000000000E+00 0.  1.
</event>
<event>
 8    1  0.6505836E-009  0.1284100E+03  0.7561462E-02  0.1229834E+00
         -1   -1    0    0    0  501 -0.00000000000E+00  0.00000000000E+00  0.96299333431E+02  0.96299333431E+02  0.00000000000E+00 0.  1.
          1   -1    0    0  501    0  0.00000000000E+00 -0.00000000000E+00 -0.21869899056E+03  0.21869899056E+03  0.00000000000E+00 0. -1.
         25    2    1    2    0    0  0.50399444085E+02  0.62552989866E+02 -0.12586258253E+03  0.19479777403E+03  0.12510716439E+03 0.  0.
         23    2    1    2    0    0 -0.50399444085E+02 -0.62552989866E+02  0.34629254047E+01  0.12020054996E+03  0.89348754063E+02 0.  0.
          5    1    3    3  502    0  0.53073934325E+02 -0.18281109796E+02 -0.16394145931E+02  0.58628337013E+02  0.41800000000E+01 0. -1.
         -5    1    3    3    0  502 -0.26744902403E+01  0.80834099662E+02 -0.10946843660E+03  0.13616943702E+03  0.41800000000E+01 0. -1.
        -11    1    4    4    0    0 -0.12012869294E+02  0.22903148395E+02 -0.42192196385E+01  0.26204294484E+02  0.00000000000E+00 0. -1.
         11    1    4    4    0    0 -0.38386574790E+02 -0.85456138261E+02  0.76821450431E+01  0.93996255474E+02  0.00000000000E+00 0.  1.
</event>
<event>
 8    1  0.6505836E-009  0.7811306E+02  0.7561462E-02  0.1334493E+00
          1   -1    0    0  501    0  0.00000000000E+00  0.00000000000E+00  0.41393226201E+02  0.41393226201E+02  0.00000000000E+00 0. -1.
         -1   -1    0    0    0  501 -0.00000000000E+00 -0.00000000000E+00 -0.34050024680E+03  0.34050024680E+03  0.00000000000E+00 0.  1.
         25    2    1    2    0    0  0.14772233602E+01  0.41122791437E+02 -0.20320458550E+03  0.24216690875E+03  0.12513769201E+03 0.  0.
         23    2    1    2    0    0 -0.14772233602E+01 -0.41122791437E+02 -0.95902435093E+02  0.13972656425E+03  0.92913774729E+02 0.  0.
          5    1    3    3  502    0 -0.49122451512E+02  0.32926695110E+02 -0.41199669189E+02  0.72194651012E+02  0.41800000000E+01 0.  1.
         -5    1    3    3    0  502  0.50599674872E+02  0.81960963268E+01 -0.16200491631E+03  0.16997225774E+03  0.41800000000E+01 0.  1.
        -11    1    4    4    0    0 -0.10392966268E+02 -0.25280817817E+02  0.12324342130E+02  0.29983710683E+02  0.00000000000E+00 0. -1.
         11    1    4    4    0    0  0.89157429082E+01 -0.15841973620E+02 -0.10822677722E+03  0.10974285356E+03  0.00000000000E+00 0.  1.
</event>
<event>
 8    1  0.6505836E-009  0.7181187E+02  0.7561462E-02  0.1354038E+00
          2   -1    0    0  501    0  0.00000000000E+00  0.00000000000E+00  0.18847511230E+03  0.18847511230E+03  0.00000000000E+00 0. -1.
         -2   -1    0    0    0  501 -0.00000000000E+00 -0.00000000000E+00 -0.70842154254E+02  0.70842154254E+02  0.00000000000E+00 0.  1.
         25    2    1    2    0    0 -0.99399450399E+00 -0.19180835173E+02  0.10563449703E+03  0.16484278155E+03  0.12508238566E+03 0.  0.
         23    2    1    2    0    0  0.99399450399E+00  0.19180835173E+02  0.11998461012E+02  0.94474485000E+02  0.91720078426E+02 0.  0.
          5    1    3    3  502    0  0.56325682204E+02  0.19739127633E+01  0.81145106380E+02  0.98886194673E+02  0.41800000000E+01 0.  1.
         -5    1    3    3    0  502 -0.57319676708E+02 -0.21154747936E+02  0.24489390652E+02  0.65956586879E+02  0.41800000000E+01 0.  1.
        -11    1    4    4    0    0 -0.80610429300E+01  0.11184139871E+02 -0.39365074597E+02  0.41709405364E+02  0.00000000000E+00 0.  1.
         11    1    4    4    0    0  0.90550374340E+01  0.79966953018E+01  0.51363535610E+02  0.52765079636E+02  0.00000000000E+00 0. -1.
</event>
<event>
 8    1  0.6505836E-009  0.1018403E+03  0.7561462E-02  0.1276473E+00
         -2   -1    0    0    0  501 -0.00000000000E+00  0.00000000000E+00  0.35581906961E+02  0.35581906961E+02  0.00000000000E+00 0. -1.
          2   -1    0    0  501    0  0.00000000000E+00 -0.00000000000E+00 -0.52111646364E+03  0.52111646364E+03  0.00000000000E+00 0.  1.
         25    2    1    2    0    0 -0.74562292204E+02 -0.40078452734E+02 -0.28991017627E+03  0.32689553534E+03  0.12508782087E+03 0.  0.
         23    2    1    2    0    0  0.74562292204E+02  0.40078452734E+02 -0.19562438041E+03  0.22980283526E+03  0.85875648995E+02 0.  0.
          5    1    3    3  502    0  0.45444918594E+01 -0.49475275697E+00 -0.20206463901E+03  0.20215956056E+03  0.41800000000E+01 0. -1.
         -5    1    3    3    0  502 -0.79106784064E+02 -0.39583699977E+02 -0.87845537257E+02  0.12473597478E+03  0.41800000000E+01 0. -1.
        -11    1    4    4    0    0 -0.34320224490E+01  0.30105543615E+02 -0.10754817915E+03  0.11173510359E+03  0.00000000000E+00 0. -1.
         11    1    4    4    0    0  0.77994314653E+02  0.99729091192E+01 -0.88076201256E+02  0.11806773167E+03  0.00000000000E+00 0.  1.
</event>
<event>
 8    1  0.6505836E-009  0.2333812E+03  0.7561462E-02  0.1124282E+00
          2   -1    0    0  501    0  0.00000000000E+00  0.00000000000E+00  0.18817572079E+04  0.18817572079E+04  0.00000000000E+00 0. -1.
         -2   -1    0    0    0  501 -0.00000000000E+00 -0.00000000000E+00 -0.41491996412E+02  0.41491996412E+02  0.00000000000E+00 0.  1.
         25    2    1    2    0    0  0.15050821584E+02 -0.22785869797E+03  0.13594449216E+04  0.13841544426E+04  0.12508761921E+03 0.  0.
         23    2    1    2    0    0 -0.15050821584E+02  0.22785869797E+03  0.48082028987E+03  0.53909476175E+03  0.85375040416E+02 0.  0.
          5    1    3    3  502    0 -0.17781164782E+02 -0.10377260848E+03  0.92910435264E+03  0.93506004865E+03  0.41800000000E+01 0.  1.
         -5    1    3    3    0  502  0.32831986365E+02 -0.12408608948E+03  0.43034056900E+03  0.44909439393E+03  0.41800000000E+01 0.  1.
        -11    1    4    4    0    0  0.14115917091E+02  0.13252644020E+03  0.35071927434E+03  0.37518865370E+03  0.00000000000E+00 0. -1.
         11    1    4    4    0    0 -0.29166738675E+02  0.95332257768E+02  0.13010101553E+03  0.16390610805E+03  0.00000000000E+00 0.  1.
</event>
<event>
 8    1  0.6505836E-009  0.1109431E+03  0.7561462E-02  0.1258833E+00
         -2   -1    0    0    0  501 -0.00000000000E+00  0.00000000000E+00  0.22759434520E+02  0.22759434520E+02  0.00000000000E+00 0. -1.
          2   -1    0    0  501    0  0.00000000000E+00 -0.00000000000E+00 -0.71077893313E+03  0.71077893313E+03  0.00000000000E+00 0.  1.
         25    2    1    2    0    0 -0.69352545370E+01  0.54559179027E+02 -0.27817700757E+03  0.30992763340E+03  0.12509152101E+03 0.  0.
         23    2    1    2    0    0  0.69352545370E+01 -0.54559179027E+02 -0.40984249104E+03  0.42361073426E+03  0.91925975351E+02 0.  0.
          5    1    3    3  502    0 -0.87453611710E+01  0.94577536960E+02 -0.17481081138E+03  0.19899166820E+03  0.41800000000E+01 0.  1.
         -5    1    3    3    0  502  0.18101066339E+01 -0.40018357933E+02 -0.10336619619E+03  0.11093596519E+03  0.41800000000E+01 0.  1.
        -11    1    4    4    0    0  0.34133153387E+01  0.15761938142E+02 -0.13410048368E+02  0.20974241651E+02  0.00000000000E+00 0. -1.
         11    1    4    4    0    0  0.35219391984E+01 -0.70321117169E+02 -0.39643244267E+03  0.40263649260E+03  0.00000000000E+00 0.  1.
</event>
<event>
 8    1  0.6505836E-009  0.1027517E+03  0.7561462E-02  0.1274614E+00
         -4   -1    0    0    0  501 -0.00000000000E+00  0.00000000000E+00  0.27031507777E+03  0.27031507777E+03  0.00000000000E+00 0.  1.
          4   -1    0    0  501    0  0.00000000000E+00 -0.00000000000E+00 -0.69427246775E+02  0.69427246775E+02  0.00000000000E+00 0. -1.
         25    2    1    2    0    0 -0.78547437301E+02 -0.25401205802E+02  0.11825569135E+03  0.19091241490E+03  0.12509284737E+03 0.  0.
         23    2    1    2    0    0  0.78547437301E+02  0.25401205802E+02  0.82632139646E+02  0.14882990965E+03  0.92235298777E+02 0.  0.
          5    1    3    3  502    0 -0.33187515607E+02 -0.41132138242E+02 -0.99556663140E+01  0.53943041074E+02  0.41800000000E+01 0.  1.
         -5    1    3    3    0  502 -0.45359921694E+02  0.15730932441E+02  0.12821135767E+03  0.13696937382E+03  0.41800000000E+01 0.  1.
        -11    1    4    4    0    0  0.87561810943E+02  0.12342800070E+02  0.94193699993E+02  0.12919701455E+03  0.00000000000E+00 0.  1.
         11    1    4    4    0    0 -0.90143736424E+01  0.13058405732E+02 -0.11561560347E+02  0.19632895102E+02  0.00000000000E+00 0. -1.
</event>
<event>
 8    1  0.6505836E-009  0.9518758E+02  0.7561462E-02  0.1290754E+00
         -2   -1    0    0    0  501 -0.00000000000E+00  0.00000000000E+00  0.22602367268E+02  0.22602367268E+02  0.00000000000E+00 0.  1.
          2   -1    0    0  501    0  0.00000000000E+00 -0.00000000000E+00 -0.67769997640E+03  0.67769997640E+03  0.00000000000E+00 0. -1.
         25    2    1    2    0    0 -0.35512735914E+02  0.94255776869E+01 -0.50033641756E+03  0.51704428150E+03  0.12509301489E+03 0.  0.
         23    2    1    2    0    0  0.35512735914E+02 -0.94255776869E+01 -0.15476119158E+03  0.18325806217E+03  0.91008213937E+02 0.  0.
          5    1    3    3  502    0  0.37275191922E+02  0.19783103886E+02 -0.31122974350E+03  0.31410545486E+03  0.41800000000E+01 0. -1.
         -5    1    3    3    0  502 -0.72787927836E+02 -0.10357526199E+02 -0.18910667405E+03  0.20293882664E+03  0.41800000000E+01 0. -1.
        -11    1    4    4    0    0  0.12898840353E+02  0.27871681094E+02 -0.10358208181E+02  0.32411466584E+02  0.00000000000E+00 0.  1.
         11    1    4    4    0    0  0.22613895561E+02 -0.37297258781E+02 -0.14440298340E+03  0.15084659558E+03  0.00000000000E+00 0. -1.
</event>
<event>
 8    1  0.6505836E-009  0.1158929E+03  0.7561462E-02  0.1250030E+00
         -1   -1    0    0    0  501 -0.00000000000E+00  0.00000000000E+00  0.24699000967E+03  0.24699000967E+03  0.00000000000E+00 0.  1.
          1   -1    0    0  501    0  0.00000000000E+00 -0.00000000000E+00 -0.70449244330E+02  0.70449244330E+02  0.00000000000E+00 0. -1.
         25    2    1    2    0    0 -0.81076188582E+01 -0.53584084204E+02  0.15759630631E+03  0.20837696584E+03  0.12508947426E+03 0.  0.
         23    2    1    2    0    0  0.81076188582E+01  0.53584084204E+02  0.18944459039E+02  0.10906228816E+03  0.92729189615E+02 0.  0.
          5    1    3    3  502    0 -0.53871032772E+02 -0.68770593308E+02  0.10956140058E+03  0.14018792948E+03  0.41800000000E+01 0. -1.
         -5    1    3    3    0  502  0.45763413914E+02  0.15186509104E+02  0.48034905728E+02  0.68189036363E+02  0.41800000000E+01 0. -1.
        -11    1    4    4    0    0  0.37952892019E+01 -0.20939679743E+02  0.26551470422E+02  0.34027268322E+02  0.00000000000E+00 0.  1.
         11    1    4    4    0    0  0.43123296563E+01  0.74523763947E+02 -0.76070113829E+01  0.75035019838E+02  0.00000000000E+00 0. -1.
</event>
<event>
 8    1  0.6505836E-009  0.1414140E+03  0.7561462E-02  0.1211439E+00
         -2   -1    0    0    0  501 -0.00000000000E+00  0.00000000000E+00  0.53215815278E+03  0.53215815278E+03  0.00000000000E+00 0.  1.
          2   -1    0    0  501    0  0.00000000000E+00 -0.00000000000E+00 -0.91264788572E+02  0.91264788572E+02  0.00000000000E+00 0. -1.
         25    2    1    2    0    0 -0.12546822256E+03 -0.27972397260E+02  0.43102078269E+03  0.46685288565E+03  0.12509185365E+03 0.  0.
         23    2    1    2    0    0  0.12546822256E+03  0.27972397260E+02  0.98725815198E+01  0.15657005570E+03  0.88836842557E+02 0.  0.
          5    1    3    3  502    0 -0.94626488163E+02 -0.15723337507E+02  0.11835566506E+03  0.15240384331E+03  0.41800000000E+01 0. -1.
         -5    1    3    3    0  502 -0.30841734399E+02 -0.12249059753E+02  0.31266511763E+03  0.31444904234E+03  0.41800000000E+01 0. -1.
        -11    1    4    4    0    0  0.91926174351E+02 -0.20725910774E+02  0.20635253787E+02  0.96466567302E+02  0.00000000000E+00 0.  1.
         11    1    4    4    0    0  0.33542048211E+02  0.48698308034E+02 -0.10762672267E+02  0.60103488400E+02  0.00000000000E+00 0. -1.
</event>
<event>
 8    1  0.6505836E-009  0.8529051E+02  0.7561462E-02  0.1314675E+00
         -1   -1    0    0    0  501 -0.00000000000E+00  0.00000000000E+00  0.83771094339E+02  0.83771094339E+02  0.00000000000E+00 0.  1.
          1   -1    0    0  501    0  0.00000000000E+00 -0.00000000000E+00 -0.15396471379E+03  0.15396471379E+03  0.00000000000E+00 0. -1.
         25    2    1    2    0    0 -0.13668790211E+02  0.12089820211E+02 -0.83805448734E+01  0.12669074837E+03  0.12508921861E+03 0.  0.
         23    2    1    2    0    0  0.13668790211E+02 -0.12089820211E+02 -0.61813074577E+02  0.11104505976E+03  0.90427592744E+02 0.  0.
          5    1    3    3  502    0 -0.26243508846E+02 -0.27785217600E+02  0.44720449546E+02  0.58975682117E+02  0.41800000000E+01 0.  1.
         -5    1    3    3    0  502  0.12574718635E+02  0.39875037811E+02 -0.53100994419E+02  0.67715066252E+02  0.41800000000E+01 0.  1.
        -11    1    4    4    0    0 -0.20069182010E+02  0.30048232133E+02 -0.13411083597E+02  0.38542515280E+02  0.00000000000E+00 0.  1.
         11    1    4    4    0    0  0.33737972221E+02 -0.42138052344E+02 -0.48401990981E+02  0.72502544478E+02  0.00000000000E+00 0. -1.
</event>
<event>
 8    1  0.6505836E-009  0.1051398E+03  0.7561462E-02  0.1269844E+00
         -2   -1    0    0    0  501 -0.00000000000E+00  0.00000000000E+00  0.80311207232E+02  0.80311207232E+02  0.00000000000E+00 0.  1.
          2   -1    0    0  501    0  0.00000000000E+00 -0.00000000000E+00 -0.18710953159E+03  0.18710953159E+03  0.00000000000E+00 0. -1.
         25    2    1    2    0    0  0.21018178517E+02  0.26095012949E+02 -0.11383632708E+03  0.17242988251E+03  0.12510252392E+03 0.  0.
         23    2    1    2    0    0 -0.21018178517E+02 -0.26095012949E+02  0.70380027242E+01  0.94990856310E+02  0.88605957877E+02 0.  0.
          5    1    3    3  502    0 -0.43461258899E+02 -0.20964308111E+02 -0.54280175670E+02  0.72747461196E+02  0.41800000000E+01 0. -1.
         -5    1    3    3    0  502  0.64479437416E+02  0.47059321060E+02 -0.59556151411E+02  0.99682421314E+02  0.41800000000E+01 0. -1.
        -11    1    4    4    0    0 -0.38284811613E+02  0.11969781501E+02  0.27319700124E+02  0.48532138674E+02  0.00000000000E+00 0.  1.
         11    1    4    4    0    0  0.17266633095E+02 -0.38064794451E+02 -0.20281697400E+02  0.46458717636E+02  0.00000000000E+00 0. -1.
</event>
<event>
 8    1  0.6505836E-009  0.1444111E+03  0.7561462E-02  0.1207514E+00
          2   -1    0    0  501    0  0.00000000000E+00  0.00000000000E+00  0.91588140839E+03  0.91588140839E+03  0.00000000000E+00 0. -1.
         -2   -1    0    0    0  501 -0.00000000000E+00 -0.00000000000E+00 -0.34705080274E+02  0.34705080274E+02  0.00000000000E+00 0.  1.
         25    2    1    2    0    0  0.12561623260E+03  0.37224264960E+02  0.32678224652E+03  0.37362893248E+03  0.12508740443E+03 0.  0.
         23    2    1    2    0    0 -0.12561623260E+03 -0.37224264960E+02  0.55439408159E+03  0.57695755618E+03  0.91444738161E+02 0.  0.
          5    1    3    3  502    0  0.94670824417E+02  0.30965049363E+02  0.88746509744E+02  0.13347214942E+03  0.41800000000E+01 0. -1.
         -5    1    3    3    0  502  0.30945408186E+02  0.62592155969E+01  0.23803573678E+03  0.24015678307E+03  0.41800000000E+01 0. -1.
        -11    1    4    4    0    0 -0.15266855867E+02 -0.44149242151E+02  0.12162556295E+03  0.13028818071E+03  0.00000000000E+00 0.  1.
         11    1    4    4    0    0 -0.11034937674E+03  0.69249771911E+01  0.43276851865E+03  0.44666937547E+03  0.00000000000E+00 0. -1.
</event>
<event>
 8    1  0.6505836E-009  0.2111238E+03  0.7561462E-02  0.1140679E+00
          1   -1    0    0  501    0  0.00000000000E+00  0.00000000000E+00  0.78057579734E+03  0.78057579734E+03  0.00000000000E+00 0. -1.
         -1   -1    0    0    0  501 -0.00000000000E+00 -0.00000000000E+00 -0.96126503832E+02  0.96126503832E+02  0.00000000000E+00 0.  1.
         25    2    1    2    0    0  0.19241245486E+03  0.26708542314E+02  0.60869789967E+03  0.65107364149E+03  0.12509138485E+03 0.  0.
         23    2    1    2    0    0 -0.19241245486E+03 -0.26708542314E+02  0.75751393838E+02  0.22562865968E+03  0.86221339494E+02 0.  0.
          5    1    3    3  502    0  0.15673710177E+03 -0.19836675635E+02  0.32552719849E+03  0.36186384474E+03  0.41800000000E+01 0.  1.
         -5    1    3    3    0  502  0.35675353090E+02  0.46545217948E+02  0.28317070118E+03  0.28920979675E+03  0.41800000000E+01 0.  1.
        -11    1    4    4    0    0 -0.17329120093E+03 -0.90271403433E+00  0.83837966231E+02  0.19250833695E+03  0.00000000000E+00 0. -1.
         11    1    4    4    0    0 -0.19121253928E+02 -0.25805828279E+02 -0.80865723926E+01  0.33120322735E+02  0.00000000000E+00 0.  1.
</event>
<event>
 8    1  0.6505836E-009  0.1102588E+03  0.7561462E-02  0.1260091E+00
          1   -1    0    0  501    0  0.00000000000E+00  0.00000000000E+00  0.10843671676E+04  0.10843671676E+04  0.00000000000E+00 0. -1.
         -1   -1    0    0    0  501 -0.00000000000E+00 -0.00000000000E+00 -0.12084169963E+02  0.12084169963E+02  0.00000000000E+00 0.  1.
         25    2    1    2    0    0 -0.35345799573E+02  0.29886076989E+01  0.62634920015E+03  0.63969302578E+03  0.12504235037E+03 0.  0.
         23    2    1    2    0    0  0.35345799573E+02 -0.29886076989E+01  0.44593379749E+03  0.45675831179E+03  0.92265629105E+02 0.  0.
          5    1    3    3  502    0 -0.57042950240E+01 -0.55604026874E+02  0.40218053834E+03  0.40606773401E+03  0.41800000000E+01 0. -1.
         -5    1    3    3    0  502 -0.29641504549E+02  0.58592634573E+02  0.22416866181E+03  0.23362529177E+03  0.41800000000E+01 0. -1.
        -11    1    4    4    0    0 -0.15771959121E+02  0.32714053606E+02  0.17765534369E+03  0.18132949330E+03  0.00000000000E+00 0. -1.
         11    1    4    4    0    0  0.51117758694E+02 -0.35702661305E+02  0.26827845380E+03  0.27542881848E+03  0.00000000000E+00 0.  1.
</event>
<event>
 8    1  0.6505836E-009  0.9559867E+02  0.7561462E-02  0.1289833E+00
          1   -1    0    0  501    0  0.00000000000E+00  0.00000000000E+00  0.16264634297E+03  0.16264634297E+03  0.00000000000E+00 0. -1.
         -1   -1    0    0    0  501 -0.00000000000E+00 -0.00000000000E+00 -0.78897585881E+02  0.78897585881E+02  0.00000000000E+00 0.  1.
         25    2    1    2    0    0 -0.17400228232E+02 -0.21634235670E+02  0.63756273974E+02  0.14312310405E+03  0.12509417391E+03 0.  0.
         23    2    1    2    0    0  0.17400228232E+02  0.21634235670E+02  0.19992483114E+02  0.98420824800E+02  0.92282995605E+02 0.  0.
          5    1    3    3  502    0  0.34851812979E+02  0.16521052557E+02  0.67850980618E+02  0.78158953527E+02  0.41800000000E+01 0. -1.
         -5    1    3    3    0  502 -0.52252041211E+02 -0.38155288228E+02 -0.40947066445E+01  0.64964150521E+02  0.41800000000E+01 0. -1.
        -11    1    4    4    0    0  0.18090072506E+02 -0.30482326785E+02 -0.11811984422E+02  0.37362360010E+02  0.00000000000E+00 0.  1.
         11    1    4    4    0    0 -0.68984427466E+00  0.52116562455E+02  0.31804467536E+02  0.61058464790E+02  0.00000000000E+00 0. -1.
</event>
<event>
 8    1  0.6505836E-009  0.1210099E+03  0.7561462E-02  0.1241440E+00
         -2   -1    0    0    0  501 -0.00000000000E+00  0.00000000000E+00  0.19584455975E+02  0.19584455975E+02  0.00000000000E+00 0.  1.
          2   -1    0    0  501    0  0.00000000000E+00 -0.00000000000E+00 -0.85762419616E+03  0.85762419616E+03  0.00000000000E+00 0. -1.
         25    2    1    2    0    0  0.70014358502E+02  0.29054754693E+02 -0.48350092786E+03  0.50514361495E+03  0.12510289891E+03 0.  0.
         23    2    1    2    0    0 -0.70014358502E+02 -0.29054754693E+02 -0.35453881232E+03  0.37206503718E+03  0.83596849724E+02 0.  0.
          5    1    3    3  502    0 -0.22732044561E+02  0.28251983951E+02 -0.26826387756E+03  0.27073585069E+03  0.41800000000E+01 0.  1.
         -5    1    3    3    0  502  0.92746403062E+02  0.80277074215E+00 -0.21523705031E+03  0.23440776426E+03  0.41800000000E+01 0.  1.
        -11    1    4    4    0    0 -0.41182463155E+02 -0.58448790992E+02 -0.23477770499E+03  0.24542377065E+03  0.00000000000E+00 0.  1.
         11    1    4    4    0    0 -0.28831895346E+02  0.29394036300E+02 -0.11976110733E+03  0.12664126653E+03  0.00000000000E+00 0. -1.
</event>
<event>
 8    1  0.6505836E-009  0.1158385E+03  0.7561462E-02  0.1250125E+00
         -2   -1    0    0    0  501 -0.00000000000E+00  0.00000000000E+00  0.20594592829E+03  0.20594592829E+03  0.00000000000E+00 0.  1.
          2   -1    0    0  501    0  0.00000000000E+00 -0.00000000000E+00 -0.86088105004E+02  0.86088105004E+02  0.00000000000E+00 0. -1.
         25    2    1    2    0    0 -0.42932526070E+02  0.62720994010E+02  0.74545395203E+02  0.16424223786E+03  0.12506547032E+03 0.  0.
         23    2    1    2    0    0  0.42932526070E+02 -0.62720994010E+02  0.45312428084E+02  0.12779179544E+03  0.92197624474E+02 0.  0.
          5    1    3    3  502    0  0.12503254966E+02 -0.12835725682E+02  0.67735522962E+02  0.70190175306E+02  0.41800000000E+01 0. -1.
         -5    1    3    3    0  502 -0.55435781036E+02  0.75556719693E+02  0.68098722409E+01  0.94052062549E+02  0.41800000000E+01 0. -1.
        -11    1    4    4    0    0 -0.28845112137E+02 -0.26059686777E+02  0.15751479942E+02  0.41943496391E+02  0.00000000000E+00 0.  1.
         11    1    4    4    0    0  0.71777638207E+02 -0.36661307233E+02  0.29560948142E+02  0.85848299050E+02  0.00000000000E+00 0. -1.
</event>
<event>
 8    1  0.6505836E-009  0.1563854E+03  0.7561462E-02  0.1192839E+00
          2   -1    0    0  501    0  0.00000000000E+00  0.00000000000E+00  0.35795293340E+03  0.35795293340E+03  0.00000000000E+00 0. -1.
         -2   -1    0    0    0  501 -0.00000000000E+00 -0.00000000000E+00 -0.74931173887E+02  0.74931173887E+02  0.00000000000E+00 0.  1.
         25    2    1    2    0    0 -0.11374516523E+03 -0.38604101615E+02  0.11839725621E+03  0.20998751044E+03  0.12509438432E+03 0.  0.
         23    2    1    2    0    0  0.11374516523E+03  0.38604101615E+02  0.16462450330E+03  0.22289659685E+03  0.90296326190E+02 0.  0.
          5    1    3    3  502    0 -0.10166407538E+03  0.26887684367E+02  0.58995963941E+02  0.12065043703E+03  0.41800000000E+01 0.  1.
         -5    1    3    3    0  502 -0.12081089849E+02 -0.65491785982E+02  0.59401292265E+02  0.89337073412E+02  0.41800000000E+01 0.  1.
        -11    1    4    4    0    0  0.11277938895E+03  0.54233082382E+02  0.16517586979E+03  0.20722810079E+03  0.00000000000E+00 0. -1.
         11    1    4    4    0    0  0.96577628184E+00 -0.15628980768E+02 -0.55136648707E+00  0.15668496056E+02  0.00000000000E+00 0.  1.
</event>
<event>
 8    1  0.6505836E-009  0.1231097E+03  0.7561462E-02  0.1238053E+00
          2   -1    0    0  501    0  0.00000000000E+00  0.00000000000E+00  0.45812238782E+03  0.45812238782E+03  0.00000000000E+00 0.  1.
         -2   -1    0    0    0  501 -0.00000000000E+00 -0.00000000000E+00 -0.51568218761E+02  0.51568218761E+02  0.00000000000E+00 0. -1.
         25    2    1    2    0    0  0.91381970186E+02 -0.98529255691E-02  0.31656062815E+03  0.35243372149E+03  0.12509289419E+03 0.  0.
         23    2    1    2    0    0 -0.91381970186E+02  0.98529255691E-02  0.89993540910E+02  0.15725688509E+03  0.90995746774E+02 0.  0.
          5    1    3    3  502    0  0.74126939616E+02 -0.41210864513E+02  0.99606409054E+02  0.13088944822E+03  0.41800000000E+01 0. -1.
         -5    1    3    3    0  502  0.17255030570E+02  0.41201011587E+02  0.21695421909E+03  0.22154427327E+03  0.41800000000E+01 0. -1.
        -11    1    4    4    0    0 -0.36152551916E+02  0.35599046476E+02  0.67141703422E+01  0.51179871077E+02  0.00000000000E+00 0.  1.
         11    1    4    4    0    0 -0.55229418269E+02 -0.35589193551E+02  0.83279370568E+02  0.10607701401E+03  0.00000000000E+00 0. -1.
</event>
<event>
 8    1  0.6505836E-009  0.2235651E+03  0.7561462E-02  0.1131253E+00
          2   -1    0    0  501    0  0.00000000000E+00  0.00000000000E+00  0.20044571849E+04  0.20044571849E+04  0.00000000000E+00 0. -1.
         -2   -1    0    0    0  501 -0.00000000000E+00 -0.00000000000E+00 -0.27686217716E+02  0.27686217716E+02  0.00000000000E+00 0.  1.
         25    2    1    2    0    0  0.17867858200E+03 -0.10424209288E+03  0.11316655321E+04  0.11571962285E+04  0.12507511807E+03 0.  0.
         23    2    1    2    0    0 -0.17867858200E+03  0.10424209288E+03  0.84510543505E+03  0.87494717406E+03  0.92395408213E+02 0.  0.
          5    1    3    3  502    0  0.75035797623E+02 -0.98090918299E+02  0.41402915510E+03  0.43207616557E+03  0.41800000000E+01 0.  1.
         -5    1    3    3    0  502  0.10364278438E+03 -0.61511745802E+01  0.71763637701E+03  0.72512006297E+03  0.41800000000E+01 0.  1.
        -11    1    4    4    0    0 -0.15864323571E+03  0.57408094016E+02  0.54391565810E+03  0.56948012135E+03  0.00000000000E+00 0. -1.
         11    1    4    4    0    0 -0.20035346292E+02  0.46833998863E+02  0.30118977696E+03  0.30546705271E+03  0.00000000000E+00 0.  1.
</event>
<event>
 8    1  0.6505836E-009  0.1223082E+03  0.7561462E-02  0.1239337E+00
          1   -1    0    0  501    0  0.00000000000E+00  0.00000000000E+00  0.14942994972E+03  0.14942994972E+03  0.00000000000E+00 0. -1.
         -1   -1    0    0    0  501 -0.00000000000E+00 -0.00000000000E+00 -0.16082412438E+03  0.16082412438E+03  0.00000000000E+00 0.  1.
         25    2    1    2    0    0 -0.71306227852E+02 -0.36046709399E+02  0.70333008585E+02  0.16424993491E+03  0.12508943053E+03 0.  0.
         23    2    1    2    0    0  0.71306227852E+02  0.36046709399E+02 -0.81727183241E+02  0.14600413920E+03  0.90851157356E+02 0.  0.
          5    1    3    3  502    0 -0.62784228394E+02 -0.80533597303E+02  0.56107480343E+02  0.11658919924E+03  0.41800000000E+01 0. -1.
         -5    1    3    3    0  502 -0.85219994579E+01  0.44486887904E+02  0.14225528242E+02  0.47660735663E+02  0.41800000000E+01 0. -1.
        -11    1    4    4    0    0  0.40962532318E+02  0.49058663474E+02 -0.91465163438E+02  0.11158206683E+03  0.00000000000E+00 0.  1.
         11    1    4    4    0    0  0.30343695533E+02 -0.13011954076E+02  0.97379801968E+01  0.34422072364E+02  0.00000000000E+00 0. -1.
</event>
<event>
 8    1  0.6505836E-009  0.8618375E+02  0.7561462E-02  0.1312366E+00
         -4   -1    0    0    0  501 -0.00000000000E+00  0.00000000000E+00  0.23587068877E+03  0.23587068877E+03  0.00000000000E+00 0.  1.
          4   -1    0    0  501    0  0.00000000000E+00 -0.00000000000E+00 -0.59351954933E+02  0.59351954933E+02  0.00000000000E+00 0. -1.
         25    2    1    2    0    0 -0.26942530884E+02  0.19290115341E+02  0.44961228337E+02  0.13699031802E+03  0.12508727616E+03 0.  0.
         23    2    1    2    0    0  0.26942530884E+02 -0.19290115341E+02  0.13155750550E+03  0.15823232569E+03  0.81437602611E+02 0.  0.
          5    1    3    3  502    0  0.35121271019E+02  0.13986253332E+02 -0.23206332939E+02  0.44554744402E+02  0.41800000000E+01 0.  1.
         -5    1    3    3    0  502 -0.62063801903E+02  0.53038620098E+01  0.68167561276E+02  0.92435573613E+02  0.41800000000E+01 0.  1.
        -11    1    4    4    0    0 -0.13129952728E+02  0.14445594457E+02  0.34425390239E+01  0.19822258519E+02  0.00000000000E+00 0. -1.
         11    1    4    4    0    0  0.40072483612E+02 -0.33735709799E+02  0.12811496648E+03  0.13841006717E+03  0.00000000000E+00 0.  1.
</event>
<event>
 8    1  0.6505836E-009  0.2132507E+03  0.7561462E-02  0.1139017E+00
         -2   -1    0    0    0  501 -0.00000000000E+00  0.00000000000E+00  0.30909976029E+02  0.30909976029E+02  0.00000000000E+00 0.  1.
          2   -1    0    0  501    0  0.00000000000E+00 -0.00000000000E+00 -0.17311815141E+04  0.17311815141E+04  0.00000000000E+00 0. -1.
         25    2    1    2    0    0 -0.20196238154E+03  0.30009491307E+02 -0.87044289082E+03  0.90277759207E+03  0.12508869426E+03 0.  0.
         23    2    1    2    0    0  0.20196238154E+03 -0.30009491307E+02 -0.82982864723E+03  0.85931389804E+03  0.90085617491E+02 0.  0.
          5    1    3    3  502    0 -0.18160043185E+03  0.52111379409E+02 -0.83502046355E+03  0.85613723179E+03  0.41800000000E+01 0.  1.
         -5    1    3    3    0  502 -0.20361949690E+02 -0.22101888102E+02 -0.35422427267E+02  0.46640360272E+02  0.41800000000E+01 0.  1.
        -11    1    4    4    0    0  0.95380465158E+02 -0.31937231815E+02 -0.24490947986E+03  0.26476040722E+03  0.00000000000E+00 0.  1.
         11    1    4    4    0    0  0.10658191638E+03  0.19277405071E+01 -0.58491916738E+03  0.59455349082E+03  0.00000000000E+00 0. -1.
</event>
<event>
 8    1  0.6505836E-009  0.1627427E+03  0.7561462E-02  0.1185635E+00
          1   -1    0    0  501    0  0.00000000000E+00  0.00000000000E+00  0.11100843872E+03  0.11100843872E+03  0.00000000000E+00 0. -1.
         -1   -1    0    0    0  501 -0.00000000000E+00 -0.00000000000E+00 -0.30342857909E+03  0.30342857909E+03  0.00000000000E+00 0.  1.
         25    2    1    2    0    0  0.13862445239E+03  0.50538291873E+02 -0.10267692738E+03  0.21900639791E+03  0.12510153142E+03 0.  0.
         23    2    1    2    0    0 -0.13862445239E+03 -0.50538291873E+02 -0.89743212997E+02  0.19543061990E+03  0.91479096897E+02 0.  0.
          5    1    3    3  502    0  0.14266148715E+03  0.24600497435E+02 -0.38973190801E+02  0.14997955325E+03  0.41800000000E+01 0. -1.
         -5    1    3    3    0  502 -0.40370347631E+01  0.25937794438E+02 -0.63703736577E+02  0.69026844661E+02  0.41800000000E+01 0. -1.
        -11    1    4    4    0    0 -0.56972174205E+02 -0.44334206270E+02 -0.87603138108E+02  0.11351502229E+03  0.00000000000E+00 0. -1.
         11    1    4    4    0    0 -0.81652278185E+02 -0.62040856035E+01 -0.21400748892E+01  0.81915597609E+02  0.00000000000E+00 0.  1.
</event>
<event>
 8    1  0.6505836E-009  0.1323794E+03  0.7561462E-02  0.1223967E+00
         -2   -1    0    0    0  501 -0.00000000000E+00  0.00000000000E+00  0.12379983596E+03  0.12379983596E+03  0.00000000000E+00 0.  1.
          2   -1    0    0  501    0  0.00000000000E+00 -0.00000000000E+00 -0.21503306816E+03  0.21503306816E+03  0.00000000000E+00 0. -1.
         25    2    1    2    0    0 -0.78786167564E+02 -0.77467318530E+02 -0.10715792377E+03  0.19833340439E+03  0.12507946687E+03 0.  0.
         23    2    1    2    0    0  0.78786167564E+02  0.77467318530E+02  0.15924691570E+02  0.14049949972E+03  0.85311593471E+02 0.  0.
          5    1    3    3  502    0 -0.90384664003E+02 -0.53042714301E+02 -0.19727286192E+02  0.10672185928E+03  0.41800000000E+01 0.  1.
         -5    1    3    3    0  502  0.11598496439E+02 -0.24424604229E+02 -0.87430637577E+02  0.91611545116E+02  0.41800000000E+01 0.  1.
        -11    1    4    4    0    0 -0.14202428604E+02  0.13929988280E+02 -0.13567055930E+02  0.24079421886E+02  0.00000000000E+00 0. -1.
         11    1    4    4    0    0  0.92988596167E+02  0.63537330250E+02  0.29491747500E+02  0.11642007783E+03  0.00000000000E+00 0.  1.
</event>
<event>
 8    1  0.6505836E-009  0.1348414E+03  0.7561462E-02  0.1220444E+00
         -2   -1    0    0    0  501 -0.00000000000E+00  0.00000000000E+00  0.39945710676E+02  0.39945710676E+02  0.00000000000E+00 0. -1.
          2   -1    0    0  501    0  0.00000000000E+00 -0.00000000000E+00 -0.54035290736E+03  0.54035290736E+03  0.00000000000E+00 0.  1.
         25    2    1    2    0    0  0.58395179397E+02 -0.71301700243E+02 -0.22040293968E+03  0.26966583536E+03  0.12509307538E+03 0.  0.
         23    2    1    2    0    0 -0.58395179397E+02  0.71301700243E+02 -0.28000425700E+03  0.31063278267E+03  0.97961279580E+02 0.  0.
          5    1    3    3  502    0  0.94984683333E+02 -0.57465941743E+02 -0.12954830167E+03  0.17065948375E+03  0.41800000000E+01 0. -1.
         -5    1    3    3    0  502 -0.36589503937E+02 -0.13835758499E+02 -0.90854638014E+02  0.99006351616E+02  0.41800000000E+01 0. -1.
        -11    1    4    4    0    0  0.67764372090E+01  0.50331663630E+02 -0.52472749330E+02  0.73024556741E+02  0.00000000000E+00 0. -1.
         11    1    4    4    0    0 -0.65171616606E+02  0.20970036613E+02 -0.22753150767E+03  0.23760822593E+03  0.00000000000E+00 0.  1.
</event>
<event>
 8    1  0.6505836E-009  0.2001992E+03  0.7561462E-02  0.1149571E+00
         -2   -1    0    0    0  501 -0.00000000000E+00  0.00000000000E+00  0.10236878225E+04  0.10236878225E+04  0.00000000000E+00 0.  1.
          2   -1    0    0  501    0  0.00000000000E+00 -0.00000000000E+00 -0.44426271994E+02  0.44426271994E+02  0.00000000000E+00 0. -1.
         25    2    1    2    0    0  0.12153011849E+03 -0.12327778988E+03  0.65892775461E+03  0.69267607583E+03  0.12508947617E+03 0.  0.
         23    2    1    2    0    0 -0.12153011849E+03  0.12327778988E+03  0.32033379588E+03  0.37543801865E+03  0.91503999313E+02 0.  0.
          5    1    3    3  502    0  0.12293129870E+03 -0.51511108321E+02  0.51224610743E+03  0.52931941723E+03  0.41800000000E+01 0.  1.
         -5    1    3    3    0  502 -0.14011802150E+01 -0.71766681556E+02  0.14668164719E+03  0.16335665860E+03  0.41800000000E+01 0.  1.
        -11    1    4    4    0    0 -0.10833681273E+03  0.47614314694E+02  0.17894925278E+03  0.21453862829E+03  0.00000000000E+00 0. -1.
         11    1    4    4    0    0 -0.13193305764E+02  0.75663475183E+02  0.14138454310E+03  0.16089939037E+03  0.00000000000E+00 0.  1.
</event>
<event>
 8    1  0.6505836E-009  0.2262274E+03  0.7561462E-02  0.1129324E+00
          1   -1    0    0  501    0  0.00000000000E+00  0.00000000000E+00  0.79825832656E+03  0.79825832656E+03  0.00000000000E+00 0. -1.
         -1   -1    0    0    0  501 -0.00000000000E+00 -0.00000000000E+00 -0.69935146449E+02  0.69935146449E+02  0.00000000000E+00 0.  1.
         25    2    1    2    0    0 -0.12008163465E+03  0.16733692245E+03  0.30480017838E+03  0.38855138568E+03  0.12509111071E+03 0.  0.
         23    2    1    2    0    0  0.12008163465E+03 -0.16733692245E+03  0.42352300174E+03  0.47964208734E+03  0.90904094247E+02 0.  0.
          5    1    3    3  502    0 -0.12319910289E+03  0.18245775721E+03  0.29943222000E+03  0.37167994148E+03  0.41800000000E+01 0. -1.
         -5    1    3    3    0  502  0.31174682449E+01 -0.15120834765E+02  0.53679583719E+01  0.16871444198E+02  0.41800000000E+01 0. -1.
        -11    1    4    4    0    0  0.95504775106E+02 -0.77105298434E+02  0.30425444902E+03  0.32808102484E+03  0.00000000000E+00 0. -1.
         11    1    4    4    0    0  0.24576859543E+02 -0.90231624011E+02  0.11926855272E+03  0.15156106250E+03  0.00000000000E+00 0.  1.
</event>
<event>
 8    1  0.6505836E-009  0.1218781E+03  0.7561462E-02  0.1240030E+00
          2   -1    0    0  501    0  0.00000000000E+00  0.00000000000E+00  0.93052312567E+03  0.93052312567E+03  0.00000000000E+00 0. -1.
         -2   -1    0    0    0  501 -0.00000000000E+00 -0.00000000000E+00 -0.24333474670E+02  0.24333474670E+02  0.00000000000E+00 0.  1.
         25    2    1    2    0    0 -0.27087671012E+02 -0.10005388113E+03  0.48447714077E+03  0.51099014934E+03  0.12509321224E+03 0.  0.
         23    2    1    2    0    0  0.27087671012E+02  0.10005388113E+03  0.42171251024E+03  0.44386645100E+03  0.91823003565E+02 0.  0.
          5    1    3    3  502    0 -0.31239931846E+02 -0.95496810425E+02  0.49093682452E+03  0.50113073366E+03  0.41800000000E+01 0. -1.
         -5    1    3    3    0  502  0.41522608335E+01 -0.45570707050E+01 -0.64596837555E+01  0.98594156856E+01  0.41800000000E+01 0. -1.
        -11    1    4    4    0    0  0.10901396638E+02 -0.15562149398E+02  0.33881885416E+02  0.38845889125E+02  0.00000000000E+00 0.  1.
         11    1    4    4    0    0  0.16186274374E+02  0.11561603053E+03  0.38783062482E+03  0.40502056188E+03  0.00000000000E+00 0. -1.
</event>
<event>
 8    1  0.6505836E-009  0.1548150E+03  0.7561462E-02  0.1194678E+00
          1   -1    0    0  501    0  0.00000000000E+00  0.00000000000E+00  0.10977430689E+04  0.10977430689E+04  0.00000000000E+00 0. -1.
         -1   -1    0    0    0  501 -0.00000000000E+00 -0.00000000000E+00 -0.32901387827E+02  0.32901387827E+02  0.00000000000E+00 0.  1.
         25    2    1    2    0    0 -0.18354256568E+02  0.13201812378E+03  0.79683415687E+03  0.81753120626E+03  0.12508771285E+03 0.  0.
         23    2    1    2    0    0  0.18354256568E+02 -0.13201812378E+03  0.26800752421E+03  0.31311325048E+03  0.91903268985E+02 0.  0.
          5    1    3    3  502    0 -0.55529646809E+02  0.80331520812E+02  0.65172518987E+03  0.65901433249E+03  0.41800000000E+01 0.  1.
         -5    1    3    3    0  502  0.37175390241E+02  0.51686602970E+02  0.14510896700E+03  0.15851687377E+03  0.41800000000E+01 0.  1.
        -11    1    4    4    0    0 -0.15923370394E+02 -0.99719817410E+02  0.23448141992E+03  0.25530204072E+03  0.00000000000E+00 0. -1.
         11    1    4    4    0    0  0.34277626962E+02 -0.32298306372E+02  0.33526104294E+02  0.57811209758E+02  0.00000000000E+00 0.  1.
</event>
<event>
 8    1  0.6505836E-009  0.1381463E+03  0.7561462E-02  0.1215845E+00
         -1   -1    0    0    0  501 -0.00000000000E+00  0.00000000000E+00  0.26658965457E+02  0.26658965457E+02  0.00000000000E+00 0.  1.
          1   -1    0    0  501    0  0.00000000000E+00 -0.00000000000E+00 -0.85472659216E+03  0.85472659216E+03  0.00000000000E+00 0. -1.
         25    2    1    2    0    0 -0.49311352108E+02 -0.80820826535E+02 -0.31531803103E+03  0.35218736336E+03  0.12508742051E+03 0.  0.
         23    2    1    2    0    0  0.49311352108E+02  0.80820826535E+02 -0.51274959567E+03  0.52919819425E+03  0.90415515780E+02 0.  0.
          5    1    3    3  502    0 -0.32102750853E+02  0.30112653199E+02 -0.99553453846E+02  0.10892989061E+03  0.41800000000E+01 0. -1.
         -5    1    3    3    0  502 -0.17208601254E+02 -0.11093347973E+03 -0.21576457719E+03  0.24325747275E+03  0.41800000000E+01 0. -1.
        -11    1    4    4    0    0 -0.18893869060E+02  0.98426129294E+01 -0.31788546588E+02  0.38267048639E+02  0.00000000000E+00 0.  1.
         11    1    4    4    0    0  0.68205221168E+02  0.70978213605E+02 -0.48096104908E+03  0.49093114562E+03  0.00000000000E+00 0. -1.
</event>
<event>
 8    1  0.6505836E-009  0.2733088E+03  0.7561462E-02  0.1099401E+00
          3   -1    0    0  501    0  0.00000000000E+00  0.00000000000E+00  0.28301190978E+03  0.28301190978E+03  0.00000000000E+00 0. -1.
         -3   -1    0    0    0  501 -0.00000000000E+00 -0.00000000000E+00 -0.34270490154E+03  0.34270490154E+03  0.00000000000E+00 0.  1.
         25    2    1    2    0    0  0.11077728599E+03 -0.22791390613E+03 -0.17535214070E+03  0.33258438913E+03  0.12509055499E+03 0.  0.
         23    2    1    2    0    0 -0.11077728599E+03  0.22791390613E+03  0.11565914894E+03  0.29313242219E+03  0.91286485891E+02 0.  0.
          5    1    3    3  502    0 -0.93351660404E+01  0.84969276387E+01 -0.23444963544E+02  0.26953326694E+02  0.41800000000E+01 0.  1.
         -5    1    3    3    0  502  0.12011245203E+03 -0.23641083377E+03 -0.15190717715E+03  0.30563106244E+03  0.41800000000E+01 0.  1.
        -11    1    4    4    0    0  0.12229560647E+02  0.52265741430E+02  0.34728102847E+02  0.63932081213E+02  0.00000000000E+00 0. -1.
         11    1    4    4    0    0 -0.12300684664E+03  0.17564816470E+03  0.80931046091E+02  0.22920034098E+03  0.00000000000E+00 0.  1.
</event>
<event>
 8    1  0.6505836E-009  0.1349417E+03  0.7561462E-02  0.1220302E+00
         -1   -1    0    0    0  501 -0.00000000000E+00  0.00000000000E+00  0.30170826305E+02  0.30170826305E+02  0.00000000000E+00 0.  1.
          1   -1    0    0  501    0  0.00000000000E+00 -0.00000000000E+00 -0.79147249243E+03  0.79147249243E+03  0.00000000000E+00 0. -1.
         25    2    1    2    0    0  0.85378125574E+02 -0.36058274033E+02 -0.25316716590E+03  0.29718341473E+03  0.12503897253E+03 0.  0.
         23    2    1    2    0    0 -0.85378125574E+02  0.36058274033E+02 -0.50813450023E+03  0.52445990400E+03  0.90927977728E+02 0.  0.
          5    1    3    3  502    0  0.27930391519E+02  0.46694277316E+02 -0.81046433482E+02  0.97705982850E+02  0.41800000000E+01 0.  1.
         -5    1    3    3    0  502  0.57447734055E+02 -0.82752551349E+02 -0.17212073242E+03  0.19947743188E+03  0.41800000000E+01 0.  1.
        -11    1    4    4    0    0  0.11293105818E+02  0.79582863579E+01 -0.12265123123E+02  0.18474355361E+02  0.00000000000E+00 0.  1.
         11    1    4    4    0    0 -0.96671231392E+02  0.28099987675E+02 -0.49586937710E+03  0.50598554864E+03  0.00000000000E+00 0. -1.
</event>
<event>
 8    1  0.6505836E-009  0.7108603E+02  0.7561462E-02  0.1356438E+00
         -2   -1    0    0    0  501 -0.00000000000E+00  0.00000000000E+00  0.20148392617E+03  0.20148392617E+03  0.00000000000E+00 0.  1.
          2   -1    0    0  501    0  0.00000000000E+00 -0.00000000000E+00 -0.58667663662E+02  0.58667663662E+02  0.00000000000E+00 0. -1.
         25    2    1    2    0    0  0.70382796927E+01 -0.14445038945E+02  0.59756711757E+02  0.13956017024E+03  0.12509188618E+03 0.  0.
         23    2    1    2    0    0 -0.70382796927E+01  0.14445038945E+02  0.83059550754E+02  0.12059141959E+03  0.85937215316E+02 0.  0.
          5    1    3    3  502    0  0.25380096856E+02 -0.24523095379E+02  0.93279693412E+02  0.99820364288E+02  0.41800000000E+01 0. -1.
         -5    1    3    3    0  502 -0.18341817163E+02  0.10078056435E+02 -0.33522981656E+02  0.39739805956E+02  0.41800000000E+01 0. -1.
        -11    1    4    4    0    0  0.28566561185E+02  0.34210046823E+02  0.30081688276E+02  0.53770658273E+02  0.00000000000E+00 0. -1.
         11    1    4    4    0    0 -0.35604840877E+02 -0.19765007878E+02  0.52977862478E+02  0.66820761318E+02  0.00000000000E+00 0.  1.
</event>
<event>
 8    1  0.6505836E-009  0.1145139E+03  0.7561462E-02  0.1252432E+00
          3   -1    0    0  501    0  0.00000000000E+00  0.00000000000E+00  0.47746823651E+03  0.47746823651E+03  0.00000000000E+00 0. -1.
         -3   -1    0    0    0  501 -0.00000000000E+00 -0.00000000000E+00 -0.93443276126E+02  0.93443276126E+02  0.00000000000E+00 0.  1.
         25    2    1    2    0    0 -0.92899796685E+01  0.55224731003E+02 -0.32801882829E+02  0.14091855808E+03  0.12508397922E+03 0.  0.
         23    2    1    2    0    0  0.92899796685E+01 -0.55224731003E+02  0.41682684321E+03  0.42999295455E+03  0.89516753224E+02 0.  0.
          5    1    3    3  502    0 -0.40549781276E+02 -0.23849865836E+02  0.55362718706E+01  0.47552324530E+02  0.41800000000E+01 0.  1.
         -5    1    3    3    0  502  0.31259801607E+02  0.79074596839E+02 -0.38338154700E+02  0.93366233552E+02  0.41800000000E+01 0.  1.
        -11    1    4    4    0    0  0.41993302503E+01  0.20421879207E+02  0.35229600931E+02  0.40936686562E+02  0.00000000000E+00 0.  1.
         11    1    4    4    0    0  0.50906494182E+01 -0.75646610210E+02  0.38159724228E+03  0.38905626799E+03  0.00000000000E+00 0. -1.
</event>
<event>
 8    1  0.6505836E-009  0.1629257E+03  0.7561462E-02  0.1185433E+00
         -2   -1    0    0    0  501 -0.00000000000E+00  0.00000000000E+00  0.42945520079E+02  0.42945520079E+02  0.00000000000E+00 0.  1.
          2   -1    0    0  501    0  0.00000000000E+00 -0.00000000000E+00 -0.72602854402E+03  0.72602854402E+03  0.00000000000E+00 0. -1.
         25    2    1    2    0    0 -0.12971311095E+03  0.23075910336E+02 -0.45533209086E+03  0.49023877158E+03  0.12509496953E+03 0.  0.
         23    2    1    2    0    0  0.12971311095E+03 -0.23075910336E+02 -0.22775093309E+03  0.27873529252E+03  0.92004820453E+02 0.  0.
          5    1    3    3  502    0  0.21705389777E+02 -0.13171291107E+02 -0.72815133312E+02  0.77227733970E+02  0.41800000000E+01 0. -1.
         -5    1    3    3    0  502 -0.15141850073E+03  0.36247201444E+02 -0.38251695755E+03  0.41301103761E+03  0.41800000000E+01 0. -1.
        -11    1    4    4    0    0  0.61754595990E+02  0.18788301755E+02 -0.16508589056E+03  0.17725682405E+03  0.00000000000E+00 0. -1.
         11    1    4    4    0    0  0.67958514962E+02 -0.41864212092E+02 -0.62665042523E+02  0.10147846848E+03  0.00000000000E+00 0.  1.
</event>
<event>
 8    1  0.6505836E-009  0.1112421E+03  0.7561462E-02  0.1258287E+00
         -2   -1    0    0    0  501 -0.00000000000E+00  0.00000000000E+00  0.47337577437E+02  0.47337577437E+02  0.00000000000E+00 0.  1.
          2   -1    0    0  501    0  0.00000000000E+00 -0.00000000000E+00 -0.36190443043E+03  0.36190443043E+03  0.00000000000E+00 0. -1.
         25    2    1    2    0    0 -0.64529760525E+02 -0.14490271140E+01 -0.11940333858E+03  0.18458416871E+03  0.12509183986E+03 0.  0.
         23    2    1    2    0    0  0.64529760525E+02  0.14490271140E+01 -0.19516351441E+03  0.22465783916E+03  0.90643023254E+02 0.  0.
          5    1    3    3  502    0 -0.85960478497E+02 -0.15224093731E+02 -0.13002465412E+03  0.15666799281E+03  0.41800000000E+01 0.  1.
         -5    1    3    3    0  502  0.21430717972E+02  0.13775066617E+02  0.10621315534E+02  0.27916175898E+02  0.41800000000E+01 0.  1.
        -11    1    4    4    0    0 -0.21270565945E+02 -0.84754606016E+01 -0.25479603923E+02  0.34256103458E+02  0.00000000000E+00 0.  1.
         11    1    4    4    0    0  0.85800326471E+02  0.99244877157E+01 -0.16968391049E+03  0.19040173570E+03  0.00000000000E+00 0. -1.
</event>
<event>
 8    1  0.6505836E-009  0.1016081E+03  0.7561462E-02  0.1276950E+00
          2   -1    0    0  501    0  0.00000000000E+00  0.00000000000E+00  0.38076015402E+02  0.38076015402E+02  0.00000000000E+00 0. -1.
         -2   -1    0    0    0  501 -0.00000000000E+00 -0.00000000000E+00 -0.46915099946E+03  0.46915099946E+03  0.00000000000E+00 0.  1.
         25    2    1    2    0    0 -0.12681871119E+02  0.49576988272E+01 -0.91768986294E+02  0.15573688621E+03  0.12508805797E+03 0.  0.
         23    2    1    2    0    0  0.12681871119E+02 -0.49576988272E+01 -0.33930599776E+03  0.35149012866E+03  0.90726742428E+02 0.  0.
          5    1    3    3  502    0 -0.60512708075E+02  0.15335006437E+02 -0.85894361777E+02  0.10626506503E+03  0.41800000000E+01 0.  1.
         -5    1    3    3    0  502  0.47830836956E+02 -0.10377307610E+02 -0.58746245167E+01  0.49471821175E+02  0.41800000000E+01 0.  1.
        -11    1    4    4    0    0 -0.33012707956E+02  0.20854423182E+02 -0.15673239877E+03  0.16152334406E+03  0.00000000000E+00 0.  1.
         11    1    4    4    0    0  0.45694579075E+02 -0.25812122009E+02 -0.18257359899E+03  0.18996678459E+03  0.00000000000E+00 0. -1.
</event>
<event>
 8    1  0.6505836E-009  0.1231217E+03  0.7561462E-02  0.1238034E+00
          1   -1    0    0  501    0  0.00000000000E+00  0.00000000000E+00  0.32053722885E+03  0.32053722885E+03  0.00000000000E+00 0. -1.
         -1   -1    0    0    0  501 -0.00000000000E+00 -0.00000000000E+00 -0.50680036121E+02  0.50680036121E+02  0.00000000000E+00 0.  1.
         25    2    1    2    0    0 -0.19535351821E+02 -0.58587989846E+02  0.19017958540E+03  0.23586052263E+03  0.12509088258E+03 0.  0.
         23    2    1    2    0    0  0.19535351821E+02  0.58587989846E+02  0.79677607330E+02  0.13535674235E+03  0.90325766336E+02 0.  0.
          5    1    3    3  502    0 -0.53763581502E+02  0.14907779550E+02  0.56874021396E+02  0.79780268844E+02  0.41800000000E+01 0.  1.
         -5    1    3    3    0  502  0.34228229680E+02 -0.73495769395E+02  0.13330556401E+03  0.15608025378E+03  0.41800000000E+01 0.  1.
        -11    1    4    4    0    0  0.55763696453E+02  0.33646716299E+02  0.52502112097E+02  0.83655024562E+02  0.00000000000E+00 0.  1.
         11    1    4    4    0    0 -0.36228344631E+02  0.24941273547E+02  0.27175495232E+02  0.51701717785E+02  0.00000000000E+00 0. -1.
</event>
<event>
 8    1  0.6505836E-009  0.1143993E+03  0.7561462E-02  0.1252633E+00
         -2   -1    0    0    0  501 -0.00000000000E+00  0.00000000000E+00  0.68106336416E+02  0.68106336416E+02  0.00000000000E+00 0.  1.
          2   -1    0    0  501    0  0.00000000000E+00 -0.00000000000E+00 -0.23128050711E+03  0.23128050711E+03  0.00000000000E+00 0. -1.
         25    2    1    2    0    0 -0.31389460872E+02  0.66780669623E+02 -0.76753537673E+02  0.16426963994E+03  0.12509377671E+03 0.  0.
         23    2    1    2    0    0  0.31389460872E+02 -0.66780669623E+02 -0.86420633020E+02  0.13511720358E+03  0.73097036899E+02 0.  0.
          5    1    3    3  502    0 -0.40181987629E+02  0.98819536237E+02 -0.75505492818E+02  0.13076102140E+03  0.41800000000E+01 0.  1.
         -5    1    3    3    0  502  0.87925267567E+01 -0.32038866614E+02 -0.12480448558E+01  0.33508618543E+02  0.41800000000E+01 0.  1.
        -11    1    4    4    0    0 -0.13064869528E+02 -0.10058827085E+02 -0.53322705659E+02  0.55813813316E+02  0.00000000000E+00 0. -1.
         11    1    4    4    0    0  0.44454330400E+02 -0.56721842538E+02 -0.33097927361E+02  0.79303390267E+02  0.00000000000E+00 0.  1.
</event>
<event>
 8    1  0.6505836E-009  0.1585764E+03  0.7561462E-02  0.1190313E+00
          3   -1    0    0  501    0  0.00000000000E+00  0.00000000000E+00  0.15131592978E+03  0.15131592978E+03  0.00000000000E+00 0. -1.
         -3   -1    0    0    0  501 -0.00000000000E+00 -0.00000000000E+00 -0.18439779795E+03  0.18439779795E+03  0.00000000000E+00 0.  1.
         25    2    1    2    0    0  0.53705250252E+02 -0.11351161742E+03  0.46751556453E-01  0.17723412267E+03  0.12507114319E+03 0.  0.
         23    2    1    2    0    0 -0.53705250252E+02  0.11351161742E+03 -0.33128619720E+02  0.15847960506E+03  0.90824768549E+02 0.  0.
          5    1    3    3  502    0  0.52702912574E+02  0.96230951500E+00 -0.27230315422E+02  0.59476764466E+02  0.41800000000E+01 0.  1.
         -5    1    3    3    0  502  0.10023376778E+01 -0.11447392693E+03  0.27277066979E+02  0.11775735821E+03  0.41800000000E+01 0.  1.
        -11    1    4    4    0    0 -0.73605254486E+02  0.68679370201E+02 -0.41189715704E+02  0.10877123728E+03  0.00000000000E+00 0. -1.
         11    1    4    4    0    0  0.19900004235E+02  0.44832247218E+02  0.80610959838E+01  0.49708367783E+02  0.00000000000E+00 0.  1.
</event>
<event>
 8    1  0.6505836E-009  0.9311594E+02  0.7561462E-02  0.1295477E+00
          4   -1    0    0  501    0  0.00000000000E+00  0.00000000000E+00  0.19662159348E+02  0.19662159348E+02  0.00000000000E+00 0. -1.
         -4   -1    0    0    0  501 -0.00000000000E+00 -0.00000000000E+00 -0.66984252721E+03  0.66984252721E+03  0.00000000000E+00 0.  1.
         25    2    1    2    0    0  0.13459690989E+02  0.63401076995E+01 -0.26753990860E+03  0.29571421330E+03  0.12509169838E+03 0.  0.
         23    2    1    2    0    0 -0.13459690989E+02 -0.63401076995E+01 -0.38264045926E+03  0.39379047326E+03  0.91846913513E+02 0.  0.
          5    1    3    3  502    0  0.52886101969E+02  0.15719066766E+02 -0.50591178278E+02  0.74973118923E+02  0.41800000000E+01 0. -1.
         -5    1    3    3    0  502 -0.39426410980E+02 -0.93789590666E+01 -0.21694873033E+03  0.22074109438E+03  0.41800000000E+01 0. -1.
        -11    1    4    4    0    0 -0.45082740854E+02  0.19695879042E+02 -0.25618612402E+03  0.26086722928E+03  0.00000000000E+00 0. -1.
         11    1    4    4    0    0  0.31623049865E+02 -0.26035986742E+02 -0.12645433524E+03  0.13292324398E+03  0.00000000000E+00 0.  1.
</event>
<event>
 8    1  0.6505836E-009  0.1527879E+03  0.7561462E-02  0.1197089E+00
         -2   -1    0    0    0  501 -0.00000000000E+00  0.00000000000E+00  0.81277052992E+02  0.81277052992E+02  0.00000000000E+00 0.  1.
          2   -1    0    0  501    0  0.00000000000E+00 -0.00000000000E+00 -0.33758431427E+03  0.33758431427E+03  0.00000000000E+00 0. -1.
         25    2    1    2    0    0  0.12062853591E+03  0.29444602746E+02 -0.14377481466E+03  0.22745948471E+03  0.12509353120E+03 0.  0.
         23    2    1    2    0    0 -0.12062853591E+03 -0.29444602746E+02 -0.11253244661E+03  0.19140188255E+03  0.92481894420E+02 0.  0.
          5    1    3    3  502    0  0.12133027211E+03 -0.29393897030E+01 -0.55850839962E+02  0.13366549169E+03  0.41800000000E+01 0.  1.
         -5    1    3    3    0  502 -0.70173620571E+00  0.32383992449E+02 -0.87923974700E+02  0.93793993025E+02  0.41800000000E+01 0.  1.
        -11    1    4    4    0    0 -0.33173236940E+02  0.30810885448E+02 -0.16404502257E+02  0.48154771367E+02  0.00000000000E+00 0.  1.
         11    1    4    4    0    0 -0.87455298969E+02 -0.60255488194E+02 -0.96127944354E+02  0.14324711118E+03  0.00000000000E+00 0. -1.
</event>
<event>
 8    1  0.6505836E-009  0.1273940E+03  0.7561462E-02  0.1231375E+00
          2   -1    0    0  501    0  0.00000000000E+00  0.00000000000E+00  0.43474711189E+03  0.43474711189E+03  0.00000000000E+00 0. -1.
         -2   -1    0    0    0  501 -0.00000000000E+00 -0.00000000000E+00 -0.40381014978E+02  0.40381014978E+02  0.00000000000E+00 0.  1.
         25    2    1    2    0    0 -0.44495930007E+02 -0.60362227510E+02  0.21067368725E+03  0.25623237916E+03  0.12509253908E+03 0.  0.
         23    2    1    2    0    0  0.44495930007E+02  0.60362227510E+02  0.18369240966E+03  0.21889574770E+03  0.92460589977E+02 0.  0.
          5    1    3    3  502    0  0.28034709539E+02 -0.58496682350E+02  0.57884382323E+02  0.87039536430E+02  0.41800000000E+01 0.  1.
         -5    1    3    3    0  502 -0.72530639546E+02 -0.18655451596E+01  0.15278930493E+03  0.16919284273E+03  0.41800000000E+01 0.  1.
        -11    1    4    4    0    0  0.57563035455E+02  0.23133429768E+01  0.11007163013E+03  0.12423613954E+03  0.00000000000E+00 0. -1.
         11    1    4    4    0    0 -0.13067105448E+02  0.58048884533E+02  0.73620779524E+02  0.94659608166E+02  0.00000000000E+00 0.  1.
</event>
<event>
 8    1  0.6505836E-009  0.1289352E+03  0.7561462E-02  0.1229044E+00
          1   -1    0    0  501    0  0.00000000000E+00  0.00000000000E+00  0.41613155402E+03  0.41613155402E+03  0.00000000000E+00 0. -1.
         -1   -1    0    0    0  501 -0.00000000000E+00 -0.00000000000E+00 -0.47239975875E+02  0.47239975875E+02  0.00000000000E+00 0.  1.
         25    2    1    2    0    0  0.91108341653E+01 -0.88539551426E+02  0.18214412416E+03  0.23821157062E+03  0.12508401554E+03 0.  0.
         23    2    1    2    0    0 -0.91108341653E+01  0.88539551426E+02  0.18674745398E+03  0.22515995928E+03  0.88882710507E+02 0.  0.
          5    1    3    3  502    0 -0.81456118412E+01 -0.11744881895E+03  0.12507089425E+03  0.17181611407E+03  0.41800000000E+01 0.  1.
         -5    1    3    3    0  502  0.17256446007E+02  0.28909267526E+02  0.57073229918E+02  0.66395456554E+02  0.41800000000E+01 0.  1.
        -11    1    4    4    0    0 -0.33039110407E+02  0.38929239817E+02  0.30469337860E+02  0.59459642438E+02  0.00000000000E+00 0.  1.
         11    1    4    4    0    0  0.23928276242E+02  0.49610311608E+02  0.15627811612E+03  0.16570031684E+03  0.00000000000E+00 0. -1.
</event>
<event>
 8    1  0.6505836E-009  0.9167524E+02  0.7561462E-02  0.1298845E+00
         -1   -1    0    0    0  501 -0.00000000000E+00  0.00000000000E+00  0.44073398559E+03  0.44073398559E+03  0.00000000000E+00 0.  1.
          1   -1    0    0  501    0  0.00000000000E+00 -0.00000000000E+00 -0.33754065773E+02  0.33754065773E+02  0.00000000000E+00 0. -1.
         25    2    1    2    0    0  0.40657692582E+02  0.25800263011E+02  0.27793193346E+03  0.30856374848E+03  0.12508687260E+03 0.  0.
         23    2    1    2    0    0 -0.40657692582E+02 -0.25800263011E+02  0.12904798636E+03  0.16592430289E+03  0.92513728545E+02 0.  0.
          5    1    3    3  502    0  0.87411512071E+01  0.58193500965E+02  0.24566078147E+03  0.25264517259E+03  0.41800000000E+01 0.  1.
         -5    1    3    3    0  502  0.31916541375E+02 -0.32393237954E+02  0.32271151991E+02  0.55918575888E+02  0.41800000000E+01 0.  1.
        -11    1    4    4    0    0 -0.36058193720E+02 -0.45729703616E+02  0.31408679972E+02  0.66165733615E+02  0.00000000000E+00 0. -1.
         11    1    4    4    0    0 -0.45994988617E+01  0.19929440605E+02  0.97639306384E+02  0.99758569275E+02  0.00000000000E+00 0.  1.
</event>
<event>
 8    1  0.6505836E-009  0.1036545E+03  0.7561462E-02  0.1272793E+00
          2   -1    0    0  501    0  0.00000000000E+00  0.00000000000E+00  0.11328319652E+03  0.11328319652E+03  0.00000000000E+00 0. -1.
         -2   -1    0    0    0  501 -0.00000000000E+00 -0.00000000000E+00 -0.12027770213E+03  0.12027770213E+03  0.00000000000E+00 0.  1.
         25    2    1    2    0    0  0.33656873517E+02  0.14252391328E+02  0.15163214713E+02  0.13119898024E+03  0.12508930227E+03 0.  0.
         23    2    1    2    0    0 -0.33656873517E+02 -0.14252391328E+02 -0.22157720322E+02  0.10236191840E+03  0.93011192744E+02 0.  0.
          5    1    3    3  502    0 -0.40384032107E+02 -0.46312692404E+01 -0.21689175379E+02  0.46262419225E+02  0.41800000000E+01 0. -1.
         -5    1    3    3    0  502  0.74040905624E+02  0.18883660568E+02  0.36852390092E+02  0.84936561018E+02  0.41800000000E+01 0. -1.
        -11    1    4    4    0    0  0.14867037389E+02 -0.34327024602E+02 -0.31646879597E+02  0.48998963326E+02  0.00000000000E+00 0.  1.
         11    1    4    4    0    0 -0.48523910906E+02  0.20074633275E+02  0.94891592746E+01  0.53362955077E+02  0.00000000000E+00 0. -1.
</event>
<event>
 8    1  0.6505836E-009  0.1155533E+03  0.7561462E-02  0.1250618E+00
          1   -1    0    0  501    0  0.00000000000E+00  0.00000000000E+00  0.12926215682E+04  0.12926215682E+04  0.00000000000E+00 0. -1.
         -1   -1    0    0    0  501 -0.00000000000E+00 -0.00000000000E+00 -0.13880233003E+02  0.13880233003E+02  0.00000000000E+00 0.  1.
         25    2    1    2    0    0 -0.69922540062E+02 -0.28095735413E+01  0.87165066786E+03  0.88335689682E+03  0.12508982798E+03 0.  0.
         23    2    1    2    0    0  0.69922540062E+02  0.28095735413E+01  0.40709066736E+03  0.42314490441E+03  0.91824524846E+02 0.  0.
          5    1    3    3  502    0 -0.21525562137E+02 -0.56474900837E+02  0.56687869515E+03  0.57010673708E+03  0.41800000000E+01 0. -1.
         -5    1    3    3    0  502 -0.48396977925E+02  0.53665327296E+02  0.30477197271E+03  0.31325015974E+03  0.41800000000E+01 0. -1.
        -11    1    4    4    0    0  0.16533444220E+02 -0.30866464339E+02  0.53338142001E+02  0.63804786581E+02  0.00000000000E+00 0.  1.
         11    1    4    4    0    0  0.53389095842E+02  0.33676037880E+02  0.35375252536E+03  0.35934011783E+03  0.00000000000E+00 0. -1.
</event>
<event>
 7    1  0.6505836E-009  0.6308717E+02  0.7561462E-02  0.1385315E+00
         -2   -1    0    0    0  501 -0.00000000000E+00  0.00000000000E+00  0.80790342314E+02  0.80790342314E+02  0.00000000000E+00 0. -1.
          2   -1    0    0  501    0  0.00000000000E+00 -0.00000000000E+00 -0.20151205438E+03  0.20151205438E+03  0.00000000000E+00 0.  1.
         23    2    1    2    0    0 -0.70759130406E+01  0.21207478401E+02 -0.12479759257E+03  0.15504192438E+03  0.89239753026E+02 0.  0.
          5    1    1    2  502    0 -0.12055857446E+02 -0.10958638020E+02 -0.58513519235E+02  0.60883000741E+02  0.41800000000E+01 0.  1.
         -5    1    1    2    0  502  0.19131770487E+02 -0.10248840382E+02  0.62589399742E+02  0.66377471564E+02  0.41800000000E+01 0.  1.
        -11    1    3    3    0    0 -0.13354567249E+02  0.53096600979E+02 -0.10055870350E+03  0.11449736395E+03  0.00000000000E+00 0.  1.
         11    1    3    3    0    0  0.62786542086E+01 -0.31889122578E+02 -0.24238889069E+02  0.40544560434E+02  0.00000000000E+00 0. -1.
</event>
<event>
 8    1  0.6505836E-009  0.7015484E+02  0.7561462E-02  0.1359567E+00
          2   -1    0    0  501    0  0.00000000000E+00  0.00000000000E+00  0.64986596372E+03  0.64986596372E+03  0.00000000000E+00 0. -1.
         -2   -1    0    0    0  501 -0.00000000000E+00 -0.00000000000E+00 -0.23901003511E+02  0.23901003511E+02  0.00000000000E+00 0.  1.
         25    2    1    2    0    0 -0.35222581244E+02 -0.50836474070E+02  0.33284557190E+03  0.36091468944E+03  0.12509300936E+03 0.  0.
         23    2    1    2    0    0  0.35222581244E+02  0.50836474070E+02  0.29311938831E+03  0.31285227780E+03  0.90180899279E+02 0.  0.
          5    1    3    3  502    0 -0.31782470772E+02 -0.32438083314E+02  0.33799440587E+03  0.34105724666E+03  0.41800000000E+01 0.  1.
         -5    1    3    3    0  502 -0.34401104727E+01 -0.18398390756E+02 -0.51488339685E+01  0.19857442779E+02  0.41800000000E+01 0.  1.
        -11    1    4    4    0    0 -0.10294467369E+02  0.10568863183E+02  0.13438510274E+01  0.14814954032E+02  0.00000000000E+00 0.  1.
         11    1    4    4    0    0  0.45517048613E+02  0.40267610887E+02  0.29177553728E+03  0.29803732376E+03  0.00000000000E+00 0. -1.
</event>
<event>
 8    1  0.6505836E-009  0.9982158E+02  0.7561462E-02  0.1280672E+00
          1   -1    0    0  501    0  0.00000000000E+00  0.00000000000E+00  0.50823891478E+02  0.50823891478E+02  0.00000000000E+00 0. -1.
         -1   -1    0    0    0  501 -0.00000000000E+00 -0.00000000000E+00 -0.63361797305E+03  0.63361797305E+03  0.00000000000E+00 0.  1.
         25    2    1    2    0    0 -0.19436004985E+02  0.62149296684E+02 -0.54705639366E+03  0.56494090943E+03  0.12508892809E+03 0.  0.
         23    2    1    2    0    0  0.19436004985E+02 -0.62149296684E+02 -0.35737687909E+02  0.11950095510E+03  0.93610910499E+02 0.  0.
          5    1    3    3  502    0 -0.32983859549E+02 -0.27568999201E+02 -0.10298610935E+03  0.11167629931E+03  0.41800000000E+01 0. -1.
         -5    1    3    3    0  502  0.13547854564E+02  0.89718295885E+02 -0.44407028432E+03  0.45326461012E+03  0.41800000000E+01 0. -1.
        -11    1    4    4    0    0  0.11351315451E+01 -0.15018782651E+02 -0.61105784805E+02  0.62934643024E+02  0.00000000000E+00 0.  1.
         11    1    4    4    0    0  0.18300873440E+02 -0.47130514034E+02  0.25368096896E+02  0.56566312076E+02  0.00000000000E+00 0. -1.
</event>
<event>
 8    1  0.6505836E-009  0.1836972E+03  0.7561462E-02  0.1164272E+00
          2   -1    0    0  501    0  0.00000000000E+00  0.00000000000E+00  0.18820980615E+04  0.18820980615E+04  0.00000000000E+00 0.  1.
         -2   -1    0    0    0  501 -0.00000000000E+00 -0.00000000000E+00 -0.19572419198E+02  0.19572419198E+02  0.00000000000E+00 0. -1.
         25    2    1    2    0    0  0.83680120624E+02  0.13298612462E+03  0.93421866795E+03  0.95556244957E+03  0.12508958206E+03 0.  0.
         23    2    1    2    0    0 -0.83680120624E+02 -0.13298612462E+03  0.92830697439E+03  0.94610803117E+03  0.93160592632E+02 0.  0.
          5    1    3    3  502    0  0.65930126260E+02  0.18226522745E+02  0.18301990627E+03  0.19542964507E+03  0.41800000000E+01 0. -1.
         -5    1    3    3    0  502  0.17749994364E+02  0.11475960187E+03  0.75119876168E+03  0.76013280450E+03  0.41800000000E+01 0. -1.
        -11    1    4    4    0    0 -0.88976404418E+02 -0.55221918985E+02  0.53366685669E+03  0.54384425603E+03  0.00000000000E+00 0. -1.
         11    1    4    4    0    0  0.52962837936E+01 -0.77764205630E+02  0.39464011770E+03  0.40226377514E+03  0.00000000000E+00 0.  1.
</event>
<event>
 8    1  0.6505836E-009  0.1328203E+03  0.7561462E-02  0.1223330E+00
          2   -1    0    0  501    0  0.00000000000E+00  0.00000000000E+00  0.67750387577E+03  0.67750387577E+03  0.00000000000E+00 0. -1.
         -2   -1    0    0    0  501 -0.00000000000E+00 -0.00000000000E+00 -0.26240673298E+02  0.26240673298E+02  0.00000000000E+00 0.  1.
         25    2    1    2    0    0 -0.77003509200E+02 -0.25804155027E+02  0.34348482993E+03  0.37446600573E+03  0.12509023227E+03 0.  0.
         23    2    1    2    0    0  0.77003509200E+02  0.25804155027E+02  0.30777837254E+03  0.32927854334E+03  0.84270028198E+02 0.  0.
          5    1    3    3  502    0 -0.11005542810E+03 -0.32091800385E+02  0.27763351338E+03  0.30039960229E+03  0.41800000000E+01 0. -1.
         -5    1    3    3    0  502  0.33051918897E+02  0.62876453584E+01  0.65851316553E+02  0.74066403441E+02  0.41800000000E+01 0. -1.
        -11    1    4    4    0    0  0.16541453595E+02 -0.30312034643E+02  0.88753055037E+02  0.95234153064E+02  0.00000000000E+00 0.  1.
         11    1    4    4    0    0  0.60462055605E+02  0.56116189670E+02  0.21902531750E+03  0.23404439027E+03  0.00000000000E+00 0. -1.
</event>
<event>
 8    1  0.6505836E-009  0.1266460E+03  0.7561462E-02  0.1232519E+00
          1   -1    0    0  501    0  0.00000000000E+00  0.00000000000E+00  0.47910293999E+02  0.47910293999E+02  0.00000000000E+00 0. -1.
         -1   -1    0    0    0  501 -0.00000000000E+00 -0.00000000000E+00 -0.37383956651E+03  0.37383956651E+03  0.00000000000E+00 0.  1.
         25    2    1    2    0    0  0.55185509707E+02  0.51383677892E+02 -0.14150154473E+03  0.20335929918E+03  0.12508634844E+03 0.  0.
         23    2    1    2    0    0 -0.55185509707E+02 -0.51383677892E+02 -0.18442772778E+03  0.21839056132E+03  0.89415477782E+02 0.  0.
          5    1    3    3  502    0  0.88432207297E+02  0.73369498128E+01 -0.10258415977E+03  0.13570213099E+03  0.41800000000E+01 0. -1.
         -5    1    3    3    0  502 -0.33246697590E+02  0.44046728080E+02 -0.38917384960E+02  0.67657168188E+02  0.41800000000E+01 0. -1.
        -11    1    4    4    0    0  0.18626115305E+02  0.92071756500E+00 -0.70440962246E+02  0.72867750441E+02  0.00000000000E+00 0.  1.
         11    1    4    4    0    0 -0.73811625012E+02 -0.52304395457E+02 -0.11398676553E+03  0.14552281088E+03  0.00000000000E+00 0. -1.
</event>
<event>
 8    1  0.6505836E-009  0.1188541E+03  0.7561462E-02  0.1245000E+00
          2   -1    0    0  501    0  0.00000000000E+00  0.00000000000E+00  0.20046085829E+03  0.20046085829E+03  0.00000000000E+00 0. -1.
         -2   -1    0    0    0  501 -0.00000000000E+00 -0.00000000000E+00 -0.78029763816E+02  0.78029763816E+02  0.00000000000E+00 0.  1.
         25    2    1    2    0    0  0.29423288370E+02 -0.46432575056E+02  0.43421710408E+02  0.14336806017E+03  0.12508893563E+03 0.  0.
         23    2    1    2    0    0 -0.29423288370E+02  0.46432575056E+02  0.79009384065E+02  0.13512256194E+03  0.94836227516E+02 0.  0.
          5    1    3    3  502    0 -0.48761682689E+02 -0.26838490348E+02  0.14972459590E+02  0.57789732729E+02  0.41800000000E+01 0. -1.
         -5    1    3    3    0  502  0.78184971058E+02 -0.19594084708E+02  0.28449250818E+02  0.85578327438E+02  0.41800000000E+01 0. -1.
        -11    1    4    4    0    0 -0.15321026139E+02  0.71118701504E+02  0.78019025370E+02  0.10667507612E+03  0.00000000000E+00 0. -1.
         11    1    4    4    0    0 -0.14102262230E+02 -0.24686126448E+02  0.99035869566E+00  0.28447485818E+02  0.00000000000E+00 0.  1.
</event>
<event>
 8    1  0.6505836E-009  0.1594843E+03  0.7561462E-02  0.1189280E+00
          2   -1    0    0  501    0  0.00000000000E+00  0.00000000000E+00  0.43801707558E+03  0.43801707558E+03  0.00000000000E+00 0. -1.
         -2   -1    0    0    0  501 -0.00000000000E+00 -0.00000000000E+00 -0.60929398454E+02  0.60929398454E+02  0.00000000000E+00 0.  1.
         25    2    1    2    0    0  0.38177388921E+02 -0.11512535262E+03  0.17604791043E+03  0.24769186461E+03  0.12508810170E+03 0.  0.
         23    2    1    2    0    0 -0.38177388921E+02  0.11512535262E+03  0.20103976670E+03  0.25125460943E+03  0.89445688128E+02 0.  0.
          5    1    3    3  502    0 -0.79798861014E+01  0.24909201188E+02  0.22260520857E+02  0.34599856573E+02  0.41800000000E+01 0. -1.
         -5    1    3    3    0  502  0.46157275023E+02 -0.14003455381E+03  0.15378738957E+03  0.21309200803E+03  0.41800000000E+01 0. -1.
        -11    1    4    4    0    0 -0.35660862197E+02  0.64111831362E+01  0.23917704276E+02  0.43414939131E+02  0.00000000000E+00 0.  1.
         11    1    4    4    0    0 -0.25165267239E+01  0.10871416948E+03  0.17712206242E+03  0.20783967030E+03  0.00000000000E+00 0. -1.
</event>
<event>
 8    1  0.6505836E-009  0.1033172E+03  0.7561462E-02  0.1273471E+00
          2   -1    0    0  501    0  0.00000000000E+00  0.00000000000E+00  0.74342827096E+03  0.74342827096E+03  0.00000000000E+00 0. -1.
         -2   -1    0    0    0  501 -0.00000000000E+00 -0.00000000000E+00 -0.17662676442E+02  0.17662676442E+02  0.00000000000E+00 0.  1.
         25    2    1    2    0    0 -0.29150136916E+02 -0.15463182330E+02  0.45698241178E+03  0.47493987111E+03  0.12508443551E+03 0.  0.
         23    2    1    2    0    0  0.29150136916E+02  0.15463182330E+02  0.26878318274E+03  0.28615107629E+03  0.92461876736E+02 0.  0.
          5    1    3    3  502    0 -0.62518394253E+02 -0.32832598847E+02  0.40207803715E+03  0.40825329089E+03  0.41800000000E+01 0.  1.
         -5    1    3    3    0  502  0.33368257336E+02  0.17369416516E+02  0.54904374633E+02  0.66686580221E+02  0.41800000000E+01 0.  1.
        -11    1    4    4    0    0 -0.19498177101E+02 -0.27113901257E+02  0.84742641932E+02  0.91085991861E+02  0.00000000000E+00 0.  1.
         11    1    4    4    0    0  0.48648314017E+02  0.42577083587E+02  0.18404054081E+03  0.19506508443E+03  0.00000000000E+00 0. -1.
</event>
<event>
 8    1  0.6505836E-009  0.1049303E+03  0.7561462E-02  0.1270257E+00
         -2   -1    0    0    0  501 -0.00000000000E+00  0.00000000000E+00  0.37558391045E+03  0.37558391045E+03  0.00000000000E+00 0.  1.
          2   -1    0    0  501    0  0.00000000000E+00 -0.00000000000E+00 -0.58597985923E+02  0.58597985923E+02  0.00000000000E+00 0. -1.
         25    2    1    2    0    0 -0.40821963396E+02  0.77928816711E+02  0.24373802539E+03  0.28774130339E+03  0.12508996556E+03 0.  0.
         23    2    1    2    0    0  0.40821963396E+02 -0.77928816711E+02  0.73247899134E+02  0.14644059299E+03  0.91325020541E+02 0.  0.
          5    1    3    3  502    0 -0.55087091650E+02  0.39337552761E+02  0.37699682519E+02  0.77593615625E+02  0.41800000000E+01 0. -1.
         -5    1    3    3    0  502  0.14265128255E+02  0.38591263950E+02  0.20603834288E+03  0.21014768776E+03  0.41800000000E+01 0. -1.
        -11    1    4    4    0    0  0.47497272127E+02 -0.39773692356E+02  0.85705949942E+02  0.10575181946E+03  0.00000000000E+00 0.  1.
         11    1    4    4    0    0 -0.66753087319E+01 -0.38155124355E+02 -0.12458050808E+02  0.40688773528E+02  0.00000000000E+00 0. -1.
</event>
<event>
 8    1  0.6505836E-009  0.6805811E+02  0.7561462E-02  0.1366824E+00
          2   -1    0    0  501    0  0.00000000000E+00  0.00000000000E+00  0.55101442528E+03  0.55101442528E+03  0.00000000000E+00 0. -1.
         -2   -1    0    0    0  501 -0.00000000000E+00 -0.00000000000E+00 -0.42556456677E+02  0.42556456677E+02  0.00000000000E+00 0.  1.
         25    2    1    2    0    0 -0.92609025017E+01  0.26425164004E+02  0.47441957175E+03  0.49143223763E+03  0.12509060922E+03 0.  0.
         23    2    1    2    0    0  0.92609025017E+01 -0.26425164004E+02  0.34038396859E+02  0.10213864433E+03  0.92139223990E+02 0.  0.
          5    1    3    3  502    0 -0.48327384419E+02  0.50020112042E+01  0.74654280531E+02  0.89170007303E+02  0.41800000000E+01 0. -1.
         -5    1    3    3    0  502  0.39066481917E+02  0.21423152800E+02  0.39976529122E+03  0.40226223033E+03  0.41800000000E+01 0. -1.
        -11    1    4    4    0    0 -0.11137311958E+02 -0.16522651671E+02  0.62586148271E+02  0.65681532346E+02  0.00000000000E+00 0. -1.
         11    1    4    4    0    0  0.20398214459E+02 -0.99025123327E+01 -0.28547751413E+02  0.36457111986E+02  0.00000000000E+00 0.  1.
</event>
<event>
 7    1  0.6505836E-009  0.1356442E+03  0.7561462E-02  0.1219313E+00
          2   -1    0    0  501    0  0.00000000000E+00  0.00000000000E+00  0.80800224258E+03  0.80800224258E+03  0.00000000000E+00 0. -1.
         -2   -1    0    0    0  501 -0.00000000000E+00 -0.00000000000E+00 -0.39174558459E+02  0.39174558459E+02  0.00000000000E+00 0.  1.
         23    2    1    2    0    0  0.12179145942E+03 -0.75983597527E+01  0.20435558144E+03  0.25624007507E+03  0.94904571804E+02 0.  0.
          5    1    1    2  502    0 -0.55133154578E+02 -0.58848210909E+01  0.59687534424E+02  0.81574322054E+02  0.41800000000E+01 0.  1.
         -5    1    1    2    0  502 -0.66658304840E+02  0.13483180844E+02  0.50478456826E+03  0.50936240392E+03  0.41800000000E+01 0.  1.
        -11    1    3    3    0    0  0.45952092579E+02  0.37501116838E+02  0.46380062370E+02  0.75293019344E+02  0.00000000000E+00 0.  1.
         11    1    3    3    0    0  0.75839366839E+02 -0.45099476591E+02  0.15797551907E+03  0.18094705573E+03  0.00000000000E+00 0. -1.
</event>
<event>
 8    1  0.6505836E-009  0.1265173E+03  0.7561462E-02  0.1232717E+00
         -2   -1    0    0    0  501 -0.00000000000E+00  0.00000000000E+00  0.19963226255E+03  0.19963226255E+03  0.00000000000E+00 0.  1.
          2   -1    0    0  501    0  0.00000000000E+00 -0.00000000000E+00 -0.93807190929E+02  0.93807190929E+02  0.00000000000E+00 0. -1.
         25    2    1    2    0    0  0.77660638522E+02  0.86668552085E-01  0.23861891126E+02  0.14916024266E+03  0.12509278898E+03 0.  0.
         23    2    1    2    0    0 -0.77660638522E+02 -0.86668552085E-01  0.81963180499E+02  0.14427921082E+03  0.89818402517E+02 0.  0.
          5    1    3    3  502    0 -0.27621243834E+02  0.12155408812E+02 -0.17722001609E+02  0.35245266567E+02  0.41800000000E+01 0.  1.
         -5    1    3    3    0  502  0.10528188236E+03 -0.12068740260E+02  0.41583892735E+02  0.11391497610E+03  0.41800000000E+01 0.  1.
        -11    1    4    4    0    0 -0.97038281222E+02  0.17201466612E+01  0.77775463970E+02  0.12437206166E+03  0.00000000000E+00 0.  1.
         11    1    4    4    0    0  0.19377642700E+02 -0.18068152133E+01  0.41877165292E+01  0.19907149157E+02  0.00000000000E+00 0. -1.
</event>
<event>
 8    1  0.6505836E-009  0.1071623E+03  0.7561462E-02  0.1265917E+00
          1   -1    0    0  501    0  0.00000000000E+00  0.00000000000E+00  0.18904171960E+03  0.18904171960E+03  0.00000000000E+00 0. -1.
         -1   -1    0    0    0  501 -0.00000000000E+00 -0.00000000000E+00 -0.80791807901E+02  0.80791807901E+02  0.00000000000E+00 0.  1.
         25    2    1    2    0    0  0.26705806213E+02  0.81002402866E+01  0.11676626890E+03  0.17337832679E+03  0.12508744410E+03 0.  0.
         23    2    1    2    0    0 -0.26705806213E+02 -0.81002402866E+01 -0.85163572008E+01  0.96455200710E+02  0.91936192144E+02 0.  0.
          5    1    3    3  502    0  0.32856670357E+02 -0.50242282802E+02  0.91160197763E+02  0.10923141409E+03  0.41800000000E+01 0. -1.
         -5    1    3    3    0  502 -0.61508641445E+01  0.58342523089E+02  0.25606071138E+02  0.64146912702E+02  0.41800000000E+01 0. -1.
        -11    1    4    4    0    0 -0.18050344234E+02 -0.49682039530E+02 -0.10677888831E+02  0.53927147975E+02  0.00000000000E+00 0. -1.
         11    1    4    4    0    0 -0.86554619789E+01  0.41581799244E+02  0.21615316307E+01  0.42528052735E+02  0.00000000000E+00 0.  1.
</event>
<event>
 8    1  0.6505836E-009  0.1262871E+03  0.7561462E-02  0.1233071E+00
          2   -1    0    0  501    0  0.00000000000E+00  0.00000000000E+00  0.41532061577E+03  0.41532061577E+03  0.00000000000E+00 0. -1.
         -2   -1    0    0    0  501 -0.00000000000E+00 -0.00000000000E+00 -0.46796913169E+02  0.46796913169E+02  0.00000000000E+00 0.  1.
         25    2    1    2    0    0 -0.86190781277E+01 -0.72525696510E+02  0.27576382322E+03  0.31149346445E+03  0.12509287363E+03 0.  0.
         23    2    1    2    0    0  0.86190781277E+01  0.72525696510E+02  0.92759879381E+02  0.15062406449E+03  0.93535813566E+02 0.  0.
          5    1    3    3  502    0 -0.19133288306E+01 -0.10817654541E+03  0.20216351991E+03  0.22933248132E+03  0.41800000000E+01 0. -1.
         -5    1    3    3    0  502 -0.67057492972E+01  0.35650848905E+02  0.73600303310E+02  0.82160983128E+02  0.41800000000E+01 0. -1.
        -11    1    4    4    0    0 -0.34352179939E+02  0.19389130563E+02  0.55592727417E+01  0.39836116326E+02  0.00000000000E+00 0.  1.
         11    1    4    4    0    0  0.42971258067E+02  0.53136565947E+02  0.87200606639E+02  0.11078794817E+03  0.00000000000E+00 0. -1.
</event>
<event>
 8    1  0.6505836E-009  0.1019005E+03  0.7561462E-02  0.1276349E+00
          1   -1    0    0  501    0  0.00000000000E+00  0.00000000000E+00  0.76204884285E+03  0.76204884285E+03  0.00000000000E+00 0. -1.
         -1   -1    0    0    0  501 -0.00000000000E+00 -0.00000000000E+00 -0.19783142462E+02  0.19783142462E+02  0.00000000000E+00 0.  1.
         25    2    1    2    0    0  0.22618561118E+02  0.58775776391E+02  0.34855010576E+03  0.37564176577E+03  0.12511342360E+03 0.  0.
         23    2    1    2    0    0 -0.22618561118E+02 -0.58775776391E+02  0.39371559463E+03  0.40619021955E+03  0.77539240414E+02 0.  0.
          5    1    3    3  502    0 -0.31895116416E+02  0.12217716769E+02  0.25697191055E+03  0.25926551307E+03  0.41800000000E+01 0. -1.
         -5    1    3    3    0  502  0.54513677534E+02  0.46558059622E+02  0.91578195207E+02  0.11637625270E+03  0.41800000000E+01 0. -1.
        -11    1    4    4    0    0 -0.50255242677E+02 -0.37774939992E+02  0.20937692600E+03  0.21861205970E+03  0.00000000000E+00 0. -1.
         11    1    4    4    0    0  0.27636681559E+02 -0.21000836399E+02  0.18433866863E+03  0.18757815984E+03  0.00000000000E+00 0.  1.
</event>
<event>
 8    1  0.6505836E-009  0.1387358E+03  0.7561462E-02  0.1215040E+00
          2   -1    0    0  501    0  0.00000000000E+00  0.00000000000E+00  0.10516248343E+04  0.10516248343E+04  0.00000000000E+00 0. -1.
         -2   -1    0    0    0  501 -0.00000000000E+00 -0.00000000000E+00 -0.26035563895E+02  0.26035563895E+02  0.00000000000E+00 0.  1.
         25    2    1    2    0    0 -0.61992713266E+02  0.10809633395E+03  0.55588423456E+03  0.58325178788E+03  0.12508977545E+03 0.  0.
         23    2    1    2    0    0  0.61992713266E+02 -0.10809633395E+03  0.46970503583E+03  0.49440861030E+03  0.91044710670E+02 0.  0.
          5    1    3    3  502    0 -0.57423583814E+02  0.94159505221E+02  0.21181020075E+03  0.23883993373E+03  0.41800000000E+01 0.  1.
         -5    1    3    3    0  502 -0.45691294515E+01  0.13936828733E+02  0.34407403380E+03  0.34441185415E+03  0.41800000000E+01 0.  1.
        -11    1    4    4    0    0  0.46990548976E+02 -0.45324365564E+01  0.10792741503E+03  0.11780060098E+03  0.00000000000E+00 0.  1.
         11    1    4    4    0    0  0.15002164289E+02 -0.10356389740E+03  0.36177762080E+03  0.37660800932E+03  0.00000000000E+00 0. -1.
</event>
<event>
 8    1  0.6505836E-009  0.9593586E+02  0.7561462E-02  0.1289082E+00
         -2   -1    0    0    0  501 -0.00000000000E+00  0.00000000000E+00  0.79828262042E+02  0.79828262042E+02  0.00000000000E+00 0.  1.
          2   -1    0    0  501    0  0.00000000000E+00 -0.00000000000E+00 -0.19993406917E+03  0.19993406917E+03  0.00000000000E+00 0. -1.
         25    2    1    2    0    0 -0.11930192535E+02 -0.24782751557E+02 -0.13011649127E+03  0.18258228045E+03  0.12509785596E+03 0.  0.
         23    2    1    2    0    0  0.11930192535E+02  0.24782751557E+02  0.10010684147E+02  0.97180050754E+02  0.92667330807E+02 0.  0.
          5    1    3    3  502    0  0.47424206670E+02  0.60686246755E+01 -0.96105497512E+02  0.10742263558E+03  0.41800000000E+01 0.  1.
         -5    1    3    3    0  502 -0.59354399206E+02 -0.30851376232E+02 -0.34010993759E+02  0.75159644870E+02  0.41800000000E+01 0.  1.
        -11    1    4    4    0    0  0.10627501575E+02  0.50246106579E+02  0.34466167285E+02  0.61850882802E+02  0.00000000000E+00 0.  1.
         11    1    4    4    0    0  0.13026909597E+01 -0.25463355022E+02 -0.24455483138E+02  0.35329167953E+02  0.00000000000E+00 0. -1.
</event>
<event>
 8    1  0.6505836E-009  0.5308250E+02  0.7561462E-02  0.1429391E+00
         -1   -1    0    0    0  501 -0.00000000000E+00  0.00000000000E+00  0.24140805892E+02  0.24140805892E+02  0.00000000000E+00 0.  1.
          1   -1    0    0  501    0  0.00000000000E+00 -0.00000000000E+00 -0.55348446449E+03  0.55348446449E+03  0.00000000000E+00 0. -1.
         25    2    1    2    0    0 -0.13029358155E+02 -0.19184703819E+02 -0.39085498355E+03  0.41104052863E+03  0.12509548741E+03 0.  0.
         23    2    1    2    0    0  0.13029358155E+02  0.19184703819E+02 -0.13848867505E+03  0.16658474175E+03  0.89630050961E+02 0.  0.
          5    1    3    3  502    0  0.18300259660E+02 -0.13274602764E+01 -0.31927957261E+00  0.18821158143E+02  0.41800000000E+01 0.  1.
         -5    1    3    3    0  502 -0.31329617815E+02 -0.17857243542E+02 -0.39053570398E+03  0.39221937049E+03  0.41800000000E+01 0.  1.
        -11    1    4    4    0    0 -0.93473158392E+01  0.26018611753E+02 -0.14041290590E+03  0.14310878595E+03  0.00000000000E+00 0. -1.
         11    1    4    4    0    0  0.22376673994E+02 -0.68339079345E+01  0.19242308582E+01  0.23475955808E+02  0.00000000000E+00 0.  1.
</event>
<event>
 8    1  0.6505836E-009  0.1016923E+03  0.7561462E-02  0.1276777E+00
          2   -1    0    0  501    0  0.00000000000E+00  0.00000000000E+00  0.96376183817E+02  0.96376183817E+02  0.00000000000E+00 0. -1.
         -2   -1    0    0    0  501 -0.00000000000E+00 -0.00000000000E+00 -0.13042763041E+03  0.13042763041E+03  0.00000000000E+00 0.  1.
         25    2    1    2    0    0  0.11782416047E+02 -0.31464143924E+02 -0.42470122418E+02  0.13630791365E+03  0.12508924152E+03 0.  0.
         23    2    1    2    0    0 -0.11782416047E+02  0.31464143924E+02  0.84186758297E+01  0.90495900570E+02  0.83605120875E+02 0.  0.
          5    1    3    3  502    0  0.48675345627E+02  0.27177500090E+02 -0.36234850712E+02  0.66620887034E+02  0.41800000000E+01 0.  1.
         -5    1    3    3    0  502 -0.36892929580E+02 -0.58641644014E+02 -0.62352717057E+01  0.69687026618E+02  0.41800000000E+01 0.  1.
        -11    1    4    4    0    0  0.28394837123E+02  0.24061445671E+02 -0.18508390779E+02  0.41566578790E+02  0.00000000000E+00 0.  1.
         11    1    4    4    0    0 -0.40177253170E+02  0.74026982524E+01  0.26927066609E+02  0.48929321780E+02  0.00000000000E+00 0. -1.
</event>
<event>
 8    1  0.6505836E-009  0.1235527E+03  0.7561462E-02  0.1237349E+00
          2   -1    0    0  501    0  0.00000000000E+00  0.00000000000E+00  0.92732841282E+03  0.92732841282E+03  0.00000000000E+00 0. -1.
         -2   -1    0    0    0  501 -0.00000000000E+00 -0.00000000000E+00 -0.17640477857E+02  0.17640477857E+02  0.00000000000E+00 0.  1.
         25    2    1    2    0    0  0.32002316044E+01 -0.64383320684E+02  0.56198920537E+03  0.57934105209E+03  0.12509490086E+03 0.  0.
         23    2    1    2    0    0 -0.32002316044E+01  0.64383320684E+02  0.34769872959E+03  0.36562783858E+03  0.92918546712E+02 0.  0.
          5    1    3    3  502    0  0.15362994154E+02  0.33967658997E+02  0.99542752383E+02  0.10637694957E+03  0.41800000000E+01 0.  1.
         -5    1    3    3    0  502 -0.12162762549E+02 -0.98350979681E+02  0.46244645299E+03  0.47296410253E+03  0.41800000000E+01 0.  1.
        -11    1    4    4    0    0  0.43041681365E+02  0.36270570729E+02  0.21670949716E+03  0.22389985885E+03  0.00000000000E+00 0.  1.
         11    1    4    4    0    0 -0.46241912970E+02  0.28112749955E+02  0.13098923243E+03  0.14172797973E+03  0.00000000000E+00 0. -1.
</event>
<event>
 8    1  0.6505836E-009  0.1089603E+03  0.7561462E-02  0.1262507E+00
          2   -1    0    0  501    0  0.00000000000E+00  0.00000000000E+00  0.32085909303E+03  0.32085909303E+03  0.00000000000E+00 0. -1.
         -2   -1    0    0    0  501 -0.00000000000E+00 -0.00000000000E+00 -0.44444529310E+02  0.44444529310E+02  0.00000000000E+00 0.  1.
         25    2    1    2    0    0  0.30096109023E+02 -0.14621084998E+02  0.13601122330E+03  0.18779160434E+03  0.12508829638E+03 0.  0.
         23    2    1    2    0    0 -0.30096109023E+02  0.14621084998E+02  0.14040334042E+03  0.17751201800E+03  0.10333376326E+03 0.  0.
          5    1    3    3  502    0  0.58587994383E+02  0.37652407475E+02  0.75518670892E+02  0.10281439066E+03  0.41800000000E+01 0. -1.
         -5    1    3    3    0  502 -0.28491885360E+02 -0.52273492473E+02  0.60492552407E+02  0.84977213672E+02  0.41800000000E+01 0. -1.
        -11    1    4    4    0    0 -0.22044018759E+02  0.48698276362E+02  0.29167319584E+02  0.60894937519E+02  0.00000000000E+00 0.  1.
         11    1    4    4    0    0 -0.80520902638E+01 -0.34077191364E+02  0.11123602084E+03  0.11661708049E+03  0.00000000000E+00 0. -1.
</event>
<event>
 8    1  0.6505836E-009  0.1462294E+03  0.7561462E-02  0.1205184E+00
         -3   -1    0    0    0  501 -0.00000000000E+00  0.00000000000E+00  0.77261530710E+03  0.77261530710E+03  0.00000000000E+00 0.  1.
          3   -1    0    0  501    0  0.00000000000E+00 -0.00000000000E+00 -0.30818109732E+02  0.30818109732E+02  0.00000000000E+00 0. -1.
         25    2    1    2    0    0  0.75160307223E+02  0.73316418998E+02  0.32939726397E+03  0.36766299096E+03  0.12509655604E+03 0.  0.
         23    2    1    2    0    0 -0.75160307223E+02 -0.73316418998E+02  0.41239993339E+03  0.43577042587E+03  0.93796534710E+02 0.  0.
          5    1    3    3  502    0  0.58462895191E+02  0.10600302689E+03  0.20724496874E+03  0.24004687311E+03  0.41800000000E+01 0. -1.
         -5    1    3    3    0  502  0.16697412032E+02 -0.32686607887E+02  0.12215229524E+03  0.12761611785E+03  0.41800000000E+01 0. -1.
        -11    1    4    4    0    0 -0.91379541821E+02 -0.74816464252E+02  0.39339710043E+03  0.41074201467E+03  0.00000000000E+00 0.  1.
         11    1    4    4    0    0  0.16219234598E+02  0.15000452538E+01  0.19002832965E+02  0.25028411204E+02  0.00000000000E+00 0. -1.
</event>
<event>
 8    1  0.6505836E-009  0.1046823E+03  0.7561462E-02  0.1270747E+00
          1   -1    0    0  501    0  0.00000000000E+00  0.00000000000E+00  0.45429213827E+03  0.45429213827E+03  0.00000000000E+00 0. -1.
         -1   -1    0    0    0  501 -0.00000000000E+00 -0.00000000000E+00 -0.40123245479E+02  0.40123245479E+02  0.00000000000E+00 0.  1.
         25    2    1    2    0    0 -0.42135065711E+02 -0.48553364556E+02  0.31497005770E+03  0.34494382625E+03  0.12508922035E+03 0.  0.
         23    2    1    2    0    0  0.42135065711E+02  0.48553364556E+02  0.99198835086E+02  0.14947155749E+03  0.91479749918E+02 0.  0.
          5    1    3    3  502    0 -0.17245841837E+02  0.19333049584E+02  0.51140761844E+01  0.26735969070E+02  0.41800000000E+01 0.  1.
         -5    1    3    3    0  502 -0.24889223875E+02 -0.67886414140E+02  0.30985598152E+03  0.31820785718E+03  0.41800000000E+01 0.  1.
        -11    1    4    4    0    0  0.89229782475E+01 -0.26854814128E+02  0.16634085542E+02  0.32825194356E+02  0.00000000000E+00 0. -1.
         11    1    4    4    0    0  0.33212087464E+02  0.75408178684E+02  0.82564749544E+02  0.11664636314E+03  0.00000000000E+00 0.  1.
</event>
<event>
 8    1  0.6505836E-009  0.1051807E+03  0.7561462E-02  0.1269764E+00
          2   -1    0    0  501    0  0.00000000000E+00  0.00000000000E+00  0.32715766892E+03  0.32715766892E+03  0.00000000000E+00 0. -1.
         -2   -1    0    0    0  501 -0.00000000000E+00 -0.00000000000E+00 -0.51697947265E+02  0.51697947265E+02  0.00000000000E+00 0.  1.
         25    2    1    2    0    0 -0.43216187202E+02 -0.12703399913E+02  0.23195820984E+03  0.26735930969E+03  0.12508946463E+03 0.  0.
         23    2    1    2    0    0  0.43216187202E+02  0.12703399913E+02  0.43501511814E+02  0.11149630649E+03  0.92249821821E+02 0.  0.
          5    1    3    3  502    0 -0.14446502939E+02  0.52564087738E+02  0.14405376476E+03  0.15407999321E+03  0.41800000000E+01 0. -1.
         -5    1    3    3    0  502 -0.28769684263E+02 -0.65267487651E+02  0.87904445079E+02  0.11327931648E+03  0.41800000000E+01 0. -1.
        -11    1    4    4    0    0 -0.12467987713E+02 -0.17035723925E+02 -0.14626342889E+02  0.25682611113E+02  0.00000000000E+00 0.  1.
         11    1    4    4    0    0  0.55684174915E+02  0.29739123838E+02  0.58127854703E+02  0.85813695382E+02  0.00000000000E+00 0. -1.
</event>
<event>
 8    1  0.6505836E-009  0.1722852E+03  0.7561462E-02  0.1175485E+00
          1   -1    0    0  501    0  0.00000000000E+00  0.00000000000E+00  0.10466460675E+04  0.10466460675E+04  0.00000000000E+00 0. -1.
         -1   -1    0    0    0  501 -0.00000000000E+00 -0.00000000000E+00 -0.42443214486E+02  0.42443214486E+02  0.00000000000E+00 0.  1.
         25    2    1    2    0    0  0.16425969353E+03 -0.26773192060E+02  0.70689656724E+03  0.73691811171E+03  0.12508995103E+03 0.  0.
         23    2    1    2    0    0 -0.16425969353E+03  0.26773192060E+02  0.29730628574E+03  0.35217117025E+03  0.89081170185E+02 0.  0.
          5    1    3    3  502    0  0.40822609857E+02  0.18714199955E+02  0.51593099036E+02  0.68527563970E+02  0.41800000000E+01 0. -1.
         -5    1    3    3    0  502  0.12343708368E+03 -0.45487392015E+02  0.65530346821E+03  0.66839054774E+03  0.41800000000E+01 0. -1.
        -11    1    4    4    0    0 -0.64737490831E+02 -0.20068238316E+00  0.20066599817E+03  0.21085024500E+03  0.00000000000E+00 0. -1.
         11    1    4    4    0    0 -0.99522202703E+02  0.26973874443E+02  0.96640287569E+02  0.14132092525E+03  0.00000000000E+00 0.  1.
</event>
<event>
 8    1  0.6505836E-009  0.1490536E+03  0.7561462E-02  0.1201641E+00
          2   -1    0    0  501    0  0.00000000000E+00  0.00000000000E+00  0.65463343290E+03  0.65463343290E+03  0.00000000000E+00 0. -1.
         -2   -1    0    0    0  501 -0.00000000000E+00 -0.00000000000E+00 -0.48046123656E+02  0.48046123656E+02  0.00000000000E+00 0.  1.
         25    2    1    2    0    0  0.56713336607E+02 -0.12511270413E+03  0.23343269615E+03  0.29834086347E+03  0.12508739304E+03 0.  0.
         23    2    1    2    0    0 -0.56713336607E+02  0.12511270413E+03  0.37315461309E+03  0.40433869309E+03  0.73319998446E+02 0.  0.
          5    1    3    3  502    0  0.59249380945E+02 -0.95704425377E+02  0.70894773034E+02  0.13309157533E+03  0.41800000000E+01 0.  1.
         -5    1    3    3    0  502 -0.25360443376E+01 -0.29408278753E+02  0.16253792312E+03  0.16524928814E+03  0.41800000000E+01 0.  1.
        -11    1    4    4    0    0 -0.73763332499E+02  0.11217445016E+03  0.31815126029E+03  0.34531776802E+03  0.00000000000E+00 0.  1.
         11    1    4    4    0    0  0.17049995892E+02  0.12938253969E+02  0.55003352807E+02  0.59020925066E+02  0.00000000000E+00 0. -1.
</event>
<event>
 8    1  0.6505836E-009  0.1046869E+03  0.7561462E-02  0.1270738E+00
         -1   -1    0    0    0  501 -0.00000000000E+00  0.00000000000E+00  0.60840983432E+02  0.60840983432E+02  0.00000000000E+00 0.  1.
          1   -1    0    0  501    0  0.00000000000E+00 -0.00000000000E+00 -0.30074472610E+03  0.30074472610E+03  0.00000000000E+00 0. -1.
         25    2    1    2    0    0 -0.61700450905E+02  0.64357632360E+00 -0.20327093483E+03  0.24655337476E+03  0.12514844717E+03 0.  0.
         23    2    1    2    0    0  0.61700450905E+02 -0.64357632360E+00 -0.36632807840E+02  0.11503233477E+03  0.89906148845E+02 0.  0.
          5    1    3    3  502    0  0.11223614720E+02 -0.31169176607E+02 -0.61658776642E+01  0.33955523042E+02  0.41800000000E+01 0. -1.
         -5    1    3    3    0  502 -0.72924065625E+02  0.31812752930E+02 -0.19710505716E+03  0.21259785172E+03  0.41800000000E+01 0. -1.
        -11    1    4    4    0    0  0.76776533298E+02  0.10600045166E+02 -0.49754140596E+02  0.92100334034E+02  0.00000000000E+00 0. -1.
         11    1    4    4    0    0 -0.15076082393E+02 -0.11243621490E+02  0.13121332755E+02  0.22932000737E+02  0.00000000000E+00 0.  1.
</event>
<event>
 7    1  0.6505836E-009  0.1231567E+03  0.7561462E-02  0.1237978E+00
         -2   -1    0    0    0  501 -0.00000000000E+00  0.00000000000E+00  0.75203511207E+02  0.75203511207E+02  0.00000000000E+00 0. -1.
          2   -1    0    0  501    0  0.00000000000E+00 -0.00000000000E+00 -0.34797610617E+03  0.34797610617E+03  0.00000000000E+00 0.  1.
         23    2    1    2    0    0 -0.66916867076E+02 -0.68120279086E+02 -0.48147865382E+02  0.14884403476E+03  0.10352820978E+03 0.  0.
          5    1    1    2  502    0  0.80708316404E+02  0.45263906284E+02 -0.22894374234E+03  0.24697239341E+03  0.41800000000E+01 0. -1.
         -5    1    1    2    0  502 -0.13791449328E+02  0.22856372802E+02  0.43190127677E+01  0.27363189206E+02  0.41800000000E+01 0. -1.
        -11    1    3    3    0    0 -0.36491240362E+02 -0.84548200264E+02 -0.62619149992E+02  0.11136052594E+03  0.00000000000E+00 0.  1.
         11    1    3    3    0    0 -0.30425626713E+02  0.16427921178E+02  0.14471284610E+02  0.37483508819E+02  0.00000000000E+00 0. -1.
</event>
<event>
 8    1  0.6505836E-009  0.3286677E+03  0.7561462E-02  0.1071728E+00
          1   -1    0    0  501    0  0.00000000000E+00  0.00000000000E+00  0.11167986029E+04  0.11167986029E+04  0.00000000000E+00 0. -1.
         -1   -1    0    0    0  501 -0.00000000000E+00 -0.00000000000E+00 -0.10540826709E+03  0.10540826709E+03  0.00000000000E+00 0.  1.
         25    2    1    2    0    0  0.20929542959E+03  0.24888859427E+03  0.54491497810E+03  0.64678479117E+03  0.12509245990E+03 0.  0.
         23    2    1    2    0    0 -0.20929542959E+03 -0.24888859427E+03  0.46647535775E+03  0.57542207886E+03  0.88097674484E+02 0.  0.
          5    1    3    3  502    0  0.65595986114E+02  0.74837789311E+02  0.72473705090E+02  0.12318051158E+03  0.41800000000E+01 0.  1.
         -5    1    3    3    0  502  0.14369944348E+03  0.17405080496E+03  0.47244127301E+03  0.52360427959E+03  0.41800000000E+01 0.  1.
        -11    1    4    4    0    0 -0.17941896961E+03 -0.24212079208E+03  0.44709441142E+03  0.53917256730E+03  0.00000000000E+00 0. -1.
         11    1    4    4    0    0 -0.29876459979E+02 -0.67678021879E+01  0.19380946332E+02  0.36249511556E+02  0.00000000000E+00 0.  1.
</event>
<event>
 8    1  0.6505836E-009  0.7824845E+02  0.7561462E-02  0.1334097E+00
          1   -1    0    0  501    0  0.00000000000E+00  0.00000000000E+00  0.16045842709E+03  0.16045842709E+03  0.00000000000E+00 0. -1.
         -1   -1    0    0    0  501 -0.00000000000E+00 -0.00000000000E+00 -0.85724243230E+02  0.85724243230E+02  0.00000000000E+00 0.  1.
         25    2    1    2    0    0  0.36008537096E+02  0.19598068199E+02  0.61581080535E+02  0.14532291678E+03  0.12508325883E+03 0.  0.
         23    2    1    2    0    0 -0.36008537096E+02 -0.19598068199E+02  0.13153103323E+02  0.10085975354E+03  0.91208479519E+02 0.  0.
          5    1    3    3  502    0 -0.20227328139E+02 -0.15207689111E+02  0.73629332686E+02  0.77969030028E+02  0.41800000000E+01 0. -1.
         -5    1    3    3    0  502  0.56235865234E+02  0.34805757310E+02 -0.12048252151E+02  0.67353886751E+02  0.41800000000E+01 0. -1.
        -11    1    4    4    0    0  0.91954952237E+01 -0.16968012355E+02 -0.31707805988E+02  0.37119476509E+02  0.00000000000E+00 0.  1.
         11    1    4    4    0    0 -0.45204032319E+02 -0.26300558434E+01  0.44860909312E+02  0.63740277031E+02  0.00000000000E+00 0. -1.
</event>
<event>
 8    1  0.6505836E-009  0.1447829E+03  0.7561462E-02  0.1207034E+00
         -2   -1    0    0    0  501 -0.00000000000E+00  0.00000000000E+00  0.23829422523E+03  0.23829422523E+03  0.00000000000E+00 0.  1.
          2   -1    0    0  501    0  0.00000000000E+00 -0.00000000000E+00 -0.12992206646E+03  0.12992206646E+03  0.00000000000E+00 0. -1.
         25    2    1    2    0    0  0.67378298093E+02  0.11260037399E+03  0.10431359225E+03  0.20915851785E+03  0.12508909139E+03 0.  0.
         23    2    1    2    0    0 -0.67378298093E+02 -0.11260037399E+03  0.40585665265E+01  0.15905777384E+03  0.89801025496E+02 0.  0.
          5    1    3    3  502    0  0.49736582113E+00  0.66650526918E+01  0.81338486314E+02  0.81719594076E+02  0.41800000000E+01 0. -1.
         -5    1    3    3    0  502  0.66880932272E+02  0.10593532130E+03  0.22975105936E+02  0.12743892377E+03  0.41800000000E+01 0. -1.
        -11    1    4    4    0    0 -0.46995744425E+02 -0.12425998507E+03  0.13944289733E+02  0.13357989033E+03  0.00000000000E+00 0. -1.
         11    1    4    4    0    0 -0.20382553668E+02  0.11659611087E+02 -0.98857232064E+01  0.25477883508E+02  0.00000000000E+00 0.  1.
</event>
<event>
 7    1  0.6505836E-009  0.1476918E+03  0.7561462E-02  0.1203338E+00
         -1   -1    0    0    0  501 -0.00000000000E+00  0.00000000000E+00  0.34222725202E+02  0.34222725202E+02  0.00000000000E+00 0.  1.
          1   -1    0    0  501    0  0.00000000000E+00 -0.00000000000E+00 -0.80106378664E+03  0.80106378664E+03  0.00000000000E+00 0. -1.
         23    2    1    2    0    0  0.79732749158E+02  0.98932906977E+02 -0.41098003034E+03  0.43808632476E+03  0.82885530902E+02 0.  0.
          5    1    1    2  502    0  0.16947006198E+02 -0.24222356713E+02 -0.11868091279E+02  0.32128609905E+02  0.41800000000E+01 0.  1.
         -5    1    1    2    0  502 -0.96679755356E+02 -0.74710550263E+02 -0.34399293981E+03  0.36507157717E+03  0.41800000000E+01 0.  1.
        -11    1    3    3    0    0  0.16059437240E+02  0.72624264586E+02 -0.28447600226E+03  0.29403874778E+03  0.00000000000E+00 0.  1.
         11    1    3    3    0    0  0.63673311918E+02  0.26308642390E+02 -0.12650402808E+03  0.14404757698E+03  0.00000000000E+00 0. -1.
</event>
<event>
 8    1  0.6505836E-009  0.1315348E+03  0.7561462E-02  0.1225196E+00
          2   -1    0    0  501    0  0.00000000000E+00  0.00000000000E+00  0.75123549873E+03  0.75123549873E+03  0.00000000000E+00 0.  1.
         -2   -1    0    0    0  501 -0.00000000000E+00 -0.00000000000E+00 -0.30429122115E+02  0.30429122115E+02  0.00000000000E+00 0. -1.
         25    2    1    2    0    0  0.12493563478E+01  0.10851942848E+03  0.37444297876E+03  0.40943000775E+03  0.12508940665E+03 0.  0.
         23    2    1    2    0    0 -0.12493563478E+01 -0.10851942848E+03  0.34636339786E+03  0.37223461310E+03  0.82540756984E+02 0.  0.
          5    1    3    3  502    0  0.30821826802E+02  0.15263974185E+02  0.24334153100E+03  0.24579574249E+03  0.41800000000E+01 0.  1.
         -5    1    3    3    0  502 -0.29572470454E+02  0.93255454290E+02  0.13110144776E+03  0.16363426526E+03  0.41800000000E+01 0.  1.
        -11    1    4    4    0    0  0.31652755182E+02 -0.23756433763E+02  0.60806296685E+02  0.72551159689E+02  0.00000000000E+00 0. -1.
         11    1    4    4    0    0 -0.32902111529E+02 -0.84762994713E+02  0.28555710118E+03  0.29968345341E+03  0.00000000000E+00 0.  1.
</event>
<event>
 8    1  0.6505836E-009  0.9633695E+02  0.7561462E-02  0.1288193E+00
          2   -1    0    0  501    0  0.00000000000E+00  0.00000000000E+00  0.14856453201E+03  0.14856453201E+03  0.00000000000E+00 0. -1.
         -2   -1    0    0    0  501 -0.00000000000E+00 -0.00000000000E+00 -0.89970543952E+02  0.89970543952E+02  0.00000000000E+00 0.  1.
         25    2    1    2    0    0 -0.11742690184E+02 -0.99279150062E+01 -0.54613180299E+01  0.12615084582E+03  0.12509098943E+03 0.  0.
         23    2    1    2    0    0  0.11742690184E+02  0.99279150062E+01  0.64055306088E+02  0.11238423014E+03  0.91053164018E+02 0.  0.
          5    1    3    3  502    0  0.52232394560E+02 -0.24075083722E+02 -0.15552732768E+02  0.59725979224E+02  0.41800000000E+01 0.  1.
         -5    1    3    3    0  502 -0.63975084745E+02  0.14147168716E+02  0.10091414738E+02  0.66424866595E+02  0.41800000000E+01 0.  1.
        -11    1    4    4    0    0  0.34872139993E+02 -0.12588928478E+02  0.70326753531E+02  0.79500940435E+02  0.00000000000E+00 0. -1.
         11    1    4    4    0    0 -0.23129449809E+02  0.22516843485E+02 -0.62714474430E+01  0.32883289708E+02  0.00000000000E+00 0.  1.
</event>
<event>
 8    1  0.6505836E-009  0.2680639E+03  0.7561462E-02  0.1102393E+00
         -3   -1    0    0    0  501 -0.00000000000E+00  0.00000000000E+00  0.77745036927E+02  0.77745036927E+02  0.00000000000E+00 0.  1.
          3   -1    0    0  501    0  0.00000000000E+00 -0.00000000000E+00 -0.10969011288E+04  0.10969011288E+04  0.00000000000E+00 0. -1.
         25    2    1    2    0    0  0.21471164200E+03  0.12755535684E+03 -0.72933748970E+03  0.78099425837E+03  0.12508956571E+03 0.  0.
         23    2    1    2    0    0 -0.21471164200E+03 -0.12755535684E+03 -0.28981860221E+03  0.39365190740E+03  0.92712155312E+02 0.  0.
          5    1    3    3  502    0  0.10675754700E+03 -0.32255830198E+01 -0.33729624517E+03  0.35382736982E+03  0.41800000000E+01 0. -1.
         -5    1    3    3    0  502  0.10795409500E+03  0.13078093986E+03 -0.39204124453E+03  0.42716688855E+03  0.41800000000E+01 0. -1.
        -11    1    4    4    0    0 -0.86069619566E+02 -0.12410461990E+02 -0.14129275691E+03  0.16590853544E+03  0.00000000000E+00 0.  1.
         11    1    4    4    0    0 -0.12864202243E+03 -0.11514489485E+03 -0.14852584530E+03  0.22774337196E+03  0.00000000000E+00 0. -1.
</event>
<event>
 8    1  0.6505836E-009  0.9874602E+02  0.7561462E-02  0.1282955E+00
         -2   -1    0    0    0  501 -0.00000000000E+00  0.00000000000E+00  0.10372593545E+03  0.10372593545E+03  0.00000000000E+00 0.  1.
          2   -1    0    0  501    0  0.00000000000E+00 -0.00000000000E+00 -0.27346371231E+03  0.27346371231E+03  0.00000000000E+00 0. -1.
         25    2    1    2    0    0 -0.19513243723E+02  0.50519902826E+02  0.39000183160E+02  0.14177559044E+03  0.12508507703E+03 0.  0.
         23    2    1    2    0    0  0.19513243723E+02 -0.50519902826E+02 -0.20873796002E+03  0.23541405732E+03  0.94420417113E+02 0.  0.
          5    1    3    3  502    0 -0.12532238832E+02  0.72556495144E+02 -0.21545813329E+02  0.76832261907E+02  0.41800000000E+01 0. -1.
         -5    1    3    3    0  502 -0.69810048908E+01 -0.22036592318E+02  0.60545996489E+02  0.64943328535E+02  0.41800000000E+01 0. -1.
        -11    1    4    4    0    0  0.52875566599E+02 -0.26517000118E+02 -0.16552701446E+03  0.17577875114E+03  0.00000000000E+00 0. -1.
         11    1    4    4    0    0 -0.33362322876E+02 -0.24002902709E+02 -0.43210945560E+02  0.59635306173E+02  0.00000000000E+00 0.  1.
</event>
<event>
 8    1  0.6505836E-009  0.8942011E+02  0.7561462E-02  0.1304262E+00
         -2   -1    0    0    0  501 -0.00000000000E+00  0.00000000000E+00  0.19452452095E+02  0.19452452095E+02  0.00000000000E+00 0.  1.
          2   -1    0    0  501    0  0.00000000000E+00 -0.00000000000E+00 -0.72737653236E+03  0.72737653236E+03  0.00000000000E+00 0. -1.
         25    2    1    2    0    0  0.31303834389E+01 -0.48911997398E+02 -0.35469355426E+03  0.37929265213E+03  0.12511281204E+03 0.  0.
         23    2    1    2    0    0 -0.31303834389E+01  0.48911997398E+02 -0.35323052600E+03  0.36753633232E+03  0.88932380421E+02 0.  0.
          5    1    3    3  502    0  0.27102251925E+02  0.54782373204E+01 -0.28997988611E+03  0.29132516179E+03  0.41800000000E+01 0. -1.
         -5    1    3    3    0  502 -0.23971868486E+02 -0.54390234718E+02 -0.64713668156E+02  0.87967490345E+02  0.41800000000E+01 0. -1.
        -11    1    4    4    0    0  0.35592818819E+02  0.35604925813E+02 -0.11118471531E+03  0.12205163011E+03  0.00000000000E+00 0.  1.
         11    1    4    4    0    0 -0.38723202258E+02  0.13307071585E+02 -0.24204581069E+03  0.24548470221E+03  0.00000000000E+00 0. -1.
</event>
<event>
 8    1  0.6505836E-009  0.9613100E+02  0.7561462E-02  0.1288649E+00
          1   -1    0    0  501    0  0.00000000000E+00  0.00000000000E+00  0.38018258058E+03  0.38018258058E+03  0.00000000000E+00 0. -1.
         -1   -1    0    0    0  501 -0.00000000000E+00 -0.00000000000E+00 -0.32793319256E+02  0.32793319256E+02  0.00000000000E+00 0.  1.
         25    2    1    2    0    0  0.13871359353E+02 -0.15917184475E+02  0.15477573843E+03  0.20009324730E+03  0.12504402039E+03 0.  0.
         23    2    1    2    0    0 -0.13871359353E+02  0.15917184475E+02  0.19261352289E+03  0.21288265254E+03  0.88166224712E+02 0.  0.
          5    1    3    3  502    0  0.14836562062E+02  0.53689716125E+02  0.55257929494E+02  0.78572389320E+02  0.41800000000E+01 0. -1.
         -5    1    3    3    0  502 -0.96520270883E+00 -0.69606900600E+02  0.99517808938E+02  0.12152085798E+03  0.41800000000E+01 0. -1.
        -11    1    4    4    0    0  0.22923373795E+02 -0.61832256263E+01  0.10821770885E+02  0.26092605665E+02  0.00000000000E+00 0.  1.
         11    1    4    4    0    0 -0.36794733149E+02  0.22100410101E+02  0.18179175201E+03  0.18679004687E+03  0.00000000000E+00 0. -1.
</event>
<event>
 8    1  0.6505836E-009  0.7019193E+02  0.7561462E-02  0.1359442E+00
          1   -1    0    0  501    0  0.00000000000E+00  0.00000000000E+00  0.14967737926E+03  0.14967737926E+03  0.00000000000E+00 0. -1.
         -1   -1    0    0    0  501 -0.00000000000E+00 -0.00000000000E+00 -0.86846214207E+02  0.86846214207E+02  0.00000000000E+00 0.  1.
         25    2    1    2    0    0 -0.26557452480E+02  0.17273630927E+02  0.11261277193E+02  0.12952959881E+03  0.12508966383E+03 0.  0.
         23    2    1    2    0    0  0.26557452480E+02 -0.17273630927E+02  0.51569887857E+02  0.10699399465E+03  0.88230294971E+02 0.  0.
          5    1    3    3  502    0  0.11148510820E+01  0.38272394144E+02  0.58928771948E+02  0.70399514272E+02  0.41800000000E+01 0. -1.
         -5    1    3    3    0  502 -0.27672303562E+02 -0.20998763217E+02 -0.47667494756E+02  0.59130084537E+02  0.41800000000E+01 0. -1.
        -11    1    4    4    0    0  0.19921470885E+02 -0.39199624828E+02 -0.66110827138E+01  0.44465514768E+02  0.00000000000E+00 0.  1.
         11    1    4    4    0    0  0.66359815953E+01  0.21925993901E+02  0.58180970571E+02  0.62528479886E+02  0.00000000000E+00 0. -1.
</event>
<event>
 8    1  0.6505836E-009  0.8610254E+02  0.7561462E-02  0.1312574E+00
          1   -1    0    0  501    0  0.00000000000E+00  0.00000000000E+00  0.69201714050E+03  0.69201714050E+03  0.00000000000E+00 0. -1.
         -1   -1    0    0    0  501 -0.00000000000E+00 -0.00000000000E+00 -0.17363157941E+02  0.17363157941E+02  0.00000000000E+00 0.  1.
         25    2    1    2    0    0  0.48672189044E+01 -0.21615604098E+01  0.45796609204E+03  0.47477888407E+03  0.12511468794E+03 0.  0.
         23    2    1    2    0    0 -0.48672189044E+01  0.21615604098E+01  0.21668789052E+03  0.23460141437E+03  0.89754217526E+02 0.  0.
          5    1    3    3  502    0 -0.24178565928E+02 -0.35531771629E+02  0.39697302805E+03  0.39931462188E+03  0.41800000000E+01 0.  1.
         -5    1    3    3    0  502  0.29045784832E+02  0.33370211219E+02  0.60993063984E+02  0.75464262188E+02  0.41800000000E+01 0.  1.
        -11    1    4    4    0    0  0.15562834195E+02 -0.37152894043E+02  0.64050808730E+02  0.75664030046E+02  0.00000000000E+00 0.  1.
         11    1    4    4    0    0 -0.20430053100E+02  0.39314454453E+02  0.15263708179E+03  0.15893738432E+03  0.00000000000E+00 0. -1.
</event>
<event>
 8    1  0.6505836E-009  0.1007596E+03  0.7561462E-02  0.1278707E+00
          3   -1    0    0  501    0  0.00000000000E+00  0.00000000000E+00  0.14956898143E+03  0.14956898143E+03  0.00000000000E+00 0. -1.
         -3   -1    0    0    0  501 -0.00000000000E+00 -0.00000000000E+00 -0.11124807474E+03  0.11124807474E+03  0.00000000000E+00 0.  1.
         25    2    1    2    0    0  0.53958227509E+02 -0.30343099765E+02  0.51137414953E+02  0.14864171188E+03  0.12508848582E+03 0.  0.
         23    2    1    2    0    0 -0.53958227509E+02  0.30343099765E+02 -0.12816508269E+02  0.11217534429E+03  0.92665262980E+02 0.  0.
          5    1    3    3  502    0 -0.28042164807E+02 -0.41936948220E+02  0.40922101417E+02  0.65093482143E+02  0.41800000000E+01 0. -1.
         -5    1    3    3    0  502  0.82000392316E+02  0.11593848455E+02  0.10215313536E+02  0.83548229740E+02  0.41800000000E+01 0. -1.
        -11    1    4    4    0    0 -0.28788643845E+02  0.31635329852E+02  0.36864444938E+02  0.56467401303E+02  0.00000000000E+00 0. -1.
         11    1    4    4    0    0 -0.25169583664E+02 -0.12922300862E+01 -0.49680953207E+02  0.55707942988E+02  0.00000000000E+00 0.  1.
</event>
<event>
 8    1  0.6505836E-009  0.1012439E+03  0.7561462E-02  0.1277702E+00
          2   -1    0    0  501    0  0.00000000000E+00  0.00000000000E+00  0.76947810095E+02  0.76947810095E+02  0.00000000000E+00 0. -1.
         -2   -1    0    0    0  501 -0.00000000000E+00 -0.00000000000E+00 -0.17704339021E+03  0.17704339021E+03  0.00000000000E+00 0.  1.
         25    2    1    2    0    0 -0.58618933079E+01 -0.21051541962E+02 -0.96557190168E+02  0.15952745150E+03  0.12509271600E+03 0.  0.
         23    2    1    2    0    0  0.58618933079E+01  0.21051541962E+02 -0.35383899461E+01  0.94463748809E+02  0.91833275143E+02 0.  0.
          5    1    3    3  502    0 -0.76147798751E+01  0.43783212453E+02 -0.18635710758E+01  0.44675495100E+02  0.41800000000E+01 0.  1.
         -5    1    3    3    0  502  0.17528865672E+01 -0.64834754415E+02 -0.94693619092E+02  0.11485195640E+03  0.41800000000E+01 0.  1.
        -11    1    4    4    0    0 -0.11421855717E+02  0.54244969716E+02 -0.10440150968E+02  0.56408973397E+02  0.00000000000E+00 0.  1.
         11    1    4    4    0    0  0.17283749025E+02 -0.33193427754E+02  0.69017610217E+01  0.38054775411E+02  0.00000000000E+00 0. -1.
</event>
<event>
 8    1  0.6505836E-009  0.1527833E+03  0.7561462E-02  0.1197094E+00
          2   -1    0    0  501    0  0.00000000000E+00  0.00000000000E+00  0.85625886542E+03  0.85625886542E+03  0.00000000000E+00 0. -1.
         -2   -1    0    0    0  501 -0.00000000000E+00 -0.00000000000E+00 -0.39620031027E+02  0.39620031027E+02  0.00000000000E+00 0.  1.
         25    2    1    2    0    0  0.14103000709E+03 -0.26443289833E+01  0.54269687597E+03  0.57451188988E+03  0.12509019565E+03 0.  0.
         23    2    1    2    0    0 -0.14103000709E+03  0.26443289833E+01  0.27394195843E+03  0.32136700657E+03  0.91302250525E+02 0.  0.
          5    1    3    3  502    0  0.68521658008E+02 -0.16005007151E+02  0.82878077587E+02  0.10880085484E+03  0.41800000000E+01 0. -1.
         -5    1    3    3    0  502  0.72508349082E+02  0.13360678168E+02  0.45981879838E+03  0.46571103503E+03  0.41800000000E+01 0. -1.
        -11    1    4    4    0    0 -0.54170938640E+02  0.39327701051E+02  0.70946149579E+02  0.97542374398E+02  0.00000000000E+00 0. -1.
         11    1    4    4    0    0 -0.86859068450E+02 -0.36683372067E+02  0.20299580885E+03  0.22382463218E+03  0.00000000000E+00 0.  1.
</event>
<event>
 8    1  0.6505836E-009  0.1275308E+03  0.7561462E-02  0.1231166E+00
         -2   -1    0    0    0  501 -0.00000000000E+00  0.00000000000E+00  0.27345647702E+02  0.27345647702E+02  0.00000000000E+00 0.  1.
          2   -1    0    0  501    0  0.00000000000E+00 -0.00000000000E+00 -0.81784599019E+03  0.81784599019E+03  0.00000000000E+00 0. -1.
         25    2    1    2    0    0  0.98210864010E+02  0.29866393890E+02 -0.47569620847E+03  0.50246676845E+03  0.12509434578E+03 0.  0.
         23    2    1    2    0    0 -0.98210864010E+02 -0.29866393890E+02 -0.31480413401E+03  0.34272486944E+03  0.88438215992E+02 0.  0.
          5    1    3    3  502    0  0.61332592751E+02  0.55770270073E+02 -0.43077377385E+03  0.43869753429E+03  0.41800000000E+01 0.  1.
         -5    1    3    3    0  502  0.36878271259E+02 -0.25903876183E+02 -0.44922434621E+02  0.63769234155E+02  0.41800000000E+01 0.  1.
        -11    1    4    4    0    0 -0.53023159643E+02  0.22527171047E+02 -0.20499519255E+03  0.21293651134E+03  0.00000000000E+00 0. -1.
         11    1    4    4    0    0 -0.45187704367E+02 -0.52393564937E+02 -0.10980894146E+03  0.12978835810E+03  0.00000000000E+00 0.  1.
</event>
<event>
 8    1  0.6505836E-009  0.2025134E+03  0.7561462E-02  0.1147636E+00
         -1   -1    0    0    0  501 -0.00000000000E+00  0.00000000000E+00  0.81472261783E+02  0.81472261783E+02  0.00000000000E+00 0.  1.
          1   -1    0    0  501    0  0.00000000000E+00 -0.00000000000E+00 -0.53988842342E+03  0.53988842342E+03  0.00000000000E+00 0. -1.
         25    2    1    2    0    0 -0.17777462859E+03 -0.15842735653E+02 -0.27860004533E+03  0.35372316494E+03  0.12508909352E+03 0.  0.
         23    2    1    2    0    0  0.17777462859E+03  0.15842735653E+02 -0.17981611631E+03  0.26763752027E+03  0.86262365638E+02 0.  0.
          5    1    3    3  502    0 -0.31895352889E+02  0.48389534287E+02 -0.65229503594E+02  0.87356860656E+02  0.41800000000E+01 0. -1.
         -5    1    3    3    0  502 -0.14587927570E+03 -0.64232269940E+02 -0.21337054173E+03  0.26636630429E+03  0.41800000000E+01 0. -1.
        -11    1    4    4    0    0  0.16575293293E+03  0.30477994550E+02 -0.12553628274E+03  0.21014828386E+03  0.00000000000E+00 0. -1.
         11    1    4    4    0    0  0.12021695661E+02 -0.14635258897E+02 -0.54279833576E+02  0.57489236407E+02  0.00000000000E+00 0.  1.
</event>
<event>
 8    1  0.6505836E-009  0.1777477E+03  0.7561462E-02  0.1170001E+00
         -1   -1    0    0    0  501 -0.00000000000E+00  0.00000000000E+00  0.97547992126E+02  0.97547992126E+02  0.00000000000E+00 0.  1.
          1   -1    0    0  501    0  0.00000000000E+00 -0.00000000000E+00 -0.39678446208E+03  0.39678446208E+03  0.00000000000E+00 0. -1.
         25    2    1    2    0    0 -0.14972358036E+03 -0.19525663067E+02 -0.69582811285E+02  0.20805588340E+03  0.12508829265E+03 0.  0.
         23    2    1    2    0    0  0.14972358036E+03  0.19525663067E+02 -0.22965365867E+03  0.28627657080E+03  0.80094132220E+02 0.  0.
          5    1    3    3  502    0  0.11458690343E+02 -0.24184509715E+02  0.91141793677E+01  0.28578536702E+02  0.41800000000E+01 0. -1.
         -5    1    3    3    0  502 -0.16118227070E+03  0.46588466470E+01 -0.78696990653E+02  0.17947734670E+03  0.41800000000E+01 0. -1.
        -11    1    4    4    0    0  0.72553540425E+02  0.45548264052E+02 -0.87542345334E+02  0.12248396962E+03  0.00000000000E+00 0.  1.
         11    1    4    4    0    0  0.77170039936E+02 -0.26022600984E+02 -0.14211131333E+03  0.16379260119E+03  0.00000000000E+00 0. -1.
</event>
<event>
 8    1  0.6505836E-009  0.6411216E+02  0.7561462E-02  0.1381343E+00
          1   -1    0    0  501    0  0.00000000000E+00  0.00000000000E+00  0.11511348570E+03  0.11511348570E+03  0.00000000000E+00 0. -1.
         -1   -1    0    0    0  501 -0.00000000000E+00 -0.00000000000E+00 -0.11887884463E+03  0.11887884463E+03  0.00000000000E+00 0.  1.
         25    2    1    2    0    0 -0.46759520010E+01  0.22033124434E+02  0.34640313895E+02  0.13174056356E+03  0.12509317184E+03 0.  0.
         23    2    1    2    0    0  0.46759520010E+01 -0.22033124434E+02 -0.38405672820E+02  0.10225176677E+03  0.92049470413E+02 0.  0.
          5    1    3    3  502    0  0.97536847424E+01  0.23740184459E+02  0.79898498616E+02  0.84023646703E+02  0.41800000000E+01 0.  1.
         -5    1    3    3    0  502 -0.14429636743E+02 -0.17070600246E+01 -0.45258184720E+02  0.47716916860E+02  0.41800000000E+01 0.  1.
        -11    1    4    4    0    0 -0.21328409939E+02 -0.46648948626E+02 -0.22158444110E+01  0.51341361931E+02  0.00000000000E+00 0. -1.
         11    1    4    4    0    0  0.26004361940E+02  0.24615824192E+02 -0.36189828409E+02  0.50910404839E+02  0.00000000000E+00 0.  1.
</event>
<event>
 8    1  0.6505836E-009  0.1182725E+03  0.7561462E-02  0.1245974E+00
         -1   -1    0    0    0  501 -0.00000000000E+00  0.00000000000E+00  0.33913659484E+02  0.33913659484E+02  0.00000000000E+00 0.  1.
          1   -1    0    0  501    0  0.00000000000E+00 -0.00000000000E+00 -0.42988773819E+03  0.42988773819E+03  0.00000000000E+00 0. -1.
         25    2    1    2    0    0  0.43146498596E+02 -0.22641460341E+02 -0.26921216404E+03  0.30082674474E+03  0.12508910831E+03 0.  0.
         23    2    1    2    0    0 -0.43146498596E+02  0.22641460341E+02 -0.12676191466E+03  0.16297465293E+03  0.90099380804E+02 0.  0.
          5    1    3    3  502    0  0.16531901508E+02 -0.74104668715E+02 -0.14643490368E+03  0.16500139123E+03  0.41800000000E+01 0. -1.
         -5    1    3    3    0  502  0.26614597088E+02  0.51463208374E+02 -0.12277726036E+03  0.13582535351E+03  0.41800000000E+01 0. -1.
        -11    1    4    4    0    0 -0.10746237227E+02 -0.34824456299E+02 -0.46488782981E+02  0.59071408601E+02  0.00000000000E+00 0.  1.
         11    1    4    4    0    0 -0.32400261369E+02  0.57465916640E+02 -0.80273131684E+02  0.10390324433E+03  0.00000000000E+00 0. -1.
</event>
<event>
 8    1  0.6505836E-009  0.1301593E+03  0.7561462E-02  0.1227220E+00
          1   -1    0    0  501    0  0.00000000000E+00  0.00000000000E+00  0.55355699138E+03  0.55355699138E+03  0.00000000000E+00 0. -1.
         -1   -1    0    0    0  501 -0.00000000000E+00 -0.00000000000E+00 -0.77706306429E+02  0.77706306429E+02  0.00000000000E+00 0.  1.
         25    2    1    2    0    0  0.85161718733E+02 -0.50613309417E+02  0.46706089605E+03  0.49356617323E+03  0.12508981298E+03 0.  0.
         23    2    1    2    0    0 -0.85161718733E+02  0.50613309417E+02  0.87897889072E+01  0.13769712458E+03  0.95231361966E+02 0.  0.
          5    1    3    3  502    0 -0.12698012215E+02 -0.11858078352E+02  0.35274921173E+01  0.18214530931E+02  0.41800000000E+01 0. -1.
         -5    1    3    3    0  502  0.97859730948E+02 -0.38755231065E+02  0.46353340393E+03  0.47535164230E+03  0.41800000000E+01 0. -1.
        -11    1    4    4    0    0 -0.83292485901E+02 -0.31150082438E+01  0.86390547076E+00  0.83355190699E+02  0.00000000000E+00 0.  1.
         11    1    4    4    0    0 -0.18692328325E+01  0.53728317661E+02  0.79258834364E+01  0.54341933885E+02  0.00000000000E+00 0. -1.
</event>
<event>
 7    1  0.6505836E-009  0.2406306E+03  0.7561462E-02  0.1119373E+00
         -2   -1    0    0    0  501 -0.00000000000E+00  0.00000000000E+00  0.62067302515E+02  0.62067302515E+02  0.00000000000E+00 0.  1.
          2   -1    0    0  501    0  0.00000000000E+00 -0.00000000000E+00 -0.99815691976E+03  0.99815691976E+03  0.00000000000E+00 0. -1.
         23    2    1    2    0    0 -0.17279994687E+03 -0.12669353495E+03 -0.33933899760E+03  0.41393379171E+03  0.10138616863E+03 0.  0.
          5    1    1    2  502    0  0.16325556345E+02 -0.24134371393E+02 -0.51687146540E+02  0.59481301179E+02  0.41800000000E+01 0.  1.
         -5    1    1    2    0  502  0.15647439053E+03  0.15082790634E+03 -0.54506347311E+03  0.58680912939E+03  0.41800000000E+01 0.  1.
        -11    1    3    3    0    0  0.25295807519E+01 -0.37784493755E+02 -0.79978384337E+02  0.88490726680E+02  0.00000000000E+00 0. -1.
         11    1    3    3    0    0 -0.17532952762E+03 -0.88909041191E+02 -0.25936061326E+03  0.32544306503E+03  0.00000000000E+00 0.  1.
</event>
<event>
 8    1  0.6505836E-009  0.3157392E+03  0.7561462E-02  0.1077627E+00
          2   -1    0    0  501    0  0.00000000000E+00  0.00000000000E+00  0.26847556746E+04  0.26847556746E+04  0.00000000000E+00 0. -1.
         -2   -1    0    0    0  501 -0.00000000000E+00 -0.00000000000E+00 -0.68587904621E+02  0.68587904621E+02  0.00000000000E+00 0.  1.
         25    2    1    2    0    0  0.14356676934E+03  0.27419899793E+03  0.22082850774E+04  0.22333755989E+04  0.12508827003E+03 0.  0.
         23    2    1    2    0    0 -0.14356676934E+03 -0.27419899793E+03  0.40788269259E+03  0.51996798026E+03  0.90564352003E+02 0.  0.
          5    1    3    3  502    0  0.22865911012E+02  0.96059131549E+02  0.10969038313E+04  0.11013472178E+04  0.41800000000E+01 0. -1.
         -5    1    3    3    0  502  0.12070085833E+03  0.17813986638E+03  0.11113812461E+04  0.11320283812E+04  0.41800000000E+01 0. -1.
        -11    1    4    4    0    0 -0.10036127786E+03 -0.11579147651E+03  0.15126162487E+03  0.21531402947E+03  0.00000000000E+00 0. -1.
         11    1    4    4    0    0 -0.43205491486E+02 -0.15840752141E+03  0.25662106772E+03  0.30465395079E+03  0.00000000000E+00 0.  1.
</event>
<event>
 8    1  0.6505836E-009  0.1340717E+03  0.7561462E-02  0.1221536E+00
          4   -1    0    0  501    0  0.00000000000E+00  0.00000000000E+00  0.28683486912E+03  0.28683486912E+03  0.00000000000E+00 0. -1.
         -4   -1    0    0    0  501 -0.00000000000E+00 -0.00000000000E+00 -0.78546425309E+02  0.78546425309E+02  0.00000000000E+00 0.  1.
         25    2    1    2    0    0  0.66692497541E+02 -0.77303824123E+02  0.12996112551E+03  0.20726978370E+03  0.12508836332E+03 0.  0.
         23    2    1    2    0    0 -0.66692497541E+02  0.77303824123E+02  0.78327318298E+02  0.15811151073E+03  0.91871162944E+02 0.  0.
          5    1    3    3  502    0  0.82819211872E+02 -0.62437068474E+01  0.95266995961E+02  0.12645662754E+03  0.41800000000E+01 0. -1.
         -5    1    3    3    0  502 -0.16126714331E+02 -0.71060117276E+02  0.34694129549E+02  0.80813156154E+02  0.41800000000E+01 0. -1.
        -11    1    4    4    0    0 -0.37271716028E+02  0.10070046511E+02 -0.13193205416E+02  0.40800089725E+02  0.00000000000E+00 0.  1.
         11    1    4    4    0    0 -0.29420781513E+02  0.67233777613E+02  0.91520523714E+02  0.11731142100E+03  0.00000000000E+00 0. -1.
</event>
<event>
 8    1  0.6505836E-009  0.1422707E+03  0.7561462E-02  0.1210306E+00
         -4   -1    0    0    0  501 -0.00000000000E+00  0.00000000000E+00  0.53461128563E+03  0.53461128563E+03  0.00000000000E+00 0.  1.
          4   -1    0    0  501    0  0.00000000000E+00 -0.00000000000E+00 -0.38647895916E+02  0.38647895916E+02  0.00000000000E+00 0. -1.
         25    2    1    2    0    0 -0.39328744640E+02 -0.84800144917E+02  0.27291347609E+03  0.31443119752E+03  0.12508955917E+03 0.  0.
         23    2    1    2    0    0  0.39328744640E+02  0.84800144917E+02  0.22304991363E+03  0.25882798403E+03  0.92210881200E+02 0.  0.
          5    1    3    3  502    0 -0.24963364101E+02  0.30638223752E+02  0.67712763584E+02  0.78513445053E+02  0.41800000000E+01 0.  1.
         -5    1    3    3    0  502 -0.14365380540E+02 -0.11543836867E+03  0.20520071250E+03  0.23591775247E+03  0.41800000000E+01 0.  1.
        -11    1    4    4    0    0  0.24135233675E+02 -0.14356748797E+02  0.28916882129E+02  0.40308954497E+02  0.00000000000E+00 0. -1.
         11    1    4    4    0    0  0.15193510965E+02  0.99156893714E+02  0.19413303150E+03  0.21851902953E+03  0.00000000000E+00 0.  1.
</event>
<event>
 8    1  0.6505836E-009  0.1038590E+03  0.7561462E-02  0.1272384E+00
          1   -1    0    0  501    0  0.00000000000E+00  0.00000000000E+00  0.25216165570E+03  0.25216165570E+03  0.00000000000E+00 0. -1.
         -1   -1    0    0    0  501 -0.00000000000E+00 -0.00000000000E+00 -0.53318419235E+02  0.53318419235E+02  0.00000000000E+00 0.  1.
         25    2    1    2    0    0  0.36260121090E+02  0.15500728142E+02  0.85905397563E+02  0.15678614254E+03  0.12508832162E+03 0.  0.
         23    2    1    2    0    0 -0.36260121090E+02 -0.15500728142E+02  0.11293783890E+03  0.14869393240E+03  0.88316822419E+02 0.  0.
          5    1    3    3  502    0  0.61435168438E+02 -0.22576107075E+02  0.75639399650E+01  0.66020043316E+02  0.41800000000E+01 0.  1.
         -5    1    3    3    0  502 -0.25175047349E+02  0.38076835217E+02  0.78341457598E+02  0.90766099221E+02  0.41800000000E+01 0.  1.
        -11    1    4    4    0    0  0.27552395554E+02  0.73473768892E+01  0.40016511843E+02  0.49136948094E+02  0.00000000000E+00 0. -1.
         11    1    4    4    0    0 -0.63812516644E+02 -0.22848105032E+02  0.72921327061E+02  0.99556984307E+02  0.00000000000E+00 0.  1.
</event>
<event>
 8    1  0.6505836E-009  0.8232214E+02  0.7561462E-02  0.1322588E+00
         -3   -1    0    0    0  501 -0.00000000000E+00  0.00000000000E+00  0.56271002519E+02  0.56271002519E+02  0.00000000000E+00 0.  1.
          3   -1    0    0  501    0  0.00000000000E+00 -0.00000000000E+00 -0.25674882966E+03  0.25674882966E+03  0.00000000000E+00 0. -1.
         25    2    1    2    0    0  0.14608435211E+02  0.10306564706E+02 -0.50663330955E+02  0.13613926959E+03  0.12508995150E+03 0.  0.
         23    2    1    2    0    0 -0.14608435211E+02 -0.10306564706E+02 -0.14981449619E+03  0.17688056259E+03  0.92318570711E+02 0.  0.
          5    1    3    3  502    0  0.50004047137E+02  0.37369952651E+01  0.22017428458E+02  0.54923669029E+02  0.41800000000E+01 0. -1.
         -5    1    3    3    0  502 -0.35395611926E+02  0.65695694412E+01 -0.72680759413E+02  0.81215600565E+02  0.41800000000E+01 0. -1.
        -11    1    4    4    0    0  0.25631695577E+02  0.15807312983E+02 -0.14714669183E+02  0.33516808485E+02  0.00000000000E+00 0.  1.
         11    1    4    4    0    0 -0.40240130787E+02 -0.26113877689E+02 -0.13509982700E+03  0.14336375410E+03  0.00000000000E+00 0. -1.
</event>
<event>
 8    1  0.6505836E-009  0.1064713E+03  0.7561462E-02  0.1267248E+00
          2   -1    0    0  501    0  0.00000000000E+00  0.00000000000E+00  0.45626203588E+03  0.45626203588E+03  0.00000000000E+00 0. -1.
         -2   -1    0    0    0  501 -0.00000000000E+00 -0.00000000000E+00 -0.43409816773E+02  0.43409816773E+02  0.00000000000E+00 0.  1.
         25    2    1    2    0    0 -0.76042999113E+02 -0.68839006447E+01  0.30823398080E+03  0.34130013907E+03  0.12509065594E+03 0.  0.
         23    2    1    2    0    0  0.76042999113E+02  0.68839006447E+01  0.10461823830E+03  0.15837171358E+03  0.91141088843E+02 0.  0.
          5    1    3    3  502    0 -0.23682460693E+02  0.42717073217E+02  0.39294981363E+02  0.62826548919E+02  0.41800000000E+01 0. -1.
         -5    1    3    3    0  502 -0.52360538420E+02 -0.49600973862E+02  0.26893899944E+03  0.27847359015E+03  0.41800000000E+01 0. -1.
        -11    1    4    4    0    0  0.77397404498E+02 -0.70122077710E+01  0.31373726254E+02  0.83808352686E+02  0.00000000000E+00 0.  1.
         11    1    4    4    0    0 -0.13544053850E+01  0.13896108416E+02  0.73244512049E+02  0.74563360898E+02  0.00000000000E+00 0. -1.
</event>
<event>
 8    1  0.6505836E-009  0.1157644E+03  0.7561462E-02  0.1250253E+00
          1   -1    0    0  501    0  0.00000000000E+00  0.00000000000E+00  0.96748941892E+02  0.96748941892E+02  0.00000000000E+00 0. -1.
         -1   -1    0    0    0  501 -0.00000000000E+00 -0.00000000000E+00 -0.14807359071E+03  0.14807359071E+03  0.00000000000E+00 0.  1.
         25    2    1    2    0    0  0.46573530713E+02 -0.11679965518E+02 -0.46814863595E+02  0.14189706502E+03  0.12505051079E+03 0.  0.
         23    2    1    2    0    0 -0.46573530713E+02  0.11679965518E+02 -0.45097852284E+01  0.10292546759E+03  0.90927434575E+02 0.  0.
          5    1    3    3  502    0 -0.32285015413E+02 -0.38607319523E+02 -0.18761052796E+02  0.53872969502E+02  0.41800000000E+01 0.  1.
         -5    1    3    3    0  502  0.78858546125E+02  0.26927354005E+02 -0.28053810799E+02  0.88024095514E+02  0.41800000000E+01 0.  1.
        -11    1    4    4    0    0 -0.59479015495E+02 -0.20508141378E+02 -0.18426798134E+02  0.65558249187E+02  0.00000000000E+00 0. -1.
         11    1    4    4    0    0  0.12905484782E+02  0.32188106896E+02  0.13917012905E+02  0.37367218403E+02  0.00000000000E+00 0.  1.
</event>
<event>
 8    1  0.6505836E-009  0.1004112E+03  0.7561462E-02  0.1279434E+00
         -2   -1    0    0    0  501 -0.00000000000E+00  0.00000000000E+00  0.22801206228E+02  0.22801206228E+02  0.00000000000E+00 0.  1.
          2   -1    0    0  501    0  0.00000000000E+00 -0.00000000000E+00 -0.10711200595E+04  0.10711200595E+04  0.00000000000E+00 0. -1.
         25    2    1    2    0    0 -0.36398232114E+02  0.78307669593E+02 -0.81131325346E+03  0.82542879045E+03  0.12508625202E+03 0.  0.
         23    2    1    2    0    0  0.36398232114E+02 -0.78307669593E+02 -0.23700559981E+03  0.26849247527E+03  0.91976260637E+02 0.  0.
          5    1    3    3  502    0 -0.42147059895E+02  0.12087450104E+02 -0.81995470453E+02  0.93076370163E+02  0.41800000000E+01 0. -1.
         -5    1    3    3    0  502  0.57488277817E+01  0.66220219489E+02 -0.72931778300E+03  0.73235242028E+03  0.41800000000E+01 0. -1.
        -11    1    4    4    0    0  0.10128630705E+02 -0.52079793064E+02 -0.22233443255E+03  0.22857710713E+03  0.00000000000E+00 0. -1.
         11    1    4    4    0    0  0.26269601408E+02 -0.26227876528E+02 -0.14671167252E+02  0.39915368142E+02  0.00000000000E+00 0.  1.
</event>
<event>
 8    1  0.6505836E-009  0.5496476E+02  0.7561462E-02  0.1420266E+00
          3   -1    0    0  501    0  0.00000000000E+00  0.00000000000E+00  0.68108492799E+02  0.68108492799E+02  0.00000000000E+00 0. -1.
         -3   -1    0    0    0  501 -0.00000000000E+00 -0.00000000000E+00 -0.27449984156E+03  0.27449984156E+03  0.00000000000E+00 0.  1.
         25    2    1    2    0    0  0.13081814665E+01 -0.92218296415E+01 -0.21624507164E+03  0.24999187425E+03  0.12508897914E+03 0.  0.
         23    2    1    2    0    0 -0.13081814665E+01  0.92218296415E+01  0.98537228743E+01  0.92616460114E+02  0.91618553519E+02 0.  0.
          5    1    3    3  502    0  0.16655057548E+02 -0.31214249944E+02 -0.21975523716E+03  0.22262425071E+03  0.41800000000E+01 0.  1.
         -5    1    3    3    0  502 -0.15346876082E+02  0.21992420303E+02  0.35101655270E+01  0.27367623541E+02  0.41800000000E+01 0.  1.
        -11    1    4    4    0    0  0.22468711145E+02  0.40935636723E+01 -0.34883234420E+02  0.41694607417E+02  0.00000000000E+00 0.  1.
         11    1    4    4    0    0 -0.23776892611E+02  0.51282659693E+01  0.44736957295E+02  0.50921852697E+02  0.00000000000E+00 0. -1.
</event>
<event>
 8    1  0.6505836E-009  0.1028410E+03  0.7561462E-02  0.1274433E+00
         -2   -1    0    0    0  501 -0.00000000000E+00  0.00000000000E+00  0.45172385938E+02  0.45172385938E+02  0.00000000000E+00 0.  1.
          2   -1    0    0  501    0  0.00000000000E+00 -0.00000000000E+00 -0.26829686116E+03  0.26829686116E+03  0.00000000000E+00 0. -1.
         25    2    1    2    0    0  0.11257808535E+01  0.59937669242E+01 -0.14588248732E+03  0.19226472446E+03  0.12508729568E+03 0.  0.
         23    2    1    2    0    0 -0.11257808535E+01 -0.59937669242E+01 -0.77241987903E+02  0.12120452264E+03  0.93204179028E+02 0.  0.
          5    1    3    3  502    0  0.56686744064E+02 -0.18416745542E+02 -0.98301500235E+02  0.11503573713E+03  0.41800000000E+01 0.  1.
         -5    1    3    3    0  502 -0.55560963211E+02  0.24410512466E+02 -0.47580987080E+02  0.77228987325E+02  0.41800000000E+01 0.  1.
        -11    1    4    4    0    0 -0.40958066642E+02 -0.16097483442E+02 -0.64683618602E+02  0.78234664387E+02  0.00000000000E+00 0. -1.
         11    1    4    4    0    0  0.39832285789E+02  0.10103716518E+02 -0.12558369301E+02  0.42969858251E+02  0.00000000000E+00 0.  1.
</event>
<event>
 8    1  0.6505836E-009  0.1012883E+03  0.7561462E-02  0.1277610E+00
         -2   -1    0    0    0  501 -0.00000000000E+00  0.00000000000E+00  0.20353757196E+02  0.20353757196E+02  0.00000000000E+00 0.  1.
          2   -1    0    0  501    0  0.00000000000E+00 -0.00000000000E+00 -0.95524509095E+03  0.95524509095E+03  0.00000000000E+00 0. -1.
         25    2    1    2    0    0 -0.65621514203E+02  0.38867795955E+02 -0.65480960379E+03  0.67099980902E+03  0.12509291666E+03 0.  0.
         23    2    1    2    0    0  0.65621514203E+02 -0.38867795955E+02 -0.28008172996E+03  0.30459903913E+03  0.92292526719E+02 0.  0.
          5    1    3    3  502    0 -0.87971945834E+02  0.11905814507E+02 -0.59472229494E+03  0.60132594504E+03  0.41800000000E+01 0. -1.
         -5    1    3    3    0  502  0.22350431631E+02  0.26961981448E+02 -0.60087308848E+02  0.69673863983E+02  0.41800000000E+01 0. -1.
        -11    1    4    4    0    0  0.16243669382E+02 -0.19536702097E+02 -0.69129894476E+01  0.26331140251E+02  0.00000000000E+00 0.  1.
         11    1    4    4    0    0  0.49377844821E+02 -0.19331093858E+02 -0.27316874052E+03  0.27826789887E+03  0.00000000000E+00 0. -1.
</event>
<event>
 8    1  0.6505836E-009  0.1072797E+03  0.7561462E-02  0.1265692E+00
         -3   -1    0    0    0  501 -0.00000000000E+00  0.00000000000E+00  0.26187938380E+03  0.26187938380E+03  0.00000000000E+00 0.  1.
          3   -1    0    0  501    0  0.00000000000E+00 -0.00000000000E+00 -0.92638964630E+02  0.92638964630E+02  0.00000000000E+00 0. -1.
         25    2    1    2    0    0  0.66344007355E+02  0.41409618191E+02  0.61683519905E+00  0.14752497778E+03  0.12508778834E+03 0.  0.
         23    2    1    2    0    0 -0.66344007355E+02 -0.41409618191E+02  0.16862358397E+03  0.20699337065E+03  0.91082702160E+02 0.  0.
          5    1    3    3  502    0  0.46498184884E+02 -0.20988564503E+02 -0.44559451193E+02  0.67864704582E+02  0.41800000000E+01 0.  1.
         -5    1    3    3    0  502  0.19845822471E+02  0.62398182694E+02  0.45176286392E+02  0.79660273193E+02  0.41800000000E+01 0.  1.
        -11    1    4    4    0    0 -0.41702886320E+02  0.80782703554E+01  0.13671569383E+03  0.14316273998E+03  0.00000000000E+00 0.  1.
         11    1    4    4    0    0 -0.24641121035E+02 -0.49487888546E+02  0.31907890136E+02  0.63830630669E+02  0.00000000000E+00 0. -1.
</event>
<event>
 8    1  0.6505836E-009  0.1188264E+03  0.7561462E-02  0.1245046E+00
         -1   -1    0    0    0  501 -0.00000000000E+00  0.00000000000E+00  0.43688051081E+02  0.43688051081E+02  0.00000000000E+00 0.  1.
          1   -1    0    0  501    0  0.00000000000E+00 -0.00000000000E+00 -0.55093964337E+03  0.55093964337E+03  0.00000000000E+00 0. -1.
         25    2    1    2    0    0  0.77502419486E+02 -0.63735794220E+02 -0.18489412638E+03  0.24474765764E+03  0.12508677572E+03 0.  0.
         23    2    1    2    0    0 -0.77502419486E+02  0.63735794220E+02 -0.32235746590E+03  0.34988003681E+03  0.91830429819E+02 0.  0.
          5    1    3    3  502    0 -0.12063396534E+02  0.10669900345E+02  0.87147981484E+01  0.18782769127E+02  0.41800000000E+01 0.  1.
         -5    1    3    3    0  502  0.89565816020E+02 -0.74405694565E+02 -0.19360892453E+03  0.22596488852E+03  0.41800000000E+01 0.  1.
        -11    1    4    4    0    0 -0.41823344272E+02  0.15723094476E+02 -0.25868902591E+03  0.26251937062E+03  0.00000000000E+00 0. -1.
         11    1    4    4    0    0 -0.35679075214E+02  0.48012699744E+02 -0.63668439994E+02  0.87360666184E+02  0.00000000000E+00 0.  1.
</event>
<event>
 8    1  0.6505836E-009  0.1242321E+03  0.7561462E-02  0.1236274E+00
         -2   -1    0    0    0  501 -0.00000000000E+00  0.00000000000E+00  0.45696166607E+03  0.45696166607E+03  0.00000000000E+00 0.  1.
          2   -1    0    0  501    0  0.00000000000E+00 -0.00000000000E+00 -0.36907997158E+02  0.36907997158E+02  0.00000000000E+00 0. -1.
         25    2    1    2    0    0  0.71324435388E+02  0.27378959743E+01  0.22376011536E+03  0.26610295458E+03  0.12509005575E+03 0.  0.
         23    2    1    2    0    0 -0.71324435388E+02 -0.27378959743E+01  0.19629355355E+03  0.22776670865E+03  0.90839656804E+02 0.  0.
          5    1    3    3  502    0  0.88513118798E+02 -0.40286198993E+02  0.14539318045E+03  0.17496913828E+03  0.41800000000E+01 0.  1.
         -5    1    3    3    0  502 -0.17188683410E+02  0.43024094967E+02  0.78366934911E+02  0.91133816295E+02  0.41800000000E+01 0.  1.
        -11    1    4    4    0    0 -0.87808312970E+02  0.48502333446E+00  0.19089832583E+03  0.21012545271E+03  0.00000000000E+00 0.  1.
         11    1    4    4    0    0  0.16483877582E+02 -0.32229193088E+01  0.53952277235E+01  0.17641255942E+02  0.00000000000E+00 0. -1.
</event>
<event>
 8    1  0.6505836E-009  0.1271786E+03  0.7561462E-02  0.1231703E+00
         -1   -1    0    0    0  501 -0.00000000000E+00  0.00000000000E+00  0.40427438283E+02  0.40427438283E+02  0.00000000000E+00 0.  1.
          1   -1    0    0  501    0  0.00000000000E+00 -0.00000000000E+00 -0.48695374780E+03  0.48695374780E+03  0.00000000000E+00 0. -1.
         25    2    1    2    0    0  0.91603795713E+01 -0.87468154237E+02 -0.22130380554E+03  0.26899212418E+03  0.12508716146E+03 0.  0.
         23    2    1    2    0    0 -0.91603795713E+01  0.87468154237E+02 -0.22522250398E+03  0.25838906191E+03  0.91132543339E+02 0.  0.
          5    1    3    3  502    0 -0.51398031616E+02 -0.50183820403E+02 -0.63961862896E+02  0.96274429571E+02  0.41800000000E+01 0.  1.
         -5    1    3    3    0  502  0.60558411187E+02 -0.37284333835E+02 -0.15734194264E+03  0.17271769461E+03  0.41800000000E+01 0.  1.
        -11    1    4    4    0    0  0.29566394862E+02  0.32682314076E+02 -0.33772659330E+02  0.55523849621E+02  0.00000000000E+00 0.  1.
         11    1    4    4    0    0 -0.38726774433E+02  0.54785840161E+02 -0.19144984465E+03  0.20286521229E+03  0.00000000000E+00 0. -1.
</event>
<event>
 8    1  0.6505836E-009  0.1181197E+03  0.7561462E-02  0.1246232E+00
         -2   -1    0    0    0  501 -0.00000000000E+00  0.00000000000E+00  0.34404485740E+02  0.34404485740E+02  0.00000000000E+00 0. -1.
          2   -1    0    0  501    0  0.00000000000E+00 -0.00000000000E+00 -0.42092295185E+03  0.42092295185E+03  0.00000000000E+00 0.  1.
         25    2    1    2    0    0  0.20941796950E+02 -0.23483626027E+02 -0.21723637266E+03  0.25264390963E+03  0.12508902397E+03 0.  0.
         23    2    1    2    0    0 -0.20941796950E+02  0.23483626027E+02 -0.16928209345E+03  0.20268352796E+03  0.10693056528E+03 0.  0.
          5    1    3    3  502    0 -0.38023856681E+02 -0.48358672216E+02 -0.13451088289E+03  0.14796967552E+03  0.41800000000E+01 0. -1.
         -5    1    3    3    0  502  0.58965653631E+02  0.24875046188E+02 -0.82725489764E+02  0.10467423412E+03  0.41800000000E+01 0. -1.
        -11    1    4    4    0    0  0.41217530487E+02 -0.59946947597E+01 -0.50965856231E+02  0.65820511135E+02  0.00000000000E+00 0. -1.
         11    1    4    4    0    0 -0.62159327437E+02  0.29478320787E+02 -0.11831623722E+03  0.13686301682E+03  0.00000000000E+00 0.  1.
</event>
<event>
 8    1  0.6505836E-009  0.1231737E+03  0.7561462E-02  0.1237951E+00
         -2   -1    0    0    0  501 -0.00000000000E+00  0.00000000000E+00  0.16044940769E+03  0.16044940769E+03  0.00000000000E+00 0.  1.
          2   -1    0    0  501    0  0.00000000000E+00 -0.00000000000E+00 -0.13716151139E+03  0.13716151139E+03  0.00000000000E+00 0. -1.
         25    2    1    2    0    0  0.42271039400E+02 -0.56622546712E+02  0.84341473878E+02  0.16659638881E+03  0.12509164232E+03 0.  0.
         23    2    1    2    0    0 -0.42271039400E+02  0.56622546712E+02 -0.61053577585E+02  0.13101453027E+03  0.91892949887E+02 0.  0.
          5    1    3    3  502    0  0.65508013161E+02 -0.84230129571E+02  0.69151944699E+02  0.12722216148E+03  0.41800000000E+01 0. -1.
         -5    1    3    3    0  502 -0.23236973760E+02  0.27607582859E+02  0.15189529179E+02  0.39374227327E+02  0.41800000000E+01 0. -1.
        -11    1    4    4    0    0 -0.59809040861E+02  0.20754410485E+02 -0.65193945516E+02  0.90874184757E+02  0.00000000000E+00 0. -1.
         11    1    4    4    0    0  0.17538001461E+02  0.35868136227E+02  0.41403679309E+01  0.40140345517E+02  0.00000000000E+00 0.  1.
</event>
<event>
 8    1  0.6505836E-009  0.2298656E+03  0.7561462E-02  0.1126734E+00
          1   -1    0    0  501    0  0.00000000000E+00  0.00000000000E+00  0.84695707236E+03  0.84695707236E+03  0.00000000000E+00 0. -1.
         -1   -1    0    0    0  501 -0.00000000000E+00 -0.00000000000E+00 -0.79169664739E+02  0.79169664739E+02  0.00000000000E+00 0.  1.
         25    2    1    2    0    0  0.19376236936E+03 -0.81796942869E+02  0.58163082294E+03  0.63101283169E+03  0.12509270127E+03 0.  0.
         23    2    1    2    0    0 -0.19376236936E+03  0.81796942869E+02  0.18615658467E+03  0.29511390541E+03  0.90572333013E+02 0.  0.
          5    1    3    3  502    0  0.11786522871E+03 -0.10121020261E+03  0.29005303896E+03  0.32906527477E+03  0.41800000000E+01 0.  1.
         -5    1    3    3    0  502  0.75897140653E+02  0.19413259742E+02  0.29157778398E+03  0.30194755691E+03  0.41800000000E+01 0.  1.
        -11    1    4    4    0    0 -0.12461830194E+03  0.93426992747E+02  0.10487185627E+03  0.18776695766E+03  0.00000000000E+00 0.  1.
         11    1    4    4    0    0 -0.69144067422E+02 -0.11630049877E+02  0.81284728405E+02  0.10734694775E+03  0.00000000000E+00 0. -1.
</event>
<event>
 8    1  0.6505836E-009  0.1072364E+03  0.7561462E-02  0.1265775E+00
          1   -1    0    0  501    0  0.00000000000E+00  0.00000000000E+00  0.72682087867E+03  0.72682087867E+03  0.00000000000E+00 0. -1.
         -1   -1    0    0    0  501 -0.00000000000E+00 -0.00000000000E+00 -0.18300345783E+02  0.18300345783E+02  0.00000000000E+00 0.  1.
         25    2    1    2    0    0 -0.36349906519E+02 -0.31566008957E+01  0.41751248319E+03  0.43737444635E+03  0.12509377630E+03 0.  0.
         23    2    1    2    0    0  0.36349906519E+02  0.31566008957E+01  0.29100804970E+03  0.30774677811E+03  0.93226147676E+02 0.  0.
          5    1    3    3  502    0 -0.33471310764E+02  0.55916841113E+02  0.15399499722E+03  0.16726910453E+03  0.41800000000E+01 0. -1.
         -5    1    3    3    0  502 -0.28785957553E+01 -0.59073442009E+02  0.26351748597E+03  0.27010534182E+03  0.41800000000E+01 0. -1.
        -11    1    4    4    0    0 -0.21477084306E+02  0.20311845548E+02  0.40876323751E+02  0.50445119320E+02  0.00000000000E+00 0.  1.
         11    1    4    4    0    0  0.57826990825E+02 -0.17155244652E+02  0.25013172595E+03  0.25730165879E+03  0.00000000000E+00 0. -1.
</event>
<event>
 8    1  0.6505836E-009  0.8115904E+02  0.7561462E-02  0.1325794E+00
         -2   -1    0    0    0  501 -0.00000000000E+00  0.00000000000E+00  0.23817118309E+03  0.23817118309E+03  0.00000000000E+00 0. -1.
          2   -1    0    0  501    0  0.00000000000E+00 -0.00000000000E+00 -0.48859586286E+02  0.48859586286E+02  0.00000000000E+00 0.  1.
         25    2    1    2    0    0 -0.13160552293E+02  0.61543063810E+01  0.98238328655E+02  0.15971385854E+03  0.12508665704E+03 0.  0.
         23    2    1    2    0    0  0.13160552293E+02 -0.61543063810E+01  0.91073268152E+02  0.12731691084E+03  0.87773458343E+02 0.  0.
          5    1    3    3  502    0 -0.67869133998E+02  0.16785030524E+02  0.54444404848E+02  0.88710891206E+02  0.41800000000E+01 0.  1.
         -5    1    3    3    0  502  0.54708581706E+02 -0.10630724143E+02  0.43793923807E+02  0.71002967336E+02  0.41800000000E+01 0.  1.
        -11    1    4    4    0    0 -0.88940966910E+01 -0.10657534032E+02 -0.14085497685E+02  0.19775976149E+02  0.00000000000E+00 0.  1.
         11    1    4    4    0    0  0.22054648984E+02  0.45032276513E+01  0.10515876584E+03  0.10754093469E+03  0.00000000000E+00 0. -1.
</event>
<event>
 8    1  0.6505836E-009  0.1121275E+03  0.7561462E-02  0.1256680E+00
          1   -1    0    0  501    0  0.00000000000E+00  0.00000000000E+00  0.24371245684E+02  0.24371245684E+02  0.00000000000E+00 0. -1.
         -1   -1    0    0    0  501 -0.00000000000E+00 -0.00000000000E+00 -0.55644329605E+03  0.55644329605E+03  0.00000000000E+00 0.  1.
         25    2    1    2    0    0 -0.34057044397E+02  0.17665255057E+02 -0.24322362096E+03  0.27618283821E+03  0.12508911551E+03 0.  0.
         23    2    1    2    0    0  0.34057044397E+02 -0.17665255057E+02 -0.28884842941E+03  0.30463170353E+03  0.88854465919E+02 0.  0.
          5    1    3    3  502    0 -0.80153962468E+02  0.33918320447E+01 -0.17451393791E+03  0.19211649890E+03  0.41800000000E+01 0.  1.
         -5    1    3    3    0  502  0.46096918071E+02  0.14273423012E+02 -0.68709683047E+02  0.84066339307E+02  0.41800000000E+01 0.  1.
        -11    1    4    4    0    0  0.35284144440E+02 -0.51060626572E+02 -0.21036463710E+03  0.21932952145E+03  0.00000000000E+00 0.  1.
         11    1    4    4    0    0 -0.12271000435E+01  0.33395371516E+02 -0.78483792306E+02  0.85302182082E+02  0.00000000000E+00 0. -1.
</event>
<event>
 8    1  0.6505836E-009  0.8661479E+02  0.7561462E-02  0.1311263E+00
          1   -1    0    0  501    0  0.00000000000E+00  0.00000000000E+00  0.10590726897E+03  0.10590726897E+03  0.00000000000E+00 0. -1.
         -1   -1    0    0    0  501 -0.00000000000E+00 -0.00000000000E+00 -0.13051301492E+03  0.13051301492E+03  0.00000000000E+00 0.  1.
         25    2    1    2    0    0  0.37383629919E+02  0.55783723253E+01  0.15416837250E+02  0.13158107318E+03  0.12508895205E+03 0.  0.
         23    2    1    2    0    0 -0.37383629919E+02 -0.55783723253E+01 -0.40022583195E+02  0.10483921071E+03  0.89223309243E+02 0.  0.
          5    1    3    3  502    0  0.22163263490E+02 -0.58863838363E+02  0.16737105554E+02  0.65220892494E+02  0.41800000000E+01 0. -1.
         -5    1    3    3    0  502  0.15220366429E+02  0.64442210688E+02 -0.13202683045E+01  0.66360180688E+02  0.41800000000E+01 0. -1.
        -11    1    4    4    0    0 -0.58971611593E+01 -0.10435853517E+02  0.27598347255E+02  0.30089073092E+02  0.00000000000E+00 0.  1.
         11    1    4    4    0    0 -0.31486468760E+02  0.48574811914E+01 -0.67620930449E+02  0.74750137614E+02  0.00000000000E+00 0. -1.
</event>
<event>
 8    1  0.6505836E-009  0.1011317E+03  0.7561462E-02  0.1277934E+00
          2   -1    0    0  501    0  0.00000000000E+00  0.00000000000E+00  0.27466605344E+02  0.27466605344E+02  0.00000000000E+00 0. -1.
         -2   -1    0    0    0  501 -0.00000000000E+00 -0.00000000000E+00 -0.41718240043E+03  0.41718240043E+03  0.00000000000E+00 0.  1.
         25    2    1    2    0    0 -0.10588777129E+02  0.21248587394E+01 -0.22602335598E+03  0.25854978641E+03  0.12507916445E+03 0.  0.
         23    2    1    2    0    0  0.10588777129E+02 -0.21248587394E+01 -0.16369243911E+03  0.18609921936E+03  0.87869605670E+02 0.  0.
          5    1    3    3  502    0 -0.45465173035E+02  0.47226059482E+02 -0.93957210059E+02  0.11464210560E+03  0.41800000000E+01 0.  1.
         -5    1    3    3    0  502  0.34876395907E+02 -0.45101200743E+02 -0.13206614592E+03  0.14390768081E+03  0.41800000000E+01 0.  1.
        -11    1    4    4    0    0  0.19863564139E+02 -0.37717653773E+02 -0.12774084257E+03  0.13466590306E+03  0.00000000000E+00 0.  1.
         11    1    4    4    0    0 -0.92747870103E+01  0.35592795033E+02 -0.35951596542E+02  0.51433316307E+02  0.00000000000E+00 0. -1.
</event>
<event>
 8    1  0.6505836E-009  0.6332503E+02  0.7561462E-02  0.1384385E+00
         -1   -1    0    0    0  501 -0.00000000000E+00  0.00000000000E+00  0.23711235311E+03  0.23711235311E+03  0.00000000000E+00 0.  1.
          1   -1    0    0  501    0  0.00000000000E+00 -0.00000000000E+00 -0.60493717108E+02  0.60493717108E+02  0.00000000000E+00 0. -1.
         25    2    1    2    0    0 -0.15006868661E+02  0.69231546054E+01  0.39703722323E+02  0.13227870819E+03  0.12509250536E+03 0.  0.
         23    2    1    2    0    0  0.15006868661E+02 -0.69231546054E+01  0.13691491368E+03  0.16532736202E+03  0.91182821131E+02 0.  0.
          5    1    3    3  502    0 -0.87559532469E+00  0.20248085795E+02 -0.42734005068E+02  0.47480724875E+02  0.41800000000E+01 0. -1.
         -5    1    3    3    0  502 -0.14131273336E+02 -0.13324931190E+02  0.82437727390E+02  0.84797983317E+02  0.41800000000E+01 0. -1.
        -11    1    4    4    0    0 -0.32221798393E+02 -0.18912687688E+02  0.91019483656E+02  0.98389432625E+02  0.00000000000E+00 0.  1.
         11    1    4    4    0    0  0.47228667054E+02  0.11989533082E+02  0.45895430020E+02  0.66937929397E+02  0.00000000000E+00 0. -1.
</event>
<event>
 8    1  0.6505836E-009  0.1043413E+03  0.7561462E-02  0.1271423E+00
         -2   -1    0    0    0  501 -0.00000000000E+00  0.00000000000E+00  0.16126419862E+03  0.16126419862E+03  0.00000000000E+00 0.  1.
          2   -1    0    0  501    0  0.00000000000E+00 -0.00000000000E+00 -0.96375252594E+02  0.96375252594E+02  0.00000000000E+00 0. -1.
         25    2    1    2    0    0  0.38862663855E+02  0.20941339980E+01  0.84789427603E+02  0.15604969776E+03  0.12509024382E+03 0.  0.
         23    2    1    2    0    0 -0.38862663855E+02 -0.20941339980E+01 -0.19900481573E+02  0.10158975346E+03  0.91704726168E+02 0.  0.
          5    1    3    3  502    0  0.78112121553E+02 -0.61941071118E+01  0.22125875335E+02  0.81528505787E+02  0.41800000000E+01 0. -1.
         -5    1    3    3    0  502 -0.39249457699E+02  0.82882411098E+01  0.62663552267E+02  0.74521191973E+02  0.41800000000E+01 0. -1.
        -11    1    4    4    0    0  0.17668766233E+02  0.22181508196E+02 -0.27617425435E+02  0.39584426151E+02  0.00000000000E+00 0. -1.
         11    1    4    4    0    0 -0.56531430088E+02 -0.24275642194E+02  0.77169438618E+01  0.62005327306E+02  0.00000000000E+00 0.  1.
</event>
<event>
 8    1  0.6505836E-009  0.1313102E+03  0.7561462E-02  0.1225525E+00
          1   -1    0    0  501    0  0.00000000000E+00  0.00000000000E+00  0.68373366578E+03  0.68373366578E+03  0.00000000000E+00 0. -1.
         -1   -1    0    0    0  501 -0.00000000000E+00 -0.00000000000E+00 -0.42109872088E+02  0.42109872088E+02  0.00000000000E+00 0.  1.
         25    2    1    2    0    0  0.99673624970E+02  0.52036015666E+02  0.48008711318E+03  0.50869694641E+03  0.12508544524E+03 0.  0.
         23    2    1    2    0    0 -0.99673624970E+02 -0.52036015666E+02  0.16153668051E+03  0.21714659145E+03  0.91738566522E+02 0.  0.
          5    1    3    3  502    0  0.10126759721E+03  0.93468682607E+01  0.19087881367E+03  0.21632078980E+03  0.41800000000E+01 0. -1.
         -5    1    3    3    0  502 -0.15939722388E+01  0.42689147405E+02  0.28920829951E+03  0.29237615662E+03  0.41800000000E+01 0. -1.
        -11    1    4    4    0    0 -0.13422957801E+02 -0.23502619055E+02 -0.49229614547E+01  0.27509715521E+02  0.00000000000E+00 0.  1.
         11    1    4    4    0    0 -0.86250667169E+02 -0.28533396611E+02  0.16645964197E+03  0.18963687593E+03  0.00000000000E+00 0. -1.
</event>
<event>
 8    1  0.6505836E-009  0.3705788E+03  0.7561462E-02  0.1054472E+00
          2   -1    0    0  501    0  0.00000000000E+00  0.00000000000E+00  0.37374066728E+04  0.37374066728E+04  0.00000000000E+00 0. -1.
         -2   -1    0    0    0  501 -0.00000000000E+00 -0.00000000000E+00 -0.40054198560E+02  0.40054198560E+02  0.00000000000E+00 0.  1.
         25    2    1    2    0    0  0.32634988092E+03 -0.14726841783E+03  0.23539300803E+04  0.23842877711E+04  0.12509644644E+03 0.  0.
         23    2    1    2    0    0 -0.32634988092E+03  0.14726841783E+03  0.13434223939E+04  0.13931731002E+04  0.89192639956E+02 0.  0.
          5    1    3    3  502    0  0.15093574948E+03 -0.13521422886E+02  0.74190979818E+03  0.75723975753E+03  0.41800000000E+01 0.  1.
         -5    1    3    3    0  502  0.17541413143E+03 -0.13374699494E+03  0.16120202821E+04  0.16270480136E+04  0.41800000000E+01 0.  1.
        -11    1    4    4    0    0 -0.78350966087E+01  0.27583683584E+02  0.11058392338E+03  0.11424120294E+03  0.00000000000E+00 0. -1.
         11    1    4    4    0    0 -0.31851478431E+03  0.11968473424E+03  0.12328384705E+04  0.12789318973E+04  0.00000000000E+00 0.  1.
</event>
<event>
 8    1  0.6505836E-009  0.9984579E+02  0.7561462E-02  0.1280621E+00
          2   -1    0    0  501    0  0.00000000000E+00  0.00000000000E+00  0.16940973384E+03  0.16940973384E+03  0.00000000000E+00 0.  1.
         -2   -1    0    0    0  501 -0.00000000000E+00 -0.00000000000E+00 -0.97898774401E+02  0.97898774401E+02  0.00000000000E+00 0. -1.
         25    2    1    2    0    0  0.58991162944E+01  0.69335566146E+02  0.44626430079E+02  0.14993518894E+03  0.12508725880E+03 0.  0.
         23    2    1    2    0    0 -0.58991162944E+01 -0.69335566146E+02  0.26884529363E+02  0.11737331930E+03  0.90617315450E+02 0.  0.
          5    1    3    3  502    0  0.27919945863E+02  0.79382382582E+02  0.73655070610E+02  0.11190901603E+03  0.41800000000E+01 0.  1.
         -5    1    3    3    0  502 -0.22020829569E+02 -0.10046816436E+02 -0.29028640531E+02  0.38026172914E+02  0.41800000000E+01 0.  1.
        -11    1    4    4    0    0 -0.30179230587E+02 -0.20943913685E+02 -0.23341092618E+02  0.43522868517E+02  0.00000000000E+00 0. -1.
         11    1    4    4    0    0  0.24280114293E+02 -0.48391652461E+02  0.50225621982E+02  0.73850450787E+02  0.00000000000E+00 0.  1.
</event>
<event>
 8    1  0.6505836E-009  0.1373523E+03  0.7561462E-02  0.1216937E+00
          2   -1    0    0  501    0  0.00000000000E+00  0.00000000000E+00  0.26674326751E+03  0.26674326751E+03  0.00000000000E+00 0. -1.
         -2   -1    0    0    0  501 -0.00000000000E+00 -0.00000000000E+00 -0.15979344264E+03  0.15979344264E+03  0.00000000000E+00 0.  1.
         25    2    1    2    0    0  0.86131995717E+02  0.85701102710E+01  0.21391976881E+03  0.26248944639E+03  0.12508746742E+03 0.  0.
         23    2    1    2    0    0 -0.86131995717E+02 -0.85701102710E+01 -0.10696994393E+03  0.16404726375E+03  0.89312755877E+02 0.  0.
          5    1    3    3  502    0 -0.12930322536E+02 -0.38885887266E+02  0.72360712988E+02  0.83263741530E+02  0.41800000000E+01 0. -1.
         -5    1    3    3    0  502  0.99062318253E+02  0.47455997537E+02  0.14155905582E+03  0.17922570486E+03  0.41800000000E+01 0. -1.
        -11    1    4    4    0    0 -0.48029578421E+02  0.39545835658E+02 -0.44650373588E+02  0.76579170684E+02  0.00000000000E+00 0.  1.
         11    1    4    4    0    0 -0.38102417296E+02 -0.48115945929E+02 -0.62319570346E+02  0.87468093066E+02  0.00000000000E+00 0. -1.
</event>
<event>
 8    1  0.6505836E-009  0.1260126E+03  0.7561462E-02  0.1233495E+00
          2   -1    0    0  501    0  0.00000000000E+00  0.00000000000E+00  0.37278684572E+03  0.37278684572E+03  0.00000000000E+00 0. -1.
         -2   -1    0    0    0  501 -0.00000000000E+00 -0.00000000000E+00 -0.99222514704E+02  0.99222514704E+02  0.00000000000E+00 0.  1.
         25    2    1    2    0    0 -0.49689693367E+02  0.66236579630E+02 -0.22337030190E+02  0.15166116981E+03  0.12508324190E+03 0.  0.
         23    2    1    2    0    0  0.49689693367E+02 -0.66236579630E+02  0.29590136121E+03  0.32034819062E+03  0.90603518455E+02 0.  0.
          5    1    3    3  502    0 -0.45147502855E+02 -0.19890686608E+02 -0.39848042654E+02  0.63555293494E+02  0.41800000000E+01 0.  1.
         -5    1    3    3    0  502 -0.45421905127E+01  0.86127266238E+02  0.17511012464E+02  0.88105876319E+02  0.41800000000E+01 0.  1.
        -11    1    4    4    0    0  0.71575458033E+02 -0.60030093514E+02  0.18627919627E+03  0.20839049231E+03  0.00000000000E+00 0. -1.
         11    1    4    4    0    0 -0.21885764666E+02 -0.62064861161E+01  0.10962216494E+03  0.11195769831E+03  0.00000000000E+00 0.  1.
</event>
<event>
 8    1  0.6505836E-009  0.1289700E+03  0.7561462E-02  0.1228992E+00
         -2   -1    0    0    0  501 -0.00000000000E+00  0.00000000000E+00  0.23614527955E+03  0.23614527955E+03  0.00000000000E+00 0.  1.
          2   -1    0    0  501    0  0.00000000000E+00 -0.00000000000E+00 -0.11558635279E+03  0.11558635279E+03  0.00000000000E+00 0. -1.
         25    2    1    2    0    0 -0.64141328178E+02  0.26689777606E+02  0.17331939437E+03  0.22475028014E+03  0.12508645709E+03 0.  0.
         23    2    1    2    0    0  0.64141328178E+02 -0.26689777606E+02 -0.52760467613E+02  0.12698135219E+03  0.92272112000E+02 0.  0.
          5    1    3    3  502    0  0.32706825839E+02 -0.16601586697E+02  0.45230067742E+02  0.58383050325E+02  0.41800000000E+01 0. -1.
         -5    1    3    3    0  502 -0.96848154018E+02  0.43291364303E+02  0.12808932663E+03  0.16636722982E+03  0.41800000000E+01 0. -1.
        -11    1    4    4    0    0  0.13110474453E+02  0.33483851650E+02 -0.22841527281E+02  0.42600331340E+02  0.00000000000E+00 0.  1.
         11    1    4    4    0    0  0.51030853725E+02 -0.60173629256E+02 -0.29918940332E+02  0.84381020854E+02  0.00000000000E+00 0. -1.
</event>
<event>
 8    1  0.6505836E-009  0.1146623E+03  0.7561462E-02  0.1252172E+00
          1   -1    0    0  501    0  0.00000000000E+00  0.00000000000E+00  0.25776977340E+02  0.25776977340E+02  0.00000000000E+00 0. -1.
         -1   -1    0    0    0  501 -0.00000000000E+00 -0.00000000000E+00 -0.64842936777E+03  0.64842936777E+03  0.00000000000E+00 0.  1.
         25    2    1    2    0    0  0.28985810874E+02 -0.37392032801E+02 -0.47907034826E+03  0.49738764422E+03  0.12509088174E+03 0.  0.
         23    2    1    2    0    0 -0.28985810874E+02  0.37392032801E+02 -0.14358204217E+03  0.17681870089E+03  0.91709916588E+02 0.  0.
          5    1    3    3  502    0  0.62153828990E+02 -0.60024321769E+02 -0.39173337777E+03  0.40117144630E+03  0.41800000000E+01 0. -1.
         -5    1    3    3    0  502 -0.33168018116E+02  0.22632288968E+02 -0.87336970481E+02  0.96216197922E+02  0.41800000000E+01 0. -1.
        -11    1    4    4    0    0  0.30369998407E+02 -0.32000578769E+01 -0.52950461261E+02  0.61125514488E+02  0.00000000000E+00 0.  1.
         11    1    4    4    0    0 -0.59355809281E+02  0.40592090678E+02 -0.90631580910E+02  0.11569318640E+03  0.00000000000E+00 0. -1.
</event>
<event>
 8    1  0.6505836E-009  0.2527726E+03  0.7561462E-02  0.1111565E+00
         -3   -1    0    0    0  501 -0.00000000000E+00  0.00000000000E+00  0.35098083561E+03  0.35098083561E+03  0.00000000000E+00 0.  1.
          3   -1    0    0  501    0  0.00000000000E+00 -0.00000000000E+00 -0.22740107314E+03  0.22740107314E+03  0.00000000000E+00 0. -1.
         25    2    1    2    0    0  0.19226171370E+03  0.14420673875E+03  0.16509243067E+03  0.31727470403E+03  0.12509027579E+03 0.  0.
         23    2    1    2    0    0 -0.19226171370E+03 -0.14420673875E+03 -0.41512668200E+02  0.26110720473E+03  0.93239051294E+02 0.  0.
          5    1    3    3  502    0  0.19606289497E+03  0.99058105616E+02  0.15935779235E+03  0.27141397432E+03  0.41800000000E+01 0.  1.
         -5    1    3    3    0  502 -0.38011812703E+01  0.45148633132E+02  0.57346383167E+01  0.45860729708E+02  0.41800000000E+01 0.  1.
        -11    1    4    4    0    0 -0.44424985559E+02 -0.32488339818E+02 -0.51719474038E+02  0.75524668559E+02  0.00000000000E+00 0. -1.
         11    1    4    4    0    0 -0.14783672814E+03 -0.11171839893E+03  0.10206805838E+02  0.18558253617E+03  0.00000000000E+00 0.  1.
</event>
<event>
 8    1  0.6505836E-009  0.1087156E+03  0.7561462E-02  0.1262967E+00
         -1   -1    0    0    0  501 -0.00000000000E+00  0.00000000000E+00  0.43731017828E+02  0.43731017828E+02  0.00000000000E+00 0.  1.
          1   -1    0    0  501    0  0.00000000000E+00 -0.00000000000E+00 -0.38496393860E+03  0.38496393860E+03  0.00000000000E+00 0. -1.
         25    2    1    2    0    0  0.27899419700E+02 -0.57720477354E+02 -0.13329055099E+03  0.19371104348E+03  0.12509023246E+03 0.  0.
         23    2    1    2    0    0 -0.27899419700E+02  0.57720477354E+02 -0.20794236979E+03  0.23498391295E+03  0.88698247270E+02 0.  0.
          5    1    3    3  502    0  0.51934649492E+02 -0.87078293892E+02 -0.10631472552E+03  0.14696982802E+03  0.41800000000E+01 0. -1.
         -5    1    3    3    0  502 -0.24035229792E+02  0.29357816538E+02 -0.26975825470E+02  0.46741215461E+02  0.41800000000E+01 0. -1.
        -11    1    4    4    0    0  0.10174825396E+02  0.27027169460E+02 -0.91942669814E+01  0.30307251710E+02  0.00000000000E+00 0.  1.
         11    1    4    4    0    0 -0.38074245096E+02  0.30693307894E+02 -0.19874810281E+03  0.20467666124E+03  0.00000000000E+00 0. -1.
</event>
<event>
 8    1  0.6505836E-009  0.1374182E+03  0.7561462E-02  0.1216846E+00
         -3   -1    0    0    0  501 -0.00000000000E+00  0.00000000000E+00  0.27677133051E+03  0.27677133051E+03  0.00000000000E+00 0.  1.
          3   -1    0    0  501    0  0.00000000000E+00 -0.00000000000E+00 -0.83301837544E+02  0.83301837544E+02  0.00000000000E+00 0. -1.
         25    2    1    2    0    0 -0.16845296308E+02 -0.10118277443E+03  0.85090913021E+02  0.18278360794E+03  0.12509063116E+03 0.  0.
         23    2    1    2    0    0  0.16845296308E+02  0.10118277443E+03  0.10837857995E+03  0.17728956012E+03  0.95728541644E+02 0.  0.
          5    1    3    3  502    0 -0.67809127824E+02 -0.39508477045E+02  0.59852829153E+02  0.98786796346E+02  0.41800000000E+01 0.  1.
         -5    1    3    3    0  502  0.50963831516E+02 -0.61674297386E+02  0.25238083868E+02  0.83996811595E+02  0.41800000000E+01 0.  1.
        -11    1    4    4    0    0  0.36800584858E+02  0.70544465238E+02  0.11528754462E+03  0.14007862994E+03  0.00000000000E+00 0.  1.
         11    1    4    4    0    0 -0.19955288550E+02  0.30638309193E+02 -0.69089646768E+01  0.37210930171E+02  0.00000000000E+00 0. -1.
</event>
<event>
 8    1  0.6505836E-009  0.1071737E+03  0.7561462E-02  0.1265895E+00
          1   -1    0    0  501    0  0.00000000000E+00  0.00000000000E+00  0.69954731045E+02  0.69954731045E+02  0.00000000000E+00 0. -1.
         -1   -1    0    0    0  501 -0.00000000000E+00 -0.00000000000E+00 -0.27339445872E+03  0.27339445872E+03  0.00000000000E+00 0.  1.
         25    2    1    2    0    0  0.58063892124E+02  0.44851506922E+02 -0.14318828658E+03  0.20379131646E+03  0.12507974261E+03 0.  0.
         23    2    1    2    0    0 -0.58063892124E+02 -0.44851506922E+02 -0.60251441098E+02  0.13955787330E+03  0.10228924970E+03 0.  0.
          5    1    3    3  502    0  0.31363699389E+02 -0.90001382203E+01  0.13772777393E+02  0.35662948903E+02  0.41800000000E+01 0.  1.
         -5    1    3    3    0  502  0.26700192735E+02  0.53851645143E+02 -0.15696106397E+03  0.16812836756E+03  0.41800000000E+01 0.  1.
        -11    1    4    4    0    0 -0.79962921337E+02 -0.10765724826E+02 -0.21511861382E+02  0.83502873003E+02  0.00000000000E+00 0. -1.
         11    1    4    4    0    0  0.21899029213E+02 -0.34085782096E+02 -0.38739579716E+02  0.56055000296E+02  0.00000000000E+00 0.  1.
</event>
<event>
 8    1  0.6505836E-009  0.1105447E+03  0.7561462E-02  0.1259564E+00
         -3   -1    0    0    0  501 -0.00000000000E+00  0.00000000000E+00  0.27007804704E+03  0.27007804704E+03  0.00000000000E+00 0.  1.
          3   -1    0    0  501    0  0.00000000000E+00 -0.00000000000E+00 -0.55225314693E+02  0.55225314693E+02  0.00000000000E+00 0. -1.
         25    2    1    2    0    0 -0.45652770957E+02 -0.22083328850E+02  0.14510264568E+03  0.19817522711E+03  0.12508714542E+03 0.  0.
         23    2    1    2    0    0  0.45652770957E+02  0.22083328850E+02  0.69750086667E+02  0.12712813462E+03  0.93405776656E+02 0.  0.
          5    1    3    3  502    0 -0.20508656230E+02 -0.63188785155E+02  0.13236367469E+03  0.14815884154E+03  0.41800000000E+01 0. -1.
         -5    1    3    3    0  502 -0.25144114727E+02  0.41105456304E+02  0.12738970986E+02  0.50016385567E+02  0.41800000000E+01 0. -1.
        -11    1    4    4    0    0 -0.82874893936E+01 -0.30031565843E+02  0.17669688923E+02  0.35816132316E+02  0.00000000000E+00 0.  1.
         11    1    4    4    0    0  0.53940260350E+02  0.52114894694E+02  0.52080397744E+02  0.91312002304E+02  0.00000000000E+00 0. -1.
</event>
<event>
 8    1  0.6505836E-009  0.1039196E+03  0.7561462E-02  0.1272263E+00
          1   -1    0    0  501    0  0.00000000000E+00  0.00000000000E+00  0.19535292246E+03  0.19535292246E+03  0.00000000000E+00 0. -1.
         -1   -1    0    0    0  501 -0.00000000000E+00 -0.00000000000E+00 -0.71920705913E+02  0.71920705913E+02  0.00000000000E+00 0.  1.
         25    2    1    2    0    0  0.40294321831E+02  0.19008742433E+02  0.51531162629E+02  0.14243672421E+03  0.12509114686E+03 0.  0.
         23    2    1    2    0    0 -0.40294321831E+02 -0.19008742433E+02  0.71901053913E+02  0.12483690416E+03  0.91812452448E+02 0.  0.
          5    1    3    3  502    0  0.46084585908E+02  0.68560856371E+02  0.32897034977E+02  0.89017230888E+02  0.41800000000E+01 0.  1.
         -5    1    3    3    0  502 -0.57902640767E+01 -0.49552113938E+02  0.18634127651E+02  0.53419493325E+02  0.41800000000E+01 0.  1.
        -11    1    4    4    0    0  0.71262131218E+01  0.15065881933E+02  0.63731706368E+02  0.65874836687E+02  0.00000000000E+00 0. -1.
         11    1    4    4    0    0 -0.47420534953E+02 -0.34074624366E+02  0.81693475452E+01  0.58962067469E+02  0.00000000000E+00 0.  1.
</event>
<event>
 8    1  0.6505836E-009  0.9812162E+02  0.7561462E-02  0.1284296E+00
          1   -1    0    0  501    0  0.00000000000E+00  0.00000000000E+00  0.14480881813E+03  0.14480881813E+03  0.00000000000E+00 0. -1.
         -1   -1    0    0    0  501 -0.00000000000E+00 -0.00000000000E+00 -0.10255857397E+03  0.10255857397E+03  0.00000000000E+00 0.  1.
         25    2    1    2    0    0  0.34010441728E+02 -0.38945597285E+02 -0.71653820715E+00  0.13535889791E+03  0.12509215852E+03 0.  0.
         23    2    1    2    0    0 -0.34010441728E+02  0.38945597285E+02  0.42966782358E+02  0.11200849419E+03  0.89589556811E+02 0.  0.
          5    1    3    3  502    0  0.34623585345E+02  0.22807540597E+02  0.42769097797E+02  0.59713019490E+02  0.41800000000E+01 0. -1.
         -5    1    3    3    0  502 -0.61314361712E+00 -0.61753137882E+02 -0.43485636005E+02  0.75645878421E+02  0.41800000000E+01 0. -1.
        -11    1    4    4    0    0  0.22693453405E+02 -0.19280285296E+01 -0.94303164877E+01  0.24650375058E+02  0.00000000000E+00 0. -1.
         11    1    4    4    0    0 -0.56703895132E+02  0.40873625814E+02  0.52397098846E+02  0.87358119130E+02  0.00000000000E+00 0.  1.
</event>
<event>
 8    1  0.6505836E-009  0.1021238E+03  0.7561462E-02  0.1275892E+00
          2   -1    0    0  501    0  0.00000000000E+00  0.00000000000E+00  0.11552096669E+04  0.11552096669E+04  0.00000000000E+00 0. -1.
         -2   -1    0    0    0  501 -0.00000000000E+00 -0.00000000000E+00 -0.12129812932E+02  0.12129812932E+02  0.00000000000E+00 0.  1.
         25    2    1    2    0    0 -0.40867203776E+02 -0.32145973833E+01  0.76575928583E+03  0.77699161784E+03  0.12509287904E+03 0.  0.
         23    2    1    2    0    0  0.40867203776E+02  0.32145973833E+01  0.37732056815E+03  0.39034786199E+03  0.91215021988E+02 0.  0.
          5    1    3    3  502    0  0.12022040565E+01  0.48099940852E+02  0.52512251043E+03  0.52733876490E+03  0.41800000000E+01 0.  1.
         -5    1    3    3    0  502 -0.42069407833E+02 -0.51314538236E+02  0.24063677540E+03  0.24965285295E+03  0.41800000000E+01 0.  1.
        -11    1    4    4    0    0 -0.23975287736E+02  0.54368563377E+01  0.40833802247E+02  0.47663122378E+02  0.00000000000E+00 0.  1.
         11    1    4    4    0    0  0.64842491513E+02 -0.22222589544E+01  0.33648676590E+03  0.34268473962E+03  0.00000000000E+00 0. -1.
</event>
<event>
 8    1  0.6505836E-009  0.1688049E+03  0.7561462E-02  0.1179100E+00
          1   -1    0    0  501    0  0.00000000000E+00  0.00000000000E+00  0.58235896536E+03  0.58235896536E+03  0.00000000000E+00 0. -1.
         -1   -1    0    0    0  501 -0.00000000000E+00 -0.00000000000E+00 -0.66253915606E+02  0.66253915606E+02  0.00000000000E+00 0.  1.
         25    2    1    2    0    0 -0.14443183961E+03 -0.74492027964E+01  0.39645548134E+03  0.44015958448E+03  0.12508982455E+03 0.  0.
         23    2    1    2    0    0  0.14443183961E+03  0.74492027964E+01  0.11964956841E+03  0.20845329649E+03  0.90668134863E+02 0.  0.
          5    1    3    3  502    0 -0.11372465560E+03 -0.55279225730E+02  0.20977978025E+03  0.24497779224E+03  0.41800000000E+01 0.  1.
         -5    1    3    3    0  502 -0.30707184016E+02  0.47830022933E+02  0.18667570109E+03  0.19518179224E+03  0.41800000000E+01 0.  1.
        -11    1    4    4    0    0  0.84242758351E+02 -0.22036342017E+02  0.21652956107E+02  0.89728998726E+02  0.00000000000E+00 0.  1.
         11    1    4    4    0    0  0.60189081262E+02  0.29485544813E+02  0.97996612305E+02  0.11872429776E+03  0.00000000000E+00 0. -1.
</event>
<event>
 8    1  0.6505836E-009  0.1252212E+03  0.7561462E-02  0.1234724E+00
         -1   -1    0    0    0  501 -0.00000000000E+00  0.00000000000E+00  0.21949362352E+02  0.21949362352E+02  0.00000000000E+00 0.  1.
          1   -1    0    0  501    0  0.00000000000E+00 -0.00000000000E+00 -0.78724288834E+03  0.78724288834E+03  0.00000000000E+00 0. -1.
         25    2    1    2    0    0 -0.70657447137E+02 -0.15303273421E+02 -0.52074313328E+03  0.54041499154E+03  0.12509311417E+03 0.  0.
         23    2    1    2    0    0  0.70657447137E+02  0.15303273421E+02 -0.24455039270E+03  0.26877725914E+03  0.84909689961E+02 0.  0.
          5    1    3    3  502    0 -0.20618216564E+02  0.52592213579E+02 -0.26855816257E+03  0.27446677553E+03  0.41800000000E+01 0.  1.
         -5    1    3    3    0  502 -0.50039230573E+02 -0.67895487000E+02 -0.25218497071E+03  0.26594821602E+03  0.41800000000E+01 0.  1.
        -11    1    4    4    0    0  0.10176775686E+02 -0.31355214261E+02 -0.51311235759E+02  0.60988188527E+02  0.00000000000E+00 0. -1.
         11    1    4    4    0    0  0.60480671451E+02  0.46658487682E+02 -0.19323915694E+03  0.20778907062E+03  0.00000000000E+00 0.  1.
</event>
<event>
 8    1  0.6505836E-009  0.1537971E+03  0.7561462E-02  0.1195883E+00
          2   -1    0    0  501    0  0.00000000000E+00  0.00000000000E+00  0.39610554339E+03  0.39610554339E+03  0.00000000000E+00 0. -1.
         -2   -1    0    0    0  501 -0.00000000000E+00 -0.00000000000E+00 -0.99371920940E+02  0.99371920940E+02  0.00000000000E+00 0.  1.
         25    2    1    2    0    0 -0.54915922000E+02  0.12297806909E+03  0.26268670406E+03  0.32061031938E+03  0.12508920193E+03 0.  0.
         23    2    1    2    0    0  0.54915922000E+02 -0.12297806909E+03  0.34046918391E+02  0.17486714495E+03  0.10620716437E+03 0.  0.
          5    1    3    3  502    0 -0.75540251233E+02  0.97493278649E+02  0.25957266052E+03  0.28741382609E+03  0.41800000000E+01 0. -1.
         -5    1    3    3    0  502  0.20624329234E+02  0.25484790437E+02  0.31140435412E+01  0.33196493296E+02  0.41800000000E+01 0. -1.
        -11    1    4    4    0    0 -0.10708710640E+02 -0.57308028163E+02 -0.26488505653E+02  0.64035361381E+02  0.00000000000E+00 0. -1.
         11    1    4    4    0    0  0.65624632640E+02 -0.65670040923E+02  0.60535424044E+02  0.11083178357E+03  0.00000000000E+00 0.  1.
</event>
<event>
 8    1  0.6505836E-009  0.8827300E+02  0.7561462E-02  0.1307089E+00
         -2   -1    0    0    0  501 -0.00000000000E+00  0.00000000000E+00  0.18474899112E+02  0.18474899112E+02  0.00000000000E+00 0.  1.
          2   -1    0    0  501    0  0.00000000000E+00 -0.00000000000E+00 -0.81803847243E+03  0.81803847243E+03  0.00000000000E+00 0. -1.
         25    2    1    2    0    0 -0.12761831153E+02 -0.47290197314E+02 -0.56014293994E+03  0.57602745182E+03  0.12509310532E+03 0.  0.
         23    2    1    2    0    0  0.12761831153E+02  0.47290197314E+02 -0.23942063339E+03  0.26048591972E+03  0.90174539562E+02 0.  0.
          5    1    3    3  502    0 -0.32691906311E+01 -0.60480952969E+02 -0.55523441588E+03  0.55854396627E+03  0.41800000000E+01 0.  1.
         -5    1    3    3    0  502 -0.94926405218E+01  0.13190755654E+02 -0.49085240595E+01  0.17483485558E+02  0.41800000000E+01 0.  1.
        -11    1    4    4    0    0  0.46511035823E+02  0.45791790246E+02 -0.18756270582E+03  0.19859489702E+03  0.00000000000E+00 0. -1.
         11    1    4    4    0    0 -0.33749204670E+02  0.14984070683E+01 -0.51857927564E+02  0.61891022700E+02  0.00000000000E+00 0.  1.
</event>
<event>
 8    1  0.6505836E-009  0.1153994E+03  0.7561462E-02  0.1250885E+00
          1   -1    0    0  501    0  0.00000000000E+00  0.00000000000E+00  0.11509099935E+03  0.11509099935E+03  0.00000000000E+00 0. -1.
         -1   -1    0    0    0  501 -0.00000000000E+00 -0.00000000000E+00 -0.19608074201E+03  0.19608074201E+03  0.00000000000E+00 0.  1.
         25    2    1    2    0    0  0.89697441762E+02  0.41614007169E+02 -0.69986000152E+02  0.17413375511E+03  0.12508863977E+03 0.  0.
         23    2    1    2    0    0 -0.89697441762E+02 -0.41614007169E+02 -0.11003742511E+02  0.13703798624E+03  0.94238902122E+02 0.  0.
          5    1    3    3  502    0  0.58712417830E+02 -0.71111085898E+01 -0.94260977494E+02  0.11135672477E+03  0.41800000000E+01 0.  1.
         -5    1    3    3    0  502  0.30985023932E+02  0.48725115759E+02  0.24274977342E+02  0.62777030343E+02  0.41800000000E+01 0.  1.
        -11    1    4    4    0    0 -0.55320747489E+02 -0.53776710338E+02 -0.43174669760E+02  0.88410247066E+02  0.00000000000E+00 0.  1.
         11    1    4    4    0    0 -0.34376694273E+02  0.12162703169E+02  0.32170927248E+02  0.48627739177E+02  0.00000000000E+00 0. -1.
</event>
<event>
 8    1  0.6505836E-009  0.1635565E+03  0.7561462E-02  0.1184739E+00
         -2   -1    0    0    0  501 -0.00000000000E+00  0.00000000000E+00  0.94652716075E+02  0.94652716075E+02  0.00000000000E+00 0.  1.
          2   -1    0    0  501    0  0.00000000000E+00 -0.00000000000E+00 -0.43618975733E+03  0.43618975733E+03  0.00000000000E+00 0. -1.
         25    2    1    2    0    0  0.47608018553E+02 -0.12128823194E+03 -0.32542232243E+03  0.37218742707E+03  0.12508570780E+03 0.  0.
         23    2    1    2    0    0 -0.47608018553E+02  0.12128823194E+03 -0.16114718822E+02  0.15865504633E+03  0.89075142029E+02 0.  0.
          5    1    3    3  502    0 -0.34935067506E+02 -0.30234412790E+02 -0.15660310408E+03  0.16332967662E+03  0.41800000000E+01 0.  1.
         -5    1    3    3    0  502  0.82543086060E+02 -0.91053819146E+02 -0.16881921835E+03  0.20885775045E+03  0.41800000000E+01 0.  1.
        -11    1    4    4    0    0  0.20683442919E+02  0.68160084475E+02 -0.47359013241E+01  0.71386488133E+02  0.00000000000E+00 0. -1.
         11    1    4    4    0    0 -0.68291461472E+02  0.53128147461E+02 -0.11378817498E+02  0.87268558200E+02  0.00000000000E+00 0.  1.
</event>
<event>
 8    1  0.6505836E-009  0.6576511E+02  0.7561462E-02  0.1375116E+00
          1   -1    0    0  501    0  0.00000000000E+00  0.00000000000E+00  0.22127673287E+02  0.22127673287E+02  0.00000000000E+00 0. -1.
         -1   -1    0    0    0  501 -0.00000000000E+00 -0.00000000000E+00 -0.57128744909E+03  0.57128744909E+03  0.00000000000E+00 0.  1.
         25    2    1    2    0    0 -0.20863337618E+02  0.14882306897E+02 -0.40195484402E+03  0.42175771248E+03  0.12512038001E+03 0.  0.
         23    2    1    2    0    0  0.20863337618E+02 -0.14882306897E+02 -0.14720493178E+03  0.17165740989E+03  0.84499778192E+02 0.  0.
          5    1    3    3  502    0 -0.31958481202E+02  0.23638017702E+02 -0.40478154707E+03  0.40675013663E+03  0.41800000000E+01 0. -1.
         -5    1    3    3    0  502  0.11095143584E+02 -0.87557108041E+01  0.28267030501E+01  0.15007575852E+02  0.41800000000E+01 0. -1.
        -11    1    4    4    0    0  0.46930337734E+02 -0.25499138091E+00 -0.12748214404E+03  0.13584630532E+03  0.00000000000E+00 0.  1.
         11    1    4    4    0    0 -0.26067000116E+02 -0.14627315517E+02 -0.19722787745E+02  0.35811104573E+02  0.00000000000E+00 0. -1.
</event>
<event>
 8    1  0.6505836E-009  0.9903642E+02  0.7561462E-02  0.1282335E+00
          2   -1    0    0  501    0  0.00000000000E+00  0.00000000000E+00  0.10650564149E+04  0.10650564149E+04  0.00000000000E+00 0. -1.
         -2   -1    0    0    0  501 -0.00000000000E+00 -0.00000000000E+00 -0.12345396300E+02  0.12345396300E+02  0.00000000000E+00 0.  1.
         25    2    1    2    0    0  0.45827159759E+01 -0.39344403671E+02  0.87333712254E+03  0.88313888270E+03  0.12509026003E+03 0.  0.
         23    2    1    2    0    0 -0.45827159759E+01  0.39344403671E+02  0.17937389610E+03  0.19426292853E+03  0.63198951055E+02 0.  0.
          5    1    3    3  502    0 -0.47186056169E+02 -0.52230827623E+02  0.63306848326E+03  0.63698332800E+03  0.41800000000E+01 0.  1.
         -5    1    3    3    0  502  0.51768772145E+02  0.12886423952E+02  0.24026863928E+03  0.24615555470E+03  0.41800000000E+01 0.  1.
        -11    1    4    4    0    0  0.29025757325E+02  0.16191758365E+02  0.69057498424E+02  0.76639452737E+02  0.00000000000E+00 0.  1.
         11    1    4    4    0    0 -0.33608473301E+02  0.23152645305E+02  0.11031639767E+03  0.11762347579E+03  0.00000000000E+00 0. -1.
</event>
<event>
 8    1  0.6505836E-009  0.1380997E+03  0.7561462E-02  0.1215909E+00
         -2   -1    0    0    0  501 -0.00000000000E+00  0.00000000000E+00  0.30403540025E+02  0.30403540025E+02  0.00000000000E+00 0.  1.
          2   -1    0    0  501    0  0.00000000000E+00 -0.00000000000E+00 -0.84549929103E+03  0.84549929103E+03  0.00000000000E+00 0. -1.
         25    2    1    2    0    0 -0.66924955775E+02  0.82841435972E+02 -0.56692946822E+03  0.59025001992E+03  0.12507761933E+03 0.  0.
         23    2    1    2    0    0  0.66924955775E+02 -0.82841435972E+02 -0.24816628278E+03  0.28565281113E+03  0.93109459131E+02 0.  0.
          5    1    3    3  502    0 -0.89322629497E+02  0.12551491288E+02 -0.32130954901E+03  0.33375645426E+03  0.41800000000E+01 0.  1.
         -5    1    3    3    0  502  0.22397673722E+02  0.70289944684E+02 -0.24561991921E+03  0.25649356566E+03  0.41800000000E+01 0.  1.
        -11    1    4    4    0    0  0.38476777986E+02 -0.71869844012E+02 -0.24088406614E+03  0.25430467995E+03  0.00000000000E+00 0. -1.
         11    1    4    4    0    0  0.28448177789E+02 -0.10971591960E+02 -0.72822166397E+01  0.31348131186E+02  0.00000000000E+00 0.  1.
</event>
<event>
 7    1  0.6505836E-009  0.9791198E+02  0.7561462E-02  0.1284749E+00
          3   -1    0    0  501    0  0.00000000000E+00  0.00000000000E+00  0.39715269778E+03  0.39715269778E+03  0.00000000000E+00 0. -1.
         -3   -1    0    0    0  501 -0.00000000000E+00 -0.00000000000E+00 -0.41066763632E+02  0.41066763632E+02  0.00000000000E+00 0.  1.
         23    2    1    2    0    0 -0.41340740802E+02  0.48734385143E+02  0.14564440993E+03  0.18511982334E+03  0.94725697167E+02 0.  0.
          5    1    1    2  502    0 -0.55449505223E+01 -0.51753182632E+02  0.18421428159E+02  0.55371109834E+02  0.41800000000E+01 0.  1.
         -5    1    1    2    0  502  0.46885691324E+02  0.30187974889E+01  0.19202009606E+03  0.19772852824E+03  0.41800000000E+01 0.  1.
        -11    1    3    3    0    0 -0.27389411699E+02 -0.14977550397E+02  0.71340188699E+01  0.32021884928E+02  0.00000000000E+00 0.  1.
         11    1    3    3    0    0 -0.13951329103E+02  0.63711935540E+02  0.13851039106E+03  0.15309793841E+03  0.00000000000E+00 0. -1.
</event>
<event>
 8    1  0.6505836E-009  0.1905681E+03  0.7561462E-02  0.1157950E+00
         -2   -1    0    0    0  501 -0.00000000000E+00  0.00000000000E+00  0.10650336642E+03  0.10650336642E+03  0.00000000000E+00 0.  1.
          2   -1    0    0  501    0  0.00000000000E+00 -0.00000000000E+00 -0.41584994440E+03  0.41584994440E+03  0.00000000000E+00 0. -1.
         25    2    1    2    0    0 -0.80832769324E+02  0.15940809864E+03 -0.13577584299E+03  0.25695758868E+03  0.12508894570E+03 0.  0.
         23    2    1    2    0    0  0.80832769324E+02 -0.15940809864E+03 -0.17357073498E+03  0.26539572214E+03  0.91450592004E+02 0.  0.
          5    1    3    3  502    0 -0.95726112606E+01  0.77612209829E+02  0.58255307532E+01  0.78528333800E+02  0.41800000000E+01 0. -1.
         -5    1    3    3    0  502 -0.71260158064E+02  0.81795888807E+02 -0.14160137374E+03  0.17842925488E+03  0.41800000000E+01 0. -1.
        -11    1    4    4    0    0  0.81272494091E+02 -0.77336608278E+02 -0.13251449488E+03  0.17362678546E+03  0.00000000000E+00 0. -1.
         11    1    4    4    0    0 -0.43972476689E+00 -0.82071490358E+02 -0.41056240107E+02  0.91768936679E+02  0.00000000000E+00 0.  1.
</event>
<event>
 8    1  0.6505836E-009  0.2970960E+03  0.7561462E-02  0.1086701E+00
          3   -1    0    0  501    0  0.00000000000E+00  0.00000000000E+00  0.31584613361E+03  0.31584613361E+03  0.00000000000E+00 0. -1.
         -3   -1    0    0    0  501 -0.00000000000E+00 -0.00000000000E+00 -0.31923983127E+03  0.31923983127E+03  0.00000000000E+00 0.  1.
         25    2    1    2    0    0 -0.13944875312E+03  0.25519860715E+03 -0.44857082745E+02  0.31973037894E+03  0.12507227314E+03 0.  0.
         23    2    1    2    0    0  0.13944875312E+03 -0.25519860715E+03  0.41463385089E+02  0.31535558595E+03  0.11470679775E+03 0.  0.
          5    1    3    3  502    0 -0.17290903455E+02  0.69948943133E+02 -0.64667043289E+02  0.96907837018E+02  0.41800000000E+01 0.  1.
         -5    1    3    3    0  502 -0.12215784966E+03  0.18524966401E+03  0.19809960544E+02  0.22282254192E+03  0.41800000000E+01 0.  1.
        -11    1    4    4    0    0  0.13822437952E+03 -0.19048905080E+03 -0.54529078904E+01  0.23541833355E+03  0.00000000000E+00 0.  1.
         11    1    4    4    0    0  0.12243735979E+01 -0.64709556344E+02  0.46916292980E+02  0.79937252392E+02  0.00000000000E+00 0. -1.
</event>
<event>
 8    1  0.6505836E-009  0.9192458E+02  0.7561462E-02  0.1298257E+00
          2   -1    0    0  501    0  0.00000000000E+00  0.00000000000E+00  0.37413778269E+03  0.37413778269E+03  0.00000000000E+00 0. -1.
         -2   -1    0    0    0  501 -0.00000000000E+00 -0.00000000000E+00 -0.49690913440E+02  0.49690913440E+02  0.00000000000E+00 0.  1.
         25    2    1    2    0    0  0.47251181040E+02  0.60209315213E+02  0.13000516188E+03  0.19597637148E+03  0.12509020871E+03 0.  0.
         23    2    1    2    0    0 -0.47251181040E+02 -0.60209315213E+02  0.19444170737E+03  0.22785232465E+03  0.90836493408E+02 0.  0.
          5    1    3    3  502    0  0.98939724150E+00 -0.58157758068E+00  0.11853635555E+03  0.11861558552E+03  0.41800000000E+01 0. -1.
         -5    1    3    3    0  502  0.46261783799E+02  0.60790892793E+02  0.11468806328E+02  0.77360785967E+02  0.41800000000E+01 0. -1.
        -11    1    4    4    0    0  0.13644303014E+02 -0.34143715774E+02  0.21347586302E+02  0.42516817526E+02  0.00000000000E+00 0.  1.
         11    1    4    4    0    0 -0.60895484054E+02 -0.26065599438E+02  0.17309412106E+03  0.18533550712E+03  0.00000000000E+00 0. -1.
</event>
<event>
 8    1  0.6505836E-009  0.1376094E+03  0.7561462E-02  0.1216582E+00
         -2   -1    0    0    0  501 -0.00000000000E+00  0.00000000000E+00  0.40704056989E+02  0.40704056989E+02  0.00000000000E+00 0.  1.
          2   -1    0    0  501    0  0.00000000000E+00 -0.00000000000E+00 -0.53614748139E+03  0.53614748139E+03  0.00000000000E+00 0. -1.
         25    2    1    2    0    0 -0.83645379111E+02 -0.22942376559E+02 -0.37190339972E+03  0.40184812047E+03  0.12508745383E+03 0.  0.
         23    2    1    2    0    0  0.83645379111E+02  0.22942376559E+02 -0.12354002467E+03  0.17500341791E+03  0.88550304884E+02 0.  0.
          5    1    3    3  502    0 -0.90273180772E+02  0.32596146655E+02 -0.22938749814E+03  0.24869228506E+03  0.41800000000E+01 0.  1.
         -5    1    3    3    0  502  0.66278016609E+01 -0.55538523214E+02 -0.14251590158E+03  0.15315583541E+03  0.41800000000E+01 0.  1.
        -11    1    4    4    0    0  0.10227393860E+03  0.19623901785E+02 -0.11153488036E+03  0.15259451358E+03  0.00000000000E+00 0. -1.
         11    1    4    4    0    0 -0.18628559486E+02  0.33184747742E+01 -0.12005144316E+02  0.22408904333E+02  0.00000000000E+00 0.  1.
</event>
<event>
 8    1  0.6505836E-009  0.2109461E+03  0.7561462E-02  0.1140819E+00
          2   -1    0    0  501    0  0.00000000000E+00  0.00000000000E+00  0.26565838678E+03  0.26565838678E+03  0.00000000000E+00 0.  1.
         -2   -1    0    0    0  501 -0.00000000000E+00 -0.00000000000E+00 -0.17147916904E+03  0.17147916904E+03  0.00000000000E+00 0. -1.
         25    2    1    2    0    0  0.10040142949E+03 -0.15319478994E+03  0.62226192830E+02  0.23036558583E+03  0.12508842213E+03 0.  0.
         23    2    1    2    0    0 -0.10040142949E+03  0.15319478994E+03  0.31953024911E+02  0.20677196999E+03  0.90468563968E+02 0.  0.
          5    1    3    3  502    0 -0.18968442343E+02 -0.78377657502E+02  0.19135081447E+02  0.82984834412E+02  0.41800000000E+01 0.  1.
         -5    1    3    3    0  502  0.11936987183E+03 -0.74817132433E+02  0.43091111383E+02  0.14738075141E+03  0.41800000000E+01 0.  1.
        -11    1    4    4    0    0 -0.11286590301E+03  0.14926640738E+03  0.18548755692E+02  0.18805113340E+03  0.00000000000E+00 0. -1.
         11    1    4    4    0    0  0.12464473517E+02  0.39283825551E+01  0.13404269219E+02  0.18720836596E+02  0.00000000000E+00 0.  1.
</event>
<event>
 8    1  0.6505836E-009  0.1367072E+03  0.7561462E-02  0.1217830E+00
         -1   -1    0    0    0  501 -0.00000000000E+00  0.00000000000E+00  0.13016622787E+03  0.13016622787E+03  0.00000000000E+00 0.  1.
          1   -1    0    0  501    0  0.00000000000E+00 -0.00000000000E+00 -0.14871001824E+03  0.14871001824E+03  0.00000000000E+00 0. -1.
         25    2    1    2    0    0  0.57557745892E+02 -0.60565073964E+02 -0.17231589246E+02  0.15141402821E+03  0.12509299730E+03 0.  0.
         23    2    1    2    0    0 -0.57557745892E+02  0.60565073964E+02 -0.13122011183E+01  0.12746221790E+03  0.96249014666E+02 0.  0.
          5    1    3    3  502    0  0.77301846166E+02 -0.85482879650E+02 -0.68128211574E+00  0.11532924468E+03  0.41800000000E+01 0.  1.
         -5    1    3    3    0  502 -0.19744100274E+02  0.24917805686E+02 -0.16550307131E+02  0.36084783524E+02  0.41800000000E+01 0.  1.
        -11    1    4    4    0    0 -0.39997289089E+00 -0.23971765236E+02 -0.77937682310E+01  0.25210083897E+02  0.00000000000E+00 0.  1.
         11    1    4    4    0    0 -0.57157773001E+02  0.84536839200E+02  0.64815671127E+01  0.10225213400E+03  0.00000000000E+00 0. -1.
</event>
<event>
 8    1  0.6505836E-009  0.1342190E+03  0.7561462E-02  0.1221326E+00
         -1   -1    0    0    0  501 -0.00000000000E+00  0.00000000000E+00  0.15978251420E+03  0.15978251420E+03  0.00000000000E+00 0.  1.
          1   -1    0    0  501    0  0.00000000000E+00 -0.00000000000E+00 -0.14500236895E+03  0.14500236895E+03  0.00000000000E+00 0. -1.
         25    2    1    2    0    0 -0.92865157217E+02 -0.15915427325E+01  0.60568747211E+02  0.16715855906E+03  0.12508773039E+03 0.  0.
         23    2    1    2    0    0  0.92865157217E+02  0.15915427325E+01 -0.45788601970E+02  0.13762632409E+03  0.90652846505E+02 0.  0.
          5    1    3    3  502    0  0.16008029823E+02  0.36716835689E+02  0.17220316425E+02  0.43799483326E+02  0.41800000000E+01 0. -1.
         -5    1    3    3    0  502 -0.10887318704E+03 -0.38308378422E+02  0.43348430786E+02  0.12335907573E+03  0.41800000000E+01 0. -1.
        -11    1    4    4    0    0  0.88040731955E+02 -0.20221921302E+02 -0.62397177665E+02  0.10978845279E+03  0.00000000000E+00 0. -1.
         11    1    4    4    0    0  0.48244252621E+01  0.21813464034E+02  0.16608575696E+02  0.27837871307E+02  0.00000000000E+00 0.  1.
</event>
<event>
 7    1  0.6505836E-009  0.3155206E+03  0.7561462E-02  0.1077730E+00
         -2   -1    0    0    0  501 -0.00000000000E+00  0.00000000000E+00  0.10505645636E+03  0.10505645636E+03  0.00000000000E+00 0.  1.
          2   -1    0    0  501    0  0.00000000000E+00 -0.00000000000E+00 -0.12013540547E+04  0.12013540547E+04  0.00000000000E+00 0. -1.
         25    2    1    2    0    0  0.54720645075E+02 -0.30026267952E+03 -0.77357338702E+03  0.84096073302E+03  0.12508854334E+03 0.  0.
          5    1    3    3  502    0  0.36266346868E+02 -0.27247081781E+03 -0.55003243125E+03  0.61490547428E+03  0.41800000000E+01 0.  1.
         -5    1    3    3    0  502  0.18454298207E+02 -0.27791861708E+02 -0.22354095577E+03  0.22605525874E+03  0.41800000000E+01 0.  1.
        -11    1    1    2    0    0 -0.85741650326E+02  0.20120031959E+03 -0.27453929078E+03  0.35100572843E+03  0.00000000000E+00 0. -1.
         11    1    1    2    0    0  0.31021005251E+02  0.99062359928E+02 -0.48184920533E+02  0.11444404960E+03  0.00000000000E+00 0.  1.
</event>
<event>
 8    1  0.6505836E-009  0.1169588E+03  0.7561462E-02  0.1248200E+00
          2   -1    0    0  501    0  0.00000000000E+00  0.00000000000E+00  0.80772831274E+02  0.80772831274E+02  0.00000000000E+00 0. -1.
         -2   -1    0    0    0  501 -0.00000000000E+00 -0.00000000000E+00 -0.22227898384E+03  0.22227898384E+03  0.00000000000E+00 0.  1.
         25    2    1    2    0    0  0.21600626991E+02 -0.75443410297E+02 -0.75220771238E+02  0.16572568767E+03  0.12509414009E+03 0.  0.
         23    2    1    2    0    0 -0.21600626991E+02  0.75443410297E+02 -0.66285381327E+02  0.13732612745E+03  0.91139553751E+02 0.  0.
          5    1    3    3  502    0  0.53731535050E+02 -0.74273490271E+02 -0.92670263827E+01  0.92233287884E+02  0.41800000000E+01 0.  1.
         -5    1    3    3    0  502 -0.32130908059E+02 -0.11699200260E+01 -0.65953744856E+02  0.73492399784E+02  0.41800000000E+01 0.  1.
        -11    1    4    4    0    0 -0.92396765791E+01 -0.15447918760E+02 -0.36815534761E+02  0.40980402842E+02  0.00000000000E+00 0. -1.
         11    1    4    4    0    0 -0.12360950412E+02  0.90891329057E+02 -0.29469846566E+02  0.96345724604E+02  0.00000000000E+00 0.  1.
</event>
<event>
 8    1  0.6505836E-009  0.3182200E+03  0.7561462E-02  0.1076471E+00
          2   -1    0    0  501    0  0.00000000000E+00  0.00000000000E+00  0.19418615414E+04  0.19418615414E+04  0.00000000000E+00 0. -1.
         -2   -1    0    0    0  501 -0.00000000000E+00 -0.00000000000E+00 -0.54630636596E+02  0.54630636596E+02  0.00000000000E+00 0.  1.
         25    2    1    2    0    0 -0.30013275925E+03  0.26757562670E+02  0.78188543580E+03  0.84722293678E+03  0.12508488939E+03 0.  0.
         23    2    1    2    0    0  0.30013275925E+03 -0.26757562670E+02  0.11053454690E+04  0.11492692412E+04  0.90749890497E+02 0.  0.
          5    1    3    3  502    0 -0.56161665684E+02 -0.41188730896E+02  0.12431568071E+03  0.14255702408E+03  0.41800000000E+01 0.  1.
         -5    1    3    3    0  502 -0.24397109356E+03  0.67946293566E+02  0.65756975510E+03  0.70466591270E+03  0.41800000000E+01 0.  1.
        -11    1    4    4    0    0  0.27405680850E+03  0.26559904814E+01  0.99818834819E+03  0.10351300242E+04  0.00000000000E+00 0.  1.
         11    1    4    4    0    0  0.26075950748E+02 -0.29413553151E+02  0.10715712080E+03  0.11413921699E+03  0.00000000000E+00 0. -1.
</event>
<event>
 8    1  0.6505836E-009  0.8565856E+02  0.7561462E-02  0.1313719E+00
         -4   -1    0    0    0  501 -0.00000000000E+00  0.00000000000E+00  0.88373718777E+02  0.88373718777E+02  0.00000000000E+00 0.  1.
          4   -1    0    0  501    0  0.00000000000E+00 -0.00000000000E+00 -0.13982070603E+03  0.13982070603E+03  0.00000000000E+00 0. -1.
         25    2    1    2    0    0 -0.16598607370E+02  0.13930174324E+02 -0.29484857447E+02  0.13033274824E+03  0.12509078671E+03 0.  0.
         23    2    1    2    0    0  0.16598607370E+02 -0.13930174324E+02 -0.21962129809E+02  0.97861676573E+02  0.92870926950E+02 0.  0.
          5    1    3    3  502    0  0.27978250123E+02 -0.44792772118E+02 -0.15251156186E+02  0.55129348617E+02  0.41800000000E+01 0. -1.
         -5    1    3    3    0  502 -0.44576857493E+02  0.58722946442E+02 -0.14233701260E+02  0.75203399619E+02  0.41800000000E+01 0. -1.
        -11    1    4    4    0    0  0.20289006151E+02 -0.25364105890E+02  0.30189492912E+02  0.44343963743E+02  0.00000000000E+00 0.  1.
         11    1    4    4    0    0 -0.36903987809E+01  0.11433931565E+02 -0.52151622720E+02  0.53517712830E+02  0.00000000000E+00 0. -1.
</event>
<event>
 8    1  0.6505836E-009  0.1786304E+03  0.7561462E-02  0.1169135E+00
         -1   -1    0    0    0  501 -0.00000000000E+00  0.00000000000E+00  0.88714240712E+02  0.88714240712E+02  0.00000000000E+00 0.  1.
          1   -1    0    0  501    0  0.00000000000E+00 -0.00000000000E+00 -0.45877618154E+03  0.45877618154E+03  0.00000000000E+00 0. -1.
         25    2    1    2    0    0  0.14578693603E+01 -0.14617592345E+03 -0.74721172759E+02  0.20639793316E+03  0.12508927682E+03 0.  0.
         23    2    1    2    0    0 -0.14578693603E+01  0.14617592345E+03 -0.29534076807E+03  0.34109248909E+03  0.88024944471E+02 0.  0.
          5    1    3    3  502    0  0.58669625533E+02 -0.38754378785E+02 -0.31714164198E+02  0.77248219694E+02  0.41800000000E+01 0. -1.
         -5    1    3    3    0  502 -0.57211756172E+02 -0.10742154467E+03 -0.43007008561E+02  0.12914971347E+03  0.41800000000E+01 0. -1.
        -11    1    4    4    0    0 -0.29617472493E+02  0.19936759596E+02 -0.10550410625E+03  0.11138126187E+03  0.00000000000E+00 0.  1.
         11    1    4    4    0    0  0.28159603133E+02  0.12623916386E+03 -0.18983666182E+03  0.22971122722E+03  0.00000000000E+00 0. -1.
</event>
<event>
 8    1  0.6505836E-009  0.1947272E+03  0.7561462E-02  0.1154265E+00
         -2   -1    0    0    0  501 -0.00000000000E+00  0.00000000000E+00  0.34133055181E+02  0.34133055181E+02  0.00000000000E+00 0.  1.
          2   -1    0    0  501    0  0.00000000000E+00 -0.00000000000E+00 -0.11864673577E+04  0.11864673577E+04  0.00000000000E+00 0. -1.
         25    2    1    2    0    0  0.18260963914E+02 -0.16084133734E+03 -0.45461660134E+03  0.49852530980E+03  0.12509129346E+03 0.  0.
         23    2    1    2    0    0 -0.18260963914E+02  0.16084133734E+03 -0.69771770116E+03  0.72207510306E+03  0.91537234761E+02 0.  0.
          5    1    3    3  502    0  0.41233520455E+02 -0.21028371187E-01 -0.10889051598E+03  0.11651103176E+03  0.41800000000E+01 0.  1.
         -5    1    3    3    0  502 -0.22972556541E+02 -0.16082030897E+03 -0.34572608536E+03  0.38201427804E+03  0.41800000000E+01 0.  1.
        -11    1    4    4    0    0  0.13218233569E+02 -0.68464793787E+01 -0.71317689903E+02  0.72854710704E+02  0.00000000000E+00 0. -1.
         11    1    4    4    0    0 -0.31479197483E+02  0.16768781672E+03 -0.62640001125E+03  0.64922039235E+03  0.00000000000E+00 0.  1.
</event>
<event>
 8    1  0.6505836E-009  0.1113718E+03  0.7561462E-02  0.1258050E+00
          2   -1    0    0  501    0  0.00000000000E+00  0.00000000000E+00  0.23411050614E+02  0.23411050614E+02  0.00000000000E+00 0. -1.
         -2   -1    0    0    0  501 -0.00000000000E+00 -0.00000000000E+00 -0.61082503032E+03  0.61082503032E+03  0.00000000000E+00 0.  1.
         25    2    1    2    0    0 -0.26389206544E+00 -0.42158545304E+02 -0.26042930965E+03  0.29197038683E+03  0.12508344765E+03 0.  0.
         23    2    1    2    0    0  0.26389206544E+00  0.42158545304E+02 -0.32698467006E+03  0.34226569411E+03  0.91920717638E+02 0.  0.
          5    1    3    3  502    0 -0.14916256691E+02  0.41100988285E+02 -0.59631355270E+02  0.74061844988E+02  0.41800000000E+01 0.  1.
         -5    1    3    3    0  502  0.14652364626E+02 -0.83259533589E+02 -0.20079795438E+03  0.21790854184E+03  0.41800000000E+01 0.  1.
        -11    1    4    4    0    0  0.37940786217E+02  0.41865817746E+02 -0.25308663149E+03  0.25931658835E+03  0.00000000000E+00 0.  1.
         11    1    4    4    0    0 -0.37676894152E+02  0.29272755809E+00 -0.73898038565E+02  0.82949105758E+02  0.00000000000E+00 0. -1.
</event>
<event>
 8    1  0.6505836E-009  0.1289950E+03  0.7561462E-02  0.1228955E+00
          1   -1    0    0  501    0  0.00000000000E+00  0.00000000000E+00  0.50182279626E+03  0.50182279626E+03  0.00000000000E+00 0. -1.
         -1   -1    0    0    0  501 -0.00000000000E+00 -0.00000000000E+00 -0.11059225966E+03  0.11059225966E+03  0.00000000000E+00 0.  1.
         25    2    1    2    0    0 -0.78298842679E+02 -0.35357318348E+02  0.45037184314E+03  0.47525189783E+03  0.12509484632E+03 0.  0.
         23    2    1    2    0    0  0.78298842679E+02  0.35357318348E+02 -0.59141306538E+02  0.13716315809E+03  0.89079678223E+02 0.  0.
          5    1    3    3  502    0 -0.58095951425E+02 -0.81889529503E+02  0.28307249815E+03  0.30038066886E+03  0.41800000000E+01 0.  1.
         -5    1    3    3    0  502 -0.20202891254E+02  0.46532211155E+02  0.16729934499E+03  0.17487122897E+03  0.41800000000E+01 0.  1.
        -11    1    4    4    0    0  0.35434525285E+02 -0.16693022589E+02 -0.57675415541E+02  0.69718836358E+02  0.00000000000E+00 0.  1.
         11    1    4    4    0    0  0.42864317394E+02  0.52050340937E+02 -0.14658909972E+01  0.67444321731E+02  0.00000000000E+00 0. -1.
</event>
<event>
 8    1  0.6505836E-009  0.1052990E+03  0.7561462E-02  0.1269532E+00
         -1   -1    0    0    0  501 -0.00000000000E+00  0.00000000000E+00  0.24708675779E+03  0.24708675779E+03  0.00000000000E+00 0.  1.
          1   -1    0    0  501    0  0.00000000000E+00 -0.00000000000E+00 -0.99781289174E+02  0.99781289174E+02  0.00000000000E+00 0. -1.
         25    2    1    2    0    0 -0.21442580465E+02  0.45562925164E+02 -0.22528130950E+02  0.13671434619E+03  0.12509009299E+03 0.  0.
         23    2    1    2    0    0  0.21442580465E+02 -0.45562925164E+02  0.16983359957E+03  0.21015370077E+03  0.11307237506E+03 0.  0.
          5    1    3    3  502    0 -0.32422712131E+02 -0.35673307115E+02 -0.25268021515E+02  0.54587200091E+02  0.41800000000E+01 0.  1.
         -5    1    3    3    0  502  0.10980131666E+02  0.81236232279E+02  0.27398905646E+01  0.82127146100E+02  0.41800000000E+01 0.  1.
        -11    1    4    4    0    0  0.40307766018E+02 -0.12743015546E+02  0.68425375606E+01  0.42824301124E+02  0.00000000000E+00 0. -1.
         11    1    4    4    0    0 -0.18865185553E+02 -0.32819909618E+02  0.16299106201E+03  0.16732939965E+03  0.00000000000E+00 0.  1.
</event>
<event>
 8    1  0.6505836E-009  0.1451716E+03  0.7561462E-02  0.1206535E+00
         -2   -1    0    0    0  501 -0.00000000000E+00  0.00000000000E+00  0.41914610262E+02  0.41914610262E+02  0.00000000000E+00 0.  1.
          2   -1    0    0  501    0  0.00000000000E+00 -0.00000000000E+00 -0.74640428034E+03  0.74640428034E+03  0.00000000000E+00 0. -1.
         25    2    1    2    0    0 -0.12800738669E+02 -0.12414783726E+03 -0.23454226260E+03  0.29365503112E+03  0.12508660979E+03 0.  0.
         23    2    1    2    0    0  0.12800738669E+02  0.12414783726E+03 -0.46994740748E+03  0.49466385949E+03  0.90913275586E+02 0.  0.
          5    1    3    3  502    0  0.32513278508E+02 -0.11375737375E+03 -0.11383442133E+03  0.16423641875E+03  0.41800000000E+01 0. -1.
         -5    1    3    3    0  502 -0.45314017177E+02 -0.10390463510E+02 -0.12070784127E+03  0.12941861237E+03  0.41800000000E+01 0. -1.
        -11    1    4    4    0    0  0.10643915439E+02  0.50960672028E+02 -0.65633850359E+02  0.83774013526E+02  0.00000000000E+00 0.  1.
         11    1    4    4    0    0  0.21568232300E+01  0.73187165236E+02 -0.40431355712E+03  0.41088984596E+03  0.00000000000E+00 0. -1.
</event>
<event>
 8    1  0.6505836E-009  0.1577649E+03  0.7561462E-02  0.1191243E+00
         -1   -1    0    0    0  501 -0.00000000000E+00  0.00000000000E+00  0.22176634824E+03  0.22176634824E+03  0.00000000000E+00 0.  1.
          1   -1    0    0  501    0  0.00000000000E+00 -0.00000000000E+00 -0.20741836117E+03  0.20741836117E+03  0.00000000000E+00 0. -1.
         25    2    1    2    0    0 -0.83681326447E+02 -0.12397711188E+03  0.10733080870E+03  0.22257694268E+03  0.12509078402E+03 0.  0.
         23    2    1    2    0    0  0.83681326447E+02  0.12397711188E+03 -0.92982821637E+02  0.20660776674E+03  0.10801886637E+03 0.  0.
          5    1    3    3  502    0 -0.27369069786E+02 -0.51928421279E+02  0.11655985608E+03  0.13057296568E+03  0.41800000000E+01 0. -1.
         -5    1    3    3    0  502 -0.56312256661E+02 -0.72048690601E+02 -0.92290473737E+01  0.92003976995E+02  0.41800000000E+01 0. -1.
        -11    1    4    4    0    0  0.70331075989E+02  0.13199913522E+03 -0.10838025600E+03  0.18470655603E+03  0.00000000000E+00 0. -1.
         11    1    4    4    0    0  0.13350250458E+02 -0.80220233439E+01  0.15397434358E+02  0.21901210712E+02  0.00000000000E+00 0.  1.
</event>
<event>
 8    1  0.6505836E-009  0.1674635E+03  0.7561462E-02  0.1180519E+00
          2   -1    0    0  501    0  0.00000000000E+00  0.00000000000E+00  0.10757014023E+03  0.10757014023E+03  0.00000000000E+00 0. -1.
         -2   -1    0    0    0  501 -0.00000000000E+00 -0.00000000000E+00 -0.30102523427E+03  0.30102523427E+03  0.00000000000E+00 0.  1.
         25    2    1    2    0    0  0.10217802534E+03  0.91239262236E+02 -0.53189994863E+02  0.19298081622E+03  0.12508983987E+03 0.  0.
         23    2    1    2    0    0 -0.10217802534E+03 -0.91239262236E+02 -0.14026509918E+03  0.21561455828E+03  0.89723953654E+02 0.  0.
          5    1    3    3  502    0 -0.48744614987E+00  0.79439190457E+02 -0.74711610292E+01  0.79900646001E+02  0.41800000000E+01 0.  1.
         -5    1    3    3    0  502  0.10266547149E+03  0.11800071779E+02 -0.45718833834E+02  0.11308017022E+03  0.41800000000E+01 0.  1.
        -11    1    4    4    0    0 -0.13421186003E+02 -0.54094498624E+02 -0.15103896895E+02  0.57744876107E+02  0.00000000000E+00 0. -1.
         11    1    4    4    0    0 -0.88756839333E+02 -0.37144763611E+02 -0.12516120228E+03  0.15786968217E+03  0.00000000000E+00 0.  1.
</event>
<event>
 8    1  0.6505836E-009  0.1511082E+03  0.7561462E-02  0.1199118E+00
         -2   -1    0    0    0  501 -0.00000000000E+00  0.00000000000E+00  0.10135037821E+03  0.10135037821E+03  0.00000000000E+00 0. -1.
          2   -1    0    0  501    0  0.00000000000E+00 -0.00000000000E+00 -0.24966804210E+03  0.24966804210E+03  0.00000000000E+00 0.  1.
         25    2    1    2    0    0  0.47069261499E+02 -0.10477727609E+03 -0.91782950477E+02  0.19304395951E+03  0.12509223533E+03 0.  0.
         23    2    1    2    0    0 -0.47069261499E+02  0.10477727609E+03 -0.56534713422E+02  0.15797446080E+03  0.92552490404E+02 0.  0.
          5    1    3    3  502    0 -0.20636054981E+02  0.17287250605E+02 -0.29446569476E+02  0.40115690852E+02  0.41800000000E+01 0.  1.
         -5    1    3    3    0  502  0.67705316480E+02 -0.12206452670E+03 -0.62336381001E+02  0.15292826866E+03  0.41800000000E+01 0.  1.
        -11    1    4    4    0    0 -0.62256727166E+02  0.54285408865E+02 -0.64302728083E+02  0.10467877785E+03  0.00000000000E+00 0.  1.
         11    1    4    4    0    0  0.15187465666E+02  0.50491867228E+02  0.77680146611E+01  0.53295682952E+02  0.00000000000E+00 0. -1.
</event>
<event>
 8    1  0.6505836E-009  0.1030094E+03  0.7561462E-02  0.1274092E+00
          2   -1    0    0  501    0  0.00000000000E+00  0.00000000000E+00  0.83989419863E+03  0.83989419863E+03  0.00000000000E+00 0.  1.
         -2   -1    0    0    0  501 -0.00000000000E+00 -0.00000000000E+00 -0.17521960909E+02  0.17521960909E+02  0.00000000000E+00 0. -1.
         25    2    1    2    0    0  0.42658606383E+02  0.14837267604E+01  0.58438831468E+03  0.59914972076E+03  0.12509487362E+03 0.  0.
         23    2    1    2    0    0 -0.42658606383E+02 -0.14837267604E+01  0.23798392303E+03  0.25826643878E+03  0.90792332449E+02 0.  0.
          5    1    3    3  502    0  0.36173204989E+02 -0.50648678754E+02  0.45778829284E+03  0.46201881226E+03  0.41800000000E+01 0. -1.
         -5    1    3    3    0  502  0.64854013938E+01  0.52132405515E+02  0.12660002184E+03  0.13713090850E+03  0.41800000000E+01 0. -1.
        -11    1    4    4    0    0 -0.46664000785E+02  0.32406221198E+02  0.19650829191E+03  0.20455610705E+03  0.00000000000E+00 0.  1.
         11    1    4    4    0    0  0.40053944027E+01 -0.33889947959E+02  0.41475631121E+02  0.53710331723E+02  0.00000000000E+00 0. -1.
</event>
<event>
 8    1  0.6505836E-009  0.1002978E+03  0.7561462E-02  0.1279671E+00
         -2   -1    0    0    0  501 -0.00000000000E+00  0.00000000000E+00  0.52104951503E+02  0.52104951503E+02  0.00000000000E+00 0.  1.
          2   -1    0    0  501    0  0.00000000000E+00 -0.00000000000E+00 -0.35946454563E+03  0.35946454563E+03  0.00000000000E+00 0. -1.
         25    2    1    2    0    0  0.39258105447E+02  0.27302512248E+01 -0.57717814884E+02  0.14328420238E+03  0.12510141238E+03 0.  0.
         23    2    1    2    0    0 -0.39258105447E+02 -0.27302512248E+01 -0.24964177925E+03  0.26828529476E+03  0.90040703710E+02 0.  0.
          5    1    3    3  502    0  0.70099699575E+02  0.92003120363E+01 -0.78171146945E+02  0.10548371551E+03  0.41800000000E+01 0.  1.
         -5    1    3    3    0  502 -0.30841594128E+02 -0.64700608114E+01  0.20453332062E+02  0.37800486871E+02  0.41800000000E+01 0.  1.
        -11    1    4    4    0    0  0.14847126114E+02  0.30896546145E+02 -0.77852352111E+02  0.85064813212E+02  0.00000000000E+00 0.  1.
         11    1    4    4    0    0 -0.54105231561E+02 -0.33626797370E+02 -0.17178942714E+03  0.18322048155E+03  0.00000000000E+00 0. -1.
</event>
<event>
 8    1  0.6505836E-009  0.1023704E+03  0.7561462E-02  0.1275389E+00
         -1   -1    0    0    0  501 -0.00000000000E+00  0.00000000000E+00  0.12266148907E+03  0.12266148907E+03  0.00000000000E+00 0.  1.
          1   -1    0    0  501    0  0.00000000000E+00 -0.00000000000E+00 -0.11331325928E+03  0.11331325928E+03  0.00000000000E+00 0. -1.
         25    2    1    2    0    0  0.27367494043E+02  0.33259756948E+02 -0.14512086442E+02  0.13311509876E+03  0.12511529764E+03 0.  0.
         23    2    1    2    0    0 -0.27367494043E+02 -0.33259756948E+02  0.23860316235E+02  0.10285964959E+03  0.90308369828E+02 0.  0.
          5    1    3    3  502    0  0.51730826095E+02 -0.14961940942E+02  0.31063878562E+02  0.62308707229E+02  0.41800000000E+01 0.  1.
         -5    1    3    3    0  502 -0.24363332052E+02  0.48221697891E+02 -0.45575965004E+02  0.70806391535E+02  0.41800000000E+01 0.  1.
        -11    1    4    4    0    0 -0.54916056047E+01  0.29536059012E+02 -0.48466021100E+01  0.30430676399E+02  0.00000000000E+00 0. -1.
         11    1    4    4    0    0 -0.21875888439E+02 -0.62795815960E+02  0.28706918345E+02  0.72428973194E+02  0.00000000000E+00 0.  1.
</event>
<event>
 8    1  0.6505836E-009  0.9120800E+02  0.7561462E-02  0.1299952E+00
         -1   -1    0    0    0  501 -0.00000000000E+00  0.00000000000E+00  0.39452796554E+02  0.39452796554E+02  0.00000000000E+00 0.  1.
          1   -1    0    0  501    0  0.00000000000E+00 -0.00000000000E+00 -0.33326896105E+03  0.33326896105E+03  0.00000000000E+00 0. -1.
         25    2    1    2    0    0  0.35727613676E+02  0.46246613746E+01 -0.19615819828E+03  0.23542014473E+03  0.12508699342E+03 0.  0.
         23    2    1    2    0    0 -0.35727613676E+02 -0.46246613746E+01 -0.97657966216E+02  0.13730161287E+03  0.89536610721E+02 0.  0.
          5    1    3    3  502    0 -0.33708866407E+02  0.20946967343E+02 -0.18607287060E+02  0.44031427947E+02  0.41800000000E+01 0. -1.
         -5    1    3    3    0  502  0.69436480084E+02 -0.16322305968E+02 -0.17755091122E+03  0.19138871678E+03  0.41800000000E+01 0. -1.
        -11    1    4    4    0    0  0.11317317082E+02 -0.18782677455E+02  0.58761024930E+01  0.22702405574E+02  0.00000000000E+00 0.  1.
         11    1    4    4    0    0 -0.47044930759E+02  0.14158016081E+02 -0.10353406871E+03  0.11459920730E+03  0.00000000000E+00 0. -1.
</event>
<event>
 8    1  0.6505836E-009  0.1972634E+03  0.7561462E-02  0.1152069E+00
          1   -1    0    0  501    0  0.00000000000E+00  0.00000000000E+00  0.82492987751E+03  0.82492987751E+03  0.00000000000E+00 0. -1.
         -1   -1    0    0    0  501 -0.00000000000E+00 -0.00000000000E+00 -0.49811072444E+02  0.49811072444E+02  0.00000000000E+00 0.  1.
         25    2    1    2    0    0 -0.16393484024E+03 -0.46942084420E+02  0.45111800325E+03  0.49823107616E+03  0.12509420957E+03 0.  0.
         23    2    1    2    0    0  0.16393484024E+03  0.46942084420E+02  0.32400080182E+03  0.37650987379E+03  0.87777983287E+02 0.  0.
          5    1    3    3  502    0 -0.13872246646E+03  0.12611591256E+02  0.36313709064E+03  0.38895885892E+03  0.41800000000E+01 0. -1.
         -5    1    3    3    0  502 -0.25212373780E+02 -0.59553675676E+02  0.87980912602E+02  0.10927221724E+03  0.41800000000E+01 0. -1.
        -11    1    4    4    0    0  0.89835019038E+02 -0.18248153494E+02  0.17900553332E+03  0.20111267169E+03  0.00000000000E+00 0. -1.
         11    1    4    4    0    0  0.74099821198E+02  0.65190237913E+02  0.14499526849E+03  0.17539720211E+03  0.00000000000E+00 0.  1.
</event>
<event>
 7    1  0.6505836E-009  0.7268488E+02  0.7561462E-02  0.1351194E+00
          4   -1    0    0  501    0  0.00000000000E+00  0.00000000000E+00  0.88078739591E+02  0.88078739591E+02  0.00000000000E+00 0. -1.
         -4   -1    0    0    0  501 -0.00000000000E+00 -0.00000000000E+00 -0.88087724642E+02  0.88087724642E+02  0.00000000000E+00 0.  1.
         25    2    1    2    0    0 -0.77047318372E+01 -0.56101504414E+01 -0.68610349265E+00  0.12545385334E+03  0.12508941562E+03 0.  0.
          5    1    3    3  502    0  0.40400626407E+02  0.26937818977E+02  0.32356580070E+02  0.58500234009E+02  0.41800000000E+01 0. -1.
         -5    1    3    3    0  502 -0.48105358244E+02 -0.32547969419E+02 -0.33042683563E+02  0.66953619335E+02  0.41800000000E+01 0. -1.
        -11    1    1    2    0    0  0.19025816758E+02  0.14569092252E+02 -0.15878283961E+02  0.28746478983E+02  0.00000000000E+00 0.  1.
         11    1    1    2    0    0 -0.11321084921E+02 -0.89589418104E+01  0.16555402403E+02  0.21966131905E+02  0.00000000000E+00 0. -1.
</event>
<event>
 8    1  0.6505836E-009  0.9123627E+02  0.7561462E-02  0.1299885E+00
          1   -1    0    0  501    0  0.00000000000E+00  0.00000000000E+00  0.12499241873E+03  0.12499241873E+03  0.00000000000E+00 0. -1.
         -1   -1    0    0    0  501 -0.00000000000E+00 -0.00000000000E+00 -0.10743578506E+03  0.10743578506E+03  0.00000000000E+00 0.  1.
         25    2    1    2    0    0  0.30611473378E+02  0.73776084035E+01  0.39529202703E+02  0.13496319400E+03  0.12514397492E+03 0.  0.
         23    2    1    2    0    0 -0.30611473378E+02 -0.73776084035E+01 -0.21972569039E+02  0.97465009790E+02  0.89583162118E+02 0.  0.
          5    1    3    3  502    0  0.74179049619E+02 -0.12259117913E+02  0.43267600554E+02  0.86846848142E+02  0.41800000000E+01 0. -1.
         -5    1    3    3    0  502 -0.43567576241E+02  0.19636726316E+02 -0.37383978518E+01  0.48116345855E+02  0.41800000000E+01 0. -1.
        -11    1    4    4    0    0  0.90042316133E+01 -0.16273156335E+02 -0.46464106529E+02  0.50048026930E+02  0.00000000000E+00 0.  1.
         11    1    4    4    0    0 -0.39615704992E+02  0.88955479317E+01  0.24491537489E+02  0.47416982860E+02  0.00000000000E+00 0. -1.
</event>
<event>
 8    1  0.6505836E-009  0.1039935E+03  0.7561462E-02  0.1272115E+00
         -1   -1    0    0    0  501 -0.00000000000E+00  0.00000000000E+00  0.52461775874E+02  0.52461775874E+02  0.00000000000E+00 0.  1.
          1   -1    0    0  501    0  0.00000000000E+00 -0.00000000000E+00 -0.27078259405E+03  0.27078259405E+03  0.00000000000E+00 0. -1.
         25    2    1    2    0    0  0.12531410770E+00 -0.27099560703E+02 -0.10167897225E+03  0.16346868592E+03  0.12509594711E+03 0.  0.
         23    2    1    2    0    0 -0.12531410770E+00  0.27099560703E+02 -0.11664184592E+03  0.15977568401E+03  0.10577592867E+03 0.  0.
          5    1    3    3  502    0 -0.19897136807E+02  0.44673704779E+02 -0.20484332888E+02  0.53185677072E+02  0.41800000000E+01 0.  1.
         -5    1    3    3    0  502  0.20022450915E+02 -0.71773265481E+02 -0.81194639363E+02  0.11028300884E+03  0.41800000000E+01 0.  1.
        -11    1    4    4    0    0 -0.38695147355E+02  0.30392019720E+01 -0.48770109055E+01  0.39119514476E+02  0.00000000000E+00 0.  1.
         11    1    4    4    0    0  0.38569833247E+02  0.24060358731E+02 -0.11176483502E+03  0.12065616953E+03  0.00000000000E+00 0. -1.
</event>
<event>
 8    1  0.6505836E-009  0.1619832E+03  0.7561462E-02  0.1186476E+00
         -2   -1    0    0    0  501 -0.00000000000E+00  0.00000000000E+00  0.92832378756E+03  0.92832378756E+03  0.00000000000E+00 0.  1.
          2   -1    0    0  501    0  0.00000000000E+00 -0.00000000000E+00 -0.31644804039E+02  0.31644804039E+02  0.00000000000E+00 0. -1.
         25    2    1    2    0    0 -0.12792979874E+03  0.18845579013E+02  0.39756009701E+03  0.43637350891E+03  0.12508644728E+03 0.  0.
         23    2    1    2    0    0  0.12792979874E+03 -0.18845579013E+02  0.49911888652E+03  0.52359508269E+03  0.91164458457E+02 0.  0.
          5    1    3    3  502    0 -0.20498776516E+02  0.55632808868E+02  0.84345896621E+02  0.10318387441E+03  0.41800000000E+01 0.  1.
         -5    1    3    3    0  502 -0.10743102222E+03 -0.36787229855E+02  0.31321420038E+03  0.33318963450E+03  0.41800000000E+01 0.  1.
        -11    1    4    4    0    0  0.60791712979E+02 -0.48241075616E+02  0.33471805888E+03  0.34359716629E+03  0.00000000000E+00 0.  1.
         11    1    4    4    0    0  0.67138085760E+02  0.29395496603E+02  0.16440082764E+03  0.17999791640E+03  0.00000000000E+00 0. -1.
</event>
<event>
 8    1  0.6505836E-009  0.1714733E+03  0.7561462E-02  0.1176320E+00
         -2   -1    0    0    0  501 -0.00000000000E+00  0.00000000000E+00  0.31361438518E+02  0.31361438518E+02  0.00000000000E+00 0.  1.
          2   -1    0    0  501    0  0.00000000000E+00 -0.00000000000E+00 -0.95255836667E+03  0.95255836667E+03  0.00000000000E+00 0. -1.
         25    2    1    2    0    0  0.12546645889E+03 -0.41331249292E+02 -0.51634417767E+03  0.54745709399E+03  0.12509138849E+03 0.  0.
         23    2    1    2    0    0 -0.12546645889E+03  0.41331249292E+02 -0.40485275049E+03  0.43646271120E+03  0.95623450151E+02 0.  0.
          5    1    3    3  502    0  0.14538430915E+03 -0.11709095354E+02 -0.42038144511E+03  0.44498509194E+03  0.41800000000E+01 0. -1.
         -5    1    3    3    0  502 -0.19917850261E+02 -0.29622153938E+02 -0.95962732561E+02  0.10247200205E+03  0.41800000000E+01 0. -1.
        -11    1    4    4    0    0 -0.14033930521E+03  0.33495575004E+02 -0.33755940021E+03  0.36710137946E+03  0.00000000000E+00 0.  1.
         11    1    4    4    0    0  0.14872846324E+02  0.78356742880E+01 -0.67293350277E+02  0.69361331741E+02  0.00000000000E+00 0. -1.
</event>
<event>
 8    1  0.6505836E-009  0.1488178E+03  0.7561462E-02  0.1201933E+00
         -3   -1    0    0    0  501 -0.00000000000E+00  0.00000000000E+00  0.74451168512E+02  0.74451168512E+02  0.00000000000E+00 0.  1.
          3   -1    0    0  501    0  0.00000000000E+00 -0.00000000000E+00 -0.38083824839E+03  0.38083824839E+03  0.00000000000E+00 0. -1.
         25    2    1    2    0    0  0.11843071426E+03 -0.21275148618E+02 -0.22265300245E+03  0.28231230826E+03  0.12508962332E+03 0.  0.
         23    2    1    2    0    0 -0.11843071426E+03  0.21275148618E+02 -0.83734077422E+02  0.17297710864E+03  0.91821666087E+02 0.  0.
          5    1    3    3  502    0  0.10067513908E+03  0.20821856197E+02 -0.21134526960E+03  0.23506026612E+03  0.41800000000E+01 0.  1.
         -5    1    3    3    0  502  0.17755575180E+02 -0.42097004816E+02 -0.11307732856E+02  0.47252042144E+02  0.41800000000E+01 0.  1.
        -11    1    4    4    0    0 -0.12836845208E+03  0.33994652783E+01 -0.82195923715E+02  0.15246699882E+03  0.00000000000E+00 0. -1.
         11    1    4    4    0    0  0.99377378232E+01  0.17875683340E+02 -0.15381537066E+01  0.20510109818E+02  0.00000000000E+00 0.  1.
</event>
<event>
 8    1  0.6505836E-009  0.1012622E+03  0.7561462E-02  0.1277664E+00
         -1   -1    0    0    0  501 -0.00000000000E+00  0.00000000000E+00  0.13546282069E+03  0.13546282069E+03  0.00000000000E+00 0.  1.
          1   -1    0    0  501    0  0.00000000000E+00 -0.00000000000E+00 -0.93215707747E+02  0.93215707747E+02  0.00000000000E+00 0. -1.
         25    2    1    2    0    0 -0.18574121009E+01 -0.43880457040E+01 -0.52381706861E+01  0.12528678383E+03  0.12508650944E+03 0.  0.
         23    2    1    2    0    0  0.18574121009E+01  0.43880457040E+01  0.47485283629E+02  0.10339174461E+03  0.91718568278E+02 0.  0.
          5    1    3    3  502    0 -0.30282195477E+02  0.45564544575E+02 -0.30035987635E+02  0.62552154547E+02  0.41800000000E+01 0.  1.
         -5    1    3    3    0  502  0.28424783376E+02 -0.49952590279E+02  0.24797816949E+02  0.62734629281E+02  0.41800000000E+01 0.  1.
        -11    1    4    4    0    0 -0.39200979419E+02  0.22449789142E+02  0.34043025836E+02  0.56565337690E+02  0.00000000000E+00 0. -1.
         11    1    4    4    0    0  0.41058391520E+02 -0.18061743438E+02  0.13442257793E+02  0.46826406917E+02  0.00000000000E+00 0.  1.
</event>
<event>
 7    1  0.6505836E-009  0.1124298E+03  0.7561462E-02  0.1256135E+00
         -2   -1    0    0    0  501 -0.00000000000E+00  0.00000000000E+00  0.58016292070E+02  0.58016292070E+02  0.00000000000E+00 0.  1.
          2   -1    0    0  501    0  0.00000000000E+00 -0.00000000000E+00 -0.38893677932E+03  0.38893677932E+03  0.00000000000E+00 0. -1.
         23    2    1    2    0    0  0.30592052263E+02  0.96170962049E+02 -0.21015772260E+03  0.24595564981E+03  0.78378477294E+02 0.  0.
          5    1    1    2  502    0 -0.94809344688E+01 -0.10051962072E+03 -0.26858690742E+02  0.10456071890E+03  0.41800000000E+01 0.  1.
         -5    1    1    2    0  502 -0.21111117794E+02  0.43486586727E+01 -0.93904073906E+02  0.96436702675E+02  0.41800000000E+01 0.  1.
        -11    1    3    3    0    0  0.12673999252E+02  0.61845134367E+02 -0.19397396437E+03  0.20398860202E+03  0.00000000000E+00 0. -1.
         11    1    3    3    0    0  0.17918053010E+02  0.34325827683E+02 -0.16183758232E+02  0.41967047791E+02  0.00000000000E+00 0.  1.
</event>
<event>
 8    1  0.6505836E-009  0.1348666E+03  0.7561462E-02  0.1220408E+00
          1   -1    0    0  501    0  0.00000000000E+00  0.00000000000E+00  0.84402199917E+02  0.84402199917E+02  0.00000000000E+00 0. -1.
         -1   -1    0    0    0  501 -0.00000000000E+00 -0.00000000000E+00 -0.29190635154E+03  0.29190635154E+03  0.00000000000E+00 0.  1.
         25    2    1    2    0    0  0.59856982300E+02 -0.92567760767E+02 -0.14223158834E+03  0.21915461869E+03  0.12508906229E+03 0.  0.
         23    2    1    2    0    0 -0.59856982300E+02  0.92567760767E+02 -0.65272563275E+02  0.15715393277E+03  0.91023087204E+02 0.  0.
          5    1    3    3  502    0  0.59800979352E+02 -0.23596936086E+02 -0.13511958802E+03  0.14969217745E+03  0.41800000000E+01 0. -1.
         -5    1    3    3    0  502  0.56002948218E-01 -0.68970824681E+02 -0.71120003248E+01  0.69462441234E+02  0.41800000000E+01 0. -1.
        -11    1    4    4    0    0 -0.21275985395E+02 -0.12228177853E+02  0.52268102310E+01  0.25090146140E+02  0.00000000000E+00 0. -1.
         11    1    4    4    0    0 -0.38580996905E+02  0.10479593862E+03 -0.70499373506E+02  0.13206378663E+03  0.00000000000E+00 0.  1.
</event>
<event>
 8    1  0.6505836E-009  0.1712849E+03  0.7561462E-02  0.1176514E+00
         -1   -1    0    0    0  501 -0.00000000000E+00  0.00000000000E+00  0.12203905858E+04  0.12203905858E+04  0.00000000000E+00 0.  1.
          1   -1    0    0  501    0  0.00000000000E+00 -0.00000000000E+00 -0.37754761684E+02  0.37754761684E+02  0.00000000000E+00 0. -1.
         25    2    1    2    0    0 -0.16259408488E+02  0.15277146789E+03  0.91373474557E+03  0.93496608625E+03  0.12508759896E+03 0.  0.
         23    2    1    2    0    0  0.16259408488E+02 -0.15277146789E+03  0.26890107851E+03  0.32317926119E+03  0.92377243290E+02 0.  0.
          5    1    3    3  502    0  0.39776030058E+02  0.11338043658E+03  0.70672578914E+03  0.71687939669E+03  0.41800000000E+01 0. -1.
         -5    1    3    3    0  502 -0.56035438546E+02  0.39391031314E+02  0.20700895643E+03  0.21808668956E+03  0.41800000000E+01 0. -1.
        -11    1    4    4    0    0  0.15725315607E+02 -0.13089935956E+03  0.13950588006E+03  0.19194743670E+03  0.00000000000E+00 0. -1.
         11    1    4    4    0    0  0.53409288093E+00 -0.21872108325E+02  0.12939519845E+03  0.13123182449E+03  0.00000000000E+00 0.  1.
</event>
<event>
 8    1  0.6505836E-009  0.1171888E+03  0.7561462E-02  0.1247808E+00
          3   -1    0    0  501    0  0.00000000000E+00  0.00000000000E+00  0.63802436394E+02  0.63802436394E+02  0.00000000000E+00 0. -1.
         -3   -1    0    0    0  501 -0.00000000000E+00 -0.00000000000E+00 -0.35942203138E+03  0.35942203138E+03  0.00000000000E+00 0.  1.
         25    2    1    2    0    0  0.88318282639E+02  0.49487347701E+02 -0.12578007513E+03  0.20424757192E+03  0.12508927494E+03 0.  0.
         23    2    1    2    0    0 -0.88318282639E+02 -0.49487347701E+02 -0.16983951986E+03  0.21897689586E+03  0.94107926244E+02 0.  0.
          5    1    3    3  502    0  0.48798788640E+02  0.42288928316E+01  0.14774567123E+02  0.51331915423E+02  0.41800000000E+01 0. -1.
         -5    1    3    3    0  502  0.39519493999E+02  0.45258454870E+02 -0.14055464225E+03  0.15291565649E+03  0.41800000000E+01 0. -1.
        -11    1    4    4    0    0 -0.80217385431E+02 -0.56580001155E+01 -0.14998458221E+03  0.17018289219E+03  0.00000000000E+00 0.  1.
         11    1    4    4    0    0 -0.81008972082E+01 -0.43829347586E+02 -0.19854937647E+02  0.48794003672E+02  0.00000000000E+00 0. -1.
</event>
<event>
 8    1  0.6505836E-009  0.1031580E+03  0.7561462E-02  0.1273792E+00
          3   -1    0    0  501    0  0.00000000000E+00  0.00000000000E+00  0.90922069463E+02  0.90922069463E+02  0.00000000000E+00 0. -1.
         -3   -1    0    0    0  501 -0.00000000000E+00 -0.00000000000E+00 -0.25835683767E+03  0.25835683767E+03  0.00000000000E+00 0.  1.
         25    2    1    2    0    0 -0.49772008978E+02  0.38694451455E+02  0.97532994792E+01  0.14042769314E+03  0.12510114588E+03 0.  0.
         23    2    1    2    0    0  0.49772008978E+02 -0.38694451455E+02 -0.17718806768E+03  0.20885121399E+03  0.90822380517E+02 0.  0.
          5    1    3    3  502    0  0.17543420439E+02 -0.27557021109E+02 -0.23225158164E+02  0.40299396829E+02  0.41800000000E+01 0. -1.
         -5    1    3    3    0  502 -0.67315429417E+02  0.66251472564E+02  0.32978457643E+02  0.10012829632E+03  0.41800000000E+01 0. -1.
        -11    1    4    4    0    0  0.47435277940E+02 -0.80573767111E+01 -0.26234220683E+02  0.54802018645E+02  0.00000000000E+00 0. -1.
         11    1    4    4    0    0  0.23367310374E+01 -0.30637074744E+02 -0.15095384700E+03  0.15404919534E+03  0.00000000000E+00 0.  1.
</event>
<event>
 8    1  0.6505836E-009  0.2314635E+03  0.7561462E-02  0.1125614E+00
          1   -1    0    0  501    0  0.00000000000E+00  0.00000000000E+00  0.73118106629E+03  0.73118106629E+03  0.00000000000E+00 0.  1.
         -1   -1    0    0    0  501 -0.00000000000E+00 -0.00000000000E+00 -0.82995880953E+02  0.82995880953E+02  0.00000000000E+00 0. -1.
         25    2    1    2    0    0  0.31765441724E+02 -0.20986648623E+03  0.43078078059E+03  0.49625849666E+03  0.12508968483E+03 0.  0.
         23    2    1    2    0    0 -0.31765441724E+02  0.20986648623E+03  0.21740440475E+03  0.31791845059E+03  0.93565381891E+02 0.  0.
          5    1    3    3  502    0 -0.63596056662E+01  0.14209484312E+02  0.13314827761E+02  0.20907201318E+02  0.41800000000E+01 0. -1.
         -5    1    3    3    0  502  0.38125047391E+02 -0.22407597054E+03  0.41746595283E+03  0.47535129534E+03  0.41800000000E+01 0. -1.
        -11    1    4    4    0    0  0.69426316721E+01  0.13512333054E+03  0.18156612593E+03  0.22643491930E+03  0.00000000000E+00 0.  1.
         11    1    4    4    0    0 -0.38708073397E+02  0.74743155692E+02  0.35838278818E+02  0.91483531291E+02  0.00000000000E+00 0. -1.
</event>
<event>
 8    1  0.6505836E-009  0.1439186E+03  0.7561462E-02  0.1208151E+00
         -1   -1    0    0    0  501 -0.00000000000E+00  0.00000000000E+00  0.12586853518E+03  0.12586853518E+03  0.00000000000E+00 0.  1.
          1   -1    0    0  501    0  0.00000000000E+00 -0.00000000000E+00 -0.24941580341E+03  0.24941580341E+03  0.00000000000E+00 0. -1.
         25    2    1    2    0    0 -0.44357675291E+02  0.10230144544E+03 -0.15492667028E+03  0.22821662668E+03  0.12508943373E+03 0.  0.
         23    2    1    2    0    0  0.44357675291E+02 -0.10230144544E+03  0.31379402046E+02  0.14706771192E+03  0.90614876919E+02 0.  0.
          5    1    3    3  502    0 -0.78504435220E+02  0.38813901138E+02 -0.50263586893E+02  0.10106119848E+03  0.41800000000E+01 0. -1.
         -5    1    3    3    0  502  0.34146759928E+02  0.63487544304E+02 -0.10466308339E+03  0.12715542820E+03  0.41800000000E+01 0. -1.
        -11    1    4    4    0    0 -0.43276853504E+01 -0.68611136551E+02  0.49995323246E+02  0.85004407331E+02  0.00000000000E+00 0.  1.
         11    1    4    4    0    0  0.48685360642E+02 -0.33690308891E+02 -0.18615921200E+02  0.62063304586E+02  0.00000000000E+00 0. -1.
</event>
<event>
 8    1  0.6505836E-009  0.2211631E+03  0.7561462E-02  0.1133019E+00
         -3   -1    0    0    0  501 -0.00000000000E+00  0.00000000000E+00  0.12337855700E+03  0.12337855700E+03  0.00000000000E+00 0.  1.
          3   -1    0    0  501    0  0.00000000000E+00 -0.00000000000E+00 -0.41182593088E+03  0.41182593088E+03  0.00000000000E+00 0. -1.
         25    2    1    2    0    0 -0.19276068350E+03 -0.39039249636E+02 -0.14460225259E+03  0.27429524531E+03  0.12508927225E+03 0.  0.
         23    2    1    2    0    0  0.19276068350E+03  0.39039249636E+02 -0.14384512130E+03  0.26090924257E+03  0.93281669258E+02 0.  0.
          5    1    3    3  502    0 -0.13107010358E+03  0.35814731100E+02 -0.87290317477E+02  0.16155227929E+03  0.41800000000E+01 0.  1.
         -5    1    3    3    0  502 -0.61690579918E+02 -0.74853980736E+02 -0.57311935108E+02  0.11274296603E+03  0.41800000000E+01 0.  1.
        -11    1    4    4    0    0  0.89188258558E+02 -0.18104161260E+02 -0.27695124213E+02  0.95127945551E+02  0.00000000000E+00 0.  1.
         11    1    4    4    0    0  0.10357242494E+03  0.57143410896E+02 -0.11614999708E+03  0.16578129702E+03  0.00000000000E+00 0. -1.
</event>
<event>
 8    1  0.6505836E-009  0.1131645E+03  0.7561462E-02  0.1254819E+00
         -3   -1    0    0    0  501 -0.00000000000E+00  0.00000000000E+00  0.68576356529E+03  0.68576356529E+03  0.00000000000E+00 0.  1.
          3   -1    0    0  501    0  0.00000000000E+00 -0.00000000000E+00 -0.21621909247E+02  0.21621909247E+02  0.00000000000E+00 0. -1.
         25    2    1    2    0    0  0.54693039842E+02  0.10344257527E+02  0.36850080338E+03  0.39311352098E+03  0.12508823293E+03 0.  0.
         23    2    1    2    0    0 -0.54693039842E+02 -0.10344257527E+02  0.29564085267E+03  0.31427195356E+03  0.90912126559E+02 0.  0.
          5    1    3    3  502    0 -0.18171431781E+02  0.49756271086E+02  0.16550322721E+03  0.17382369822E+03  0.41800000000E+01 0. -1.
         -5    1    3    3    0  502  0.72864471623E+02 -0.39412013559E+02  0.20299757616E+03  0.21928982276E+03  0.41800000000E+01 0. -1.
        -11    1    4    4    0    0 -0.57204818004E+02 -0.33942252619E+02  0.27464785166E+03  0.28258788038E+03  0.00000000000E+00 0.  1.
         11    1    4    4    0    0  0.25117781621E+01  0.23597995092E+02  0.20993001010E+02  0.31684073180E+02  0.00000000000E+00 0. -1.
</event>
<event>
 8    1  0.6505836E-009  0.2160537E+03  0.7561462E-02  0.1136860E+00
          2   -1    0    0  501    0  0.00000000000E+00  0.00000000000E+00  0.12374549896E+03  0.12374549896E+03  0.00000000000E+00 0. -1.
         -2   -1    0    0    0  501 -0.00000000000E+00 -0.00000000000E+00 -0.45329833757E+03  0.45329833757E+03  0.00000000000E+00 0.  1.
         25    2    1    2    0    0 -0.18403541027E+03  0.67858301804E+02 -0.26337183417E+03  0.35140736118E+03  0.12509448070E+03 0.  0.
         23    2    1    2    0    0  0.18403541027E+03 -0.67858301804E+02 -0.66181004451E+02  0.22563647535E+03  0.89766988942E+02 0.  0.
          5    1    3    3  502    0 -0.17176462377E+03  0.99345610373E+02 -0.22872156348E+03  0.30282612549E+03  0.41800000000E+01 0. -1.
         -5    1    3    3    0  502 -0.12270786499E+02 -0.31487308570E+02 -0.34650270688E+02  0.48581235688E+02  0.41800000000E+01 0. -1.
        -11    1    4    4    0    0  0.46310467022E+02 -0.59586491294E+00  0.19258871894E+02  0.50158932978E+02  0.00000000000E+00 0. -1.
         11    1    4    4    0    0  0.13772494324E+03 -0.67262436891E+02 -0.85439876344E+02  0.17547754237E+03  0.00000000000E+00 0.  1.
</event>
<event>
 8    1  0.6505836E-009  0.1197873E+03  0.7561462E-02  0.1243448E+00
         -4   -1    0    0    0  501 -0.00000000000E+00  0.00000000000E+00  0.19110503601E+03  0.19110503601E+03  0.00000000000E+00 0.  1.
          4   -1    0    0  501    0  0.00000000000E+00 -0.00000000000E+00 -0.14252157930E+03  0.14252157930E+03  0.00000000000E+00 0. -1.
         25    2    1    2    0    0  0.51135294481E+02 -0.98269970356E+02 -0.31060389331E+02  0.16995611469E+03  0.12509407547E+03 0.  0.
         23    2    1    2    0    0 -0.51135294481E+02  0.98269970356E+02  0.79643846043E+02  0.16367050062E+03  0.90405116807E+02 0.  0.
          5    1    3    3  502    0  0.13887150088E+02 -0.86847721146E+02 -0.71664835395E+02  0.11352841335E+03  0.41800000000E+01 0.  1.
         -5    1    3    3    0  502  0.37248144393E+02 -0.11422249210E+02  0.40604446064E+02  0.56427701335E+02  0.41800000000E+01 0.  1.
        -11    1    4    4    0    0 -0.25595147762E+02  0.68447347832E+02  0.96410814263E+02  0.12097601465E+03  0.00000000000E+00 0.  1.
         11    1    4    4    0    0 -0.25540146719E+02  0.29822622524E+02 -0.16766968221E+02  0.42694485967E+02  0.00000000000E+00 0. -1.
</event>
<event>
 8    1  0.6505836E-009  0.1325766E+03  0.7561462E-02  0.1223682E+00
          1   -1    0    0  501    0  0.00000000000E+00  0.00000000000E+00  0.93718517049E+02  0.93718517049E+02  0.00000000000E+00 0. -1.
         -1   -1    0    0    0  501 -0.00000000000E+00 -0.00000000000E+00 -0.28037225889E+03  0.28037225889E+03  0.00000000000E+00 0.  1.
         25    2    1    2    0    0 -0.60176991087E+02 -0.30243043408E+02 -0.20443774105E+03  0.24895321965E+03  0.12508798374E+03 0.  0.
         23    2    1    2    0    0  0.60176991087E+02  0.30243043408E+02  0.17783999208E+02  0.12513755629E+03  0.10395780604E+03 0.  0.
          5    1    3    3  502    0 -0.89139970758E+02  0.12645050939E+02 -0.13155877139E+03  0.15947104574E+03  0.41800000000E+01 0. -1.
         -5    1    3    3    0  502  0.28962979670E+02 -0.42888094348E+02 -0.72878969657E+02  0.89482173903E+02  0.41800000000E+01 0. -1.
        -11    1    4    4    0    0 -0.28710230134E+02  0.16633004042E+02  0.11011282929E+02  0.34959726680E+02  0.00000000000E+00 0. -1.
         11    1    4    4    0    0  0.88887221221E+02  0.13610039367E+02  0.67727162792E+01  0.90177829614E+02  0.00000000000E+00 0.  1.
</event>
<event>
 8    1  0.6505836E-009  0.3653667E+03  0.7561462E-02  0.1056479E+00
         -1   -1    0    0    0  501 -0.00000000000E+00  0.00000000000E+00  0.29816341256E+03  0.29816341256E+03  0.00000000000E+00 0.  1.
          1   -1    0    0  501    0  0.00000000000E+00 -0.00000000000E+00 -0.45988853734E+03  0.45988853734E+03  0.00000000000E+00 0. -1.
         25    2    1    2    0    0 -0.23199188155E+03 -0.26733566960E+03 -0.76340086523E+02  0.38309765596E+03  0.12508961526E+03 0.  0.
         23    2    1    2    0    0  0.23199188155E+03  0.26733566960E+03 -0.85385038263E+02  0.37495429394E+03  0.89507119476E+02 0.  0.
          5    1    3    3  502    0 -0.54742681371E+02 -0.12327455910E+01 -0.27753757901E+01  0.54985961265E+02  0.41800000000E+01 0. -1.
         -5    1    3    3    0  502 -0.17724920018E+03 -0.26610292401E+03 -0.73564710733E+02  0.32811169469E+03  0.41800000000E+01 0. -1.
        -11    1    4    4    0    0  0.17688273529E+03  0.22693489039E+03 -0.34564651828E+02  0.28979589659E+03  0.00000000000E+00 0.  1.
         11    1    4    4    0    0  0.55109146262E+02  0.40400779205E+02 -0.50820386435E+02  0.85158397352E+02  0.00000000000E+00 0. -1.
</event>
<event>
 8    1  0.6505836E-009  0.1214294E+03  0.7561462E-02  0.1240758E+00
          2   -1    0    0  501    0  0.00000000000E+00  0.00000000000E+00  0.60969465213E+03  0.60969465213E+03  0.00000000000E+00 0.  1.
         -2   -1    0    0    0  501 -0.00000000000E+00 -0.00000000000E+00 -0.36353582898E+02  0.36353582898E+02  0.00000000000E+00 0. -1.
         25    2    1    2    0    0 -0.59809615878E+02  0.79963800707E+02  0.35055922622E+03  0.38536968110E+03  0.12508645190E+03 0.  0.
         23    2    1    2    0    0  0.59809615878E+02 -0.79963800707E+02  0.22278184301E+03  0.26067855393E+03  0.91379206210E+02 0.  0.
          5    1    3    3  502    0 -0.62802415175E+02  0.59611414609E+02  0.93688851963E+02  0.12764300798E+03  0.41800000000E+01 0. -1.
         -5    1    3    3    0  502  0.29927992967E+01  0.20352386099E+02  0.25687037426E+03  0.25772667312E+03  0.41800000000E+01 0. -1.
        -11    1    4    4    0    0 -0.86623077337E+01 -0.64372344351E+02  0.10034408630E+03  0.11953146008E+03  0.00000000000E+00 0.  1.
         11    1    4    4    0    0  0.68471923612E+02 -0.15591456356E+02  0.12243775671E+03  0.14114709385E+03  0.00000000000E+00 0. -1.
</event>
<event>
 8    1  0.6505836E-009  0.3681883E+03  0.7561462E-02  0.1055388E+00
          4   -1    0    0  501    0  0.00000000000E+00  0.00000000000E+00  0.54414847081E+03  0.54414847081E+03  0.00000000000E+00 0. -1.
         -4   -1    0    0    0  501 -0.00000000000E+00 -0.00000000000E+00 -0.43451259142E+03  0.43451259142E+03  0.00000000000E+00 0.  1.
         25    2    1    2    0    0  0.30452758876E+03  0.20661734624E+03 -0.24668925122E+03  0.46036020645E+03  0.12509257745E+03 0.  0.
         23    2    1    2    0    0 -0.30452758876E+03 -0.20661734624E+03  0.35632513061E+03  0.51830085578E+03  0.78996191750E+02 0.  0.
          5    1    3    3  502    0  0.22348561396E+03  0.14567895971E+03 -0.10645980577E+03  0.28726179974E+03  0.41800000000E+01 0. -1.
         -5    1    3    3    0  502  0.81041974805E+02  0.60938386529E+02 -0.14022944545E+03  0.17309840671E+03  0.41800000000E+01 0. -1.
        -11    1    4    4    0    0 -0.11966855822E+03 -0.76617591195E+02  0.19208954728E+03  0.23893349133E+03  0.00000000000E+00 0. -1.
         11    1    4    4    0    0 -0.18485903054E+03 -0.12999975504E+03  0.16423558333E+03  0.27936736444E+03  0.00000000000E+00 0.  1.
</event>
<event>
 8    1  0.6505836E-009  0.1088515E+03  0.7561462E-02  0.1262712E+00
         -1   -1    0    0    0  501 -0.00000000000E+00  0.00000000000E+00  0.21966118621E+03  0.21966118621E+03  0.00000000000E+00 0.  1.
          1   -1    0    0  501    0  0.00000000000E+00 -0.00000000000E+00 -0.72973663340E+02  0.72973663340E+02  0.00000000000E+00 0. -1.
         25    2    1    2    0    0 -0.22638699710E+02 -0.56159912433E+01  0.14880855808E+03  0.19579421205E+03  0.12508931381E+03 0.  0.
         23    2    1    2    0    0  0.22638699710E+02  0.56159912433E+01 -0.21210352148E+01  0.96840637503E+02  0.93965739498E+02 0.  0.
          5    1    3    3  502    0 -0.17246113937E+02  0.56093000586E+02  0.42120834629E+02  0.72356687808E+02  0.41800000000E+01 0.  1.
         -5    1    3    3    0  502 -0.53925857733E+01 -0.61708991829E+02  0.10668772346E+03  0.12343752424E+03  0.41800000000E+01 0.  1.
        -11    1    4    4    0    0 -0.35939647595E+02 -0.75996708567E+01 -0.20214679112E+01  0.36789938827E+02  0.00000000000E+00 0. -1.
         11    1    4    4    0    0  0.58578347306E+02  0.13215662100E+02 -0.99567303603E-01  0.60050698676E+02  0.00000000000E+00 0.  1.
</event>
<event>
 8    1  0.6505836E-009  0.1108288E+03  0.7561462E-02  0.1259043E+00
         -1   -1    0    0    0  501 -0.00000000000E+00  0.00000000000E+00  0.22367786115E+02  0.22367786115E+02  0.00000000000E+00 0.  1.
          1   -1    0    0  501    0  0.00000000000E+00 -0.00000000000E+00 -0.11413409894E+04  0.11413409894E+04  0.00000000000E+00 0. -1.
         25    2    1    2    0    0 -0.58084917320E+02  0.35350187943E+02 -0.96620908143E+03  0.97664271761E+03  0.12509002918E+03 0.  0.
         23    2    1    2    0    0  0.58084917320E+02 -0.35350187943E+02 -0.15276412184E+03  0.18706605789E+03  0.83865008723E+02 0.  0.
          5    1    3    3  502    0 -0.90744300391E+02  0.21940642833E+02 -0.47236415267E+03  0.48151976594E+03  0.41800000000E+01 0.  1.
         -5    1    3    3    0  502  0.32659383071E+02  0.13409545110E+02 -0.49384492876E+03  0.49512295167E+03  0.41800000000E+01 0.  1.
        -11    1    4    4    0    0  0.10280424194E+01 -0.35581135101E+02 -0.11041176412E+03  0.11600789500E+03  0.00000000000E+00 0. -1.
         11    1    4    4    0    0  0.57056874900E+02  0.23094715770E+00 -0.42352357720E+02  0.71058162898E+02  0.00000000000E+00 0.  1.
</event>
<event>
 8    1  0.6505836E-009  0.1292901E+03  0.7561462E-02  0.1228513E+00
         -1   -1    0    0    0  501 -0.00000000000E+00  0.00000000000E+00  0.42886185663E+02  0.42886185663E+02  0.00000000000E+00 0.  1.
          1   -1    0    0  501    0  0.00000000000E+00 -0.00000000000E+00 -0.51917183768E+03  0.51917183768E+03  0.00000000000E+00 0. -1.
         25    2    1    2    0    0  0.98437973179E+02  0.79610455641E+00 -0.31234334268E+03  0.35056615534E+03  0.12509035617E+03 0.  0.
         23    2    1    2    0    0 -0.98437973179E+02 -0.79610455641E+00 -0.16394230934E+03  0.21149186800E+03  0.90338591388E+02 0.  0.
          5    1    3    3  502    0  0.48447579677E+02 -0.61595714962E+02 -0.13886495893E+03  0.15950595379E+03  0.41800000000E+01 0.  1.
         -5    1    3    3    0  502  0.49990393501E+02  0.62391819518E+02 -0.17347838375E+03  0.19106020154E+03  0.41800000000E+01 0.  1.
        -11    1    4    4    0    0 -0.59828667257E+02  0.82378955540E+01 -0.22259024276E+02  0.64364559430E+02  0.00000000000E+00 0.  1.
         11    1    4    4    0    0 -0.38609305922E+02 -0.90340001104E+01 -0.14168328506E+03  0.14712730857E+03  0.00000000000E+00 0. -1.
</event>
<event>
 7    1  0.6505836E-009  0.1263574E+03  0.7561462E-02  0.1232963E+00
         -2   -1    0    0    0  501 -0.00000000000E+00  0.00000000000E+00  0.34063497286E+02  0.34063497286E+02  0.00000000000E+00 0. -1.
          2   -1    0    0  501    0  0.00000000000E+00 -0.00000000000E+00 -0.58623825722E+03  0.58623825722E+03  0.00000000000E+00 0.  1.
         25    2    1    2    0    0  0.89723162528E+02 -0.55007900965E+02 -0.26213057156E+03  0.30892731578E+03  0.12509010683E+03 0.  0.
          5    1    3    3  502    0  0.44219840973E+02  0.23112183097E+02 -0.17958434322E+03  0.18643383832E+03  0.41800000000E+01 0.  1.
         -5    1    3    3    0  502  0.45503321555E+02 -0.78120084062E+02 -0.82546228344E+02  0.12249347746E+03  0.41800000000E+01 0.  1.
        -11    1    1    2    0    0 -0.62634393552E+02  0.15992019459E+02 -0.18835713297E+03  0.19914120991E+03  0.00000000000E+00 0. -1.
         11    1    1    2    0    0 -0.27088768976E+02  0.39015881507E+02 -0.10168705540E+03  0.11223322881E+03  0.00000000000E+00 0.  1.
</event>
<event>
 8    1  0.6505836E-009  0.1029307E+03  0.7561462E-02  0.1274251E+00
          1   -1    0    0  501    0  0.00000000000E+00  0.00000000000E+00  0.18774646923E+03  0.18774646923E+03  0.00000000000E+00 0. -1.
         -1   -1    0    0    0  501 -0.00000000000E+00 -0.00000000000E+00 -0.11155576203E+03  0.11155576203E+03  0.00000000000E+00 0.  1.
         25    2    1    2    0    0 -0.44801302760E+02  0.59008218252E+02 -0.23407628044E+02  0.14726128034E+03  0.12509532800E+03 0.  0.
         23    2    1    2    0    0  0.44801302760E+02 -0.59008218252E+02  0.99598335244E+02  0.15204095092E+03  0.87792344907E+02 0.  0.
          5    1    3    3  502    0 -0.34150821148E+01  0.83380472501E+02 -0.44467862813E+02  0.94651091930E+02  0.41800000000E+01 0.  1.
         -5    1    3    3    0  502 -0.41386220645E+02 -0.24372254249E+02  0.21060234770E+02  0.52610188415E+02  0.41800000000E+01 0.  1.
        -11    1    4    4    0    0  0.28969032323E+02 -0.38944637956E+02  0.11314377627E+03  0.12311540833E+03  0.00000000000E+00 0. -1.
         11    1    4    4    0    0  0.15832270437E+02 -0.20063580296E+02 -0.13545441031E+02  0.28925542591E+02  0.00000000000E+00 0.  1.
</event>
<event>
 8    1  0.6505836E-009  0.1145397E+03  0.7561462E-02  0.1252387E+00
         -1   -1    0    0    0  501 -0.00000000000E+00  0.00000000000E+00  0.77956158343E+03  0.77956158343E+03  0.00000000000E+00 0.  1.
          1   -1    0    0  501    0  0.00000000000E+00 -0.00000000000E+00 -0.23883716644E+02  0.23883716644E+02  0.00000000000E+00 0. -1.
         25    2    1    2    0    0 -0.46976009633E+02  0.51820842602E+02  0.28472462433E+03  0.31875869107E+03  0.12508735436E+03 0.  0.
         23    2    1    2    0    0  0.46976009633E+02 -0.51820842602E+02  0.47095324246E+03  0.48468660901E+03  0.90730409264E+02 0.  0.
          5    1    3    3  502    0 -0.69001623581E+02  0.13418349107E+02  0.69323282516E+02  0.98815312823E+02  0.41800000000E+01 0.  1.
         -5    1    3    3    0  502  0.22025613948E+02  0.38402493496E+02  0.21540134182E+03  0.21994337824E+03  0.41800000000E+01 0.  1.
        -11    1    4    4    0    0  0.35780126754E+02 -0.77948492223E+02  0.33618327992E+03  0.34695155658E+03  0.00000000000E+00 0.  1.
         11    1    4    4    0    0  0.11195882880E+02  0.26127649621E+02  0.13476996253E+03  0.13773505243E+03  0.00000000000E+00 0. -1.
</event>
<event>
 8    1  0.6505836E-009  0.2410595E+03  0.7561462E-02  0.1119089E+00
          1   -1    0    0  501    0  0.00000000000E+00  0.00000000000E+00  0.17455041522E+03  0.17455041522E+03  0.00000000000E+00 0. -1.
         -1   -1    0    0    0  501 -0.00000000000E+00 -0.00000000000E+00 -0.46782882924E+03  0.46782882924E+03  0.00000000000E+00 0.  1.
         25    2    1    2    0    0  0.21575572137E+03 -0.84500623841E+02 -0.13071474367E+02  0.26364262071E+03  0.12508269777E+03 0.  0.
         23    2    1    2    0    0 -0.21575572137E+03  0.84500623841E+02 -0.28020693965E+03  0.37873662376E+03  0.10599346401E+03 0.  0.
          5    1    3    3  502    0  0.90870889381E+02 -0.61491802235E+02  0.51319638505E+02  0.12120205434E+03  0.41800000000E+01 0. -1.
         -5    1    3    3    0  502  0.12488483199E+03 -0.23008821606E+02 -0.64391112872E+02  0.14244056637E+03  0.41800000000E+01 0. -1.
        -11    1    4    4    0    0 -0.13735056125E+03  0.10995618220E+02 -0.10517570961E+03  0.17334361883E+03  0.00000000000E+00 0.  1.
         11    1    4    4    0    0 -0.78405160114E+02  0.73505005621E+02 -0.17503123004E+03  0.20539300493E+03  0.00000000000E+00 0. -1.
</event>
<event>
 8    1  0.6505836E-009  0.1047408E+03  0.7561462E-02  0.1270631E+00
          1   -1    0    0  501    0  0.00000000000E+00  0.00000000000E+00  0.81561728643E+02  0.81561728643E+02  0.00000000000E+00 0. -1.
         -1   -1    0    0    0  501 -0.00000000000E+00 -0.00000000000E+00 -0.26593296219E+03  0.26593296219E+03  0.00000000000E+00 0.  1.
         25    2    1    2    0    0  0.80125940363E+02 -0.50772734861E+02 -0.67489589370E+02  0.17088157875E+03  0.12509049668E+03 0.  0.
         23    2    1    2    0    0 -0.80125940363E+02  0.50772734861E+02 -0.11688164418E+03  0.17661311208E+03  0.92373349453E+02 0.  0.
          5    1    3    3  502    0  0.37151552364E+02 -0.32920265512E+02  0.33210896692E+02  0.59870007379E+02  0.41800000000E+01 0.  1.
         -5    1    3    3    0  502  0.42974387999E+02 -0.17852469349E+02 -0.10070048606E+03  0.11101157137E+03  0.41800000000E+01 0.  1.
        -11    1    4    4    0    0 -0.39891849060E+02 -0.89981167140E+01 -0.91499334624E+02  0.10022202334E+03  0.00000000000E+00 0.  1.
         11    1    4    4    0    0 -0.40234091302E+02  0.59770851575E+02 -0.25382309556E+02  0.76391088743E+02  0.00000000000E+00 0. -1.
</event>
<event>
 8    1  0.6505836E-009  0.1399548E+03  0.7561462E-02  0.1213390E+00
          2   -1    0    0  501    0  0.00000000000E+00  0.00000000000E+00  0.13444481062E+03  0.13444481062E+03  0.00000000000E+00 0. -1.
         -2   -1    0    0    0  501 -0.00000000000E+00 -0.00000000000E+00 -0.19587185855E+03  0.19587185855E+03  0.00000000000E+00 0.  1.
         25    2    1    2    0    0 -0.11778453065E+03  0.26872959240E+02 -0.29504195721E+02  0.17640381654E+03  0.12510978109E+03 0.  0.
         23    2    1    2    0    0  0.11778453065E+03 -0.26872959240E+02 -0.31922852205E+02  0.15391285264E+03  0.89859591121E+02 0.  0.
          5    1    3    3  502    0 -0.56757931102E+02 -0.13112095826E+02 -0.71340266586E+02  0.92197048958E+02  0.41800000000E+01 0.  1.
         -5    1    3    3    0  502 -0.61026599545E+02  0.39985055066E+02  0.41836070865E+02  0.84206767579E+02  0.41800000000E+01 0.  1.
        -11    1    4    4    0    0  0.89704135350E+02  0.21728233134E+02 -0.32284625098E+02  0.97781619089E+02  0.00000000000E+00 0.  1.
         11    1    4    4    0    0  0.28080395297E+02 -0.48601192373E+02  0.36177289294E+00  0.56131233549E+02  0.00000000000E+00 0. -1.
</event>
<event>
 7    1  0.6505836E-009  0.1156423E+03  0.7561462E-02  0.1250464E+00
         -3   -1    0    0    0  501 -0.00000000000E+00  0.00000000000E+00  0.60043532557E+03  0.60043532557E+03  0.00000000000E+00 0.  1.
          3   -1    0    0  501    0  0.00000000000E+00 -0.00000000000E+00 -0.44272318375E+02  0.44272318375E+02  0.00000000000E+00 0. -1.
         23    2    1    2    0    0  0.18587913725E+02 -0.57303128058E+02  0.85967253276E+02  0.15447436949E+03  0.11332609220E+03 0.  0.
          5    1    1    2  502    0  0.43866367089E+02  0.29938965205E+01  0.26959902382E+03  0.27319283963E+03  0.41800000000E+01 0.  1.
         -5    1    1    2    0  502 -0.62454280814E+02  0.54309231537E+02  0.20059673010E+03  0.21704043482E+03  0.41800000000E+01 0.  1.
        -11    1    3    3    0    0  0.42477590558E+02 -0.66282991011E+02  0.98455981188E+02  0.12606094093E+03  0.00000000000E+00 0.  1.
         11    1    3    3    0    0 -0.23889676833E+02  0.89798629529E+01 -0.12488727912E+02  0.28413428563E+02  0.00000000000E+00 0. -1.
</event>
<event>
 8    1  0.6505836E-009  0.9560431E+02  0.7561462E-02  0.1289821E+00
          1   -1    0    0  501    0  0.00000000000E+00  0.00000000000E+00  0.11493917330E+03  0.11493917330E+03  0.00000000000E+00 0. -1.
         -1   -1    0    0    0  501 -0.00000000000E+00 -0.00000000000E+00 -0.12478657663E+03  0.12478657663E+03  0.00000000000E+00 0.  1.
         25    2    1    2    0    0  0.32722346463E+02 -0.23882433730E+02  0.27166730334E+02  0.13426391096E+03  0.12509054301E+03 0.  0.
         23    2    1    2    0    0 -0.32722346463E+02  0.23882433730E+02 -0.37014133668E+02  0.10546183897E+03  0.90061261310E+02 0.  0.
          5    1    3    3  502    0  0.66385859326E+02  0.11677117729E+02  0.45915104075E+02  0.81664598077E+02  0.41800000000E+01 0.  1.
         -5    1    3    3    0  502 -0.33663512863E+02 -0.35559551459E+02 -0.18748373741E+02  0.52599312887E+02  0.41800000000E+01 0.  1.
        -11    1    4    4    0    0 -0.33622712591E+02 -0.14155462331E+02  0.16305046675E+02  0.39958959732E+02  0.00000000000E+00 0. -1.
         11    1    4    4    0    0  0.90036612849E+00  0.38037896061E+02 -0.53319180343E+02  0.65502879237E+02  0.00000000000E+00 0.  1.
</event>
<event>
 8    1  0.6505836E-009  0.1058782E+03  0.7561462E-02  0.1268399E+00
         -1   -1    0    0    0  501 -0.00000000000E+00  0.00000000000E+00  0.48882150651E+02  0.48882150651E+02  0.00000000000E+00 0.  1.
          1   -1    0    0  501    0  0.00000000000E+00 -0.00000000000E+00 -0.50196551204E+03  0.50196551204E+03  0.00000000000E+00 0. -1.
         25    2    1    2    0    0 -0.39405098717E+02  0.17407075182E+02 -0.60395101858E+02  0.14543853610E+03  0.12509608860E+03 0.  0.
         23    2    1    2    0    0  0.39405098717E+02 -0.17407075182E+02 -0.39268825953E+03  0.40540912659E+03  0.91086347371E+02 0.  0.
          5    1    3    3  502    0 -0.32446980431E+02 -0.43084151097E+02 -0.64601005070E+02  0.84260387318E+02  0.41800000000E+01 0.  1.
         -5    1    3    3    0  502 -0.69581182866E+01  0.60491226279E+02  0.42059032126E+01  0.61178148784E+02  0.41800000000E+01 0.  1.
        -11    1    4    4    0    0  0.44524100424E+02  0.26902965109E+02 -0.15289114060E+03  0.16149881091E+03  0.00000000000E+00 0.  1.
         11    1    4    4    0    0 -0.51190017065E+01 -0.44310040291E+02 -0.23979711893E+03  0.24391031568E+03  0.00000000000E+00 0. -1.
</event>
<event>
 8    1  0.6505836E-009  0.1063997E+03  0.7561462E-02  0.1267386E+00
          1   -1    0    0  501    0  0.00000000000E+00  0.00000000000E+00  0.84365634528E+03  0.84365634528E+03  0.00000000000E+00 0. -1.
         -1   -1    0    0    0  501 -0.00000000000E+00 -0.00000000000E+00 -0.19898993461E+02  0.19898993461E+02  0.00000000000E+00 0.  1.
         25    2    1    2    0    0  0.56687668742E+02 -0.39677408606E+02  0.41163054421E+03  0.43574659742E+03  0.12509038212E+03 0.  0.
         23    2    1    2    0    0 -0.56687668742E+02  0.39677408606E+02  0.41212680760E+03  0.42780874131E+03  0.91564321955E+02 0.  0.
          5    1    3    3  502    0  0.49316178973E+02  0.18930031093E+02  0.63913098737E+02  0.83022817200E+02  0.41800000000E+01 0.  1.
         -5    1    3    3    0  502  0.73714897694E+01 -0.58607439699E+02  0.34771744547E+03  0.35272378022E+03  0.41800000000E+01 0.  1.
        -11    1    4    4    0    0 -0.24657331957E+02 -0.20733423890E+02  0.51421687833E+02  0.60679888473E+02  0.00000000000E+00 0.  1.
         11    1    4    4    0    0 -0.32030336785E+02  0.60410832497E+02  0.36070511977E+03  0.36712885284E+03  0.00000000000E+00 0. -1.
</event>
<event>
 8    1  0.6505836E-009  0.1224887E+03  0.7561462E-02  0.1239047E+00
         -1   -1    0    0    0  501 -0.00000000000E+00  0.00000000000E+00  0.49004970097E+02  0.49004970097E+02  0.00000000000E+00 0.  1.
          1   -1    0    0  501    0  0.00000000000E+00 -0.00000000000E+00 -0.56805986415E+03  0.56805986415E+03  0.00000000000E+00 0. -1.
         25    2    1    2    0    0 -0.18273672045E+02 -0.81692564545E+02 -0.10091397546E+03  0.18121769551E+03  0.12509444645E+03 0.  0.
         23    2    1    2    0    0  0.18273672045E+02  0.81692564545E+02 -0.41814091860E+03  0.43584713874E+03  0.90073849412E+02 0.  0.
          5    1    3    3  502    0  0.35674709180E+01  0.18716990968E+02 -0.71700131899E+02  0.74306351774E+02  0.41800000000E+01 0.  1.
         -5    1    3    3    0  502 -0.21841142963E+02 -0.10040955551E+03 -0.29213843556E+02  0.10691134374E+03  0.41800000000E+01 0.  1.
        -11    1    4    4    0    0  0.39908530781E+02  0.90777626531E+02 -0.35016612361E+03  0.36393623401E+03  0.00000000000E+00 0.  1.
         11    1    4    4    0    0 -0.21634858736E+02 -0.90850619868E+01 -0.67974794992E+02  0.71910904723E+02  0.00000000000E+00 0. -1.
</event>
<event>
 8    1  0.6505836E-009  0.1447624E+03  0.7561462E-02  0.1207061E+00
          2   -1    0    0  501    0  0.00000000000E+00  0.00000000000E+00  0.14310876952E+03  0.14310876952E+03  0.00000000000E+00 0.  1.
         -2   -1    0    0    0  501 -0.00000000000E+00 -0.00000000000E+00 -0.23514211193E+03  0.23514211193E+03  0.00000000000E+00 0. -1.
         25    2    1    2    0    0  0.11211409356E+03  0.91221268561E+02 -0.79378409879E+02  0.20697998675E+03  0.12509553609E+03 0.  0.
         23    2    1    2    0    0 -0.11211409356E+03 -0.91221268561E+02 -0.12654932528E+02  0.17127089471E+03  0.91009242633E+02 0.  0.
          5    1    3    3  502    0  0.49931558492E+02  0.41089617250E+02 -0.10465993485E+03  0.12309626941E+03  0.41800000000E+01 0. -1.
         -5    1    3    3    0  502  0.62182535063E+02  0.50131651311E+02  0.25281524973E+02  0.83883717341E+02  0.41800000000E+01 0. -1.
        -11    1    4    4    0    0 -0.14620542128E+02 -0.87040018753E+01  0.31769500243E+02  0.36039159902E+02  0.00000000000E+00 0.  1.
         11    1    4    4    0    0 -0.97493551427E+02 -0.82517266686E+02 -0.44424432771E+02  0.13523173480E+03  0.00000000000E+00 0. -1.
</event>
<event>
 8    1  0.6505836E-009  0.1250998E+03  0.7561462E-02  0.1234913E+00
          3   -1    0    0  501    0  0.00000000000E+00  0.00000000000E+00  0.41587102154E+02  0.41587102154E+02  0.00000000000E+00 0. -1.
         -3   -1    0    0    0  501 -0.00000000000E+00 -0.00000000000E+00 -0.41900577579E+03  0.41900577579E+03  0.00000000000E+00 0.  1.
         25    2    1    2    0    0  0.76434933604E+02  0.42780297403E+01 -0.21529368110E+03  0.26049741639E+03  0.12508770609E+03 0.  0.
         23    2    1    2    0    0 -0.76434933604E+02 -0.42780297403E+01 -0.16212499254E+03  0.20009546155E+03  0.88843007120E+02 0.  0.
          5    1    3    3  502    0 -0.92496939168E+01 -0.40946743434E+02 -0.31363818058E+02  0.52567614731E+02  0.41800000000E+01 0. -1.
         -5    1    3    3    0  502  0.85684627520E+02  0.45224773174E+02 -0.18392986304E+03  0.20792980166E+03  0.41800000000E+01 0. -1.
        -11    1    4    4    0    0  0.14210826490E+02  0.12410334906E+02 -0.58225964745E+02  0.61206429176E+02  0.00000000000E+00 0.  1.
         11    1    4    4    0    0 -0.90645760094E+02 -0.16688364647E+02 -0.10389902780E+03  0.13888903238E+03  0.00000000000E+00 0. -1.
</event>
<event>
 8    1  0.6505836E-009  0.1122009E+03  0.7561462E-02  0.1256548E+00
          1   -1    0    0  501    0  0.00000000000E+00  0.00000000000E+00  0.15947874857E+03  0.15947874857E+03  0.00000000000E+00 0. -1.
         -1   -1    0    0    0  501 -0.00000000000E+00 -0.00000000000E+00 -0.10627303712E+03  0.10627303712E+03  0.00000000000E+00 0.  1.
         25    2    1    2    0    0  0.24771658791E+02  0.62945220300E+02 -0.11668857469E+02  0.14268524794E+03  0.12508869616E+03 0.  0.
         23    2    1    2    0    0 -0.24771658791E+02 -0.62945220300E+02  0.64874568919E+02  0.12306653775E+03  0.79755421028E+02 0.  0.
          5    1    3    3  502    0  0.74107431194E+02  0.54084077229E+02 -0.96587740379E+01  0.92345888288E+02  0.41800000000E+01 0. -1.
         -5    1    3    3    0  502 -0.49335772403E+02  0.88611430711E+01 -0.20100834310E+01  0.50339359655E+02  0.41800000000E+01 0. -1.
        -11    1    4    4    0    0 -0.35481944559E+02 -0.26524371417E+02  0.71906846319E+02  0.84457712592E+02  0.00000000000E+00 0. -1.
         11    1    4    4    0    0  0.10710285768E+02 -0.36420848883E+02 -0.70322773999E+01  0.38608825157E+02  0.00000000000E+00 0.  1.
</event>
<event>
 7    1  0.6505836E-009  0.1421317E+03  0.7561462E-02  0.1210489E+00
          1   -1    0    0  501    0  0.00000000000E+00  0.00000000000E+00  0.51160438659E+03  0.51160438659E+03  0.00000000000E+00 0. -1.
         -1   -1    0    0    0  501 -0.00000000000E+00 -0.00000000000E+00 -0.57410140570E+02  0.57410140570E+02  0.00000000000E+00 0.  1.
         23    2    1    2    0    0  0.70460179066E+02 -0.75146772791E+02  0.34831532898E+03  0.37538142031E+03  0.94741585435E+02 0.  0.
          5    1    1    2  502    0  0.26301403344E+02  0.84061272916E+01 -0.88790662753E+01  0.29304214916E+02  0.41800000000E+01 0.  1.
         -5    1    1    2    0  502 -0.96761582410E+02  0.66740645499E+02  0.11475798332E+03  0.16432889194E+03  0.41800000000E+01 0.  1.
        -11    1    3    3    0    0  0.82714906358E+02 -0.24006528122E+02  0.19132570188E+03  0.20981800048E+03  0.00000000000E+00 0.  1.
         11    1    3    3    0    0 -0.12254727291E+02 -0.51140244668E+02  0.15698962710E+03  0.16556341982E+03  0.00000000000E+00 0. -1.
</event>
<event>
 8    1  0.6505836E-009  0.1767209E+03  0.7561462E-02  0.1171015E+00
         -2   -1    0    0    0  501 -0.00000000000E+00  0.00000000000E+00  0.17975640643E+03  0.17975640643E+03  0.00000000000E+00 0.  1.
          2   -1    0    0  501    0  0.00000000000E+00 -0.00000000000E+00 -0.21140630804E+03  0.21140630804E+03  0.00000000000E+00 0. -1.
         25    2    1    2    0    0  0.15420648511E+03  0.46041997661E+02 -0.30435657899E+02  0.20608791908E+03  0.12508555281E+03 0.  0.
         23    2    1    2    0    0 -0.15420648511E+03 -0.46041997661E+02 -0.12142437117E+01  0.18507479539E+03  0.91387635404E+02 0.  0.
          5    1    3    3  502    0  0.23015819493E+02 -0.22396659013E+02  0.31911297962E+02  0.45465829142E+02  0.41800000000E+01 0. -1.
         -5    1    3    3    0  502  0.13119066561E+03  0.68438656674E+02 -0.62346955861E+02  0.16062208994E+03  0.41800000000E+01 0. -1.
        -11    1    4    4    0    0 -0.26706129254E+02 -0.36424316457E+02 -0.29728243900E+02  0.54071403296E+02  0.00000000000E+00 0. -1.
         11    1    4    4    0    0 -0.12750035585E+03 -0.96176812039E+01  0.28514000188E+02  0.13100339210E+03  0.00000000000E+00 0.  1.
</event>
<event>
 8    1  0.6505836E-009  0.6337096E+02  0.7561462E-02  0.1384206E+00
          2   -1    0    0  501    0  0.00000000000E+00  0.00000000000E+00  0.30332351856E+03  0.30332351856E+03  0.00000000000E+00 0. -1.
         -2   -1    0    0    0  501 -0.00000000000E+00 -0.00000000000E+00 -0.50818979976E+02  0.50818979976E+02  0.00000000000E+00 0.  1.
         25    2    1    2    0    0  0.33691890391E+02 -0.50083151794E+02  0.12553431844E+03  0.18721714316E+03  0.12509167844E+03 0.  0.
         23    2    1    2    0    0 -0.33691890391E+02  0.50083151794E+02  0.12697022015E+03  0.16692535538E+03  0.89995399284E+02 0.  0.
          5    1    3    3  502    0  0.21063407670E+02 -0.27921796403E+02  0.14851261474E+03  0.15263277169E+03  0.41800000000E+01 0. -1.
         -5    1    3    3    0  502  0.12628482720E+02 -0.22161355391E+02 -0.22978296306E+02  0.34584371466E+02  0.41800000000E+01 0. -1.
        -11    1    4    4    0    0 -0.25520538726E+02  0.14902430961E+02  0.12742308772E+03  0.13080528900E+03  0.00000000000E+00 0. -1.
         11    1    4    4    0    0 -0.81713516645E+01  0.35180720833E+02 -0.45286757275E+00  0.36120066381E+02  0.00000000000E+00 0.  1.
</event>
<event>
 8    1  0.6505836E-009  0.1195024E+03  0.7561462E-02  0.1243920E+00
          2   -1    0    0  501    0  0.00000000000E+00  0.00000000000E+00  0.41929610246E+02  0.41929610246E+02  0.00000000000E+00 0.  1.
         -2   -1    0    0    0  501 -0.00000000000E+00 -0.00000000000E+00 -0.42975036669E+03  0.42975036669E+03  0.00000000000E+00 0. -1.
         25    2    1    2    0    0 -0.77853541981E+02  0.33748404459E+01 -0.18871829022E+03  0.23944615019E+03  0.12508917713E+03 0.  0.
         23    2    1    2    0    0  0.77853541981E+02 -0.33748404459E+01 -0.19910246622E+03  0.23223382674E+03  0.90654259014E+02 0.  0.
          5    1    3    3  502    0  0.12809072543E+02 -0.22683193367E+02  0.21779962169E+01  0.26472923304E+02  0.41800000000E+01 0.  1.
         -5    1    3    3    0  502 -0.90662614524E+02  0.26058033813E+02 -0.19089628643E+03  0.21297322689E+03  0.41800000000E+01 0.  1.
        -11    1    4    4    0    0  0.88749985846E+02  0.21258258138E+02 -0.13785785831E+03  0.16532774306E+03  0.00000000000E+00 0.  1.
         11    1    4    4    0    0 -0.10896443865E+02 -0.24633098584E+02 -0.61244607910E+02  0.66906083676E+02  0.00000000000E+00 0. -1.
</event>
<event>
 8    1  0.6505836E-009  0.1605418E+03  0.7561462E-02  0.1188086E+00
         -1   -1    0    0    0  501 -0.00000000000E+00  0.00000000000E+00  0.39089692383E+02  0.39089692383E+02  0.00000000000E+00 0.  1.
          1   -1    0    0  501    0  0.00000000000E+00 -0.00000000000E+00 -0.71589854011E+03  0.71589854011E+03  0.00000000000E+00 0. -1.
         25    2    1    2    0    0  0.11741196943E+03 -0.44995058600E+02 -0.39718437909E+03  0.43498973558E+03  0.12510201120E+03 0.  0.
         23    2    1    2    0    0 -0.11741196943E+03  0.44995058600E+02 -0.27962446863E+03  0.31999849690E+03  0.91646433094E+02 0.  0.
          5    1    3    3  502    0  0.12618928133E+03 -0.67897793914E+01 -0.35685325423E+03  0.37859153884E+03  0.41800000000E+01 0. -1.
         -5    1    3    3    0  502 -0.87773118949E+01 -0.38205279209E+02 -0.40331124860E+02  0.56398196744E+02  0.41800000000E+01 0. -1.
        -11    1    4    4    0    0 -0.30733128314E+02 -0.28245494781E+02 -0.65678332262E+02  0.77820154716E+02  0.00000000000E+00 0.  1.
         11    1    4    4    0    0 -0.86678841119E+02  0.73240553381E+02 -0.21394613637E+03  0.24217834219E+03  0.00000000000E+00 0. -1.
</event>
<event>
 8    1  0.6505836E-009  0.9166517E+02  0.7561462E-02  0.1298869E+00
         -1   -1    0    0    0  501 -0.00000000000E+00  0.00000000000E+00  0.53103662513E+02  0.53103662513E+02  0.00000000000E+00 0.  1.
          1   -1    0    0  501    0  0.00000000000E+00 -0.00000000000E+00 -0.26913534507E+03  0.26913534507E+03  0.00000000000E+00 0. -1.
         25    2    1    2    0    0  0.85938625919E+01 -0.52205307648E+02 -0.11871399034E+03  0.18038812802E+03  0.12509043373E+03 0.  0.
         23    2    1    2    0    0 -0.85938625919E+01  0.52205307648E+02 -0.97317692221E+02  0.14185087956E+03  0.88609763522E+02 0.  0.
          5    1    3    3  502    0 -0.43310824344E+02 -0.12419918977E+02 -0.10372249161E+03  0.11316319878E+03  0.41800000000E+01 0.  1.
         -5    1    3    3    0  502  0.51904686936E+02 -0.39785388671E+02 -0.14991498725E+02  0.67224929242E+02  0.41800000000E+01 0.  1.
        -11    1    4    4    0    0  0.20578533746E+02  0.27324227946E+02  0.31151035066E+01  0.34348120092E+02  0.00000000000E+00 0.  1.
         11    1    4    4    0    0 -0.29172396338E+02  0.24881079702E+02 -0.10043279573E+03  0.10750275947E+03  0.00000000000E+00 0. -1.
</event>
<event>
 8    1  0.6505836E-009  0.8760432E+02  0.7561462E-02  0.1308759E+00
         -2   -1    0    0    0  501 -0.00000000000E+00  0.00000000000E+00  0.53737225093E+02  0.53737225093E+02  0.00000000000E+00 0.  1.
          2   -1    0    0  501    0  0.00000000000E+00 -0.00000000000E+00 -0.35761238398E+03  0.35761238398E+03  0.00000000000E+00 0. -1.
         25    2    1    2    0    0 -0.42108918918E+02  0.40006537018E+02 -0.26062343588E+03  0.29486773213E+03  0.12509484429E+03 0.  0.
         23    2    1    2    0    0  0.42108918918E+02 -0.40006537018E+02 -0.43251723005E+02  0.11648187694E+03  0.91233941355E+02 0.  0.
          5    1    3    3  502    0 -0.29546471490E+02 -0.27444417482E+02 -0.21155975735E+02  0.45730052894E+02  0.41800000000E+01 0.  1.
         -5    1    3    3    0  502 -0.12562447428E+02  0.67450954500E+02 -0.23946746015E+03  0.24913767924E+03  0.41800000000E+01 0.  1.
        -11    1    4    4    0    0  0.44933448481E+02 -0.26576517963E+02  0.16831724474E+02  0.54851007723E+02  0.00000000000E+00 0.  1.
         11    1    4    4    0    0 -0.28245295623E+01 -0.13430019054E+02 -0.60083447479E+02  0.61630869214E+02  0.00000000000E+00 0. -1.
</event>
<event>
 8    1  0.6505836E-009  0.7202452E+02  0.7561462E-02  0.1353341E+00
          2   -1    0    0  501    0  0.00000000000E+00  0.00000000000E+00  0.13355718671E+03  0.13355718671E+03  0.00000000000E+00 0. -1.
         -2   -1    0    0    0  501 -0.00000000000E+00 -0.00000000000E+00 -0.11218377445E+03  0.11218377445E+03  0.00000000000E+00 0.  1.
         25    2    1    2    0    0 -0.60088427820E+01  0.52551217785E+02  0.20422475493E+02  0.13734366355E+03  0.12509383570E+03 0.  0.
         23    2    1    2    0    0  0.60088427820E+01 -0.52551217785E+02  0.95093676994E+00  0.10839729761E+03  0.94611485378E+02 0.  0.
          5    1    3    3  502    0 -0.12925817130E+02  0.54210085466E+02  0.68589664356E+02  0.88474994045E+02  0.41800000000E+01 0. -1.
         -5    1    3    3    0  502  0.69169743482E+01 -0.16588676811E+01 -0.48167188864E+02  0.48868669505E+02  0.41800000000E+01 0. -1.
        -11    1    4    4    0    0 -0.81812030937E+01  0.11608730039E+02 -0.31910436617E+02  0.34928078422E+02  0.00000000000E+00 0.  1.
         11    1    4    4    0    0  0.14190045876E+02 -0.64159947823E+02  0.32861373387E+02  0.73469219184E+02  0.00000000000E+00 0. -1.
</event>
<event>
 8    1  0.6505836E-009  0.1536136E+03  0.7561462E-02  0.1196102E+00
          1   -1    0    0  501    0  0.00000000000E+00  0.00000000000E+00  0.37791723542E+03  0.37791723542E+03  0.00000000000E+00 0. -1.
         -1   -1    0    0    0  501 -0.00000000000E+00 -0.00000000000E+00 -0.71984890936E+02  0.71984890936E+02  0.00000000000E+00 0.  1.
         25    2    1    2    0    0 -0.95152376380E+02 -0.79717465161E+02  0.15242010509E+03  0.23299852725E+03  0.12509027253E+03 0.  0.
         23    2    1    2    0    0  0.95152376380E+02  0.79717465161E+02  0.15351223939E+03  0.21690359911E+03  0.89846061007E+02 0.  0.
          5    1    3    3  502    0  0.11426952074E+02  0.22535646859E+02  0.39312529823E+02  0.46918844979E+02  0.41800000000E+01 0.  1.
         -5    1    3    3    0  502 -0.10657932845E+03 -0.10225311202E+03  0.11310757527E+03  0.18607968227E+03  0.41800000000E+01 0.  1.
        -11    1    4    4    0    0  0.33827834219E+02  0.60982270890E+02  0.26460647475E+02  0.74587704052E+02  0.00000000000E+00 0.  1.
         11    1    4    4    0    0  0.61324542161E+02  0.18735194270E+02  0.12705159192E+03  0.14231589505E+03  0.00000000000E+00 0. -1.
</event>
<event>
 8    1  0.6505836E-009  0.2293577E+03  0.7561462E-02  0.1127093E+00
         -1   -1    0    0    0  501 -0.00000000000E+00  0.00000000000E+00  0.19012759256E+03  0.19012759256E+03  0.00000000000E+00 0.  1.
          1   -1    0    0  501    0  0.00000000000E+00 -0.00000000000E+00 -0.34035220192E+03  0.34035220192E+03  0.00000000000E+00 0. -1.
         25    2    1    2    0    0  0.13765440219E+03  0.15362078235E+03  0.27619281407E+02  0.24281339869E+03  0.12508973844E+03 0.  0.
         23    2    1    2    0    0 -0.13765440219E+03 -0.15362078235E+03 -0.17784389077E+03  0.28766639579E+03  0.92603599114E+02 0.  0.
          5    1    3    3  502    0  0.85021257051E+02  0.77229901353E+01  0.18065988499E+02  0.87361954348E+02  0.41800000000E+01 0.  1.
         -5    1    3    3    0  502  0.52633145141E+02  0.14589779222E+03  0.95532929084E+01  0.15545144434E+03  0.41800000000E+01 0.  1.
        -11    1    4    4    0    0 -0.36423123261E+01 -0.46172332019E+02 -0.97449859185E+01  0.47329857740E+02  0.00000000000E+00 0.  1.
         11    1    4    4    0    0 -0.13401208987E+03 -0.10744845033E+03 -0.16809890485E+03  0.24033653805E+03  0.00000000000E+00 0. -1.
</event>
<event>
 8    1  0.6505836E-009  0.1748948E+03  0.7561462E-02  0.1172837E+00
          2   -1    0    0  501    0  0.00000000000E+00  0.00000000000E+00  0.51996740626E+03  0.51996740626E+03  0.00000000000E+00 0. -1.
         -2   -1    0    0    0  501 -0.00000000000E+00 -0.00000000000E+00 -0.68863689297E+02  0.68863689297E+02  0.00000000000E+00 0.  1.
         25    2    1    2    0    0 -0.11043567520E+03  0.10105301654E+03  0.17415820794E+03  0.26150772508E+03  0.12508980124E+03 0.  0.
         23    2    1    2    0    0  0.11043567520E+03 -0.10105301654E+03  0.27694550903E+03  0.32732337048E+03  0.89632713802E+02 0.  0.
          5    1    3    3  502    0 -0.30162960336E+02 -0.29073551963E+02  0.35899225403E+02  0.55329037444E+02  0.41800000000E+01 0. -1.
         -5    1    3    3    0  502 -0.80272714864E+02  0.13012656851E+03  0.13825898253E+03  0.20617868763E+03  0.41800000000E+01 0. -1.
        -11    1    4    4    0    0  0.99794776167E+02 -0.10354541850E+03  0.28100481968E+03  0.31566494852E+03  0.00000000000E+00 0.  1.
         11    1    4    4    0    0  0.10640899033E+02  0.24924019616E+01 -0.40593106451E+01  0.11658421963E+02  0.00000000000E+00 0. -1.
</event>
<event>
 8    1  0.6505836E-009  0.1179289E+03  0.7561462E-02  0.1246553E+00
         -2   -1    0    0    0  501 -0.00000000000E+00  0.00000000000E+00  0.14703706441E+03  0.14703706441E+03  0.00000000000E+00 0.  1.
          2   -1    0    0  501    0  0.00000000000E+00 -0.00000000000E+00 -0.10802856911E+03  0.10802856911E+03  0.00000000000E+00 0. -1.
         25    2    1    2    0    0 -0.42049606618E+02  0.27355319310E+02 -0.19858259842E+02  0.13622865923E+03  0.12508962467E+03 0.  0.
         23    2    1    2    0    0  0.42049606618E+02 -0.27355319310E+02  0.58866755140E+02  0.11883697429E+03  0.90224435087E+02 0.  0.
          5    1    3    3  502    0  0.20579687115E+02  0.60317150697E+02 -0.86585458942E+01  0.64452501945E+02  0.41800000000E+01 0.  1.
         -5    1    3    3    0  502 -0.62629293732E+02 -0.32961831388E+02 -0.11199713948E+02  0.71776157283E+02  0.41800000000E+01 0.  1.
        -11    1    4    4    0    0 -0.11611473581E+02 -0.43525732692E+02  0.38330073057E+02  0.59148205600E+02  0.00000000000E+00 0.  1.
         11    1    4    4    0    0  0.53661080198E+02  0.16170413382E+02  0.20536682083E+02  0.59688768692E+02  0.00000000000E+00 0. -1.
</event>
<event>
 8    1  0.6505836E-009  0.1821469E+03  0.7561462E-02  0.1165741E+00
         -1   -1    0    0    0  501 -0.00000000000E+00  0.00000000000E+00  0.42647465941E+02  0.42647465941E+02  0.00000000000E+00 0.  1.
          1   -1    0    0  501    0  0.00000000000E+00 -0.00000000000E+00 -0.10107086464E+04  0.10107086464E+04  0.00000000000E+00 0. -1.
         25    2    1    2    0    0  0.43513298791E+02  0.16305001685E+03 -0.37171728415E+03  0.42696757285E+03  0.12509537867E+03 0.  0.
         23    2    1    2    0    0 -0.43513298791E+02 -0.16305001685E+03 -0.59634389635E+03  0.62638853953E+03  0.90872683323E+02 0.  0.
          5    1    3    3  502    0  0.71958905314E+02  0.14099721918E+03 -0.35138493211E+03  0.38541814018E+03  0.41800000000E+01 0.  1.
         -5    1    3    3    0  502 -0.28445606524E+02  0.22052797668E+02 -0.20332352044E+02  0.41549432669E+02  0.41800000000E+01 0.  1.
        -11    1    4    4    0    0 -0.24766408292E+02 -0.59110043626E+02 -0.38308449442E+03  0.38840842178E+03  0.00000000000E+00 0. -1.
         11    1    4    4    0    0 -0.18746890499E+02 -0.10393997322E+03 -0.21325940192E+03  0.23798011775E+03  0.00000000000E+00 0.  1.
</event>
<event>
 8    1  0.6505836E-009  0.1104464E+03  0.7561462E-02  0.1259745E+00
         -3   -1    0    0    0  501 -0.00000000000E+00  0.00000000000E+00  0.14540230754E+03  0.14540230754E+03  0.00000000000E+00 0.  1.
          3   -1    0    0  501    0  0.00000000000E+00 -0.00000000000E+00 -0.16581088058E+03  0.16581088058E+03  0.00000000000E+00 0. -1.
         25    2    1    2    0    0 -0.10236350442E+02 -0.68820577898E+02 -0.96770388655E+02  0.17277987361E+03  0.12508925530E+03 0.  0.
         23    2    1    2    0    0  0.10236350442E+02  0.68820577898E+02  0.76361815622E+02  0.13843331451E+03  0.92149882627E+02 0.  0.
          5    1    3    3  502    0 -0.31758504279E+02  0.21114677907E+02  0.68012221301E+00  0.38371437077E+02  0.41800000000E+01 0.  1.
         -5    1    3    3    0  502  0.21522153837E+02 -0.89935255805E+02 -0.97450510868E+02  0.13440843653E+03  0.41800000000E+01 0.  1.
        -11    1    4    4    0    0 -0.67903574064E+01  0.72267936336E+02  0.14294134019E+02  0.73980307132E+02  0.00000000000E+00 0. -1.
         11    1    4    4    0    0  0.17026707849E+02 -0.34473584378E+01  0.62067681603E+02  0.64453007377E+02  0.00000000000E+00 0.  1.
</event>
<event>
 8    1  0.6505836E-009  0.1665649E+03  0.7561462E-02  0.1181478E+00
          2   -1    0    0  501    0  0.00000000000E+00  0.00000000000E+00  0.70410758156E+03  0.70410758156E+03  0.00000000000E+00 0. -1.
         -2   -1    0    0    0  501 -0.00000000000E+00 -0.00000000000E+00 -0.47329902818E+02  0.47329902818E+02  0.00000000000E+00 0.  1.
         25    2    1    2    0    0 -0.73561465329E+02  0.11156092274E+03  0.24344836648E+03  0.30458358500E+03  0.12508766704E+03 0.  0.
         23    2    1    2    0    0  0.73561465329E+02 -0.11156092274E+03  0.41332931226E+03  0.44685389938E+03  0.10478625078E+03 0.  0.
          5    1    3    3  502    0 -0.98075537656E+02  0.63560476075E+02  0.21180036031E+03  0.24194133635E+03  0.41800000000E+01 0.  1.
         -5    1    3    3    0  502  0.24514072327E+02  0.48000446660E+02  0.31648006165E+02  0.62642248649E+02  0.41800000000E+01 0.  1.
        -11    1    4    4    0    0  0.38203337183E+02 -0.11986380751E+03  0.25413629603E+03  0.28357024577E+03  0.00000000000E+00 0.  1.
         11    1    4    4    0    0  0.35358128146E+02  0.83028847721E+01  0.15919301623E+03  0.16328365362E+03  0.00000000000E+00 0. -1.
</event>
<event>
 8    1  0.6505836E-009  0.1018048E+03  0.7561462E-02  0.1276546E+00
          1   -1    0    0  501    0  0.00000000000E+00  0.00000000000E+00  0.44153528753E+03  0.44153528753E+03  0.00000000000E+00 0. -1.
         -1   -1    0    0    0  501 -0.00000000000E+00 -0.00000000000E+00 -0.31579649003E+02  0.31579649003E+02  0.00000000000E+00 0.  1.
         25    2    1    2    0    0 -0.54484745803E+01 -0.27048770153E+02  0.14903243139E+03  0.19651867315E+03  0.12509037312E+03 0.  0.
         23    2    1    2    0    0  0.54484745803E+01  0.27048770153E+02  0.26092320713E+03  0.27659626338E+03  0.87539996892E+02 0.  0.
          5    1    3    3  502    0 -0.37863178844E+00 -0.69345100902E+02  0.13438148500E+03  0.15127703822E+03  0.41800000000E+01 0. -1.
         -5    1    3    3    0  502 -0.50698427919E+01  0.42296330749E+02  0.14650946392E+02  0.45241634928E+02  0.41800000000E+01 0. -1.
        -11    1    4    4    0    0  0.44932287813E+02  0.25837987470E+02  0.13432304907E+03  0.14397636471E+03  0.00000000000E+00 0.  1.
         11    1    4    4    0    0 -0.39483813232E+02  0.12107826836E+01  0.12660015807E+03  0.13261989868E+03  0.00000000000E+00 0. -1.
</event>
<event>
 8    1  0.6505836E-009  0.8841717E+02  0.7561462E-02  0.1306731E+00
         -1   -1    0    0    0  501 -0.00000000000E+00  0.00000000000E+00  0.66841920319E+02  0.66841920319E+02  0.00000000000E+00 0.  1.
          1   -1    0    0  501    0  0.00000000000E+00 -0.00000000000E+00 -0.71653222470E+03  0.71653222470E+03  0.00000000000E+00 0. -1.
         25    2    1    2    0    0  0.33431526463E+01 -0.46525149037E+02 -0.66719255227E+03  0.68041849246E+03  0.12509059480E+03 0.  0.
         23    2    1    2    0    0 -0.33431526463E+01  0.46525149037E+02  0.17502247891E+02  0.10295565256E+03  0.90098676742E+02 0.  0.
          5    1    3    3  502    0  0.31654844212E+02 -0.17383080860E+02 -0.49703842409E+02  0.61580394709E+02  0.41800000000E+01 0. -1.
         -5    1    3    3    0  502 -0.28311691565E+02 -0.29142068177E+02 -0.61748870986E+03  0.61883809775E+03  0.41800000000E+01 0. -1.
        -11    1    4    4    0    0 -0.45718986905E+02  0.24907718648E+02  0.18834668305E+02  0.55365737980E+02  0.00000000000E+00 0.  1.
         11    1    4    4    0    0  0.42375834259E+02  0.21617430389E+02 -0.13324204141E+01  0.47589914582E+02  0.00000000000E+00 0. -1.
</event>
<event>
 8    1  0.6505836E-009  0.1119773E+03  0.7561462E-02  0.1256951E+00
         -2   -1    0    0    0  501 -0.00000000000E+00  0.00000000000E+00  0.48666996293E+02  0.48666996293E+02  0.00000000000E+00 0. -1.
          2   -1    0    0  501    0  0.00000000000E+00 -0.00000000000E+00 -0.32584645540E+03  0.32584645540E+03  0.00000000000E+00 0.  1.
         25    2    1    2    0    0  0.47397330493E+02 -0.28967452097E+02 -0.10694507079E+03  0.17369785027E+03  0.12509226516E+03 0.  0.
         23    2    1    2    0    0 -0.47397330493E+02  0.28967452097E+02 -0.17023438832E+03  0.20081560142E+03  0.90893006273E+02 0.  0.
          5    1    3    3  502    0  0.11766751848E+02  0.41456751985E+02 -0.33914668944E+01  0.43429174318E+02  0.41800000000E+01 0. -1.
         -5    1    3    3    0  502  0.35630578645E+02 -0.70424204082E+02 -0.10355360389E+03  0.13026867595E+03  0.41800000000E+01 0. -1.
        -11    1    4    4    0    0 -0.54562299175E+02 -0.15389345399E+02 -0.12400066830E+03  0.13634530495E+03  0.00000000000E+00 0.  1.
         11    1    4    4    0    0  0.71649686826E+01  0.44356797496E+02 -0.46233720016E+02  0.64470296469E+02  0.00000000000E+00 0. -1.
</event>
<event>
 8    1  0.6505836E-009  0.9784442E+02  0.7561462E-02  0.1284895E+00
          1   -1    0    0  501    0  0.00000000000E+00  0.00000000000E+00  0.16703269489E+03  0.16703269489E+03  0.00000000000E+00 0. -1.
         -1   -1    0    0    0  501 -0.00000000000E+00 -0.00000000000E+00 -0.15586634880E+03  0.15586634880E+03  0.00000000000E+00 0.  1.
         25    2    1    2    0    0  0.44251277939E+02 -0.37143945545E+02 -0.97884870051E+02  0.16900489922E+03  0.12507341798E+03 0.  0.
         23    2    1    2    0    0 -0.44251277939E+02  0.37143945545E+02  0.10905121615E+03  0.15389414447E+03  0.91942327954E+02 0.  0.
          5    1    3    3  502    0 -0.10075509266E+02 -0.51782731400E+02 -0.99351540248E+02  0.11256628318E+03  0.41800000000E+01 0.  1.
         -5    1    3    3    0  502  0.54326787205E+02  0.14638785855E+02  0.14666701976E+01  0.56438616043E+02  0.41800000000E+01 0.  1.
        -11    1    4    4    0    0 -0.60870884387E+02  0.32918188988E+02  0.34365229338E+02  0.77264744352E+02  0.00000000000E+00 0.  1.
         11    1    4    4    0    0  0.16619606448E+02  0.42257565566E+01  0.74685986809E+02  0.76629400119E+02  0.00000000000E+00 0. -1.
</event>
<event>
 7    1  0.6505836E-009  0.7891121E+02  0.7561462E-02  0.1332170E+00
         -1   -1    0    0    0  501 -0.00000000000E+00  0.00000000000E+00  0.48945792689E+02  0.48945792689E+02  0.00000000000E+00 0.  1.
          1   -1    0    0  501    0  0.00000000000E+00 -0.00000000000E+00 -0.17910321434E+03  0.17910321434E+03  0.00000000000E+00 0. -1.
         25    2    1    2    0    0 -0.22797839427E+02  0.37543772634E+02 -0.11429083148E+03  0.17503728348E+03  0.12508549117E+03 0.  0.
          5    1    3    3  502    0  0.29608831722E+02 -0.15662429709E+02  0.51117484166E+01  0.34140840531E+02  0.41800000000E+01 0. -1.
         -5    1    3    3    0  502 -0.52406671148E+02  0.53206202343E+02 -0.11940257990E+03  0.14089644295E+03  0.41800000000E+01 0. -1.
        -11    1    1    2    0    0  0.24311619362E+02 -0.19513757010E+02 -0.15729200082E+02  0.34917750269E+02  0.00000000000E+00 0. -1.
         11    1    1    2    0    0 -0.15137799350E+01 -0.18030015623E+02 -0.13739008713E+00  0.18093973281E+02  0.00000000000E+00 0.  1.
</event>
<event>
 8    1  0.6505836E-009  0.1157225E+03  0.7561462E-02  0.1250325E+00
          2   -1    0    0  501    0  0.00000000000E+00  0.00000000000E+00  0.68347511144E+03  0.68347511144E+03  0.00000000000E+00 0. -1.
         -2   -1    0    0    0  501 -0.00000000000E+00 -0.00000000000E+00 -0.32453905437E+02  0.32453905437E+02  0.00000000000E+00 0.  1.
         25    2    1    2    0    0 -0.26792822394E+02  0.74069714740E+02  0.50050958884E+03  0.52188415077E+03  0.12509612434E+03 0.  0.
         23    2    1    2    0    0  0.26792822394E+02 -0.74069714740E+02  0.15051161716E+03  0.19404486611E+03  0.93784248087E+02 0.  0.
          5    1    3    3  502    0  0.11798988294E+02 -0.29429856676E+02  0.18074047538E+03  0.18354815289E+03  0.41800000000E+01 0. -1.
         -5    1    3    3    0  502 -0.38591810688E+02  0.10349957142E+03  0.31976911346E+03  0.33833599787E+03  0.41800000000E+01 0. -1.
        -11    1    4    4    0    0 -0.23666332777E+01 -0.52747901513E+02  0.16603505173E+02  0.55349963425E+02  0.00000000000E+00 0.  1.
         11    1    4    4    0    0  0.29159455672E+02 -0.21321813227E+02  0.13390811199E+03  0.13869490268E+03  0.00000000000E+00 0. -1.
</event>
<event>
 8    1  0.6505836E-009  0.1402460E+03  0.7561462E-02  0.1212998E+00
          1   -1    0    0  501    0  0.00000000000E+00  0.00000000000E+00  0.36573194102E+03  0.36573194102E+03  0.00000000000E+00 0. -1.
         -1   -1    0    0    0  501 -0.00000000000E+00 -0.00000000000E+00 -0.64573571932E+02  0.64573571932E+02  0.00000000000E+00 0.  1.
         25    2    1    2    0    0 -0.55159366638E+02 -0.92906475529E+02  0.15384648944E+03  0.22580843626E+03  0.12508612493E+03 0.  0.
         23    2    1    2    0    0  0.55159366638E+02  0.92906475529E+02  0.14731187965E+03  0.20449707669E+03  0.91891760056E+02 0.  0.
          5    1    3    3  502    0 -0.49257097577E+02  0.14850401859E+02  0.24015306366E+02  0.56929811495E+02  0.41800000000E+01 0.  1.
         -5    1    3    3    0  502 -0.59022690614E+01 -0.10775687739E+03  0.12983118307E+03  0.16887862477E+03  0.41800000000E+01 0.  1.
        -11    1    4    4    0    0  0.79731338014E+01  0.66155978868E+02  0.25848260680E+02  0.71472491091E+02  0.00000000000E+00 0.  1.
         11    1    4    4    0    0  0.47186232837E+02  0.26750496661E+02  0.12146361897E+03  0.13302458560E+03  0.00000000000E+00 0. -1.
</event>
<event>
 8    1  0.6505836E-009  0.1528131E+03  0.7561462E-02  0.1197058E+00
          2   -1    0    0  501    0  0.00000000000E+00  0.00000000000E+00  0.51742948058E+03  0.51742948058E+03  0.00000000000E+00 0. -1.
         -2   -1    0    0    0  501 -0.00000000000E+00 -0.00000000000E+00 -0.55304231215E+02  0.55304231215E+02  0.00000000000E+00 0.  1.
         25    2    1    2    0    0 -0.10550992789E+03 -0.61811105253E+02  0.30980123234E+03  0.35577527720E+03  0.12508511779E+03 0.  0.
         23    2    1    2    0    0  0.10550992789E+03  0.61811105253E+02  0.15232401703E+03  0.21695843460E+03  0.94421388266E+02 0.  0.
          5    1    3    3  502    0 -0.52966468506E+02 -0.85446554688E+02  0.26246867076E+03  0.28109399856E+03  0.41800000000E+01 0. -1.
         -5    1    3    3    0  502 -0.52543459386E+02  0.23635449436E+02  0.47332561575E+02  0.74681278641E+02  0.41800000000E+01 0. -1.
        -11    1    4    4    0    0  0.11184992682E+03  0.31395728373E+02  0.88733730320E+02  0.14618403738E+03  0.00000000000E+00 0.  1.
         11    1    4    4    0    0 -0.63399989257E+01  0.30415376880E+02  0.63590286708E+02  0.70774397212E+02  0.00000000000E+00 0. -1.
</event>
<event>
 8    1  0.6505836E-009  0.1675760E+03  0.7561462E-02  0.1180400E+00
         -1   -1    0    0    0  501 -0.00000000000E+00  0.00000000000E+00  0.11101351313E+03  0.11101351313E+03  0.00000000000E+00 0.  1.
          1   -1    0    0  501    0  0.00000000000E+00 -0.00000000000E+00 -0.29830374834E+03  0.29830374834E+03  0.00000000000E+00 0. -1.
         25    2    1    2    0    0 -0.14168638776E+03  0.31998582565E+02 -0.98843103134E+02  0.21567638515E+03  0.12508957714E+03 0.  0.
         23    2    1    2    0    0  0.14168638776E+03 -0.31998582565E+02 -0.88447132082E+02  0.19364087632E+03  0.92601036955E+02 0.  0.
          5    1    3    3  502    0  0.36020495641E+01 -0.14835478413E+02 -0.54366150899E+02  0.56623466376E+02  0.41800000000E+01 0. -1.
         -5    1    3    3    0  502 -0.14528843733E+03  0.46834060979E+02 -0.44476952235E+02  0.15905291877E+03  0.41800000000E+01 0. -1.
        -11    1    4    4    0    0  0.37484656760E+02 -0.48308147036E+02 -0.94616699466E+01  0.61873255617E+02  0.00000000000E+00 0.  1.
         11    1    4    4    0    0  0.10420173100E+03  0.16309564471E+02 -0.78985462135E+02  0.13176762070E+03  0.00000000000E+00 0. -1.
</event>
<event>
 8    1  0.6505836E-009  0.8741079E+02  0.7561462E-02  0.1309246E+00
         -2   -1    0    0    0  501 -0.00000000000E+00  0.00000000000E+00  0.26994664358E+03  0.26994664358E+03  0.00000000000E+00 0.  1.
          2   -1    0    0  501    0  0.00000000000E+00 -0.00000000000E+00 -0.19251769879E+03  0.19251769879E+03  0.00000000000E+00 0. -1.
         25    2    1    2    0    0  0.57536936380E+02 -0.57714407491E+02 -0.14482693182E+03  0.20800062461E+03  0.12509183738E+03 0.  0.
         23    2    1    2    0    0 -0.57536936380E+02  0.57714407491E+02  0.22225587660E+03  0.25446371776E+03  0.93341615015E+02 0.  0.
          5    1    3    3  502    0 -0.65498452687E+01 -0.84962753129E+01 -0.12388768383E+03  0.12442153259E+03  0.41800000000E+01 0.  1.
         -5    1    3    3    0  502  0.64086781649E+02 -0.49218132178E+02 -0.20939247988E+02  0.83579092024E+02  0.41800000000E+01 0.  1.
        -11    1    4    4    0    0 -0.36148314155E+02  0.27710669747E+02  0.21111040311E+03  0.21596801646E+03  0.00000000000E+00 0.  1.
         11    1    4    4    0    0 -0.21388622225E+02  0.30003737744E+02  0.11145473495E+02  0.38495701302E+02  0.00000000000E+00 0. -1.
</event>
<event>
 8    1  0.6505836E-009  0.1226772E+03  0.7561462E-02  0.1238745E+00
         -1   -1    0    0    0  501 -0.00000000000E+00  0.00000000000E+00  0.13941983764E+03  0.13941983764E+03  0.00000000000E+00 0.  1.
          1   -1    0    0  501    0  0.00000000000E+00 -0.00000000000E+00 -0.23440824627E+03  0.23440824627E+03  0.00000000000E+00 0. -1.
         25    2    1    2    0    0  0.80755946252E+02  0.90493500400E+02  0.30974118708E+02  0.17696879470E+03  0.12509181347E+03 0.  0.
         23    2    1    2    0    0 -0.80755946252E+02 -0.90493500400E+02 -0.12596252734E+03  0.19685928922E+03  0.90423586458E+02 0.  0.
          5    1    3    3  502    0  0.76509725802E+02  0.75302942439E+02 -0.31854711393E+02  0.11205563940E+03  0.41800000000E+01 0. -1.
         -5    1    3    3    0  502  0.42462204492E+01  0.15190557962E+02  0.62828830101E+02  0.64913155301E+02  0.41800000000E+01 0. -1.
        -11    1    4    4    0    0 -0.43607181475E+02 -0.55373450781E+02 -0.11387550992E+02  0.71396650098E+02  0.00000000000E+00 0.  1.
         11    1    4    4    0    0 -0.37148764776E+02 -0.35120049620E+02 -0.11457497635E+03  0.12546263912E+03  0.00000000000E+00 0. -1.
</event>
<event>
 8    1  0.6505836E-009  0.1107306E+03  0.7561462E-02  0.1259223E+00
          1   -1    0    0  501    0  0.00000000000E+00  0.00000000000E+00  0.38053109386E+03  0.38053109386E+03  0.00000000000E+00 0. -1.
         -1   -1    0    0    0  501 -0.00000000000E+00 -0.00000000000E+00 -0.37529512697E+02  0.37529512697E+02  0.00000000000E+00 0.  1.
         25    2    1    2    0    0  0.42641325801E+02 -0.74000970600E+01  0.15544770715E+03  0.20416792158E+03  0.12508999336E+03 0.  0.
         23    2    1    2    0    0 -0.42641325801E+02  0.74000970600E+01  0.18755387400E+03  0.21389268498E+03  0.93276904592E+02 0.  0.
          5    1    3    3  502    0  0.39235248652E+02  0.48905987141E+02  0.12505727706E+03  0.13995711936E+03  0.41800000000E+01 0. -1.
         -5    1    3    3    0  502  0.34060771485E+01 -0.56306084201E+02  0.30390430099E+02  0.64210802216E+02  0.41800000000E+01 0. -1.
        -11    1    4    4    0    0  0.24743138041E+02  0.22002192799E+02  0.49101902136E+02  0.59222598402E+02  0.00000000000E+00 0.  1.
         11    1    4    4    0    0 -0.67384463842E+02 -0.14602095739E+02  0.13845197187E+03  0.15467008658E+03  0.00000000000E+00 0. -1.
</event>
<event>
 8    1  0.6505836E-009  0.1291965E+03  0.7561462E-02  0.1228653E+00
         -4   -1    0    0    0  501 -0.00000000000E+00  0.00000000000E+00  0.37343494549E+02  0.37343494549E+02  0.00000000000E+00 0.  1.
          4   -1    0    0  501    0  0.00000000000E+00 -0.00000000000E+00 -0.58982982078E+03  0.58982982078E+03  0.00000000000E+00 0. -1.
         25    2    1    2    0    0  0.46659383320E+02  0.69554269054E+02 -0.41677667726E+03  0.44313036138E+03  0.12508726583E+03 0.  0.
         23    2    1    2    0    0 -0.46659383320E+02 -0.69554269054E+02 -0.13570964898E+03  0.18404295396E+03  0.91868415029E+02 0.  0.
          5    1    3    3  502    0  0.88850128214E+02  0.55134609406E+02 -0.31524746497E+03  0.33216352450E+03  0.41800000000E+01 0. -1.
         -5    1    3    3    0  502 -0.42190744893E+02  0.14419659647E+02 -0.10152921228E+03  0.11096683688E+03  0.41800000000E+01 0. -1.
        -11    1    4    4    0    0 -0.65072773018E+02 -0.49694559763E+02 -0.54301091362E+02  0.98247766292E+02  0.00000000000E+00 0.  1.
         11    1    4    4    0    0  0.18413389697E+02 -0.19859709291E+02 -0.81408557618E+02  0.85795187666E+02  0.00000000000E+00 0. -1.
</event>
<event>
 8    1  0.6505836E-009  0.1307116E+03  0.7561462E-02  0.1226404E+00
         -1   -1    0    0    0  501 -0.00000000000E+00  0.00000000000E+00  0.22246659446E+03  0.22246659446E+03  0.00000000000E+00 0.  1.
          1   -1    0    0  501    0  0.00000000000E+00 -0.00000000000E+00 -0.12729508402E+03  0.12729508402E+03  0.00000000000E+00 0. -1.
         25    2    1    2    0    0  0.70583078254E+02 -0.71538665976E+02  0.13318229155E+03  0.20853452710E+03  0.12509746019E+03 0.  0.
         23    2    1    2    0    0 -0.70583078254E+02  0.71538665976E+02 -0.38010781111E+02  0.14122715138E+03  0.91654444197E+02 0.  0.
          5    1    3    3  502    0  0.97204445550E+02 -0.85948014793E+02  0.11046165082E+03  0.17045531433E+03  0.41800000000E+01 0.  1.
         -5    1    3    3    0  502 -0.26621367296E+02  0.14409348817E+02  0.22720640727E+02  0.38079212769E+02  0.41800000000E+01 0.  1.
        -11    1    4    4    0    0 -0.31220280837E+02  0.39120777168E+02  0.28360818889E+02  0.57528055675E+02  0.00000000000E+00 0.  1.
         11    1    4    4    0    0 -0.39362797418E+02  0.32417888809E+02 -0.66371600001E+02  0.83699095706E+02  0.00000000000E+00 0. -1.
</event>
<event>
 8    1  0.6505836E-009  0.1222513E+03  0.7561462E-02  0.1239429E+00
          1   -1    0    0  501    0  0.00000000000E+00  0.00000000000E+00  0.20767696371E+03  0.20767696371E+03  0.00000000000E+00 0. -1.
         -1   -1    0    0    0  501 -0.00000000000E+00 -0.00000000000E+00 -0.93166744529E+02  0.93166744529E+02  0.00000000000E+00 0.  1.
         25    2    1    2    0    0  0.48300907392E+02 -0.59803701949E+02  0.10410829340E+03  0.17998743030E+03  0.12508987925E+03 0.  0.
         23    2    1    2    0    0 -0.48300907392E+02  0.59803701949E+02  0.10401925777E+02  0.12085627793E+03  0.92674588931E+02 0.  0.
          5    1    3    3  502    0  0.85619784358E+02 -0.48481673520E+02  0.43193773664E+02  0.10753787530E+03  0.41800000000E+01 0.  1.
         -5    1    3    3    0  502 -0.37318876966E+02 -0.11322028429E+02  0.60914519735E+02  0.72449555004E+02  0.41800000000E+01 0.  1.
        -11    1    4    4    0    0  0.11281022349E+02  0.43624105079E+02 -0.23075733790E+02  0.50624238257E+02  0.00000000000E+00 0.  1.
         11    1    4    4    0    0 -0.59581929740E+02  0.16179596870E+02  0.33477659567E+02  0.70232039673E+02  0.00000000000E+00 0. -1.
</event>
<event>
 8    1  0.6505836E-009  0.1818836E+03  0.7561462E-02  0.1165992E+00
          1   -1    0    0  501    0  0.00000000000E+00  0.00000000000E+00  0.37755347191E+03  0.37755347191E+03  0.00000000000E+00 0. -1.
         -1   -1    0    0    0  501 -0.00000000000E+00 -0.00000000000E+00 -0.10129182190E+03  0.10129182190E+03  0.00000000000E+00 0.  1.
         25    2    1    2    0    0 -0.14923540051E+03 -0.58469204309E+02  0.11482471642E+03  0.23350104463E+03  0.12509264457E+03 0.  0.
         23    2    1    2    0    0  0.14923540051E+03  0.58469204309E+02  0.16143693358E+03  0.24534424917E+03  0.91880707774E+02 0.  0.
          5    1    3    3  502    0 -0.15750959890E+03 -0.81920268344E+02  0.94846792202E+02  0.20132955695E+03  0.41800000000E+01 0.  1.
         -5    1    3    3    0  502  0.82741983944E+01  0.23451064035E+02  0.19977924220E+02  0.32171487681E+02  0.41800000000E+01 0.  1.
        -11    1    4    4    0    0  0.54591459384E+02  0.29116397445E+02  0.12552786708E+03  0.13994726668E+03  0.00000000000E+00 0.  1.
         11    1    4    4    0    0  0.94643941123E+02  0.29352806864E+02  0.35909066508E+02  0.10539698250E+03  0.00000000000E+00 0. -1.
</event>
<event>
 8    1  0.6505836E-009  0.9731553E+02  0.7561462E-02  0.1286044E+00
          2   -1    0    0  501    0  0.00000000000E+00  0.00000000000E+00  0.77914233490E+03  0.77914233490E+03  0.00000000000E+00 0. -1.
         -2   -1    0    0    0  501 -0.00000000000E+00 -0.00000000000E+00 -0.15319795507E+02  0.15319795507E+02  0.00000000000E+00 0.  1.
         25    2    1    2    0    0  0.15808735759E+02  0.23789518558E+02  0.53226604256E+03  0.54751362734E+03  0.12509266460E+03 0.  0.
         23    2    1    2    0    0 -0.15808735759E+02 -0.23789518558E+02  0.23155649683E+03  0.24694850307E+03  0.80927712336E+02 0.  0.
          5    1    3    3  502    0 -0.16922349167E+02  0.58723796111E+02  0.43206323449E+03  0.43638396067E+03  0.41800000000E+01 0.  1.
         -5    1    3    3    0  502  0.32731084925E+02 -0.34934277554E+02  0.10020280807E+03  0.11112966667E+03  0.41800000000E+01 0.  1.
        -11    1    4    4    0    0 -0.28801273257E+02 -0.49069438488E+02  0.16652044396E+03  0.17597267229E+03  0.00000000000E+00 0. -1.
         11    1    4    4    0    0  0.12992537498E+02  0.25279919930E+02  0.65036052866E+02  0.70975830779E+02  0.00000000000E+00 0.  1.
</event>
<event>
 8    1  0.6505836E-009  0.3405520E+03  0.7561462E-02  0.1066561E+00
          2   -1    0    0  501    0  0.00000000000E+00  0.00000000000E+00  0.71270697566E+03  0.71270697566E+03  0.00000000000E+00 0. -1.
         -2   -1    0    0    0  501 -0.00000000000E+00 -0.00000000000E+00 -0.20903227087E+03  0.20903227087E+03  0.00000000000E+00 0.  1.
         25    2    1    2    0    0 -0.33522550633E+03  0.22063476504E+02  0.44079526070E+03  0.56816481423E+03  0.12509139535E+03 0.  0.
         23    2    1    2    0    0  0.33522550633E+03 -0.22063476504E+02  0.62879444101E+02  0.35357443230E+03  0.90543456968E+02 0.  0.
          5    1    3    3  502    0 -0.33637558988E+03  0.18031048931E+02  0.44690538076E+03  0.55965663396E+03  0.41800000000E+01 0.  1.
         -5    1    3    3    0  502  0.11500835524E+01  0.40324275727E+01 -0.61101200598E+01  0.85081802667E+01  0.41800000000E+01 0.  1.
        -11    1    4    4    0    0  0.15306653380E+03 -0.29949948040E+02 -0.12082608581E+02  0.15643641707E+03  0.00000000000E+00 0.  1.
         11    1    4    4    0    0  0.18215897253E+03  0.78864715363E+01  0.74962052683E+02  0.19713801523E+03  0.00000000000E+00 0. -1.
</event>
<event>
 8    1  0.6505836E-009  0.1328392E+03  0.7561462E-02  0.1223303E+00
         -2   -1    0    0    0  501 -0.00000000000E+00  0.00000000000E+00  0.39470209522E+02  0.39470209522E+02  0.00000000000E+00 0.  1.
          2   -1    0    0  501    0  0.00000000000E+00 -0.00000000000E+00 -0.69357249515E+03  0.69357249515E+03  0.00000000000E+00 0. -1.
         25    2    1    2    0    0 -0.11453204238E+02  0.11977388455E+03 -0.41325641616E+03  0.44823039392E+03  0.12511059599E+03 0.  0.
         23    2    1    2    0    0  0.11453204238E+02 -0.11977388455E+03 -0.24084586947E+03  0.28481231075E+03  0.92921258114E+02 0.  0.
          5    1    3    3  502    0 -0.37628704548E+02  0.21505811158E+02 -0.33127270305E+02  0.54711130105E+02  0.41800000000E+01 0.  1.
         -5    1    3    3    0  502  0.26175500310E+02  0.98268073389E+02 -0.38012914586E+03  0.39351926381E+03  0.41800000000E+01 0.  1.
        -11    1    4    4    0    0  0.24429890390E+01 -0.15216065475E+02  0.60360585715E+01  0.16550856385E+02  0.00000000000E+00 0.  1.
         11    1    4    4    0    0  0.90102151986E+01 -0.10455781907E+03 -0.24688192804E+03  0.26826145437E+03  0.00000000000E+00 0. -1.
</event>
<event>
 8    1  0.6505836E-009  0.1064437E+03  0.7561462E-02  0.1267301E+00
         -2   -1    0    0    0  501 -0.00000000000E+00  0.00000000000E+00  0.87899429814E+02  0.87899429814E+02  0.00000000000E+00 0. -1.
          2   -1    0    0  501    0  0.00000000000E+00 -0.00000000000E+00 -0.30661878611E+03  0.30661878611E+03  0.00000000000E+00 0.  1.
         25    2    1    2    0    0  0.92182206119E+02 -0.28416036389E+02 -0.17113088478E+03  0.23288999964E+03  0.12508773704E+03 0.  0.
         23    2    1    2    0    0 -0.92182206119E+02  0.28416036389E+02 -0.47588471513E+02  0.16162821628E+03  0.12063990811E+03 0.  0.
          5    1    3    3  502    0  0.79266232271E+02 -0.24203848084E+02 -0.25852996304E+02  0.86918419558E+02  0.41800000000E+01 0. -1.
         -5    1    3    3    0  502  0.12915973847E+02 -0.42121883052E+01 -0.14527788848E+03  0.14597158008E+03  0.41800000000E+01 0. -1.
        -11    1    4    4    0    0 -0.75460789923E+02 -0.77367143432E+01 -0.80021480272E+02  0.11026162011E+03  0.00000000000E+00 0.  1.
         11    1    4    4    0    0 -0.16721416196E+02  0.36152750732E+02  0.32433008759E+02  0.51366596172E+02  0.00000000000E+00 0. -1.
</event>
<event>
 8    1  0.6505836E-009  0.1109009E+03  0.7561462E-02  0.1258911E+00
          3   -1    0    0  501    0  0.00000000000E+00  0.00000000000E+00  0.23088854903E+02  0.23088854903E+02  0.00000000000E+00 0. -1.
         -3   -1    0    0    0  501 -0.00000000000E+00 -0.00000000000E+00 -0.69769074885E+03  0.69769074885E+03  0.00000000000E+00 0.  1.
         25    2    1    2    0    0  0.26634201241E+02  0.53098846701E+01 -0.53559602424E+03  0.55067999768E+03  0.12509109925E+03 0.  0.
         23    2    1    2    0    0 -0.26634201241E+02 -0.53098846701E+01 -0.13900586971E+03  0.17009960608E+03  0.94200151925E+02 0.  0.
          5    1    3    3  502    0  0.65789482732E+02  0.38584554587E+02 -0.31094877551E+03  0.32019312497E+03  0.41800000000E+01 0. -1.
         -5    1    3    3    0  502 -0.39155281491E+02 -0.33274669917E+02 -0.22464724873E+03  0.23048687270E+03  0.41800000000E+01 0. -1.
        -11    1    4    4    0    0 -0.24150540003E+02 -0.46606882252E+02 -0.52660255032E+02  0.74354236703E+02  0.00000000000E+00 0. -1.
         11    1    4    4    0    0 -0.24836612380E+01  0.41296997582E+02 -0.86345614678E+02  0.95745369374E+02  0.00000000000E+00 0.  1.
</event>
<event>
 8    1  0.6505836E-009  0.9764827E+02  0.7561462E-02  0.1285320E+00
         -2   -1    0    0    0  501 -0.00000000000E+00  0.00000000000E+00  0.71202466518E+02  0.71202466518E+02  0.00000000000E+00 0.  1.
          2   -1    0    0  501    0  0.00000000000E+00 -0.00000000000E+00 -0.19821194876E+03  0.19821194876E+03  0.00000000000E+00 0. -1.
         25    2    1    2    0    0  0.34941529348E+02  0.32331441663E+02 -0.78525153169E+02  0.15517646819E+03  0.12508918421E+03 0.  0.
         23    2    1    2    0    0 -0.34941529348E+02 -0.32331441663E+02 -0.48484329072E+02  0.11423794709E+03  0.91833249946E+02 0.  0.
          5    1    3    3  502    0 -0.31372128628E+02 -0.21842939673E+02  0.67491982272E+00  0.38461050232E+02  0.41800000000E+01 0.  1.
         -5    1    3    3    0  502  0.66313657976E+02  0.54174381336E+02 -0.79200072992E+02  0.11671541796E+03  0.41800000000E+01 0.  1.
        -11    1    4    4    0    0  0.14181571693E+02 -0.81713406020E+01  0.20461345549E+02  0.26202183966E+02  0.00000000000E+00 0.  1.
         11    1    4    4    0    0 -0.49123101041E+02 -0.24160101061E+02 -0.68945674621E+02  0.88035763120E+02  0.00000000000E+00 0. -1.
</event>
<event>
 8    1  0.6505836E-009  0.1116804E+03  0.7561462E-02  0.1257489E+00
          1   -1    0    0  501    0  0.00000000000E+00  0.00000000000E+00  0.50966136731E+03  0.50966136731E+03  0.00000000000E+00 0. -1.
         -1   -1    0    0    0  501 -0.00000000000E+00 -0.00000000000E+00 -0.28058362446E+02  0.28058362446E+02  0.00000000000E+00 0.  1.
         25    2    1    2    0    0  0.42183794868E+01  0.45727185992E+02  0.31521920590E+03  0.34222685495E+03  0.12508917706E+03 0.  0.
         23    2    1    2    0    0 -0.42183794868E+01 -0.45727185992E+02  0.16638379897E+03  0.19549287481E+03  0.91788481182E+02 0.  0.
          5    1    3    3  502    0  0.40642616250E+02 -0.20382993836E+02  0.56245811824E+02  0.72445513602E+02  0.41800000000E+01 0. -1.
         -5    1    3    3    0  502 -0.36424236763E+02  0.66110179828E+02  0.25897339407E+03  0.26978134134E+03  0.41800000000E+01 0. -1.
        -11    1    4    4    0    0 -0.25421948466E+02 -0.67248750020E+02  0.12586237792E+03  0.14494829429E+03  0.00000000000E+00 0. -1.
         11    1    4    4    0    0  0.21203568979E+02  0.21521564028E+02  0.40521421047E+02  0.50544580514E+02  0.00000000000E+00 0.  1.
</event>
<event>
 8    1  0.6505836E-009  0.1323246E+03  0.7561462E-02  0.1224047E+00
          2   -1    0    0  501    0  0.00000000000E+00  0.00000000000E+00  0.12149825459E+04  0.12149825459E+04  0.00000000000E+00 0. -1.
         -2   -1    0    0    0  501 -0.00000000000E+00 -0.00000000000E+00 -0.14956941016E+02  0.14956941016E+02  0.00000000000E+00 0.  1.
         25    2    1    2    0    0 -0.78791527997E+02 -0.32936396662E+01  0.60748153317E+03  0.62521729298E+03  0.12507556655E+03 0.  0.
         23    2    1    2    0    0  0.78791527997E+02  0.32936396662E+01  0.59254407167E+03  0.60472219389E+03  0.91441248742E+02 0.  0.
          5    1    3    3  502    0  0.12267224218E+02 -0.45424272677E+02  0.17931931877E+03  0.18543661942E+03  0.41800000000E+01 0. -1.
         -5    1    3    3    0  502 -0.91058752216E+02  0.42130633011E+02  0.42816221440E+03  0.43978067355E+03  0.41800000000E+01 0. -1.
        -11    1    4    4    0    0  0.87755304533E+02  0.26864008435E+02  0.51694020743E+03  0.52502366278E+03  0.00000000000E+00 0. -1.
         11    1    4    4    0    0 -0.89637765352E+01 -0.23570368768E+02  0.75603864244E+02  0.79698531117E+02  0.00000000000E+00 0.  1.
</event>
<event>
 7    1  0.6505836E-009  0.9340825E+02  0.7561462E-02  0.1294802E+00
         -4   -1    0    0    0  501 -0.00000000000E+00  0.00000000000E+00  0.25914494226E+03  0.25914494226E+03  0.00000000000E+00 0.  1.
          4   -1    0    0  501    0  0.00000000000E+00 -0.00000000000E+00 -0.95700963290E+02  0.95700963290E+02  0.00000000000E+00 0. -1.
         23    2    1    2    0    0 -0.98695781030E+01  0.63152577395E+02 -0.29359327859E+02  0.11642063086E+03  0.92769265140E+02 0.  0.
          5    1    1    2  502    0 -0.40495343297E+02 -0.10333613663E+02  0.12431332844E+02  0.43802589380E+02  0.41800000000E+01 0.  1.
         -5    1    1    2    0  502  0.50364921400E+02 -0.52818963732E+02  0.18037197398E+03  0.19462268530E+03  0.41800000000E+01 0.  1.
        -11    1    3    3    0    0  0.11326479800E+02  0.32729411317E+02  0.30406271778E+02  0.46087361318E+02  0.00000000000E+00 0.  1.
         11    1    3    3    0    0 -0.21196057903E+02  0.30423166077E+02 -0.59765599637E+02  0.70333269544E+02  0.00000000000E+00 0. -1.
</event>
<event>
 8    1  0.6505836E-009  0.2338886E+03  0.7561462E-02  0.1123932E+00
         -1   -1    0    0    0  501 -0.00000000000E+00  0.00000000000E+00  0.30030202589E+02  0.30030202589E+02  0.00000000000E+00 0.  1.
          1   -1    0    0  501    0  0.00000000000E+00 -0.00000000000E+00 -0.21217166763E+04  0.21217166763E+04  0.00000000000E+00 0. -1.
         25    2    1    2    0    0  0.55188217656E+02  0.20663085947E+03 -0.14266101445E+04  0.14479660666E+04  0.12508866520E+03 0.  0.
         23    2    1    2    0    0 -0.55188217656E+02 -0.20663085947E+03 -0.66507632922E+03  0.70378081230E+03  0.85081470538E+02 0.  0.
          5    1    3    3  502    0  0.78073536272E+02  0.20179199822E+03 -0.13627921414E+04  0.13798678852E+04  0.41800000000E+01 0.  1.
         -5    1    3    3    0  502 -0.22885318616E+02  0.48388612471E+01 -0.63818003136E+02  0.68098181404E+02  0.41800000000E+01 0.  1.
        -11    1    4    4    0    0  0.24740776802E+01 -0.13776498397E+03 -0.34978203510E+03  0.37594252745E+03  0.00000000000E+00 0.  1.
         11    1    4    4    0    0 -0.57662295336E+02 -0.68865875501E+02 -0.31529429412E+03  0.32783828485E+03  0.00000000000E+00 0. -1.
</event>
<event>
 8    1  0.6505836E-009  0.6563492E+02  0.7561462E-02  0.1375599E+00
         -2   -1    0    0    0  501 -0.00000000000E+00  0.00000000000E+00  0.28096568448E+03  0.28096568448E+03  0.00000000000E+00 0.  1.
          2   -1    0    0  501    0  0.00000000000E+00 -0.00000000000E+00 -0.48524195460E+02  0.48524195460E+02  0.00000000000E+00 0. -1.
         25    2    1    2    0    0 -0.35876739324E+02  0.16198923304E+02  0.11553700420E+03  0.17477439147E+03  0.12509093906E+03 0.  0.
         23    2    1    2    0    0  0.35876739324E+02 -0.16198923304E+02  0.11690448482E+03  0.15471548847E+03  0.93384571853E+02 0.  0.
          5    1    3    3  502    0 -0.38054229614E+02  0.12654495581E+02  0.14202518736E+03  0.14763768792E+03  0.41800000000E+01 0. -1.
         -5    1    3    3    0  502  0.21774902900E+01  0.35444277234E+01 -0.26488183167E+02  0.27136703545E+02  0.41800000000E+01 0. -1.
        -11    1    4    4    0    0  0.59120367366E+02 -0.52323360729E+01  0.35066108163E+02  0.68936399093E+02  0.00000000000E+00 0. -1.
         11    1    4    4    0    0 -0.23243628042E+02 -0.10966587231E+02  0.81838376660E+02  0.85779089377E+02  0.00000000000E+00 0.  1.
</event>
<event>
 8    1  0.6505836E-009  0.1757950E+03  0.7561462E-02  0.1171936E+00
         -2   -1    0    0    0  501 -0.00000000000E+00  0.00000000000E+00  0.20795086783E+03  0.20795086783E+03  0.00000000000E+00 0. -1.
          2   -1    0    0  501    0  0.00000000000E+00 -0.00000000000E+00 -0.15547180470E+03  0.15547180470E+03  0.00000000000E+00 0.  1.
         25    2    1    2    0    0 -0.14440115521E+03  0.10870480488E+02  0.33609144606E+02  0.19428394237E+03  0.12508722833E+03 0.  0.
         23    2    1    2    0    0  0.14440115521E+03 -0.10870480488E+02  0.18869918520E+02  0.16913873015E+03  0.85334490341E+02 0.  0.
          5    1    3    3  502    0 -0.15919976091E+03  0.26840490383E+02  0.98695016935E+01  0.16180190130E+03  0.41800000000E+01 0. -1.
         -5    1    3    3    0  502  0.14798605706E+02 -0.15970009895E+02  0.23739642913E+02  0.32482041077E+02  0.41800000000E+01 0. -1.
        -11    1    4    4    0    0  0.65849196114E+02  0.37392643181E+02  0.12222250471E+02  0.76705344009E+02  0.00000000000E+00 0. -1.
         11    1    4    4    0    0  0.78551959095E+02 -0.48263123669E+02  0.66476680487E+01  0.92433386146E+02  0.00000000000E+00 0.  1.
</event>
<event>
 8    1  0.6505836E-009  0.1494383E+03  0.7561462E-02  0.1201165E+00
         -1   -1    0    0    0  501 -0.00000000000E+00  0.00000000000E+00  0.30217051421E+03  0.30217051421E+03  0.00000000000E+00 0.  1.
          1   -1    0    0  501    0  0.00000000000E+00 -0.00000000000E+00 -0.15503620605E+03  0.15503620605E+03  0.00000000000E+00 0. -1.
         25    2    1    2    0    0 -0.52194580999E+01 -0.10221553410E+03  0.24136702817E+03  0.29048644141E+03  0.12509625174E+03 0.  0.
         23    2    1    2    0    0  0.52194580999E+01  0.10221553410E+03 -0.94232720014E+02  0.16672027885E+03  0.91872671146E+02 0.  0.
          5    1    3    3  502    0 -0.64986287840E+02 -0.54974667932E+02  0.12198264759E+03  0.14880413447E+03  0.41800000000E+01 0.  1.
         -5    1    3    3    0  502  0.59766829740E+02 -0.47240866172E+02  0.11938438058E+03  0.14168230694E+03  0.41800000000E+01 0.  1.
        -11    1    4    4    0    0 -0.43024853187E+02  0.41172498699E+02 -0.45073077728E+02  0.74685306297E+02  0.00000000000E+00 0. -1.
         11    1    4    4    0    0  0.48244311287E+02  0.61043035406E+02 -0.49159642286E+02  0.92034972553E+02  0.00000000000E+00 0.  1.
</event>
<event>
 8    1  0.6505836E-009  0.1006866E+03  0.7561462E-02  0.1278859E+00
         -1   -1    0    0    0  501 -0.00000000000E+00  0.00000000000E+00  0.12546086953E+03  0.12546086953E+03  0.00000000000E+00 0.  1.
          1   -1    0    0  501    0  0.00000000000E+00 -0.00000000000E+00 -0.16915723095E+03  0.16915723095E+03  0.00000000000E+00 0. -1.
         25    2    1    2    0    0  0.44544572316E+02 -0.38907669973E+02 -0.10070462836E+03  0.17114781104E+03  0.12510845433E+03 0.  0.
         23    2    1    2    0    0 -0.44544572316E+02  0.38907669973E+02  0.57008266940E+02  0.12347028945E+03  0.92178870521E+02 0.  0.
          5    1    3    3  502    0  0.77543987597E+02 -0.47397971222E+02 -0.35887695527E+02  0.97801006020E+02  0.41800000000E+01 0. -1.
         -5    1    3    3    0  502 -0.32999415281E+02  0.84903012485E+01 -0.64816932836E+02  0.73346805018E+02  0.41800000000E+01 0. -1.
        -11    1    4    4    0    0 -0.27685531223E+02  0.49097801284E+02  0.76985430084E+02  0.95414040766E+02  0.00000000000E+00 0.  1.
         11    1    4    4    0    0 -0.16859041093E+02 -0.10190131311E+02 -0.19977163144E+02  0.28056248680E+02  0.00000000000E+00 0. -1.
</event>
<event>
 8    1  0.6505836E-009  0.8906858E+02  0.7561462E-02  0.1305123E+00
         -1   -1    0    0    0  501 -0.00000000000E+00  0.00000000000E+00  0.20653040943E+03  0.20653040943E+03  0.00000000000E+00 0.  1.
          1   -1    0    0  501    0  0.00000000000E+00 -0.00000000000E+00 -0.93044306195E+02  0.93044306195E+02  0.00000000000E+00 0. -1.
         25    2    1    2    0    0 -0.67719650125E+02 -0.42997790077E+02  0.96532219753E+02  0.17719833715E+03  0.12508405284E+03 0.  0.
         23    2    1    2    0    0  0.67719650125E+02  0.42997790077E+02  0.16953883487E+02  0.12237637848E+03  0.90850332300E+02 0.  0.
          5    1    3    3  502    0 -0.25130469212E+02 -0.15881905791E+02  0.11830631562E+03  0.12205585660E+03  0.41800000000E+01 0. -1.
         -5    1    3    3    0  502 -0.42589180913E+02 -0.27115884286E+02 -0.21774095864E+02  0.55142480558E+02  0.41800000000E+01 0. -1.
        -11    1    4    4    0    0  0.42901390440E+02  0.55108916149E+02  0.44948115594E+02  0.83053326461E+02  0.00000000000E+00 0.  1.
         11    1    4    4    0    0  0.24818259685E+02 -0.12111126072E+02 -0.27994232107E+02  0.39323052015E+02  0.00000000000E+00 0. -1.
</event>
<event>
 8    1  0.6505836E-009  0.1039431E+03  0.7561462E-02  0.1272216E+00
         -2   -1    0    0    0  501 -0.00000000000E+00  0.00000000000E+00  0.11253295291E+03  0.11253295291E+03  0.00000000000E+00 0. -1.
          2   -1    0    0  501    0  0.00000000000E+00 -0.00000000000E+00 -0.86553178195E+03  0.86553178195E+03  0.00000000000E+00 0.  1.
         25    2    1    2    0    0  0.27058780041E+02 -0.10379014133E+02 -0.83920694194E+03  0.84897331573E+03  0.12508995927E+03 0.  0.
         23    2    1    2    0    0 -0.27058780041E+02  0.10379014133E+02  0.86208112905E+02  0.12909141913E+03  0.91612522345E+02 0.  0.
          5    1    3    3  502    0  0.54176038406E+02  0.42175549436E+02 -0.42008965116E+03  0.42568369421E+03  0.41800000000E+01 0.  1.
         -5    1    3    3    0  502 -0.27117258365E+02 -0.52554563569E+02 -0.41911729079E+03  0.42328962152E+03  0.41800000000E+01 0.  1.
        -11    1    4    4    0    0 -0.42884255631E+02  0.31653459351E+02  0.18572427819E+02  0.56444095750E+02  0.00000000000E+00 0.  1.
         11    1    4    4    0    0  0.15825475591E+02 -0.21274445218E+02  0.67635685086E+02  0.72647323378E+02  0.00000000000E+00 0. -1.
</event>
<event>
 8    1  0.6505836E-009  0.1469538E+03  0.7561462E-02  0.1204267E+00
          2   -1    0    0  501    0  0.00000000000E+00  0.00000000000E+00  0.69411914024E+03  0.69411914024E+03  0.00000000000E+00 0. -1.
         -2   -1    0    0    0  501 -0.00000000000E+00 -0.00000000000E+00 -0.56434502915E+02  0.56434502915E+02  0.00000000000E+00 0.  1.
         25    2    1    2    0    0 -0.23256668542E+02 -0.13018128919E+03  0.14572266462E+03  0.23317413083E+03  0.12508812740E+03 0.  0.
         23    2    1    2    0    0  0.23256668542E+02  0.13018128919E+03  0.49196197270E+03  0.51737951233E+03  0.90371104391E+02 0.  0.
          5    1    3    3  502    0  0.71722965985E+01 -0.11971451160E+03  0.15806532298E+03  0.19845685893E+03  0.41800000000E+01 0. -1.
         -5    1    3    3    0  502 -0.30428965140E+02 -0.10466777582E+02 -0.12342658359E+02  0.34717271894E+02  0.41800000000E+01 0. -1.
        -11    1    4    4    0    0 -0.15224421483E+02  0.23053857956E+02  0.26791902193E+02  0.38484664468E+02  0.00000000000E+00 0. -1.
         11    1    4    4    0    0  0.38481090025E+02  0.10712743123E+03  0.46517007050E+03  0.47889484786E+03  0.00000000000E+00 0.  1.
</event>
<event>
 8    1  0.6505836E-009  0.2053824E+03  0.7561462E-02  0.1145276E+00
         -1   -1    0    0    0  501 -0.00000000000E+00  0.00000000000E+00  0.18908929059E+03  0.18908929059E+03  0.00000000000E+00 0.  1.
          1   -1    0    0  501    0  0.00000000000E+00 -0.00000000000E+00 -0.35950212189E+03  0.35950212189E+03  0.00000000000E+00 0. -1.
         25    2    1    2    0    0 -0.13405873336E+03 -0.11929236730E+03  0.74418618797E+02  0.23105690406E+03  0.12508696657E+03 0.  0.
         23    2    1    2    0    0  0.13405873336E+03  0.11929236730E+03 -0.24483145010E+03  0.31753450842E+03  0.93184291568E+02 0.  0.
          5    1    3    3  502    0  0.23259009528E+02 -0.28439517715E+02  0.10699286457E+02  0.38493308805E+02  0.41800000000E+01 0. -1.
         -5    1    3    3    0  502 -0.15731774288E+03 -0.90852849582E+02  0.63719332340E+02  0.19256359525E+03  0.41800000000E+01 0. -1.
        -11    1    4    4    0    0  0.63442113595E+02  0.13476849091E+02 -0.13375805137E+03  0.14865309800E+03  0.00000000000E+00 0. -1.
         11    1    4    4    0    0  0.70616619761E+02  0.10581551821E+03 -0.11107339873E+03  0.16888141042E+03  0.00000000000E+00 0.  1.
</event>
<event>
 8    1  0.6505836E-009  0.1966876E+03  0.7561462E-02  0.1152564E+00
          4   -1    0    0  501    0  0.00000000000E+00  0.00000000000E+00  0.23955837377E+03  0.23955837377E+03  0.00000000000E+00 0. -1.
         -4   -1    0    0    0  501 -0.00000000000E+00 -0.00000000000E+00 -0.19882354949E+03  0.19882354949E+03  0.00000000000E+00 0.  1.
         25    2    1    2    0    0  0.15927934141E+03 -0.40931255920E+02 -0.72426542011E+02  0.21894947194E+03  0.12509193006E+03 0.  0.
         23    2    1    2    0    0 -0.15927934141E+03  0.40931255920E+02  0.11316136629E+03  0.21943245132E+03  0.91103400392E+02 0.  0.
          5    1    3    3  502    0  0.84325841990E+02 -0.83796340396E+02 -0.53622759616E+02  0.13048197975E+03  0.41800000000E+01 0.  1.
         -5    1    3    3    0  502  0.74953499417E+02  0.42865084477E+02 -0.18803782395E+02  0.88467492190E+02  0.41800000000E+01 0.  1.
        -11    1    4    4    0    0 -0.96099722093E+01  0.37027837462E+02  0.21511674510E+02  0.43888090106E+02  0.00000000000E+00 0. -1.
         11    1    4    4    0    0 -0.14966936920E+03  0.39034184577E+01  0.91649691781E+02  0.17554436122E+03  0.00000000000E+00 0.  1.
</event>
<event>
 8    1  0.6505836E-009  0.2127854E+03  0.7561462E-02  0.1139379E+00
          1   -1    0    0  501    0  0.00000000000E+00  0.00000000000E+00  0.47097285229E+03  0.47097285229E+03  0.00000000000E+00 0. -1.
         -1   -1    0    0    0  501 -0.00000000000E+00 -0.00000000000E+00 -0.11592245999E+03  0.11592245999E+03  0.00000000000E+00 0.  1.
         25    2    1    2    0    0 -0.14063667248E+03 -0.13688573293E+03  0.26493298003E+03  0.35264108448E+03  0.12509945255E+03 0.  0.
         23    2    1    2    0    0  0.14063667248E+03  0.13688573293E+03  0.90117412270E+02  0.23425422781E+03  0.90760771957E+02 0.  0.
          5    1    3    3  502    0  0.69494684609E+01  0.15239265509E+02  0.39926530950E+02  0.43498627551E+02  0.41800000000E+01 0. -1.
         -5    1    3    3    0  502 -0.14758614094E+03 -0.15212499844E+03  0.22500644908E+03  0.30914245692E+03  0.41800000000E+01 0. -1.
        -11    1    4    4    0    0  0.51993585359E+02  0.47389168835E+02 -0.12906713270E+02  0.71523768698E+02  0.00000000000E+00 0. -1.
         11    1    4    4    0    0  0.88643087117E+02  0.89496564098E+02  0.10302412554E+03  0.16273045911E+03  0.00000000000E+00 0.  1.
</event>
<event>
 8    1  0.6505836E-009  0.1331766E+03  0.7561462E-02  0.1222817E+00
          2   -1    0    0  501    0  0.00000000000E+00  0.00000000000E+00  0.53605461570E+03  0.53605461570E+03  0.00000000000E+00 0. -1.
         -2   -1    0    0    0  501 -0.00000000000E+00 -0.00000000000E+00 -0.49157380795E+02  0.49157380795E+02  0.00000000000E+00 0.  1.
         25    2    1    2    0    0 -0.52559419174E+02 -0.93075439490E+02  0.15765680183E+03  0.22787886858E+03  0.12509029379E+03 0.  0.
         23    2    1    2    0    0  0.52559419174E+02  0.93075439490E+02  0.32924043308E+03  0.35733312792E+03  0.88668887190E+02 0.  0.
          5    1    3    3  502    0 -0.61819264813E+01 -0.95421150889E+02  0.15372829212E+03  0.18108912847E+03  0.41800000000E+01 0. -1.
         -5    1    3    3    0  502 -0.46377492693E+02  0.23457113991E+01  0.39285097055E+01  0.46789740104E+02  0.41800000000E+01 0. -1.
        -11    1    4    4    0    0  0.18545698879E+01  0.66951717487E+02  0.94926492720E+02  0.11617663674E+03  0.00000000000E+00 0.  1.
         11    1    4    4    0    0  0.50704849286E+02  0.26123722003E+02  0.23431394036E+03  0.24115649118E+03  0.00000000000E+00 0. -1.
</event>
<event>
 8    1  0.6505836E-009  0.1780135E+03  0.7561462E-02  0.1169740E+00
          1   -1    0    0  501    0  0.00000000000E+00  0.00000000000E+00  0.39670902602E+03  0.39670902602E+03  0.00000000000E+00 0. -1.
         -1   -1    0    0    0  501 -0.00000000000E+00 -0.00000000000E+00 -0.12599298155E+03  0.12599298155E+03  0.00000000000E+00 0.  1.
         25    2    1    2    0    0  0.61365250610E+02  0.14900906516E+03  0.26912968766E+03  0.33771828769E+03  0.12511377854E+03 0.  0.
         23    2    1    2    0    0 -0.61365250610E+02 -0.14900906516E+03  0.15863568135E+01  0.18498371987E+03  0.90813350365E+02 0.  0.
          5    1    3    3  502    0  0.48597626930E+02  0.17889665827E+02  0.19622377147E+02  0.55536290581E+02  0.41800000000E+01 0.  1.
         -5    1    3    3    0  502  0.12767623680E+02  0.13111939934E+03  0.24950731051E+03  0.28218199711E+03  0.41800000000E+01 0.  1.
        -11    1    4    4    0    0 -0.33603739772E+02 -0.13860437267E+03  0.27923577516E+02  0.14532759418E+03  0.00000000000E+00 0. -1.
         11    1    4    4    0    0 -0.27761510839E+02 -0.10404692495E+02 -0.26337220703E+02  0.39656125685E+02  0.00000000000E+00 0.  1.
</event>
<event>
 8    1  0.6505836E-009  0.1385566E+03  0.7561462E-02  0.1215285E+00
          2   -1    0    0  501    0  0.00000000000E+00  0.00000000000E+00  0.35766499960E+02  0.35766499960E+02  0.00000000000E+00 0. -1.
         -2   -1    0    0    0  501 -0.00000000000E+00 -0.00000000000E+00 -0.67384777146E+03  0.67384777146E+03  0.00000000000E+00 0.  1.
         25    2    1    2    0    0 -0.10345257698E+03  0.39793282183E+02 -0.34972241467E+03  0.38760669024E+03  0.12508892041E+03 0.  0.
         23    2    1    2    0    0  0.10345257698E+03 -0.39793282183E+02 -0.28835885683E+03  0.32200758117E+03  0.90841130720E+02 0.  0.
          5    1    3    3  502    0 -0.36236795966E+02  0.75184209136E+02 -0.23964553134E+03  0.25379760396E+03  0.41800000000E+01 0.  1.
         -5    1    3    3    0  502 -0.67215781016E+02 -0.35390926953E+02 -0.11007688333E+03  0.13380908628E+03  0.41800000000E+01 0.  1.
        -11    1    4    4    0    0  0.67054939444E+02 -0.52031265592E+01 -0.66662272895E+02  0.94695808024E+02  0.00000000000E+00 0.  1.
         11    1    4    4    0    0  0.36397637538E+02 -0.34590155624E+02 -0.22169658393E+03  0.22731177315E+03  0.00000000000E+00 0. -1.
</event>
<event>
 8    1  0.6505836E-009  0.1386780E+03  0.7561462E-02  0.1215119E+00
         -1   -1    0    0    0  501 -0.00000000000E+00  0.00000000000E+00  0.76632990564E+02  0.76632990564E+02  0.00000000000E+00 0.  1.
          1   -1    0    0  501    0  0.00000000000E+00 -0.00000000000E+00 -0.53791780736E+03  0.53791780736E+03  0.00000000000E+00 0. -1.
         25    2    1    2    0    0  0.10121924118E+03 -0.74579337826E+02 -0.65377644672E+02  0.18902001125E+03  0.12508763254E+03 0.  0.
         23    2    1    2    0    0 -0.10121924118E+03  0.74579337826E+02 -0.39590717213E+03  0.42553078667E+03  0.92339314764E+02 0.  0.
          5    1    3    3  502    0  0.40781985630E+01 -0.36052166437E+02  0.30160990746E+02  0.47366107832E+02  0.41800000000E+01 0. -1.
         -5    1    3    3    0  502  0.97141042618E+02 -0.38527171389E+02 -0.95538635418E+02  0.14165390342E+03  0.41800000000E+01 0. -1.
        -11    1    4    4    0    0 -0.58117968321E+02  0.72741495672E+02 -0.15518491964E+03  0.18097343097E+03  0.00000000000E+00 0.  1.
         11    1    4    4    0    0 -0.43101272860E+02  0.18378421547E+01 -0.24072225249E+03  0.24455735570E+03  0.00000000000E+00 0. -1.
</event>
<event>
 8    1  0.6505836E-009  0.2983754E+03  0.7561462E-02  0.1086056E+00
         -1   -1    0    0    0  501 -0.00000000000E+00  0.00000000000E+00  0.55035632076E+03  0.55035632076E+03  0.00000000000E+00 0.  1.
          1   -1    0    0  501    0  0.00000000000E+00 -0.00000000000E+00 -0.19318693890E+03  0.19318693890E+03  0.00000000000E+00 0. -1.
         25    2    1    2    0    0  0.25655730598E+03 -0.12493823798E+03  0.50698465537E+02  0.31567273385E+03  0.12509087067E+03 0.  0.
         23    2    1    2    0    0 -0.25655730598E+03  0.12493823798E+03  0.30647091632E+03  0.42787052580E+03  0.87849585868E+02 0.  0.
          5    1    3    3  502    0  0.26446607443E+03 -0.13440849744E+03  0.55408314750E+02  0.30182031485E+03  0.41800000000E+01 0.  1.
         -5    1    3    3    0  502 -0.79087684482E+01  0.94702594626E+01 -0.47098492126E+01  0.13852419004E+02  0.41800000000E+01 0.  1.
        -11    1    4    4    0    0 -0.24728095857E+03  0.11289957163E+03  0.24974260622E+03  0.36914164640E+03  0.00000000000E+00 0. -1.
         11    1    4    4    0    0 -0.92763474134E+01  0.12038666347E+02  0.56728310104E+02  0.58728879404E+02  0.00000000000E+00 0.  1.
</event>
<event>
 8    1  0.6505836E-009  0.1030856E+03  0.7561462E-02  0.1273938E+00
         -2   -1    0    0    0  501 -0.00000000000E+00  0.00000000000E+00  0.32329980228E+02  0.32329980228E+02  0.00000000000E+00 0.  1.
          2   -1    0    0  501    0  0.00000000000E+00 -0.00000000000E+00 -0.56099338802E+03  0.56099338802E+03  0.00000000000E+00 0. -1.
         25    2    1    2    0    0 -0.63037339908E+01  0.46339499603E+02 -0.43501750844E+03  0.45505488042E+03  0.12509046829E+03 0.  0.
         23    2    1    2    0    0  0.63037339908E+01 -0.46339499603E+02 -0.93645899357E+02  0.13826848783E+03  0.90341208624E+02 0.  0.
          5    1    3    3  502    0  0.21794894286E+02  0.79797643323E+02 -0.20897154743E+03  0.22478714672E+03  0.41800000000E+01 0.  1.
         -5    1    3    3    0  502 -0.28098628277E+02 -0.33458143721E+02 -0.22604596101E+03  0.23026773369E+03  0.41800000000E+01 0.  1.
        -11    1    4    4    0    0  0.25872643264E+02 -0.52839471251E+02 -0.20549337175E+02  0.62319167596E+02  0.00000000000E+00 0.  1.
         11    1    4    4    0    0 -0.19568909273E+02  0.64999716484E+01 -0.73096562182E+02  0.75949320237E+02  0.00000000000E+00 0. -1.
</event>
<event>
 8    1  0.6505836E-009  0.1020283E+03  0.7561462E-02  0.1276088E+00
         -1   -1    0    0    0  501 -0.00000000000E+00  0.00000000000E+00  0.19828373715E+03  0.19828373715E+03  0.00000000000E+00 0.  1.
          1   -1    0    0  501    0  0.00000000000E+00 -0.00000000000E+00 -0.36490890973E+03  0.36490890973E+03  0.00000000000E+00 0. -1.
         25    2    1    2    0    0  0.63630306565E+02  0.27282832563E+02 -0.33402849920E+03  0.36334223620E+03  0.12509745588E+03 0.  0.
         23    2    1    2    0    0 -0.63630306565E+02 -0.27282832563E+02  0.16740332662E+03  0.19985041068E+03  0.84398720488E+02 0.  0.
          5    1    3    3  502    0  0.85583816887E+02  0.40188198447E+02 -0.14895885932E+03  0.17648199675E+03  0.41800000000E+01 0. -1.
         -5    1    3    3    0  502 -0.21953510322E+02 -0.12905365884E+02 -0.18506963988E+03  0.18686023945E+03  0.41800000000E+01 0. -1.
        -11    1    4    4    0    0 -0.45995298363E+02  0.55597524883E+01  0.24992096919E+02  0.52641079279E+02  0.00000000000E+00 0. -1.
         11    1    4    4    0    0 -0.17635008201E+02 -0.32842585051E+02  0.14241122970E+03  0.14720933140E+03  0.00000000000E+00 0.  1.
</event>
<event>
 8    1  0.6505836E-009  0.1392715E+03  0.7561462E-02  0.1214313E+00
         -2   -1    0    0    0  501 -0.00000000000E+00  0.00000000000E+00  0.91029762546E+03  0.91029762546E+03  0.00000000000E+00 0.  1.
          2   -1    0    0  501    0  0.00000000000E+00 -0.00000000000E+00 -0.23613295822E+02  0.23613295822E+02  0.00000000000E+00 0. -1.
         25    2    1    2    0    0  0.92346062004E+02  0.44695196489E+02  0.49748631252E+03  0.52312923669E+03  0.12508441702E+03 0.  0.
         23    2    1    2    0    0 -0.92346062004E+02 -0.44695196489E+02  0.38919801712E+03  0.41078168459E+03  0.82103837356E+02 0.  0.
          5    1    3    3  502    0 -0.13485329349E+01  0.57242659866E+02  0.10797221813E+03  0.12228660162E+03  0.41800000000E+01 0. -1.
         -5    1    3    3    0  502  0.93694594939E+02 -0.12547463377E+02  0.38951409439E+03  0.40084263507E+03  0.41800000000E+01 0. -1.
        -11    1    4    4    0    0 -0.30136738899E+02  0.20458809012E+02  0.16878136518E+03  0.17266712231E+03  0.00000000000E+00 0.  1.
         11    1    4    4    0    0 -0.62209323106E+02 -0.65154005501E+02  0.22041665194E+03  0.23811456227E+03  0.00000000000E+00 0. -1.
</event>
<event>
 8    1  0.6505836E-009  0.1314089E+03  0.7561462E-02  0.1225380E+00
          2   -1    0    0  501    0  0.00000000000E+00  0.00000000000E+00  0.24351660136E+03  0.24351660136E+03  0.00000000000E+00 0. -1.
         -2   -1    0    0    0  501 -0.00000000000E+00 -0.00000000000E+00 -0.14380193424E+03  0.14380193424E+03  0.00000000000E+00 0.  1.
         25    2    1    2    0    0  0.94415619814E+02  0.12819206158E+02  0.17528683715E+03  0.23548120503E+03  0.12508909358E+03 0.  0.
         23    2    1    2    0    0 -0.94415619814E+02 -0.12819206158E+02 -0.75572170029E+02  0.15183733057E+03  0.90910839619E+02 0.  0.
          5    1    3    3  502    0  0.68014949611E+02 -0.46632415218E+02  0.56714997210E+02  0.10017324407E+03  0.41800000000E+01 0.  1.
         -5    1    3    3    0  502  0.26400670202E+02  0.59451621376E+02  0.11857183994E+03  0.13530796096E+03  0.41800000000E+01 0.  1.
        -11    1    4    4    0    0 -0.58741505404E+01  0.19838484028E+02  0.11294746081E+02  0.23572067837E+02  0.00000000000E+00 0. -1.
         11    1    4    4    0    0 -0.88541469273E+02 -0.32657690186E+02 -0.86866916110E+02  0.12826526273E+03  0.00000000000E+00 0.  1.
</event>
<event>
 8    1  0.6505836E-009  0.1166125E+03  0.7561462E-02  0.1248792E+00
          2   -1    0    0  501    0  0.00000000000E+00  0.00000000000E+00  0.94962941638E+03  0.94962941638E+03  0.00000000000E+00 0. -1.
         -2   -1    0    0    0  501 -0.00000000000E+00 -0.00000000000E+00 -0.24694590168E+02  0.24694590168E+02  0.00000000000E+00 0.  1.
         25    2    1    2    0    0  0.37124431223E+02  0.43906804539E+02  0.78363114858E+03  0.79563117681E+03  0.12508062048E+03 0.  0.
         23    2    1    2    0    0 -0.37124431223E+02 -0.43906804539E+02  0.14130367764E+03  0.17869282973E+03  0.93050347696E+02 0.  0.
          5    1    3    3  502    0 -0.13773908818E+02 -0.36065116203E+02  0.15048817952E+03  0.15541743064E+03  0.41800000000E+01 0.  1.
         -5    1    3    3    0  502  0.50898340041E+02  0.79971920743E+02  0.63314296905E+03  0.64021374617E+03  0.41800000000E+01 0.  1.
        -11    1    4    4    0    0 -0.16924080652E+01  0.23390199159E+02  0.72138829483E+01  0.24535805855E+02  0.00000000000E+00 0. -1.
         11    1    4    4    0    0 -0.35432023158E+02 -0.67297003699E+02  0.13408979469E+03  0.15415702388E+03  0.00000000000E+00 0.  1.
</event>
<event>
 8    1  0.6505836E-009  0.1701384E+03  0.7561462E-02  0.1177704E+00
         -1   -1    0    0    0  501 -0.00000000000E+00  0.00000000000E+00  0.31113476531E+03  0.31113476531E+03  0.00000000000E+00 0.  1.
          1   -1    0    0  501    0  0.00000000000E+00 -0.00000000000E+00 -0.13810391658E+03  0.13810391658E+03  0.00000000000E+00 0. -1.
         25    2    1    2    0    0  0.11020317380E+03  0.10316880498E+03  0.18681636321E+03  0.27080553039E+03  0.12508692934E+03 0.  0.
         23    2    1    2    0    0 -0.11020317380E+03 -0.10316880498E+03 -0.13785514484E+02  0.17843315150E+03  0.94126549432E+02 0.  0.
          5    1    3    3  502    0  0.59867683910E+02 -0.14020762445E+02  0.29751915062E+02  0.68435153292E+02  0.41800000000E+01 0.  1.
         -5    1    3    3    0  502  0.50335489895E+02  0.11718956742E+03  0.15706444815E+03  0.20237037710E+03  0.41800000000E+01 0.  1.
        -11    1    4    4    0    0 -0.59216126069E+02 -0.58735285670E+02  0.39544551958E+02  0.92304685466E+02  0.00000000000E+00 0.  1.
         11    1    4    4    0    0 -0.50987047736E+02 -0.44433519307E+02 -0.53330066442E+02  0.86128466035E+02  0.00000000000E+00 0. -1.
</event>
<event>
 8    1  0.6505836E-009  0.1263381E+03  0.7561462E-02  0.1232993E+00
         -1   -1    0    0    0  501 -0.00000000000E+00  0.00000000000E+00  0.68751574617E+02  0.68751574617E+02  0.00000000000E+00 0. -1.
          1   -1    0    0  501    0  0.00000000000E+00 -0.00000000000E+00 -0.26378045823E+03  0.26378045823E+03  0.00000000000E+00 0.  1.
         25    2    1    2    0    0  0.69329281801E+02  0.25774780435E+00 -0.14402931486E+03  0.20297324584E+03  0.12508828579E+03 0.  0.
         23    2    1    2    0    0 -0.69329281801E+02 -0.25774780435E+00 -0.50999568756E+02  0.12955878700E+03  0.96839596901E+02 0.  0.
          5    1    3    3  502    0 -0.35683199999E+02  0.83993684457E+01 -0.46551021638E+02  0.59399580537E+02  0.41800000000E+01 0.  1.
         -5    1    3    3    0  502  0.10501248180E+03 -0.81416206413E+01 -0.97478293219E+02  0.14357366531E+03  0.41800000000E+01 0.  1.
        -11    1    4    4    0    0  0.18636197720E+02  0.11072791482E+02  0.79206251530E+01  0.23079230479E+02  0.00000000000E+00 0.  1.
         11    1    4    4    0    0 -0.87965479520E+02 -0.11330539287E+02 -0.58920193909E+02  0.10647955653E+03  0.00000000000E+00 0. -1.
</event>
<event>
 8    1  0.6505836E-009  0.1144275E+03  0.7561462E-02  0.1252584E+00
         -2   -1    0    0    0  501 -0.00000000000E+00  0.00000000000E+00  0.34810993793E+03  0.34810993793E+03  0.00000000000E+00 0.  1.
          2   -1    0    0  501    0  0.00000000000E+00 -0.00000000000E+00 -0.60957889620E+02  0.60957889620E+02  0.00000000000E+00 0. -1.
         25    2    1    2    0    0  0.56154703152E+02  0.37486354029E+02  0.58646844158E+02  0.15375784089E+03  0.12507375376E+03 0.  0.
         23    2    1    2    0    0 -0.56154703152E+02 -0.37486354029E+02  0.22850520415E+03  0.25530998666E+03  0.91705962400E+02 0.  0.
          5    1    3    3  502    0  0.59350154987E+02 -0.19598613879E+02 -0.10948890114E+02  0.63591643773E+02  0.41800000000E+01 0.  1.
         -5    1    3    3    0  502 -0.31954518357E+01  0.57084967908E+02  0.69595734273E+02  0.90166197116E+02  0.41800000000E+01 0.  1.
        -11    1    4    4    0    0 -0.35385926977E+02 -0.65241823965E+02  0.11713729281E+03  0.13867157167E+03  0.00000000000E+00 0. -1.
         11    1    4    4    0    0 -0.20768776175E+02  0.27755469936E+02  0.11136791134E+03  0.11663841499E+03  0.00000000000E+00 0.  1.
</event>
<event>
 7    1  0.6505836E-009  0.8948992E+02  0.7561462E-02  0.1304092E+00
         -2   -1    0    0    0  501 -0.00000000000E+00  0.00000000000E+00  0.12386765308E+02  0.12386765308E+02  0.00000000000E+00 0.  1.
          2   -1    0    0  501    0  0.00000000000E+00 -0.00000000000E+00 -0.14549646060E+04  0.14549646060E+04  0.00000000000E+00 0. -1.
         25    2    1    2    0    0 -0.72266655396E+02 -0.37696900949E+02 -0.11323886053E+04  0.11421887746E+04  0.12509083716E+03 0.  0.
          5    1    3    3  502    0 -0.67111815242E+02 -0.25706733091E+02 -0.11236102769E+04  0.11259140103E+04  0.41800000000E+01 0.  1.
         -5    1    3    3    0  502 -0.51548401539E+01 -0.11990167858E+02 -0.87783283943E+01  0.16274764258E+02  0.41800000000E+01 0.  1.
        -11    1    1    2    0    0  0.23686278762E+02  0.37915988441E+02 -0.19662938912E+03  0.20164765966E+03  0.00000000000E+00 0. -1.
         11    1    1    2    0    0  0.48580376634E+02 -0.21908749229E+00 -0.11355984627E+03  0.12351493706E+03  0.00000000000E+00 0.  1.
</event>
<event>
 8    1  0.6505836E-009  0.1245360E+03  0.7561462E-02  0.1235796E+00
         -1   -1    0    0    0  501 -0.00000000000E+00  0.00000000000E+00  0.21733612245E+02  0.21733612245E+02  0.00000000000E+00 0.  1.
          1   -1    0    0  501    0  0.00000000000E+00 -0.00000000000E+00 -0.73902660315E+03  0.73902660315E+03  0.00000000000E+00 0. -1.
         25    2    1    2    0    0  0.50313077581E+02 -0.46070328976E+02 -0.38636441975E+03  0.41179889762E+03  0.12508791408E+03 0.  0.
         23    2    1    2    0    0 -0.50313077581E+02  0.46070328976E+02 -0.33092857116E+03  0.34896131777E+03  0.87214683998E+02 0.  0.
          5    1    3    3  502    0 -0.19176196215E+02  0.30016882444E+02 -0.14413556362E+03  0.14853037680E+03  0.41800000000E+01 0.  1.
         -5    1    3    3    0  502  0.69489273796E+02 -0.76087211420E+02 -0.24222885613E+03  0.26326852082E+03  0.41800000000E+01 0.  1.
        -11    1    4    4    0    0 -0.60884440856E+02  0.64585450082E+02 -0.25072137320E+03  0.26596879983E+03  0.00000000000E+00 0. -1.
         11    1    4    4    0    0  0.10571363274E+02 -0.18515121106E+02 -0.80207197952E+02  0.82992517942E+02  0.00000000000E+00 0.  1.
</event>
<event>
 8    1  0.6505836E-009  0.8839645E+02  0.7561462E-02  0.1306782E+00
          2   -1    0    0  501    0  0.00000000000E+00  0.00000000000E+00  0.13085903845E+03  0.13085903845E+03  0.00000000000E+00 0. -1.
         -2   -1    0    0    0  501 -0.00000000000E+00 -0.00000000000E+00 -0.10321156587E+03  0.10321156587E+03  0.00000000000E+00 0.  1.
         25    2    1    2    0    0 -0.59528161412E+01 -0.12610464845E+02 -0.25999562268E+02  0.12851980198E+03  0.12508757899E+03 0.  0.
         23    2    1    2    0    0  0.59528161412E+01  0.12610464845E+02  0.53647034847E+02  0.10555080235E+03  0.89824872304E+02 0.  0.
          5    1    3    3  502    0  0.47705175051E+02  0.30494460411E+02 -0.87783816722E+01  0.57447612894E+02  0.41800000000E+01 0. -1.
         -5    1    3    3    0  502 -0.53657991192E+02 -0.43104925256E+02 -0.17221180596E+02  0.71072189084E+02  0.41800000000E+01 0. -1.
        -11    1    4    4    0    0 -0.21762210973E+02  0.51229162976E+01  0.69324512398E+02  0.72840415410E+02  0.00000000000E+00 0. -1.
         11    1    4    4    0    0  0.27715027114E+02  0.74875485470E+01 -0.15677477551E+02  0.32710386937E+02  0.00000000000E+00 0.  1.
</event>
<event>
 8    1  0.6505836E-009  0.1083463E+03  0.7561462E-02  0.1263663E+00
          1   -1    0    0  501    0  0.00000000000E+00  0.00000000000E+00  0.35197919838E+02  0.35197919838E+02  0.00000000000E+00 0. -1.
         -1   -1    0    0    0  501 -0.00000000000E+00 -0.00000000000E+00 -0.37890139887E+03  0.37890139887E+03  0.00000000000E+00 0.  1.
         25    2    1    2    0    0 -0.17223484009E+02  0.38971727274E+01 -0.26183353494E+03  0.29070959149E+03  0.12507369911E+03 0.  0.
         23    2    1    2    0    0  0.17223484009E+02 -0.38971727274E+01 -0.81869944088E+02  0.12338972722E+03  0.90611813141E+02 0.  0.
          5    1    3    3  502    0 -0.49195686022E+02 -0.44355309555E+02 -0.16454623942E+03  0.17742758049E+03  0.41800000000E+01 0. -1.
         -5    1    3    3    0  502  0.31972202013E+02  0.48252482282E+02 -0.97287295518E+02  0.11328201100E+03  0.41800000000E+01 0. -1.
        -11    1    4    4    0    0  0.54226380480E+02  0.42687665428E+01 -0.49774336697E+02  0.73730640180E+02  0.00000000000E+00 0.  1.
         11    1    4    4    0    0 -0.37002896471E+02 -0.81659392702E+01 -0.32095607391E+02  0.49659087035E+02  0.00000000000E+00 0. -1.
</event>
<event>
 8    1  0.6505836E-009  0.9301760E+02  0.7561462E-02  0.1295704E+00
         -2   -1    0    0    0  501 -0.00000000000E+00  0.00000000000E+00  0.26526355998E+03  0.26526355998E+03  0.00000000000E+00 0.  1.
          2   -1    0    0  501    0  0.00000000000E+00 -0.00000000000E+00 -0.44830013585E+02  0.44830013585E+02  0.00000000000E+00 0. -1.
         25    2    1    2    0    0 -0.90020197782E+01 -0.79449985746E+01  0.12234611611E+03  0.17538449903E+03  0.12508793312E+03 0.  0.
         23    2    1    2    0    0  0.90020197782E+01  0.79449985746E+01  0.98087430289E+02  0.13470907453E+03  0.91549065633E+02 0.  0.
          5    1    3    3  502    0 -0.56181155444E+02  0.22141952649E+02  0.30567324724E+02  0.67811665921E+02  0.41800000000E+01 0. -1.
         -5    1    3    3    0  502  0.47179135666E+02 -0.30086951224E+02  0.91778791382E+02  0.10757283311E+03  0.41800000000E+01 0. -1.
        -11    1    4    4    0    0  0.23265432432E+02 -0.24599453215E+02  0.39494717407E+01  0.34088293764E+02  0.00000000000E+00 0. -1.
         11    1    4    4    0    0 -0.14263412654E+02  0.32544451790E+02  0.94137958548E+02  0.10062078077E+03  0.00000000000E+00 0.  1.
</event>
<event>
 7    1  0.6505836E-009  0.1550043E+03  0.7561462E-02  0.1194455E+00
         -1   -1    0    0    0  501 -0.00000000000E+00  0.00000000000E+00  0.10756789846E+03  0.10756789846E+03  0.00000000000E+00 0.  1.
          1   -1    0    0  501    0  0.00000000000E+00 -0.00000000000E+00 -0.27395390083E+03  0.27395390083E+03  0.00000000000E+00 0. -1.
         23    2    1    2    0    0  0.12536294641E+03  0.48394417917E+02 -0.10164286363E+03  0.18691689327E+03  0.80924441561E+02 0.  0.
          5    1    1    2  502    0 -0.13053231760E+03 -0.11790495290E+02 -0.80864672272E+02  0.15405930461E+03  0.41800000000E+01 0. -1.
         -5    1    1    2    0  502  0.51693711816E+01 -0.36603922627E+02  0.16121533534E+02  0.40545601409E+02  0.41800000000E+01 0. -1.
        -11    1    3    3    0    0  0.17017883726E+02  0.25946480200E+02 -0.62093494948E+02  0.69414914220E+02  0.00000000000E+00 0. -1.
         11    1    3    3    0    0  0.10834506269E+03  0.22447937717E+02 -0.39549368685E+02  0.11750197905E+03  0.00000000000E+00 0.  1.
</event>
<event>
 8    1  0.6505836E-009  0.1817130E+03  0.7561462E-02  0.1166155E+00
         -1   -1    0    0    0  501 -0.00000000000E+00  0.00000000000E+00  0.22331685975E+03  0.22331685975E+03  0.00000000000E+00 0.  1.
          1   -1    0    0  501    0  0.00000000000E+00 -0.00000000000E+00 -0.17096724970E+03  0.17096724970E+03  0.00000000000E+00 0. -1.
         25    2    1    2    0    0 -0.15530523642E+03 -0.44236641105E+02  0.49158222353E+02  0.21009528478E+03  0.12508757326E+03 0.  0.
         23    2    1    2    0    0  0.15530523642E+03  0.44236641105E+02  0.31913876960E+01  0.18418882467E+03  0.88536666413E+02 0.  0.
          5    1    3    3  502    0 -0.17056294986E+03 -0.57859110771E+02  0.55089105181E+02  0.18839235248E+03  0.41800000000E+01 0. -1.
         -5    1    3    3    0  502  0.15257713437E+02  0.13622469666E+02 -0.59308828273E+01  0.21702932296E+02  0.41800000000E+01 0. -1.
        -11    1    4    4    0    0  0.94472752371E+02  0.18145872131E+02  0.44680341795E+02  0.10606934788E+03  0.00000000000E+00 0.  1.
         11    1    4    4    0    0  0.60832484054E+02  0.26090768973E+02 -0.41488954099E+02  0.78119476791E+02  0.00000000000E+00 0. -1.
</event>
<event>
 8    1  0.6505836E-009  0.1102399E+03  0.7561462E-02  0.1260126E+00
         -2   -1    0    0    0  501 -0.00000000000E+00  0.00000000000E+00  0.17229449192E+03  0.17229449192E+03  0.00000000000E+00 0. -1.
          2   -1    0    0  501    0  0.00000000000E+00 -0.00000000000E+00 -0.18657376087E+03  0.18657376087E+03  0.00000000000E+00 0.  1.
         25    2    1    2    0    0 -0.24876447381E+02 -0.70583131522E+02 -0.12518472146E+03  0.19214399787E+03  0.12508910961E+03 0.  0.
         23    2    1    2    0    0  0.24876447381E+02  0.70583131522E+02  0.11090545250E+03  0.16672425492E+03  0.99479353103E+02 0.  0.
          5    1    3    3  502    0  0.11471847457E+02  0.17333905478E+02 -0.87001123546E+02  0.89547392265E+02  0.41800000000E+01 0.  1.
         -5    1    3    3    0  502 -0.36348294839E+02 -0.87917037001E+02 -0.38183597910E+02  0.10259660561E+03  0.41800000000E+01 0.  1.
        -11    1    4    4    0    0  0.32568925319E+02  0.83158872846E+02  0.46570901550E+02  0.10072230091E+03  0.00000000000E+00 0.  1.
         11    1    4    4    0    0 -0.76924779381E+01 -0.12575741324E+02  0.64334550955E+02  0.66001954011E+02  0.00000000000E+00 0. -1.
</event>
<event>
 8    1  0.6505836E-009  0.7812863E+02  0.7561462E-02  0.1334448E+00
          2   -1    0    0  501    0  0.00000000000E+00  0.00000000000E+00  0.20198471933E+03  0.20198471933E+03  0.00000000000E+00 0. -1.
         -2   -1    0    0    0  501 -0.00000000000E+00 -0.00000000000E+00 -0.85264491898E+02  0.85264491898E+02  0.00000000000E+00 0.  1.
         25    2    1    2    0    0  0.66216845492E+02  0.24644780562E+02  0.44393976803E+02  0.15036500699E+03  0.12508706693E+03 0.  0.
         23    2    1    2    0    0 -0.66216845492E+02 -0.24644780562E+02  0.72326250627E+02  0.13688420424E+03  0.92272222280E+02 0.  0.
          5    1    3    3  502    0  0.50443123303E+02  0.25276048022E+01  0.86399594779E+02  0.10016616121E+03  0.41800000000E+01 0.  1.
         -5    1    3    3    0  502  0.15773722190E+02  0.22117175760E+02 -0.42005617975E+02  0.50198845772E+02  0.41800000000E+01 0.  1.
        -11    1    4    4    0    0 -0.58553839738E+02 -0.71443766938E+01  0.92111553437E+02  0.10938067719E+03  0.00000000000E+00 0. -1.
         11    1    4    4    0    0 -0.76630057545E+01 -0.17500403869E+02 -0.19785302810E+02  0.27503527047E+02  0.00000000000E+00 0.  1.
</event>
<event>
 8    1  0.6505836E-009  0.1466699E+03  0.7561462E-02  0.1204626E+00
         -1   -1    0    0    0  501 -0.00000000000E+00  0.00000000000E+00  0.30612041087E+02  0.30612041087E+02  0.00000000000E+00 0.  1.
          1   -1    0    0  501    0  0.00000000000E+00 -0.00000000000E+00 -0.88302306657E+03  0.88302306657E+03  0.00000000000E+00 0. -1.
         25    2    1    2    0    0  0.11316070599E+03  0.20861349907E+02 -0.33539144721E+03  0.37599955423E+03  0.12509076952E+03 0.  0.
         23    2    1    2    0    0 -0.11316070599E+03 -0.20861349907E+02 -0.51701957827E+03  0.53763555342E+03  0.92207389566E+02 0.  0.
          5    1    3    3  502    0  0.34228919406E+02  0.69144382781E+02 -0.14692408689E+03  0.16600218162E+03  0.41800000000E+01 0. -1.
         -5    1    3    3    0  502  0.78931786587E+02 -0.48283032875E+02 -0.18846736032E+03  0.20999737261E+03  0.41800000000E+01 0. -1.
        -11    1    4    4    0    0 -0.68136344924E+02 -0.34545158035E+02 -0.44563758657E+03  0.45213801876E+03  0.00000000000E+00 0. -1.
         11    1    4    4    0    0 -0.45024361070E+02  0.13683808129E+02 -0.71381991692E+02  0.85497534658E+02  0.00000000000E+00 0.  1.
</event>
<event>
 8    1  0.6505836E-009  0.2106002E+03  0.7561462E-02  0.1141092E+00
          1   -1    0    0  501    0  0.00000000000E+00  0.00000000000E+00  0.31226346779E+03  0.31226346779E+03  0.00000000000E+00 0. -1.
         -1   -1    0    0    0  501 -0.00000000000E+00 -0.00000000000E+00 -0.17126614023E+03  0.17126614023E+03  0.00000000000E+00 0.  1.
         25    2    1    2    0    0 -0.33071973632E+02  0.18258922848E+03 -0.11581748352E+02  0.22407569655E+03  0.12507277518E+03 0.  0.
         23    2    1    2    0    0  0.33071973632E+02 -0.18258922848E+03  0.15257907591E+03  0.25945391148E+03  0.97996816163E+02 0.  0.
          5    1    3    3  502    0  0.28369896986E+02  0.12146873304E+03  0.29239209309E+02  0.12818700372E+03  0.41800000000E+01 0. -1.
         -5    1    3    3    0  502 -0.61441870618E+02  0.61120495439E+02 -0.40820957661E+02  0.95888692827E+02  0.41800000000E+01 0. -1.
        -11    1    4    4    0    0  0.63808452677E+02 -0.78870933234E+02  0.67904512337E+02  0.12207852202E+03  0.00000000000E+00 0. -1.
         11    1    4    4    0    0 -0.30736479045E+02 -0.10371829525E+03  0.84674563573E+02  0.13737538946E+03  0.00000000000E+00 0.  1.
</event>
<event>
 8    1  0.6505836E-009  0.7852393E+02  0.7561462E-02  0.1333293E+00
          1   -1    0    0  501    0  0.00000000000E+00  0.00000000000E+00  0.42023187432E+02  0.42023187432E+02  0.00000000000E+00 0. -1.
         -1   -1    0    0    0  501 -0.00000000000E+00 -0.00000000000E+00 -0.45905034322E+03  0.45905034322E+03  0.00000000000E+00 0.  1.
         25    2    1    2    0    0 -0.71284996962E+02  0.23845894978E+02 -0.30473807869E+03  0.33787921203E+03  0.12508752062E+03 0.  0.
         23    2    1    2    0    0  0.71284996962E+02 -0.23845894978E+02 -0.11228907710E+03  0.16319431863E+03  0.91506127105E+02 0.  0.
          5    1    3    3  502    0 -0.35724414931E+02 -0.41675018885E+01 -0.28668741131E+03  0.28896495653E+03  0.41800000000E+01 0. -1.
         -5    1    3    3    0  502 -0.35560582031E+02  0.28013396866E+02 -0.18050667378E+02  0.48914255500E+02  0.41800000000E+01 0. -1.
        -11    1    4    4    0    0  0.46466466666E+02 -0.18343184143E+02 -0.12511584735E+03  0.13472037778E+03  0.00000000000E+00 0.  1.
         11    1    4    4    0    0  0.24818530296E+02 -0.55027108349E+01  0.12826770254E+02  0.28473940853E+02  0.00000000000E+00 0. -1.
</event>
<event>
 8    1  0.6505836E-009  0.8445770E+02  0.7561462E-02  0.1316857E+00
         -1   -1    0    0    0  501 -0.00000000000E+00  0.00000000000E+00  0.13211939082E+02  0.13211939082E+02  0.00000000000E+00 0.  1.
          1   -1    0    0  501    0  0.00000000000E+00 -0.00000000000E+00 -0.13867889116E+04  0.13867889116E+04  0.00000000000E+00 0. -1.
         25    2    1    2    0    0 -0.11442111786E+02 -0.53326212729E+02 -0.10627287664E+04  0.10714566580E+04  0.12510928048E+03 0.  0.
         23    2    1    2    0    0  0.11442111786E+02  0.53326212729E+02 -0.31084820615E+03  0.32854419276E+03  0.91323997073E+02 0.  0.
          5    1    3    3  502    0 -0.37218250141E+02 -0.51226999946E+02 -0.23808003072E+03  0.24639191768E+03  0.41800000000E+01 0. -1.
         -5    1    3    3    0  502  0.25776138355E+02 -0.20992127833E+01 -0.82464873568E+03  0.82506474029E+03  0.41800000000E+01 0. -1.
        -11    1    4    4    0    0 -0.23479918505E+02  0.17988241093E+02 -0.25955433065E+02  0.39351847430E+02  0.00000000000E+00 0.  1.
         11    1    4    4    0    0  0.34922030291E+02  0.35337971636E+02 -0.28489277309E+03  0.28919234533E+03  0.00000000000E+00 0. -1.
</event>
<event>
 8    1  0.6505836E-009  0.1584989E+03  0.7561462E-02  0.1190402E+00
          2   -1    0    0  501    0  0.00000000000E+00  0.00000000000E+00  0.52904108625E+03  0.52904108625E+03  0.00000000000E+00 0.  1.
         -2   -1    0    0    0  501 -0.00000000000E+00 -0.00000000000E+00 -0.54786335955E+02  0.54786335955E+02  0.00000000000E+00 0. -1.
         25    2    1    2    0    0 -0.43272540720E+02  0.12343512218E+03  0.26867918758E+03  0.32395372660E+03  0.12509503976E+03 0.  0.
         23    2    1    2    0    0  0.43272540720E+02 -0.12343512218E+03  0.20557556272E+03  0.25987369561E+03  0.90356424861E+02 0.  0.
          5    1    3    3  502    0 -0.60323700644E+02  0.19058302661E+02  0.16068400530E+03  0.17273965879E+03  0.41800000000E+01 0. -1.
         -5    1    3    3    0  502  0.17051159925E+02  0.10437681952E+03  0.10799518228E+03  0.15121406781E+03  0.41800000000E+01 0. -1.
        -11    1    4    4    0    0 -0.14531404731E+02 -0.60841793206E+02  0.41716518238E+02  0.75187455189E+02  0.00000000000E+00 0. -1.
         11    1    4    4    0    0  0.57803945451E+02 -0.62593328976E+02  0.16385904448E+03  0.18468624042E+03  0.00000000000E+00 0.  1.
</event>
<event>
 8    1  0.6505836E-009  0.9775450E+02  0.7561462E-02  0.1285090E+00
          2   -1    0    0  501    0  0.00000000000E+00  0.00000000000E+00  0.29627676681E+03  0.29627676681E+03  0.00000000000E+00 0. -1.
         -2   -1    0    0    0  501 -0.00000000000E+00 -0.00000000000E+00 -0.61170471611E+02  0.61170471611E+02  0.00000000000E+00 0.  1.
         25    2    1    2    0    0 -0.22467791891E+02 -0.78134777156E+02  0.14098179086E+03  0.20526560857E+03  0.12509300394E+03 0.  0.
         23    2    1    2    0    0  0.22467791891E+02  0.78134777156E+02  0.94124504331E+02  0.15218162984E+03  0.87692537157E+02 0.  0.
          5    1    3    3  502    0 -0.38394111820E+02 -0.61705649450E+02  0.15963528731E+03  0.17544968609E+03  0.41800000000E+01 0.  1.
         -5    1    3    3    0  502  0.15926319930E+02 -0.16429127706E+02 -0.18653496444E+02  0.29815922479E+02  0.41800000000E+01 0.  1.
        -11    1    4    4    0    0  0.21428857462E+02  0.11743244987E+00  0.65756857796E+02  0.69160495007E+02  0.00000000000E+00 0. -1.
         11    1    4    4    0    0  0.10389344290E+01  0.78017344706E+02  0.28367646535E+02  0.83021134837E+02  0.00000000000E+00 0.  1.
</event>
<event>
 8    1  0.6505836E-009  0.1363118E+03  0.7561462E-02  0.1218380E+00
         -2   -1    0    0    0  501 -0.00000000000E+00  0.00000000000E+00  0.17097817491E+02  0.17097817491E+02  0.00000000000E+00 0. -1.
          2   -1    0    0  501    0  0.00000000000E+00 -0.00000000000E+00 -0.16985201812E+04  0.16985201812E+04  0.00000000000E+00 0.  1.
         25    2    1    2    0    0  0.59910325987E+02  0.90812248353E+02 -0.12276223529E+04  0.12387656647E+04  0.12509044333E+03 0.  0.
         23    2    1    2    0    0 -0.59910325987E+02 -0.90812248353E+02 -0.45380001078E+03  0.47685233400E+03  0.98069297136E+02 0.  0.
          5    1    3    3  502    0 -0.26483282568E+02  0.54881707908E+02 -0.28329496934E+03  0.28980489674E+03  0.41800000000E+01 0.  1.
         -5    1    3    3    0  502  0.86393608555E+02  0.35930540446E+02 -0.94432738356E+03  0.94896076793E+03  0.41800000000E+01 0.  1.
        -11    1    4    4    0    0 -0.19531000030E+02 -0.69563490747E+02 -0.39924788680E+03  0.40573318119E+03  0.00000000000E+00 0.  1.
         11    1    4    4    0    0 -0.40379325957E+02 -0.21248757606E+02 -0.54552123988E+02  0.71119152808E+02  0.00000000000E+00 0. -1.
</event>
<event>
 8    1  0.6505836E-009  0.9286019E+02  0.7561462E-02  0.1296070E+00
         -2   -1    0    0    0  501 -0.00000000000E+00  0.00000000000E+00  0.17615389525E+03  0.17615389525E+03  0.00000000000E+00 0.  1.
          2   -1    0    0  501    0  0.00000000000E+00 -0.00000000000E+00 -0.71829894056E+02  0.71829894056E+02  0.00000000000E+00 0. -1.
         25    2    1    2    0    0 -0.25951591284E+02  0.22072323623E+02  0.10390923555E+03  0.16615673314E+03  0.12510099190E+03 0.  0.
         23    2    1    2    0    0  0.25951591284E+02 -0.22072323623E+02  0.41476563967E+00  0.81827056167E+02  0.74396387884E+02 0.  0.
          5    1    3    3  502    0 -0.75899395779E+02  0.31950040260E+01  0.62265661182E+02  0.98312823643E+02  0.41800000000E+01 0. -1.
         -5    1    3    3    0  502  0.49947804494E+02  0.18877319597E+02  0.41643574370E+02  0.67843909493E+02  0.41800000000E+01 0. -1.
        -11    1    4    4    0    0 -0.10034085059E+02 -0.16996762354E+02 -0.28995396509E+02  0.35075715420E+02  0.00000000000E+00 0. -1.
         11    1    4    4    0    0  0.35985676343E+02 -0.50755612691E+01  0.29410162149E+02  0.46751340747E+02  0.00000000000E+00 0.  1.
</event>
<event>
 8    1  0.6505836E-009  0.1360621E+03  0.7561462E-02  0.1218728E+00
         -1   -1    0    0    0  501 -0.00000000000E+00  0.00000000000E+00  0.52363780777E+03  0.52363780777E+03  0.00000000000E+00 0.  1.
          1   -1    0    0  501    0  0.00000000000E+00 -0.00000000000E+00 -0.40364818675E+02  0.40364818675E+02  0.00000000000E+00 0. -1.
         25    2    1    2    0    0 -0.48424255400E+02 -0.82990500724E+02  0.24605593714E+03  0.29227241883E+03  0.12508921170E+03 0.  0.
         23    2    1    2    0    0  0.48424255400E+02  0.82990500724E+02  0.23721705195E+03  0.27173020762E+03  0.91285509652E+02 0.  0.
          5    1    3    3  502    0 -0.89373975972E+02 -0.56723529690E+02  0.14044050796E+03  0.17591553393E+03  0.41800000000E+01 0. -1.
         -5    1    3    3    0  502  0.40949720572E+02 -0.26266971034E+02  0.10561542918E+03  0.11635688490E+03  0.41800000000E+01 0. -1.
        -11    1    4    4    0    0  0.46870417863E+02  0.14803411864E+02  0.41034514551E+02  0.64029746664E+02  0.00000000000E+00 0.  1.
         11    1    4    4    0    0  0.15538375377E+01  0.68187088859E+02  0.19618253740E+03  0.20770046095E+03  0.00000000000E+00 0. -1.
</event>
<event>
 8    1  0.6505836E-009  0.8106430E+02  0.7561462E-02  0.1326058E+00
         -2   -1    0    0    0  501 -0.00000000000E+00  0.00000000000E+00  0.55625539004E+02  0.55625539004E+02  0.00000000000E+00 0. -1.
          2   -1    0    0  501    0  0.00000000000E+00 -0.00000000000E+00 -0.23911827445E+03  0.23911827445E+03  0.00000000000E+00 0.  1.
         25    2    1    2    0    0 -0.13599278411E+02 -0.25166229882E+02 -0.13791377539E+03  0.18837705777E+03  0.12508967564E+03 0.  0.
         23    2    1    2    0    0  0.13599278411E+02  0.25166229882E+02 -0.45578960052E+02  0.10636675569E+03  0.91750561938E+02 0.  0.
          5    1    3    3  502    0  0.15759008569E+02 -0.50429406384E+02 -0.90665018840E+01  0.53769370796E+02  0.41800000000E+01 0. -1.
         -5    1    3    3    0  502 -0.29358286980E+02  0.25263176502E+02 -0.12884727351E+03  0.13460768697E+03  0.41800000000E+01 0. -1.
        -11    1    4    4    0    0  0.27283722698E+02 -0.12563892177E+02  0.15096882237E+02  0.33617982750E+02  0.00000000000E+00 0. -1.
         11    1    4    4    0    0 -0.13684444287E+02  0.37730122060E+02 -0.60675842289E+02  0.72748772935E+02  0.00000000000E+00 0.  1.
</event>
<event>
 8    1  0.6505836E-009  0.1198489E+03  0.7561462E-02  0.1243347E+00
          3   -1    0    0  501    0  0.00000000000E+00  0.00000000000E+00  0.34226974090E+03  0.34226974090E+03  0.00000000000E+00 0. -1.
         -3   -1    0    0    0  501 -0.00000000000E+00 -0.00000000000E+00 -0.62808778252E+02  0.62808778252E+02  0.00000000000E+00 0.  1.
         25    2    1    2    0    0 -0.19002040371E+02 -0.71153877115E+02  0.62184865266E+02  0.15792051866E+03  0.12509189014E+03 0.  0.
         23    2    1    2    0    0  0.19002040371E+02  0.71153877115E+02  0.21727609738E+03  0.24715800050E+03  0.91946848500E+02 0.  0.
          5    1    3    3  502    0  0.59786776785E+01 -0.90640457582E+02  0.33835692853E+01  0.90996472891E+02  0.41800000000E+01 0. -1.
         -5    1    3    3    0  502 -0.24980718050E+02  0.19486580467E+02  0.58801295981E+02  0.66924045766E+02  0.41800000000E+01 0. -1.
        -11    1    4    4    0    0  0.36441192156E+02 -0.66759913393E+01  0.54621993826E+02  0.66000693599E+02  0.00000000000E+00 0.  1.
         11    1    4    4    0    0 -0.17439151784E+02  0.77829868455E+02  0.16265410356E+03  0.18115730690E+03  0.00000000000E+00 0. -1.
</event>
<event>
 8    1  0.6505836E-009  0.1794771E+03  0.7561462E-02  0.1168310E+00
          2   -1    0    0  501    0  0.00000000000E+00  0.00000000000E+00  0.64649271576E+02  0.64649271576E+02  0.00000000000E+00 0. -1.
         -2   -1    0    0    0  501 -0.00000000000E+00 -0.00000000000E+00 -0.65915356821E+03  0.65915356821E+03  0.00000000000E+00 0.  1.
         25    2    1    2    0    0 -0.15496422013E+03  0.23551847047E+02 -0.44482175820E+03  0.48793590524E+03  0.12508577871E+03 0.  0.
         23    2    1    2    0    0  0.15496422013E+03 -0.23551847047E+02 -0.14968253843E+03  0.23586693454E+03  0.93057774952E+02 0.  0.
          5    1    3    3  502    0 -0.53863219571E+02 -0.51348528630E+02 -0.15767895332E+03  0.17440769059E+03  0.41800000000E+01 0. -1.
         -5    1    3    3    0  502 -0.10110100056E+03  0.74900375677E+02 -0.28714280488E+03  0.31352821466E+03  0.41800000000E+01 0. -1.
        -11    1    4    4    0    0  0.73698939543E+02  0.76056726756E+00 -0.12898011793E+03  0.14855296353E+03  0.00000000000E+00 0.  1.
         11    1    4    4    0    0  0.81265280587E+02 -0.24312414315E+02 -0.20702420495E+02  0.87313971007E+02  0.00000000000E+00 0. -1.
</event>
<event>
 8    1  0.6505836E-009  0.1116163E+03  0.7561462E-02  0.1257606E+00
         -2   -1    0    0    0  501 -0.00000000000E+00  0.00000000000E+00  0.14745800990E+03  0.14745800990E+03  0.00000000000E+00 0.  1.
          2   -1    0    0  501    0  0.00000000000E+00 -0.00000000000E+00 -0.14236652215E+03  0.14236652215E+03  0.00000000000E+00 0. -1.
         25    2    1    2    0    0  0.77018974056E+02  0.14615967805E+01  0.60667978368E+02  0.15894022103E+03  0.12508929464E+03 0.  0.
         23    2    1    2    0    0 -0.77018974056E+02 -0.14615967805E+01 -0.55576490626E+02  0.13088431101E+03  0.90043866697E+02 0.  0.
          5    1    3    3  502    0 -0.17344481643E+02  0.40241001999E+02  0.25918738672E+02  0.51082508745E+02  0.41800000000E+01 0.  1.
         -5    1    3    3    0  502  0.94363455699E+02 -0.38779405219E+02  0.34749239696E+02  0.10785771229E+03  0.41800000000E+01 0.  1.
        -11    1    4    4    0    0 -0.13356891557E+02 -0.15383198624E+01  0.24884176237E+02  0.28284186519E+02  0.00000000000E+00 0.  1.
         11    1    4    4    0    0 -0.63662082499E+02  0.76723081915E-01 -0.80460666862E+02  0.10260012450E+03  0.00000000000E+00 0. -1.
</event>
<event>
 8    1  0.6505836E-009  0.1146348E+03  0.7561462E-02  0.1252220E+00
         -4   -1    0    0    0  501 -0.00000000000E+00  0.00000000000E+00  0.51117173655E+02  0.51117173655E+02  0.00000000000E+00 0.  1.
          4   -1    0    0  501    0  0.00000000000E+00 -0.00000000000E+00 -0.38166946615E+03  0.38166946615E+03  0.00000000000E+00 0. -1.
         25    2    1    2    0    0 -0.81553304483E+02  0.11394339822E+02 -0.14824356219E+03  0.21072485574E+03  0.12509212063E+03 0.  0.
         23    2    1    2    0    0  0.81553304483E+02 -0.11394339822E+02 -0.18230873030E+03  0.22206178406E+03  0.96406381242E+02 0.  0.
          5    1    3    3  502    0 -0.90011358611E+02  0.49304687922E+02 -0.73227124575E+02  0.12614547595E+03  0.41800000000E+01 0.  1.
         -5    1    3    3    0  502  0.84580541287E+01 -0.37910348100E+02 -0.75016437615E+02  0.84579379787E+02  0.41800000000E+01 0.  1.
        -11    1    4    4    0    0  0.32237607110E+02 -0.19253444453E+02 -0.50312970665E+01  0.37884988922E+02  0.00000000000E+00 0.  1.
         11    1    4    4    0    0  0.49315697373E+02  0.78591046313E+01 -0.17727743324E+03  0.18417679514E+03  0.00000000000E+00 0. -1.
</event>
<event>
 8    1  0.6505836E-009  0.8102421E+02  0.7561462E-02  0.1326170E+00
         -2   -1    0    0    0  501 -0.00000000000E+00  0.00000000000E+00  0.48492146000E+02  0.48492146000E+02  0.00000000000E+00 0.  1.
          2   -1    0    0  501    0  0.00000000000E+00 -0.00000000000E+00 -0.28413095303E+03  0.28413095303E+03  0.00000000000E+00 0. -1.
         25    2    1    2    0    0  0.39050223525E+02 -0.84815785415E+01 -0.13682579191E+03  0.18965174601E+03  0.12509848242E+03 0.  0.
         23    2    1    2    0    0 -0.39050223525E+02  0.84815785415E+01 -0.98813015118E+02  0.14297135301E+03  0.95288712311E+02 0.  0.
          5    1    3    3  502    0 -0.22625751124E+01  0.20417204470E+02 -0.13746835780E+03  0.13905755384E+03  0.41800000000E+01 0.  1.
         -5    1    3    3    0  502  0.41312798637E+02 -0.28898783012E+02  0.64256588815E+00  0.50594192174E+02  0.41800000000E+01 0.  1.
        -11    1    4    4    0    0  0.10579480623E+02 -0.27321969444E+02 -0.68868025175E+02  0.74841300871E+02  0.00000000000E+00 0. -1.
         11    1    4    4    0    0 -0.49629704148E+02  0.35803547986E+02 -0.29944989942E+02  0.68130052142E+02  0.00000000000E+00 0.  1.
</event>
<event>
 8    1  0.6505836E-009  0.7023941E+02  0.7561462E-02  0.1359281E+00
         -2   -1    0    0    0  501 -0.00000000000E+00  0.00000000000E+00  0.45689441572E+02  0.45689441572E+02  0.00000000000E+00 0.  1.
          2   -1    0    0  501    0  0.00000000000E+00 -0.00000000000E+00 -0.32125548612E+03  0.32125548612E+03  0.00000000000E+00 0. -1.
         25    2    1    2    0    0 -0.15786733540E+02  0.50710850545E+02 -0.17306164648E+03  0.22004044372E+03  0.12508657829E+03 0.  0.
         23    2    1    2    0    0  0.15786733540E+02 -0.50710850545E+02 -0.10250439806E+03  0.14690448397E+03  0.90845828031E+02 0.  0.
          5    1    3    3  502    0  0.22070852999E+02  0.27717720596E+02 -0.17187065612E+03  0.17553458184E+03  0.41800000000E+01 0.  1.
         -5    1    3    3    0  502 -0.37857586539E+02  0.22993129949E+02 -0.11909903675E+01  0.44505861878E+02  0.41800000000E+01 0.  1.
        -11    1    4    4    0    0  0.20536633562E+02 -0.18154346727E+02  0.10389964717E+02  0.29313563243E+02  0.00000000000E+00 0.  1.
         11    1    4    4    0    0 -0.47499000220E+01 -0.32556503817E+02 -0.11289436278E+03  0.11759092073E+03  0.00000000000E+00 0. -1.
</event>
<event>
 8    1  0.6505836E-009  0.9339269E+02  0.7561462E-02  0.1294838E+00
          3   -1    0    0  501    0  0.00000000000E+00  0.00000000000E+00  0.18902993414E+02  0.18902993414E+02  0.00000000000E+00 0. -1.
         -3   -1    0    0    0  501 -0.00000000000E+00 -0.00000000000E+00 -0.91172263146E+03  0.91172263146E+03  0.00000000000E+00 0.  1.
         25    2    1    2    0    0 -0.64213949242E+02 -0.11259041262E+01 -0.62127695180E+03  0.63699003817E+03  0.12508620608E+03 0.  0.
         23    2    1    2    0    0  0.64213949242E+02  0.11259041262E+01 -0.27154268625E+03  0.29363558670E+03  0.91442486780E+02 0.  0.
          5    1    3    3  502    0 -0.61978159998E+02 -0.20378520970E+02 -0.61131439823E+03  0.61480024586E+03  0.41800000000E+01 0.  1.
         -5    1    3    3    0  502 -0.22357892433E+01  0.19252616843E+02 -0.99625535728E+01  0.22189792305E+02  0.41800000000E+01 0.  1.
        -11    1    4    4    0    0 -0.85054934228E+01  0.23908848061E+02 -0.13410621947E+03  0.13648609648E+03  0.00000000000E+00 0.  1.
         11    1    4    4    0    0  0.72719442665E+02 -0.22782943934E+02 -0.13743646678E+03  0.15714949022E+03  0.00000000000E+00 0. -1.
</event>
<event>
 8    1  0.6505836E-009  0.2397008E+03  0.7561462E-02  0.1119992E+00
          1   -1    0    0  501    0  0.00000000000E+00  0.00000000000E+00  0.62474610100E+03  0.62474610100E+03  0.00000000000E+00 0. -1.
         -1   -1    0    0    0  501 -0.00000000000E+00 -0.00000000000E+00 -0.14960752062E+03  0.14960752062E+03  0.00000000000E+00 0.  1.
         25    2    1    2    0    0  0.19656148250E+02  0.22761433254E+03  0.45990059983E+03  0.52853604293E+03  0.12508852231E+03 0.  0.
         23    2    1    2    0    0 -0.19656148250E+02 -0.22761433254E+03  0.15237980545E+02  0.24581757869E+03  0.89439574034E+02 0.  0.
          5    1    3    3  502    0  0.40482448578E+02  0.17003692687E+03  0.22056070282E+03  0.28145315982E+03  0.41800000000E+01 0. -1.
         -5    1    3    3    0  502 -0.20826300327E+02  0.57577405669E+02  0.23933989701E+03  0.24708288311E+03  0.41800000000E+01 0. -1.
        -11    1    4    4    0    0 -0.44364092293E+02 -0.64914979634E+02  0.20193463798E+02  0.81178219037E+02  0.00000000000E+00 0.  1.
         11    1    4    4    0    0  0.24707944043E+02 -0.16269935290E+03 -0.49554832528E+01  0.16463935966E+03  0.00000000000E+00 0. -1.
</event>
<event>
 8    1  0.6505836E-009  0.8708271E+02  0.7561462E-02  0.1310074E+00
          1   -1    0    0  501    0  0.00000000000E+00  0.00000000000E+00  0.76698631601E+03  0.76698631601E+03  0.00000000000E+00 0. -1.
         -1   -1    0    0    0  501 -0.00000000000E+00 -0.00000000000E+00 -0.18332348588E+02  0.18332348588E+02  0.00000000000E+00 0.  1.
         25    2    1    2    0    0  0.35290635685E+02 -0.30326030044E+02  0.48377734585E+03  0.50185148621E+03  0.12509714940E+03 0.  0.
         23    2    1    2    0    0 -0.35290635685E+02  0.30326030044E+02  0.26487662158E+03  0.28346717839E+03  0.89604238195E+02 0.  0.
          5    1    3    3  502    0  0.19815098419E+02 -0.48399243526E+02  0.70556442433E+02  0.87925018442E+02  0.41800000000E+01 0.  1.
         -5    1    3    3    0  502  0.15475537267E+02  0.18073213481E+02  0.41322090341E+03  0.41392646777E+03  0.41800000000E+01 0.  1.
        -11    1    4    4    0    0  0.13114125364E+02 -0.22406410520E+02  0.10727396898E+03  0.11037088356E+03  0.00000000000E+00 0.  1.
         11    1    4    4    0    0 -0.48404761049E+02  0.52732440565E+02  0.15760265260E+03  0.17309629484E+03  0.00000000000E+00 0. -1.
</event>
<event>
 8    1  0.6505836E-009  0.1699352E+03  0.7561462E-02  0.1177915E+00
          1   -1    0    0  501    0  0.00000000000E+00  0.00000000000E+00  0.48795824608E+03  0.48795824608E+03  0.00000000000E+00 0. -1.
         -1   -1    0    0    0  501 -0.00000000000E+00 -0.00000000000E+00 -0.64930382988E+02  0.64930382988E+02  0.00000000000E+00 0.  1.
         25    2    1    2    0    0  0.48889780655E+02 -0.12949125437E+03  0.27932176116E+03  0.33589665915E+03  0.12509086203E+03 0.  0.
         23    2    1    2    0    0 -0.48889780655E+02  0.12949125437E+03  0.14370610193E+03  0.21699196991E+03  0.85298743626E+02 0.  0.
          5    1    3    3  502    0 -0.39922247776E+02 -0.44037642477E+02  0.61780796419E+02  0.85833787220E+02  0.41800000000E+01 0. -1.
         -5    1    3    3    0  502  0.88812028431E+02 -0.85453611892E+02  0.21754096474E+03  0.25006287193E+03  0.41800000000E+01 0. -1.
        -11    1    4    4    0    0 -0.66699587295E+02  0.78812203975E+02  0.66050968468E+02  0.12256805814E+03  0.00000000000E+00 0.  1.
         11    1    4    4    0    0  0.17809806640E+02  0.50679050393E+02  0.77655133463E+02  0.94423911773E+02  0.00000000000E+00 0. -1.
</event>
<event>
 8    1  0.6505836E-009  0.7172995E+02  0.7561462E-02  0.1354307E+00
          1   -1    0    0  501    0  0.00000000000E+00  0.00000000000E+00  0.16315629932E+03  0.16315629932E+03  0.00000000000E+00 0. -1.
         -1   -1    0    0    0  501 -0.00000000000E+00 -0.00000000000E+00 -0.15800912564E+03  0.15800912564E+03  0.00000000000E+00 0.  1.
         25    2    1    2    0    0  0.23525887916E+02  0.52246875592E+00  0.11826866851E+03  0.17374472418E+03  0.12508401518E+03 0.  0.
         23    2    1    2    0    0 -0.23525887916E+02 -0.52246875592E+00 -0.11312149483E+03  0.14742070078E+03  0.91556813246E+02 0.  0.
          5    1    3    3  502    0  0.40957631207E+02 -0.17662066289E+02 -0.74892262534E+01  0.45420667648E+02  0.41800000000E+01 0.  1.
         -5    1    3    3    0  502 -0.17431743291E+02  0.18184535045E+02  0.12575789476E+03  0.12832405653E+03  0.41800000000E+01 0.  1.
        -11    1    4    4    0    0  0.14175466624E+02  0.24197123237E+02 -0.27273619246E+01  0.28175931751E+02  0.00000000000E+00 0.  1.
         11    1    4    4    0    0 -0.37701354540E+02 -0.24719591993E+02 -0.11039413290E+03  0.11924476903E+03  0.00000000000E+00 0. -1.
</event>
<event>
 8    1  0.6505836E-009  0.9360591E+02  0.7561462E-02  0.1294347E+00
         -2   -1    0    0    0  501 -0.00000000000E+00  0.00000000000E+00  0.11856257934E+02  0.11856257934E+02  0.00000000000E+00 0.  1.
          2   -1    0    0  501    0  0.00000000000E+00 -0.00000000000E+00 -0.12599950412E+04  0.12599950412E+04  0.00000000000E+00 0. -1.
         25    2    1    2    0    0 -0.18424118380E+02  0.49871231714E+02 -0.79486940098E+03  0.80640630746E+03  0.12508868934E+03 0.  0.
         23    2    1    2    0    0  0.18424118380E+02 -0.49871231714E+02 -0.45326938233E+03  0.46544499172E+03  0.91429314056E+02 0.  0.
          5    1    3    3  502    0  0.10518637406E+02  0.58613374073E+02 -0.74860183838E+03  0.75097826479E+03  0.41800000000E+01 0.  1.
         -5    1    3    3    0  502 -0.28942755786E+02 -0.87421423590E+01 -0.46267562596E+02  0.55428042669E+02  0.41800000000E+01 0.  1.
        -11    1    4    4    0    0 -0.14318196452E+02 -0.60809695154E+02 -0.37105104757E+03  0.37627345067E+03  0.00000000000E+00 0. -1.
         11    1    4    4    0    0  0.32742314832E+02  0.10938463440E+02 -0.82218334759E+02  0.89171541052E+02  0.00000000000E+00 0.  1.
</event>
<event>
 8    1  0.6505836E-009  0.1037600E+03  0.7561462E-02  0.1272582E+00
         -1   -1    0    0    0  501 -0.00000000000E+00  0.00000000000E+00  0.14017629470E+03  0.14017629470E+03  0.00000000000E+00 0.  1.
          1   -1    0    0  501    0  0.00000000000E+00 -0.00000000000E+00 -0.16552648839E+03  0.16552648839E+03  0.00000000000E+00 0. -1.
         25    2    1    2    0    0 -0.48801516808E+02  0.61697740954E+02  0.61124955294E+02  0.15991604093E+03  0.12509468696E+03 0.  0.
         23    2    1    2    0    0  0.48801516808E+02 -0.61697740954E+02 -0.86475148990E+02  0.14578674216E+03  0.87106965936E+02 0.  0.
          5    1    3    3  502    0 -0.71702783004E+01 -0.22716910822E+02 -0.23171856543E+02  0.33494451240E+02  0.41800000000E+01 0. -1.
         -5    1    3    3    0  502 -0.41631238508E+02  0.84414651776E+02  0.84296811837E+02  0.12642158969E+03  0.41800000000E+01 0. -1.
        -11    1    4    4    0    0  0.19926263965E+02 -0.56328628364E+02 -0.97553280169E+02  0.11439673440E+03  0.00000000000E+00 0. -1.
         11    1    4    4    0    0  0.28875252844E+02 -0.53691125900E+01  0.11078131180E+02  0.31390007761E+02  0.00000000000E+00 0.  1.
</event>
<event>
 8    1  0.6505836E-009  0.1323624E+03  0.7561462E-02  0.1223992E+00
          1   -1    0    0  501    0  0.00000000000E+00  0.00000000000E+00  0.26850277489E+02  0.26850277489E+02  0.00000000000E+00 0. -1.
         -1   -1    0    0    0  501 -0.00000000000E+00 -0.00000000000E+00 -0.80295491633E+03  0.80295491633E+03  0.00000000000E+00 0.  1.
         25    2    1    2    0    0 -0.91896303863E+02  0.13840660037E+01 -0.52698177060E+03  0.54936697076E+03  0.12508971066E+03 0.  0.
         23    2    1    2    0    0  0.91896303863E+02 -0.13840660037E+01 -0.24912286824E+03  0.28043822306E+03  0.90202811323E+02 0.  0.
          5    1    3    3  502    0 -0.10151713869E+03  0.36429635870E+02 -0.28724119730E+03  0.30685147163E+03  0.41800000000E+01 0. -1.
         -5    1    3    3    0  502  0.96208348259E+01 -0.35045569866E+02 -0.23974057330E+03  0.24251549912E+03  0.41800000000E+01 0. -1.
        -11    1    4    4    0    0  0.35546955089E+02  0.37556169020E+02 -0.15927594809E+03  0.16746008326E+03  0.00000000000E+00 0.  1.
         11    1    4    4    0    0  0.56349348773E+02 -0.38940235024E+02 -0.89846920155E+02  0.11297813980E+03  0.00000000000E+00 0. -1.
</event>
<event>
 7    1  0.6505836E-009  0.1324211E+03  0.7561462E-02  0.1223907E+00
         -2   -1    0    0    0  501 -0.00000000000E+00  0.00000000000E+00  0.17778482334E+03  0.17778482334E+03  0.00000000000E+00 0.  1.
          2   -1    0    0  501    0  0.00000000000E+00 -0.00000000000E+00 -0.14769162758E+03  0.14769162758E+03  0.00000000000E+00 0. -1.
         25    2    1    2    0    0  0.97273493416E+02  0.55883363402E+01 -0.73302929920E+02  0.17468402879E+03  0.12509128010E+03 0.  0.
          5    1    3    3  502    0  0.10148180410E+03 -0.42181591963E+02 -0.56922579484E+02  0.12383656859E+03  0.41800000000E+01 0.  1.
         -5    1    3    3    0  502 -0.42083106852E+01  0.47769928304E+02 -0.16380350436E+02  0.50847460206E+02  0.41800000000E+01 0.  1.
        -11    1    1    2    0    0 -0.74116318859E+02 -0.23167586466E+02  0.58157542333E+02  0.97016831086E+02  0.00000000000E+00 0. -1.
         11    1    1    2    0    0 -0.23157174557E+02  0.17579250126E+02  0.45238583350E+02  0.53775591043E+02  0.00000000000E+00 0.  1.
</event>
<event>
 8    1  0.6505836E-009  0.6591379E+02  0.7561462E-02  0.1374567E+00
         -1   -1    0    0    0  501 -0.00000000000E+00  0.00000000000E+00  0.16850257812E+03  0.16850257812E+03  0.00000000000E+00 0.  1.
          1   -1    0    0  501    0  0.00000000000E+00 -0.00000000000E+00 -0.70380587491E+02  0.70380587491E+02  0.00000000000E+00 0. -1.
         25    2    1    2    0    0 -0.14611849462E+02 -0.90767701221E+00  0.62758069655E+02  0.14071470624E+03  0.12509085988E+03 0.  0.
         23    2    1    2    0    0  0.14611849462E+02  0.90767701221E+00  0.35363920978E+02  0.98168459371E+02  0.90399720608E+02 0.  0.
          5    1    3    3  502    0  0.12679842175E+02  0.30398605041E+01 -0.35777331290E+02  0.38308079875E+02  0.41800000000E+01 0.  1.
         -5    1    3    3    0  502 -0.27291691636E+02 -0.39475375163E+01  0.98535400945E+02  0.10240662637E+03  0.41800000000E+01 0.  1.
        -11    1    4    4    0    0  0.42536139022E+02  0.28329734289E+02  0.28233341502E+02  0.58386801079E+02  0.00000000000E+00 0.  1.
         11    1    4    4    0    0 -0.27924289561E+02 -0.27422057277E+02  0.71305794763E+01  0.39781658292E+02  0.00000000000E+00 0. -1.
</event>
<event>
 8    1  0.6505836E-009  0.2018351E+03  0.7561462E-02  0.1148200E+00
          2   -1    0    0  501    0  0.00000000000E+00  0.00000000000E+00  0.63342047050E+03  0.63342047050E+03  0.00000000000E+00 0. -1.
         -2   -1    0    0    0  501 -0.00000000000E+00 -0.00000000000E+00 -0.82654552230E+02  0.82654552230E+02  0.00000000000E+00 0.  1.
         25    2    1    2    0    0  0.11880681339E+03  0.14817940727E+03  0.38227441954E+03  0.44480167547E+03  0.12507039225E+03 0.  0.
         23    2    1    2    0    0 -0.11880681339E+03 -0.14817940727E+03  0.16849149873E+03  0.27127334726E+03  0.95538725882E+02 0.  0.
          5    1    3    3  502    0  0.74245766509E+02  0.54629359766E+02  0.29553102748E+03  0.30960113274E+03  0.41800000000E+01 0. -1.
         -5    1    3    3    0  502  0.44561046885E+02  0.93550047501E+02  0.86743392061E+02  0.13520054273E+03  0.41800000000E+01 0. -1.
        -11    1    4    4    0    0 -0.12090908162E+03 -0.93169016407E+02  0.96274941848E+02  0.18046699439E+03  0.00000000000E+00 0.  1.
         11    1    4    4    0    0  0.21022682237E+01 -0.55010390859E+02  0.72216556878E+02  0.90806352870E+02  0.00000000000E+00 0. -1.
</event>
<event>
 8    1  0.6505836E-009  0.1109235E+03  0.7561462E-02  0.1258869E+00
         -2   -1    0    0    0  501 -0.00000000000E+00  0.00000000000E+00  0.14887566135E+02  0.14887566135E+02  0.00000000000E+00 0.  1.
          2   -1    0    0  501    0  0.00000000000E+00 -0.00000000000E+00 -0.12057563653E+04  0.12057563653E+04  0.00000000000E+00 0. -1.
         25    2    1    2    0    0 -0.59698425785E+02  0.49628176706E+02 -0.72030365853E+03  0.73519455458E+03  0.12508722806E+03 0.  0.
         23    2    1    2    0    0  0.59698425785E+02 -0.49628176706E+02 -0.47056514064E+03  0.48544937686E+03  0.90568691875E+02 0.  0.
          5    1    3    3  502    0 -0.63677879338E+02  0.63710966084E+02 -0.27051992214E+03  0.28515339765E+03  0.41800000000E+01 0. -1.
         -5    1    3    3    0  502  0.39794535524E+01 -0.14082789378E+02 -0.44978373640E+03  0.45004115693E+03  0.41800000000E+01 0. -1.
        -11    1    4    4    0    0  0.80690936226E+02 -0.25841559302E+02 -0.29021881635E+03  0.30233387958E+03  0.00000000000E+00 0.  1.
         11    1    4    4    0    0 -0.20992510440E+02 -0.23786617404E+02 -0.18034632428E+03  0.18311549728E+03  0.00000000000E+00 0. -1.
</event>
<event>
 8    1  0.6505836E-009  0.9775571E+02  0.7561462E-02  0.1285087E+00
         -2   -1    0    0    0  501 -0.00000000000E+00  0.00000000000E+00  0.47203711072E+03  0.47203711072E+03  0.00000000000E+00 0. -1.
          2   -1    0    0  501    0  0.00000000000E+00 -0.00000000000E+00 -0.29209828912E+02  0.29209828912E+02  0.00000000000E+00 0.  1.
         25    2    1    2    0    0 -0.19696262650E+02  0.40874236542E+02  0.24442656164E+03  0.27830043848E+03  0.12509254194E+03 0.  0.
         23    2    1    2    0    0  0.19696262650E+02 -0.40874236542E+02  0.19840072017E+03  0.22294650115E+03  0.91014562771E+02 0.  0.
          5    1    3    3  502    0  0.39035109367E+02  0.45057857905E+02  0.60108980661E+02  0.84761502337E+02  0.41800000000E+01 0. -1.
         -5    1    3    3    0  502 -0.58731372017E+02 -0.41836213628E+01  0.18431758098E+03  0.19353893614E+03  0.41800000000E+01 0. -1.
        -11    1    4    4    0    0  0.26265191398E+02  0.79621133486E+01  0.11670132196E+02  0.29823606650E+02  0.00000000000E+00 0.  1.
         11    1    4    4    0    0 -0.65689287474E+01 -0.48836349890E+02  0.18673058798E+03  0.19312289450E+03  0.00000000000E+00 0. -1.
</event>
<event>
 8    1  0.6505836E-009  0.1064867E+03  0.7561462E-02  0.1267218E+00
         -1   -1    0    0    0  501 -0.00000000000E+00  0.00000000000E+00  0.31904513794E+02  0.31904513794E+02  0.00000000000E+00 0.  1.
          1   -1    0    0  501    0  0.00000000000E+00 -0.00000000000E+00 -0.62832733519E+03  0.62832733519E+03  0.00000000000E+00 0. -1.
         25    2    1    2    0    0 -0.68195316397E+02  0.52933419305E+02 -0.25578876871E+03  0.29753540769E+03  0.12508747567E+03 0.  0.
         23    2    1    2    0    0  0.68195316397E+02 -0.52933419305E+02 -0.34063405268E+03  0.36269644129E+03  0.89803132598E+02 0.  0.
          5    1    3    3  502    0 -0.25505442101E+02  0.42153255681E+02 -0.13517656090E+02  0.51260354734E+02  0.41800000000E+01 0. -1.
         -5    1    3    3    0  502 -0.42689874296E+02  0.10780163624E+02 -0.24227111263E+03  0.24627505295E+03  0.41800000000E+01 0. -1.
        -11    1    4    4    0    0  0.56485534243E+02  0.81797027786E+01 -0.11143608088E+03  0.12520192985E+03  0.00000000000E+00 0. -1.
         11    1    4    4    0    0  0.11709782154E+02 -0.61113122083E+02 -0.22919797180E+03  0.23749451144E+03  0.00000000000E+00 0.  1.
</event>
<event>
 8    1  0.6505836E-009  0.1574654E+03  0.7561462E-02  0.1191588E+00
         -1   -1    0    0    0  501 -0.00000000000E+00  0.00000000000E+00  0.35213430968E+02  0.35213430968E+02  0.00000000000E+00 0.  1.
          1   -1    0    0  501    0  0.00000000000E+00 -0.00000000000E+00 -0.89150403755E+03  0.89150403755E+03  0.00000000000E+00 0. -1.
         25    2    1    2    0    0 -0.12152754118E+03  0.49073318785E+02 -0.57247750852E+03  0.60046256400E+03  0.12509060366E+03 0.  0.
         23    2    1    2    0    0  0.12152754118E+03 -0.49073318785E+02 -0.28381309807E+03  0.32625490452E+03  0.93355525851E+02 0.  0.
          5    1    3    3  502    0 -0.23949245023E+02 -0.40295477414E+02 -0.18923604186E+03  0.19500011224E+03  0.41800000000E+01 0.  1.
         -5    1    3    3    0  502 -0.97578296160E+02  0.89368796199E+02 -0.38324146666E+03  0.40546245175E+03  0.41800000000E+01 0.  1.
        -11    1    4    4    0    0  0.53314488739E+02 -0.34610848629E+01 -0.34043441126E+02  0.63351161802E+02  0.00000000000E+00 0.  1.
         11    1    4    4    0    0  0.68213052444E+02 -0.45612233922E+02 -0.24976965694E+03  0.26290374272E+03  0.00000000000E+00 0. -1.
</event>
<event>
 8    1  0.6505836E-009  0.7533380E+02  0.7561462E-02  0.1342840E+00
         -2   -1    0    0    0  501 -0.00000000000E+00  0.00000000000E+00  0.65704500144E+01  0.65704500144E+01  0.00000000000E+00 0. -1.
          2   -1    0    0  501    0  0.00000000000E+00 -0.00000000000E+00 -0.26042009798E+04  0.26042009798E+04  0.00000000000E+00 0.  1.
         25    2    1    2    0    0  0.23480334951E+02  0.64856345112E+01 -0.20917088497E+04  0.20955874565E+04  0.12508991375E+03 0.  0.
         23    2    1    2    0    0 -0.23480334951E+02 -0.64856345112E+01 -0.50592168013E+03  0.51518397332E+03  0.94150891400E+02 0.  0.
          5    1    3    3  502    0 -0.14392097654E+02  0.12795975152E+01 -0.18999984383E+04  0.19000579748E+04  0.41800000000E+01 0. -1.
         -5    1    3    3    0  502  0.37872432605E+02  0.52060369960E+01 -0.19171041142E+03  0.19552948171E+03  0.41800000000E+01 0. -1.
        -11    1    4    4    0    0 -0.52488904073E+02 -0.29436891170E+02 -0.32345648783E+03  0.32900716578E+03  0.00000000000E+00 0.  1.
         11    1    4    4    0    0  0.29008569122E+02  0.22951256659E+02 -0.18246519230E+03  0.18617680754E+03  0.00000000000E+00 0. -1.
</event>
<event>
 8    1  0.6505836E-009  0.1131160E+03  0.7561462E-02  0.1254906E+00
          2   -1    0    0  501    0  0.00000000000E+00  0.00000000000E+00  0.42640133010E+03  0.42640133010E+03  0.00000000000E+00 0. -1.
         -2   -1    0    0    0  501 -0.00000000000E+00 -0.00000000000E+00 -0.42501941622E+02  0.42501941622E+02  0.00000000000E+00 0.  1.
         25    2    1    2    0    0  0.57839378544E+02 -0.48889316557E+02  0.25323284250E+03  0.29241967029E+03  0.12508729780E+03 0.  0.
         23    2    1    2    0    0 -0.57839378544E+02  0.48889316557E+02  0.13066654598E+03  0.17648360143E+03  0.91308030049E+02 0.  0.
          5    1    3    3  502    0  0.26956084750E+01 -0.76587985819E+02  0.92483115447E+02  0.12018146662E+03  0.41800000000E+01 0. -1.
         -5    1    3    3    0  502  0.55143770069E+02  0.27698669263E+02  0.16074972705E+03  0.17223820367E+03  0.41800000000E+01 0. -1.
        -11    1    4    4    0    0 -0.49744223974E+02  0.13802953517E+02  0.13064589956E+03  0.14047547977E+03  0.00000000000E+00 0. -1.
         11    1    4    4    0    0 -0.80951545703E+01  0.35086363040E+02  0.20646415164E-01  0.36008121656E+02  0.00000000000E+00 0.  1.
</event>
<event>
 8    1  0.6505836E-009  0.1676823E+03  0.7561462E-02  0.1180287E+00
          1   -1    0    0  501    0  0.00000000000E+00  0.00000000000E+00  0.27896153950E+03  0.27896153950E+03  0.00000000000E+00 0. -1.
         -1   -1    0    0    0  501 -0.00000000000E+00 -0.00000000000E+00 -0.13103347275E+03  0.13103347275E+03  0.00000000000E+00 0.  1.
         25    2    1    2    0    0 -0.18527659758E+02 -0.15515633337E+03  0.93204968813E+02  0.22079477164E+03  0.12508558275E+03 0.  0.
         23    2    1    2    0    0  0.18527659758E+02  0.15515633337E+03  0.54723097935E+02  0.18920024061E+03  0.91571565674E+02 0.  0.
          5    1    3    3  502    0 -0.47763715138E+02 -0.12058786578E+03  0.11217186772E+03  0.17153077323E+03  0.41800000000E+01 0.  1.
         -5    1    3    3    0  502  0.29236055380E+02 -0.34568467587E+02 -0.18966898903E+02  0.49263998411E+02  0.41800000000E+01 0.  1.
        -11    1    4    4    0    0  0.28700595541E+02  0.99811325470E+02 -0.89309619983E+01  0.10423908556E+03  0.00000000000E+00 0.  1.
         11    1    4    4    0    0 -0.10172935783E+02  0.55345007899E+02  0.63654059933E+02  0.84961155052E+02  0.00000000000E+00 0. -1.
</event>
<event>
 8    1  0.6505836E-009  0.8019929E+02  0.7561462E-02  0.1328487E+00
         -2   -1    0    0    0  501 -0.00000000000E+00  0.00000000000E+00  0.61628456672E+02  0.61628456672E+02  0.00000000000E+00 0.  1.
          2   -1    0    0  501    0  0.00000000000E+00 -0.00000000000E+00 -0.19514901584E+03  0.19514901584E+03  0.00000000000E+00 0. -1.
         25    2    1    2    0    0 -0.26690314740E+01 -0.13230861369E+02 -0.64319624297E+02  0.14130778647E+03  0.12509475219E+03 0.  0.
         23    2    1    2    0    0  0.26690314740E+01  0.13230861369E+02 -0.69200934868E+02  0.11546968604E+03  0.91445609984E+02 0.  0.
          5    1    3    3  502    0 -0.49597039524E+02  0.83568606089E+01  0.92574208716E+01  0.51311555132E+02  0.41800000000E+01 0.  1.
         -5    1    3    3    0  502  0.46928008050E+02 -0.21587721978E+02 -0.73577045168E+02  0.89996231340E+02  0.41800000000E+01 0.  1.
        -11    1    4    4    0    0  0.21181918826E+02  0.27513592102E+02 -0.81831980647E+02  0.88894007065E+02  0.00000000000E+00 0. -1.
         11    1    4    4    0    0 -0.18512887352E+02 -0.14282730734E+02  0.12631045779E+02  0.26575678972E+02  0.00000000000E+00 0.  1.
</event>
<event>
 8    1  0.6505836E-009  0.1104086E+03  0.7561462E-02  0.1259815E+00
          4   -1    0    0  501    0  0.00000000000E+00  0.00000000000E+00  0.24033412580E+03  0.24033412580E+03  0.00000000000E+00 0. -1.
         -4   -1    0    0    0  501 -0.00000000000E+00 -0.00000000000E+00 -0.70075985679E+02  0.70075985679E+02  0.00000000000E+00 0.  1.
         25    2    1    2    0    0 -0.78353241744E+01 -0.55505235460E+02  0.43198139001E+02  0.14372014701E+03  0.12508868044E+03 0.  0.
         23    2    1    2    0    0  0.78353241744E+01  0.55505235460E+02  0.12706000112E+03  0.16668996447E+03  0.92190438239E+02 0.  0.
          5    1    3    3  502    0  0.22556423490E+02  0.25696194298E+02  0.45278453138E+02  0.56891979757E+02  0.41800000000E+01 0. -1.
         -5    1    3    3    0  502 -0.30391747665E+02 -0.81201429758E+02 -0.20803141374E+01  0.86828167249E+02  0.41800000000E+01 0. -1.
        -11    1    4    4    0    0 -0.32930974752E+02  0.47852940783E+02  0.40831412198E+02  0.71003924271E+02  0.00000000000E+00 0.  1.
         11    1    4    4    0    0  0.40766298927E+02  0.76522946767E+01  0.86228588919E+02  0.95686040199E+02  0.00000000000E+00 0. -1.
</event>
<event>
 8    1  0.6505836E-009  0.1065111E+03  0.7561462E-02  0.1267171E+00
          1   -1    0    0  501    0  0.00000000000E+00  0.00000000000E+00  0.73336854287E+02  0.73336854287E+02  0.00000000000E+00 0. -1.
         -1   -1    0    0    0  501 -0.00000000000E+00 -0.00000000000E+00 -0.23507239248E+03  0.23507239248E+03  0.00000000000E+00 0.  1.
         25    2    1    2    0    0  0.56601932966E+02 -0.62267271139E+02 -0.84503024530E+02  0.17282343726E+03  0.12508472105E+03 0.  0.
         23    2    1    2    0    0 -0.56601932966E+02  0.62267271139E+02 -0.77232513666E+02  0.13558580951E+03  0.73059282110E+02 0.  0.
          5    1    3    3  502    0 -0.18348558979E+02 -0.44033944910E+02  0.11845876261E+02  0.49330062896E+02  0.41800000000E+01 0.  1.
         -5    1    3    3    0  502  0.74950491945E+02 -0.18233326229E+02 -0.96348900791E+02  0.12349337436E+03  0.41800000000E+01 0.  1.
        -11    1    4    4    0    0 -0.49534031740E+02  0.37494166581E+02 -0.87954441630E+02  0.10768201628E+03  0.00000000000E+00 0.  1.
         11    1    4    4    0    0 -0.70679012262E+01  0.24773104558E+02  0.10721927965E+02  0.27903793227E+02  0.00000000000E+00 0. -1.
</event>
<event>
 8    1  0.6505836E-009  0.8891466E+02  0.7561462E-02  0.1305501E+00
         -2   -1    0    0    0  501 -0.00000000000E+00  0.00000000000E+00  0.41828904280E+02  0.41828904280E+02  0.00000000000E+00 0.  1.
          2   -1    0    0  501    0  0.00000000000E+00 -0.00000000000E+00 -0.33021088033E+03  0.33021088033E+03  0.00000000000E+00 0. -1.
         25    2    1    2    0    0  0.49888421427E+02  0.20122475566E+02 -0.19119241767E+03  0.23472602928E+03  0.12509196469E+03 0.  0.
         23    2    1    2    0    0 -0.49888421427E+02 -0.20122475566E+02 -0.97189558379E+02  0.13731375533E+03  0.80718576115E+02 0.  0.
          5    1    3    3  502    0  0.57999952292E+02 -0.90545213805E+01 -0.22054927361E+02  0.62847999524E+02  0.41800000000E+01 0. -1.
         -5    1    3    3    0  502 -0.81115308642E+01  0.29176996947E+02 -0.16913749031E+03  0.17187802976E+03  0.41800000000E+01 0. -1.
        -11    1    4    4    0    0  0.10731867005E+02 -0.25383951960E+02 -0.68583831733E+01  0.28399919124E+02  0.00000000000E+00 0.  1.
         11    1    4    4    0    0 -0.60620288432E+02  0.52614763935E+01 -0.90331175206E+02  0.10891383621E+03  0.00000000000E+00 0. -1.
</event>
<event>
 7    1  0.6505836E-009  0.1038918E+03  0.7561462E-02  0.1272319E+00
         -2   -1    0    0    0  501 -0.00000000000E+00  0.00000000000E+00  0.28987628482E+03  0.28987628482E+03  0.00000000000E+00 0.  1.
          2   -1    0    0  501    0  0.00000000000E+00 -0.00000000000E+00 -0.46310647124E+02  0.46310647124E+02  0.00000000000E+00 0. -1.
         23    2    1    2    0    0 -0.32291961932E+02  0.19755965293E+02  0.82890638795E+02  0.12933222250E+03  0.91776341213E+02 0.  0.
          5    1    1    2  502    0 -0.14718868619E+02 -0.58137224883E+02  0.11836026408E+03  0.13275242568E+03  0.41800000000E+01 0.  1.
         -5    1    1    2    0  502  0.47010830551E+02  0.38381259590E+02  0.42314734824E+02  0.74102283771E+02  0.41800000000E+01 0.  1.
        -11    1    3    3    0    0  0.67307959466E+01  0.41581199221E+02  0.91646781762E+01  0.43107900306E+02  0.00000000000E+00 0. -1.
         11    1    3    3    0    0 -0.39022757878E+02 -0.21825233928E+02  0.73725960619E+02  0.86224322192E+02  0.00000000000E+00 0.  1.
</event>
<event>
 8    1  0.6505836E-009  0.1066860E+03  0.7561462E-02  0.1266833E+00
          2   -1    0    0  501    0  0.00000000000E+00  0.00000000000E+00  0.57200234980E+03  0.57200234980E+03  0.00000000000E+00 0. -1.
         -2   -1    0    0    0  501 -0.00000000000E+00 -0.00000000000E+00 -0.22083876212E+02  0.22083876212E+02  0.00000000000E+00 0.  1.
         25    2    1    2    0    0  0.22415689485E+02 -0.39627695253E+01  0.29714758783E+03  0.32320830951E+03  0.12509498674E+03 0.  0.
         23    2    1    2    0    0 -0.22415689485E+02  0.39627695253E+01  0.25277088576E+03  0.27087791650E+03  0.94676070276E+02 0.  0.
          5    1    3    3  502    0  0.39592077693E+02  0.49735707091E+02  0.20896062423E+03  0.21845637563E+03  0.41800000000E+01 0.  1.
         -5    1    3    3    0  502 -0.17176388208E+02 -0.53698476616E+02  0.88186963601E+02  0.10475193388E+03  0.41800000000E+01 0.  1.
        -11    1    4    4    0    0 -0.54100832648E+02  0.19923826555E+02  0.11540677327E+03  0.12900613270E+03  0.00000000000E+00 0.  1.
         11    1    4    4    0    0  0.31685143163E+02 -0.15961057030E+02  0.13736411249E+03  0.14187178380E+03  0.00000000000E+00 0. -1.
</event>
<event>
 8    1  0.6505836E-009  0.2003198E+03  0.7561462E-02  0.1149470E+00
         -2   -1    0    0    0  501 -0.00000000000E+00  0.00000000000E+00  0.66905995529E+03  0.66905995529E+03  0.00000000000E+00 0.  1.
          2   -1    0    0  501    0  0.00000000000E+00 -0.00000000000E+00 -0.72958746055E+02  0.72958746055E+02  0.00000000000E+00 0. -1.
         25    2    1    2    0    0  0.15957384733E+03 -0.77486176553E+02  0.43166757033E+03  0.48316951602E+03  0.12509184477E+03 0.  0.
         23    2    1    2    0    0 -0.15957384733E+03  0.77486176553E+02  0.16443363890E+03  0.25884918532E+03  0.92176780315E+02 0.  0.
          5    1    3    3  502    0  0.83256999858E+01  0.19083601620E+02  0.73911784895E+01  0.22485618749E+02  0.41800000000E+01 0. -1.
         -5    1    3    3    0  502  0.15124814735E+03 -0.96569778173E+02  0.42427639184E+03  0.46068389728E+03  0.41800000000E+01 0. -1.
        -11    1    4    4    0    0 -0.78458609192E+02 -0.11726686247E+02  0.66137863521E+02  0.10328352007E+03  0.00000000000E+00 0.  1.
         11    1    4    4    0    0 -0.81115238142E+02  0.89212862800E+02  0.98295775380E+02  0.15556566525E+03  0.00000000000E+00 0. -1.
</event>
<event>
 8    1  0.6505836E-009  0.8570387E+02  0.7561462E-02  0.1313602E+00
         -3   -1    0    0    0  501 -0.00000000000E+00  0.00000000000E+00  0.11365330209E+03  0.11365330209E+03  0.00000000000E+00 0.  1.
          3   -1    0    0  501    0  0.00000000000E+00 -0.00000000000E+00 -0.11479192500E+03  0.11479192500E+03  0.00000000000E+00 0. -1.
         25    2    1    2    0    0  0.63328661790E+01  0.29313474022E+02  0.18887181171E+02  0.13001470576E+03  0.12509081960E+03 0.  0.
         23    2    1    2    0    0 -0.63328661790E+01 -0.29313474022E+02 -0.20025804083E+02  0.98430521326E+02  0.91586842647E+02 0.  0.
          5    1    3    3  502    0 -0.48005663701E+02  0.14134664213E+02  0.45253047093E+02  0.67599135727E+02  0.41800000000E+01 0. -1.
         -5    1    3    3    0  502  0.54338529880E+02  0.15178809809E+02 -0.26365865922E+02  0.62415570033E+02  0.41800000000E+01 0. -1.
        -11    1    4    4    0    0 -0.11657100456E+02  0.15552366037E+02  0.26967107861E+02  0.33241374623E+02  0.00000000000E+00 0.  1.
         11    1    4    4    0    0  0.53242342770E+01 -0.44865840059E+02 -0.46992911944E+02  0.65189146703E+02  0.00000000000E+00 0. -1.
</event>
<event>
 8    1  0.6505836E-009  0.8305272E+02  0.7561462E-02  0.1320605E+00
          2   -1    0    0  501    0  0.00000000000E+00  0.00000000000E+00  0.43184813098E+03  0.43184813098E+03  0.00000000000E+00 0. -1.
         -2   -1    0    0    0  501 -0.00000000000E+00 -0.00000000000E+00 -0.29300360131E+02  0.29300360131E+02  0.00000000000E+00 0.  1.
         25    2    1    2    0    0  0.10821768525E+02 -0.11662802563E+02  0.27790648639E+03  0.30517673460E+03  0.12509073718E+03 0.  0.
         23    2    1    2    0    0 -0.10821768525E+02  0.11662802563E+02  0.12464128446E+03  0.15597175651E+03  0.92404585381E+02 0.  0.
          5    1    3    3  502    0 -0.55174790883E+02  0.19092167190E+01  0.16004830965E+03  0.16935417467E+03  0.41800000000E+01 0.  1.
         -5    1    3    3    0  502  0.65996559408E+02 -0.13572019282E+02  0.11785817674E+03  0.13582255993E+03  0.41800000000E+01 0.  1.
        -11    1    4    4    0    0  0.11830764303E+02  0.16269492472E+02 -0.77648841188E+01  0.21562856830E+02  0.00000000000E+00 0.  1.
         11    1    4    4    0    0 -0.22652532828E+02 -0.46066899090E+01  0.13240616858E+03  0.13440889968E+03  0.00000000000E+00 0. -1.
</event>
<event>
 8    1  0.6505836E-009  0.7582345E+02  0.7561462E-02  0.1341340E+00
          1   -1    0    0  501    0  0.00000000000E+00  0.00000000000E+00  0.40732164615E+02  0.40732164615E+02  0.00000000000E+00 0. -1.
         -1   -1    0    0    0  501 -0.00000000000E+00 -0.00000000000E+00 -0.37734896316E+03  0.37734896316E+03  0.00000000000E+00 0.  1.
         25    2    1    2    0    0 -0.53617390037E+02 -0.22464183745E+02 -0.19516557380E+03  0.23901207086E+03  0.12513075062E+03 0.  0.
         23    2    1    2    0    0  0.53617390037E+02  0.22464183745E+02 -0.14145122474E+03  0.17906905692E+03  0.93154785702E+02 0.  0.
          5    1    3    3  502    0 -0.55735776397E+02 -0.15292358855E+01 -0.20706406352E+03  0.21448033508E+03  0.41800000000E+01 0. -1.
         -5    1    3    3    0  502  0.21183863597E+01 -0.20934947859E+02  0.11898489720E+02  0.24531735778E+02  0.41800000000E+01 0. -1.
        -11    1    4    4    0    0  0.51820148770E+02  0.34407475230E+02 -0.15123390204E+03  0.16352643607E+03  0.00000000000E+00 0.  1.
         11    1    4    4    0    0  0.17972412674E+01 -0.11943291485E+02  0.97826772942E+01  0.15542620844E+02  0.00000000000E+00 0. -1.
</event>
<event>
 8    1  0.6505836E-009  0.1192523E+03  0.7561462E-02  0.1244336E+00
          1   -1    0    0  501    0  0.00000000000E+00  0.00000000000E+00  0.14920045947E+03  0.14920045947E+03  0.00000000000E+00 0. -1.
         -1   -1    0    0    0  501 -0.00000000000E+00 -0.00000000000E+00 -0.11890098342E+03  0.11890098342E+03  0.00000000000E+00 0.  1.
         25    2    1    2    0    0  0.74011738063E+02  0.19045771508E+01 -0.33413784093E+01  0.14538927381E+03  0.12508201847E+03 0.  0.
         23    2    1    2    0    0 -0.74011738063E+02 -0.19045771508E+01  0.33640854458E+02  0.12271216907E+03  0.91897794123E+02 0.  0.
          5    1    3    3  502    0  0.10465211589E+03  0.17063349290E+02  0.13641935985E+02  0.10698971009E+03  0.41800000000E+01 0. -1.
         -5    1    3    3    0  502 -0.30640377824E+02 -0.15158772139E+02 -0.16983314395E+02  0.38399563719E+02  0.41800000000E+01 0. -1.
        -11    1    4    4    0    0 -0.12427677746E+02 -0.28328670816E+02  0.45136303031E+02  0.54719709572E+02  0.00000000000E+00 0. -1.
         11    1    4    4    0    0 -0.61584060317E+02  0.26424093665E+02 -0.11495448573E+02  0.67992459501E+02  0.00000000000E+00 0.  1.
</event>
<event>
 8    1  0.6505836E-009  0.1697976E+03  0.7561462E-02  0.1178059E+00
         -2   -1    0    0    0  501 -0.00000000000E+00  0.00000000000E+00  0.30153831287E+03  0.30153831287E+03  0.00000000000E+00 0.  1.
          2   -1    0    0  501    0  0.00000000000E+00 -0.00000000000E+00 -0.10297509303E+03  0.10297509303E+03  0.00000000000E+00 0. -1.
         25    2    1    2    0    0 -0.12761612849E+03 -0.51249654722E+02  0.88841752164E+02  0.20603891410E+03  0.12508706503E+03 0.  0.
         23    2    1    2    0    0  0.12761612849E+03  0.51249654722E+02  0.10972146767E+03  0.19847449180E+03  0.91874479961E+02 0.  0.
          5    1    3    3  502    0 -0.10641067675E+03  0.21379462208E+02  0.39321641887E+02  0.11551613503E+03  0.41800000000E+01 0.  1.
         -5    1    3    3    0  502 -0.21205451732E+02 -0.72629116930E+02  0.49520110277E+02  0.90522779073E+02  0.41800000000E+01 0.  1.
        -11    1    4    4    0    0 -0.86379350308E+01  0.91677963240E+01  0.35588573650E+02  0.37751940155E+02  0.00000000000E+00 0.  1.
         11    1    4    4    0    0  0.13625406352E+03  0.42081858398E+02  0.74132894022E+02  0.16072255164E+03  0.00000000000E+00 0. -1.
</event>
<event>
 8    1  0.6505836E-009  0.1317582E+03  0.7561462E-02  0.1224870E+00
         -1   -1    0    0    0  501 -0.00000000000E+00  0.00000000000E+00  0.73342954183E+02  0.73342954183E+02  0.00000000000E+00 0.  1.
          1   -1    0    0  501    0  0.00000000000E+00 -0.00000000000E+00 -0.30477871156E+03  0.30477871156E+03  0.00000000000E+00 0. -1.
         25    2    1    2    0    0  0.71839650155E+02  0.29429481927E+02 -0.15100835145E+03  0.21089568485E+03  0.12508572237E+03 0.  0.
         23    2    1    2    0    0 -0.71839650155E+02 -0.29429481927E+02 -0.80427405928E+02  0.16722598089E+03  0.12437415857E+03 0.  0.
          5    1    3    3  502    0  0.89339178363E+02  0.34086194019E+01 -0.15502491867E+03  0.17900643923E+03  0.41800000000E+01 0.  1.
         -5    1    3    3    0  502 -0.17499528208E+02  0.26020862525E+02  0.40165672213E+01  0.31889245621E+02  0.41800000000E+01 0.  1.
        -11    1    4    4    0    0 -0.92115024847E+02  0.15199340394E+02 -0.33005853724E+02  0.99023149470E+02  0.00000000000E+00 0.  1.
         11    1    4    4    0    0  0.20275374692E+02 -0.44628822320E+02 -0.47421552204E+02  0.68202831423E+02  0.00000000000E+00 0. -1.
</event>
<event>
 8    1  0.6505836E-009  0.1010182E+03  0.7561462E-02  0.1278169E+00
         -1   -1    0    0    0  501 -0.00000000000E+00  0.00000000000E+00  0.15173940658E+03  0.15173940658E+03  0.00000000000E+00 0.  1.
          1   -1    0    0  501    0  0.00000000000E+00 -0.00000000000E+00 -0.17197059443E+03  0.17197059443E+03  0.00000000000E+00 0. -1.
         25    2    1    2    0    0  0.39964780039E+01  0.31317089931E+02  0.10395110795E+03  0.16568352535E+03  0.12509382786E+03 0.  0.
         23    2    1    2    0    0 -0.39964780039E+01 -0.31317089931E+02 -0.12418229581E+03  0.15802647567E+03  0.92489958706E+02 0.  0.
          5    1    3    3  502    0  0.56752610617E+02  0.37694824611E+02  0.85214252291E+02  0.10918195734E+03  0.41800000000E+01 0. -1.
         -5    1    3    3    0  502 -0.52756132613E+02 -0.63777346799E+01  0.18736855660E+02  0.56501568013E+02  0.41800000000E+01 0. -1.
        -11    1    4    4    0    0 -0.26883650720E+02 -0.46001204586E+02 -0.11894599588E+03  0.13033415299E+03  0.00000000000E+00 0. -1.
         11    1    4    4    0    0  0.22887172716E+02  0.14684114655E+02 -0.52362999209E+01  0.27692322672E+02  0.00000000000E+00 0.  1.
</event>
<event>
 8    1  0.6505836E-009  0.3067956E+03  0.7561462E-02  0.1081892E+00
         -2   -1    0    0    0  501 -0.00000000000E+00  0.00000000000E+00  0.22277694555E+03  0.22277694555E+03  0.00000000000E+00 0.  1.
          2   -1    0    0  501    0  0.00000000000E+00 -0.00000000000E+00 -0.59744168650E+03  0.59744168650E+03  0.00000000000E+00 0. -1.
         25    2    1    2    0    0  0.12263941817E+03  0.27325120362E+03 -0.39439199419E+03  0.51078270476E+03  0.12508908518E+03 0.  0.
         23    2    1    2    0    0 -0.12263941817E+03 -0.27325120362E+03  0.19727253242E+02  0.30943592729E+03  0.75198280628E+02 0.  0.
          5    1    3    3  502    0  0.11108441543E+03  0.13545999980E+03 -0.28438137160E+03  0.33403502183E+03  0.41800000000E+01 0. -1.
         -5    1    3    3    0  502  0.11555002741E+02  0.13779120381E+03 -0.11001062260E+03  0.17674768293E+03  0.41800000000E+01 0. -1.
        -11    1    4    4    0    0 -0.19985815831E+02 -0.62125815825E+02 -0.26027094776E+02  0.70259942278E+02  0.00000000000E+00 0. -1.
         11    1    4    4    0    0 -0.10265360234E+03 -0.21112538779E+03  0.45754348018E+02  0.23917598501E+03  0.00000000000E+00 0.  1.
</event>
<event>
 7    1  0.6505836E-009  0.1086561E+03  0.7561462E-02  0.1263079E+00
          1   -1    0    0  501    0  0.00000000000E+00  0.00000000000E+00  0.10474490757E+03  0.10474490757E+03  0.00000000000E+00 0. -1.
         -1   -1    0    0    0  501 -0.00000000000E+00 -0.00000000000E+00 -0.14420963922E+03  0.14420963922E+03  0.00000000000E+00 0.  1.
         23    2    1    2    0    0 -0.12607722503E+02  0.31062432159E+02 -0.63460785831E+02  0.11752643016E+03  0.93066433736E+02 0.  0.
          5    1    1    2  502    0  0.37971398487E+02  0.38850079723E+02  0.14142330837E+02  0.56290618393E+02  0.41800000000E+01 0.  1.
         -5    1    1    2    0  502 -0.25363675984E+02 -0.69912511883E+02  0.98537233459E+01  0.75137498234E+02  0.41800000000E+01 0.  1.
        -11    1    3    3    0    0 -0.45967965028E+02  0.30135436881E+02 -0.63721347642E+02  0.84152293553E+02  0.00000000000E+00 0.  1.
         11    1    3    3    0    0  0.33360242524E+02  0.92699527849E+00  0.26056181088E+00  0.33374136603E+02  0.00000000000E+00 0. -1.
</event>
<event>
 8    1  0.6505836E-009  0.4638335E+02  0.7561462E-02  0.1465886E+00
          2   -1    0    0  501    0  0.00000000000E+00  0.00000000000E+00  0.62346897044E+02  0.62346897044E+02  0.00000000000E+00 0.  1.
         -2   -1    0    0    0  501 -0.00000000000E+00 -0.00000000000E+00 -0.18594635824E+03  0.18594635824E+03  0.00000000000E+00 0. -1.
         25    2    1    2    0    0 -0.28943071942E+01 -0.86336877774E+01 -0.79790952156E+02  0.14865206748E+03  0.12509166056E+03 0.  0.
         23    2    1    2    0    0  0.28943071942E+01  0.86336877774E+01 -0.43808509045E+02  0.99641187811E+02  0.89029563993E+02 0.  0.
          5    1    3    3  502    0 -0.94962190210E+01  0.24522900647E+02 -0.10368054735E+03  0.10704522003E+03  0.41800000000E+01 0. -1.
         -5    1    3    3    0  502  0.66019118268E+01 -0.33156588425E+02  0.23889595198E+02  0.41606847447E+02  0.41800000000E+01 0. -1.
        -11    1    4    4    0    0  0.15273473823E+01 -0.11647449573E+02 -0.67448365273E+02  0.68463697312E+02  0.00000000000E+00 0. -1.
         11    1    4    4    0    0  0.13669598119E+01  0.20281137350E+02  0.23639856228E+02  0.31177490499E+02  0.00000000000E+00 0.  1.
</event>
<event>
 7    1  0.6505836E-009  0.1393994E+03  0.7561462E-02  0.1214139E+00
         -1   -1    0    0    0  501 -0.00000000000E+00  0.00000000000E+00  0.24466990722E+03  0.24466990722E+03  0.00000000000E+00 0.  1.
          1   -1    0    0  501    0  0.00000000000E+00 -0.00000000000E+00 -0.40815509202E+03  0.40815509202E+03  0.00000000000E+00 0. -1.
         25    2    1    2    0    0  0.28467853762E+02  0.10429664783E+03  0.19228319769E+03  0.25358830161E+03  0.12508392843E+03 0.  0.
          5    1    3    3  502    0  0.55603537902E+02  0.10031346208E+03  0.19441471679E+03  0.22576336861E+03  0.41800000000E+01 0. -1.
         -5    1    3    3    0  502 -0.27135684140E+02  0.39831857572E+01 -0.21315191036E+01  0.27824932995E+02  0.41800000000E+01 0. -1.
        -11    1    1    2    0    0  0.21325865999E+02 -0.76167293920E+02 -0.32461431137E+03  0.33411180819E+03  0.00000000000E+00 0.  1.
         11    1    1    2    0    0 -0.49793719761E+02 -0.28129353913E+02 -0.31154071115E+02  0.65124889453E+02  0.00000000000E+00 0. -1.
</event>
<event>
 8    1  0.6505836E-009  0.1346657E+03  0.7561462E-02  0.1220692E+00
          2   -1    0    0  501    0  0.00000000000E+00  0.00000000000E+00  0.50085040707E+03  0.50085040707E+03  0.00000000000E+00 0. -1.
         -2   -1    0    0    0  501 -0.00000000000E+00 -0.00000000000E+00 -0.42962733905E+02  0.42962733905E+02  0.00000000000E+00 0.  1.
         25    2    1    2    0    0 -0.24763688612E+02  0.86393749723E+02  0.32442031084E+03  0.35913294401E+03  0.12510320987E+03 0.  0.
         23    2    1    2    0    0  0.24763688612E+02 -0.86393749723E+02  0.13346736233E+03  0.18468019697E+03  0.90642804911E+02 0.  0.
          5    1    3    3  502    0 -0.66401098825E+02  0.17313915590E+02  0.19299468911E+03  0.20487386369E+03  0.41800000000E+01 0. -1.
         -5    1    3    3    0  502  0.41637410213E+02  0.69079834133E+02  0.13142562174E+03  0.15425908032E+03  0.41800000000E+01 0. -1.
        -11    1    4    4    0    0  0.46300296362E+02 -0.20762733501E+02  0.89247172876E+02  0.10266385154E+03  0.00000000000E+00 0. -1.
         11    1    4    4    0    0 -0.21536607750E+02 -0.65631016221E+02  0.44220189450E+02  0.82016345436E+02  0.00000000000E+00 0.  1.
</event>
<event>
 8    1  0.6505836E-009  0.9716275E+02  0.7561462E-02  0.1286378E+00
         -2   -1    0    0    0  501 -0.00000000000E+00  0.00000000000E+00  0.23220895588E+03  0.23220895588E+03  0.00000000000E+00 0.  1.
          2   -1    0    0  501    0  0.00000000000E+00 -0.00000000000E+00 -0.99287630809E+02  0.99287630809E+02  0.00000000000E+00 0. -1.
         25    2    1    2    0    0  0.65701864404E+02 -0.45321128584E+02 -0.48428719811E+01  0.14845456964E+03  0.12507824014E+03 0.  0.
         23    2    1    2    0    0 -0.65701864404E+02  0.45321128584E+02  0.13776419705E+03  0.18304201705E+03  0.90303191152E+02 0.  0.
          5    1    3    3  502    0  0.40275065089E+02 -0.13884481818E+02 -0.63808233618E+02  0.76836337632E+02  0.41800000000E+01 0. -1.
         -5    1    3    3    0  502  0.25426799315E+02 -0.31436646766E+02  0.58965361637E+02  0.71618232011E+02  0.41800000000E+01 0. -1.
        -11    1    4    4    0    0  0.91521891685E+01 -0.13056744371E+02  0.25178616943E+00  0.15946928746E+02  0.00000000000E+00 0. -1.
         11    1    4    4    0    0 -0.74854053573E+02  0.58377872955E+02  0.13751241088E+03  0.16709508830E+03  0.00000000000E+00 0.  1.
</event>
<event>
 8    1  0.6505836E-009  0.2793847E+03  0.7561462E-02  0.1096025E+00
          1   -1    0    0  501    0  0.00000000000E+00  0.00000000000E+00  0.90581151194E+03  0.90581151194E+03  0.00000000000E+00 0. -1.
         -1   -1    0    0    0  501 -0.00000000000E+00 -0.00000000000E+00 -0.12788012343E+03  0.12788012343E+03  0.00000000000E+00 0.  1.
         25    2    1    2    0    0  0.23251289812E+03  0.13448851485E+03  0.66334040586E+03  0.72651049420E+03  0.12509035022E+03 0.  0.
         23    2    1    2    0    0 -0.23251289812E+03 -0.13448851485E+03  0.11459098265E+03  0.30718114116E+03  0.95287731432E+02 0.  0.
          5    1    3    3  502    0  0.61250552182E+02 -0.31692328886E-01  0.63401162210E+02  0.88254240218E+02  0.41800000000E+01 0.  1.
         -5    1    3    3    0  502  0.17126234594E+03  0.13452020718E+03  0.59993924365E+03  0.63825625398E+03  0.41800000000E+01 0.  1.
        -11    1    4    4    0    0 -0.16668500423E+03 -0.13377561563E+03  0.60912809410E+02  0.22223900720E+03  0.00000000000E+00 0.  1.
         11    1    4    4    0    0 -0.65827893888E+02 -0.71289922627E+00  0.53678173244E+02  0.84942133961E+02  0.00000000000E+00 0. -1.
</event>
<event>
 8    1  0.6505836E-009  0.9691481E+02  0.7561462E-02  0.1286921E+00
         -2   -1    0    0    0  501 -0.00000000000E+00  0.00000000000E+00  0.51721032514E+02  0.51721032514E+02  0.00000000000E+00 0.  1.
          2   -1    0    0  501    0  0.00000000000E+00 -0.00000000000E+00 -0.29186761949E+03  0.29186761949E+03  0.00000000000E+00 0. -1.
         25    2    1    2    0    0  0.42069561222E+02  0.19224642107E+02 -0.85621869994E+02  0.15848532260E+03  0.12508820093E+03 0.  0.
         23    2    1    2    0    0 -0.42069561222E+02 -0.19224642107E+02 -0.15452471698E+03  0.18510332940E+03  0.90807045720E+02 0.  0.
          5    1    3    3  502    0  0.58864447270E+02 -0.10762286342E+02  0.62453572505E+01  0.60310254907E+02  0.41800000000E+01 0.  1.
         -5    1    3    3    0  502 -0.16794886048E+02  0.29986928448E+02 -0.91867227245E+02  0.98175067694E+02  0.41800000000E+01 0.  1.
        -11    1    4    4    0    0 -0.57288434228E+02  0.17141803244E+02 -0.11299310523E+03  0.12784071317E+03  0.00000000000E+00 0.  1.
         11    1    4    4    0    0  0.15218873006E+02 -0.36366445351E+02 -0.41531611752E+02  0.57262616232E+02  0.00000000000E+00 0. -1.
</event>
<event>
 8    1  0.6505836E-009  0.8439194E+02  0.7561462E-02  0.1317030E+00
         -2   -1    0    0    0  501 -0.00000000000E+00  0.00000000000E+00  0.21491113034E+02  0.21491113034E+02  0.00000000000E+00 0.  1.
          2   -1    0    0  501    0  0.00000000000E+00 -0.00000000000E+00 -0.63032822959E+03  0.63032822959E+03  0.00000000000E+00 0. -1.
         25    2    1    2    0    0  0.11002949360E+02 -0.14599211750E+02 -0.21375765638E+03  0.24834227251E+03  0.12508935516E+03 0.  0.
         23    2    1    2    0    0 -0.11002949360E+02  0.14599211750E+02 -0.39507946018E+03  0.40347707012E+03  0.79823332285E+02 0.  0.
          5    1    3    3  502    0 -0.37079455260E+02 -0.39914354917E+01 -0.10222988020E+02  0.38894722569E+02  0.41800000000E+01 0. -1.
         -5    1    3    3    0  502  0.48082404620E+02 -0.10607776258E+02 -0.20353466836E+03  0.20944754994E+03  0.41800000000E+01 0. -1.
        -11    1    4    4    0    0 -0.24320772025E+02 -0.28070614871E+02 -0.18626627991E+03  0.18993311034E+03  0.00000000000E+00 0.  1.
         11    1    4    4    0    0  0.13317822665E+02  0.42669826621E+02 -0.20881318027E+03  0.21354395978E+03  0.00000000000E+00 0. -1.
</event>
<event>
 8    1  0.6505836E-009  0.4452785E+03  0.7561462E-02  0.1029139E+00
          1   -1    0    0  501    0  0.00000000000E+00  0.00000000000E+00  0.22590450298E+04  0.22590450298E+04  0.00000000000E+00 0. -1.
         -1   -1    0    0    0  501 -0.00000000000E+00 -0.00000000000E+00 -0.10807132192E+03  0.10807132192E+03  0.00000000000E+00 0.  1.
         25    2    1    2    0    0 -0.83824253615E+01  0.44442103376E+03  0.64169648955E+03  0.79057292347E+03  0.12510332658E+03 0.  0.
         23    2    1    2    0    0  0.83824253615E+01 -0.44442103376E+03  0.15092772183E+04  0.15765434283E+04  0.99955685628E+02 0.  0.
          5    1    3    3  502    0 -0.69823931475E+01  0.16070043424E+03  0.34141147065E+03  0.37742899739E+03  0.41800000000E+01 0. -1.
         -5    1    3    3    0  502 -0.14000322140E+01  0.28372059952E+03  0.30028501890E+03  0.41314392608E+03  0.41800000000E+01 0. -1.
        -11    1    4    4    0    0  0.22172553570E+02 -0.24671057139E+03  0.67403392762E+03  0.71810825350E+03  0.00000000000E+00 0.  1.
         11    1    4    4    0    0 -0.13790128209E+02 -0.19771046237E+03  0.83524329073E+03  0.85843517476E+03  0.00000000000E+00 0. -1.
</event>
<event>
 8    1  0.6505836E-009  0.1840133E+03  0.7561462E-02  0.1163975E+00
          1   -1    0    0  501    0  0.00000000000E+00  0.00000000000E+00  0.42311591988E+03  0.42311591988E+03  0.00000000000E+00 0. -1.
         -1   -1    0    0    0  501 -0.00000000000E+00 -0.00000000000E+00 -0.86257011507E+02  0.86257011507E+02  0.00000000000E+00 0.  1.
         25    2    1    2    0    0  0.24065504480E+02 -0.14874155590E+03  0.11959055679E+03  0.22946061578E+03  0.12508826468E+03 0.  0.
         23    2    1    2    0    0 -0.24065504480E+02  0.14874155590E+03  0.21726835158E+03  0.27991231561E+03  0.91881275961E+02 0.  0.
          5    1    3    3  502    0 -0.48802462699E+02 -0.54182145355E+02  0.25366187588E+02  0.77319474349E+02  0.41800000000E+01 0.  1.
         -5    1    3    3    0  502  0.72867967179E+02 -0.94559410547E+02  0.94224369206E+02  0.15214114143E+03  0.41800000000E+01 0.  1.
        -11    1    4    4    0    0  0.14294991098E+02 -0.64426218927E+01  0.28705776592E+02  0.32708955304E+02  0.00000000000E+00 0.  1.
         11    1    4    4    0    0 -0.38360495578E+02  0.15518417780E+03  0.18856257499E+03  0.24720336030E+03  0.00000000000E+00 0. -1.
</event>
<event>
 8    1  0.6505836E-009  0.1092384E+03  0.7561462E-02  0.1261987E+00
          1   -1    0    0  501    0  0.00000000000E+00  0.00000000000E+00  0.11671856602E+04  0.11671856602E+04  0.00000000000E+00 0. -1.
         -1   -1    0    0    0  501 -0.00000000000E+00 -0.00000000000E+00 -0.20523924560E+02  0.20523924560E+02  0.00000000000E+00 0.  1.
         25    2    1    2    0    0  0.33976005922E+01 -0.74097245818E+02  0.92797003920E+03  0.93929715346E+03  0.12509517707E+03 0.  0.
         23    2    1    2    0    0 -0.33976005922E+01  0.74097245818E+02  0.21869169641E+03  0.24841243126E+03  0.91546340179E+02 0.  0.
          5    1    3    3  502    0 -0.14943590081E+02  0.25062753086E+02  0.44066966634E+03  0.44165448001E+03  0.41800000000E+01 0.  1.
         -5    1    3    3    0  502  0.18341190673E+02 -0.99159998904E+02  0.48730037285E+03  0.49764267345E+03  0.41800000000E+01 0.  1.
        -11    1    4    4    0    0 -0.19725789223E+02  0.10371238067E+02  0.24909301952E+01  0.22424853907E+02  0.00000000000E+00 0.  1.
         11    1    4    4    0    0  0.16328188631E+02  0.63726007751E+02  0.21620076621E+03  0.22598757735E+03  0.00000000000E+00 0. -1.
</event>
<event>
 8    1  0.6505836E-009  0.1152735E+03  0.7561462E-02  0.1251105E+00
          2   -1    0    0  501    0  0.00000000000E+00  0.00000000000E+00  0.34427177772E+03  0.34427177772E+03  0.00000000000E+00 0. -1.
         -2   -1    0    0    0  501 -0.00000000000E+00 -0.00000000000E+00 -0.44066279087E+02  0.44066279087E+02  0.00000000000E+00 0.  1.
         25    2    1    2    0    0  0.40725541670E+02  0.41278411886E+02  0.18146620554E+03  0.22790570071E+03  0.12509415506E+03 0.  0.
         23    2    1    2    0    0 -0.40725541670E+02 -0.41278411886E+02  0.11873929309E+03  0.16043235609E+03  0.90978261835E+02 0.  0.
          5    1    3    3  502    0  0.79351996041E+02  0.23466073746E+01  0.81770677560E+02  0.11404456125E+03  0.41800000000E+01 0. -1.
         -5    1    3    3    0  502 -0.38626454371E+02  0.38931804511E+02  0.99695527984E+02  0.11386113946E+03  0.41800000000E+01 0. -1.
        -11    1    4    4    0    0  0.17304465687E+02 -0.33226842525E+02  0.13195932567E+02  0.39719016015E+02  0.00000000000E+00 0.  1.
         11    1    4    4    0    0 -0.58030007357E+02 -0.80515693612E+01  0.10554336052E+03  0.12071334008E+03  0.00000000000E+00 0. -1.
</event>
<event>
 8    1  0.6505836E-009  0.1392100E+03  0.7561462E-02  0.1214396E+00
         -2   -1    0    0    0  501 -0.00000000000E+00  0.00000000000E+00  0.10573291842E+03  0.10573291842E+03  0.00000000000E+00 0.  1.
          2   -1    0    0  501    0  0.00000000000E+00 -0.00000000000E+00 -0.20254351473E+03  0.20254351473E+03  0.00000000000E+00 0. -1.
         25    2    1    2    0    0 -0.88916941128E+01  0.98851246056E+02 -0.55352782629E+02  0.16900052216E+03  0.12508642962E+03 0.  0.
         23    2    1    2    0    0  0.88916941128E+01 -0.98851246056E+02 -0.41457813677E+02  0.13927591099E+03  0.88478234583E+02 0.  0.
          5    1    3    3  502    0 -0.38657421535E+02 -0.66958487424E+01  0.10741034901E+02  0.40890987526E+02  0.41800000000E+01 0. -1.
         -5    1    3    3    0  502  0.29765727422E+02  0.10554709480E+03 -0.66093817530E+02  0.12810953464E+03  0.41800000000E+01 0. -1.
        -11    1    4    4    0    0  0.45881704157E+02 -0.60605050421E+02 -0.40344427873E+02  0.86056817122E+02  0.00000000000E+00 0. -1.
         11    1    4    4    0    0 -0.36990010044E+02 -0.38246195635E+02 -0.11133858043E+01  0.53219093863E+02  0.00000000000E+00 0.  1.
</event>
<event>
 8    1  0.6505836E-009  0.8516370E+02  0.7561462E-02  0.1315005E+00
         -1   -1    0    0    0  501 -0.00000000000E+00  0.00000000000E+00  0.65720997704E+02  0.65720997704E+02  0.00000000000E+00 0.  1.
          1   -1    0    0  501    0  0.00000000000E+00 -0.00000000000E+00 -0.22039178134E+03  0.22039178134E+03  0.00000000000E+00 0. -1.
         25    2    1    2    0    0 -0.82764078595E+01 -0.12827146767E+02 -0.14962392746E+03  0.19562172266E+03  0.12508998396E+03 0.  0.
         23    2    1    2    0    0  0.82764078595E+01  0.12827146767E+02 -0.50468561751E+01  0.90491056382E+02  0.89051254380E+02 0.  0.
          5    1    3    3  502    0  0.37571167908E+01 -0.67979069174E+02 -0.95062280263E+02  0.11700247562E+03  0.41800000000E+01 0. -1.
         -5    1    3    3    0  502 -0.12033524650E+02  0.55151922407E+02 -0.54561647199E+02  0.78619247044E+02  0.41800000000E+01 0. -1.
        -11    1    4    4    0    0 -0.83582062062E+00  0.27892838622E+02 -0.41499355331E+02  0.50009054534E+02  0.00000000000E+00 0.  1.
         11    1    4    4    0    0  0.91122284801E+01 -0.15065691855E+02  0.36452499156E+02  0.40482001848E+02  0.00000000000E+00 0. -1.
</event>
<event>
 8    1  0.6505836E-009  0.7934365E+02  0.7561462E-02  0.1330924E+00
         -1   -1    0    0    0  501 -0.00000000000E+00  0.00000000000E+00  0.94767061119E+02  0.94767061119E+02  0.00000000000E+00 0.  1.
          1   -1    0    0  501    0  0.00000000000E+00 -0.00000000000E+00 -0.14208269145E+03  0.14208269145E+03  0.00000000000E+00 0. -1.
         25    2    1    2    0    0 -0.35682340515E+01  0.44903295869E+02 -0.47468807043E+02  0.14117367885E+03  0.12509069384E+03 0.  0.
         23    2    1    2    0    0  0.35682340515E+01 -0.44903295869E+02  0.15317670822E+00  0.95676073720E+02  0.84408822674E+02 0.  0.
          5    1    3    3  502    0  0.13846024949E+02 -0.10113319550E+02 -0.75036248117E+02  0.77083737395E+02  0.41800000000E+01 0.  1.
         -5    1    3    3    0  502 -0.17414259000E+02  0.55016615419E+02  0.27567441074E+02  0.64089941458E+02  0.41800000000E+01 0.  1.
        -11    1    4    4    0    0 -0.29903788520E+02 -0.37561076486E+01  0.23010407377E+02  0.37918646602E+02  0.00000000000E+00 0.  1.
         11    1    4    4    0    0  0.33472022571E+02 -0.41147188220E+02 -0.22857230669E+02  0.57757427118E+02  0.00000000000E+00 0. -1.
</event>
<event>
 8    1  0.6505836E-009  0.1462095E+03  0.7561462E-02  0.1205210E+00
         -1   -1    0    0    0  501 -0.00000000000E+00  0.00000000000E+00  0.57206451506E+03  0.57206451506E+03  0.00000000000E+00 0.  1.
          1   -1    0    0  501    0  0.00000000000E+00 -0.00000000000E+00 -0.51556494441E+02  0.51556494441E+02  0.00000000000E+00 0. -1.
         25    2    1    2    0    0 -0.11814634202E+03  0.20870957678E+02  0.38077740606E+03  0.41836840552E+03  0.12508610939E+03 0.  0.
         23    2    1    2    0    0  0.11814634202E+03 -0.20870957678E+02  0.13973061455E+03  0.20525260398E+03  0.90608122085E+02 0.  0.
          5    1    3    3  502    0 -0.94605625594E+02  0.57552989289E+02  0.16885873080E+03  0.20197354861E+03  0.41800000000E+01 0. -1.
         -5    1    3    3    0  502 -0.23540716430E+02 -0.36682031610E+02  0.21191867526E+03  0.21639485691E+03  0.41800000000E+01 0. -1.
        -11    1    4    4    0    0  0.10625116477E+03  0.80403919092E+01  0.66437048213E+02  0.12557005731E+03  0.00000000000E+00 0. -1.
         11    1    4    4    0    0  0.11895177255E+02 -0.28911349588E+02  0.73293566340E+02  0.79682546669E+02  0.00000000000E+00 0.  1.
</event>
<event>
 8    1  0.6505836E-009  0.1830777E+03  0.7561462E-02  0.1164857E+00
          1   -1    0    0  501    0  0.00000000000E+00  0.00000000000E+00  0.14995360068E+03  0.14995360068E+03  0.00000000000E+00 0. -1.
         -1   -1    0    0    0  501 -0.00000000000E+00 -0.00000000000E+00 -0.27863573569E+03  0.27863573569E+03  0.00000000000E+00 0.  1.
         25    2    1    2    0    0  0.16072963192E+03 -0.16843218311E+01 -0.45823450421E+00  0.20367640156E+03  0.12508802922E+03 0.  0.
         23    2    1    2    0    0 -0.16072963192E+03  0.16843218311E+01 -0.12822390051E+03  0.22491293480E+03  0.91146080894E+02 0.  0.
          5    1    3    3  502    0  0.79081330497E+02  0.41807875117E+02  0.45331431885E+02  0.10037014682E+03  0.41800000000E+01 0. -1.
         -5    1    3    3    0  502  0.81648301425E+02 -0.43492196948E+02 -0.45789666389E+02  0.10330625474E+03  0.41800000000E+01 0. -1.
        -11    1    4    4    0    0 -0.80176722080E+02  0.45618647960E+02 -0.74609213118E+02  0.11864190865E+03  0.00000000000E+00 0.  1.
         11    1    4    4    0    0 -0.80552909842E+02 -0.43934326129E+02 -0.53614687388E+02  0.10627102616E+03  0.00000000000E+00 0. -1.
</event>
<event>
 8    1  0.6505836E-009  0.1282124E+03  0.7561462E-02  0.1230133E+00
         -2   -1    0    0    0  501 -0.00000000000E+00  0.00000000000E+00  0.17113845304E+03  0.17113845304E+03  0.00000000000E+00 0.  1.
          2   -1    0    0  501    0  0.00000000000E+00 -0.00000000000E+00 -0.11046441210E+03  0.11046441210E+03  0.00000000000E+00 0. -1.
         25    2    1    2    0    0 -0.82650088214E+02  0.26153957601E+02  0.21693935311E+02  0.15373117217E+03  0.12509028694E+03 0.  0.
         23    2    1    2    0    0  0.82650088214E+02 -0.26153957601E+02  0.38980105632E+02  0.12787169297E+03  0.85537445879E+02 0.  0.
          5    1    3    3  502    0  0.53350042105E+01  0.44573860348E+02  0.41845641056E+02  0.61512774053E+02  0.41800000000E+01 0. -1.
         -5    1    3    3    0  502 -0.87985092424E+02 -0.18419902748E+02 -0.20151705745E+02  0.92218398113E+02  0.41800000000E+01 0. -1.
        -11    1    4    4    0    0  0.91686536727E+02 -0.43733580764E+02  0.36543680178E+02  0.10795595243E+03  0.00000000000E+00 0. -1.
         11    1    4    4    0    0 -0.90364485131E+01  0.17579623164E+02  0.24364254537E+01  0.19915740541E+02  0.00000000000E+00 0.  1.
</event>
<event>
 8    1  0.6505836E-009  0.1412075E+03  0.7561462E-02  0.1211713E+00
          2   -1    0    0  501    0  0.00000000000E+00  0.00000000000E+00  0.69787158102E+03  0.69787158102E+03  0.00000000000E+00 0. -1.
         -2   -1    0    0    0  501 -0.00000000000E+00 -0.00000000000E+00 -0.37614408285E+02  0.37614408285E+02  0.00000000000E+00 0.  1.
         25    2    1    2    0    0 -0.89263084034E+02  0.35503432914E+02  0.51811788090E+03  0.54159292646E+03  0.12509343534E+03 0.  0.
         23    2    1    2    0    0  0.89263084034E+02 -0.35503432914E+02  0.14213929183E+03  0.19389306284E+03  0.90346829579E+02 0.  0.
          5    1    3    3  502    0  0.27153395713E+02 -0.14087413011E+02  0.90155882942E+02  0.95295948146E+02  0.41800000000E+01 0. -1.
         -5    1    3    3    0  502 -0.11641647975E+03  0.49590845925E+02  0.42796199796E+03  0.44629697832E+03  0.41800000000E+01 0. -1.
        -11    1    4    4    0    0  0.85455440359E+02 -0.57246929957E+02  0.13684776846E+03  0.17119332642E+03  0.00000000000E+00 0. -1.
         11    1    4    4    0    0  0.38076436755E+01  0.21743497044E+02  0.52915233664E+01  0.22699736421E+02  0.00000000000E+00 0.  1.
</event>
<event>
 8    1  0.6505836E-009  0.7819511E+02  0.7561462E-02  0.1334253E+00
         -2   -1    0    0    0  501 -0.00000000000E+00  0.00000000000E+00  0.59033105978E+02  0.59033105978E+02  0.00000000000E+00 0.  1.
          2   -1    0    0  501    0  0.00000000000E+00 -0.00000000000E+00 -0.28581905690E+03  0.28581905690E+03  0.00000000000E+00 0. -1.
         25    2    1    2    0    0  0.34467885169E+02  0.20564639962E+02 -0.20842990784E+03  0.24637653851E+03  0.12508969870E+03 0.  0.
         23    2    1    2    0    0 -0.34467885169E+02 -0.20564639962E+02 -0.18356043078E+02  0.98475624366E+02  0.88031612232E+02 0.  0.
          5    1    3    3  502    0 -0.28360060188E+02  0.38648927030E+02 -0.31005969186E+02  0.57243996188E+02  0.41800000000E+01 0. -1.
         -5    1    3    3    0  502  0.62827945357E+02 -0.18084287068E+02 -0.17742393866E+03  0.18913254232E+03  0.41800000000E+01 0. -1.
        -11    1    4    4    0    0 -0.18550830187E+02 -0.19332904285E+02 -0.53522839592E+02  0.59854731198E+02  0.00000000000E+00 0. -1.
         11    1    4    4    0    0 -0.15917054982E+02 -0.12317356767E+01  0.35166796514E+02  0.38620893169E+02  0.00000000000E+00 0.  1.
</event>
<event>
 8    1  0.6505836E-009  0.7230465E+02  0.7561462E-02  0.1352427E+00
          1   -1    0    0  501    0  0.00000000000E+00  0.00000000000E+00  0.42693866795E+03  0.42693866795E+03  0.00000000000E+00 0. -1.
         -1   -1    0    0    0  501 -0.00000000000E+00 -0.00000000000E+00 -0.28174165359E+02  0.28174165359E+02  0.00000000000E+00 0.  1.
         25    2    1    2    0    0 -0.13990933810E+02 -0.72310426992E+01  0.25049528923E+03  0.28043063002E+03  0.12508162983E+03 0.  0.
         23    2    1    2    0    0  0.13990933810E+02  0.72310426992E+01  0.14826921336E+03  0.17468220329E+03  0.91005924572E+02 0.  0.
          5    1    3    3  502    0 -0.76849516090E+01  0.23293412221E+02 -0.29368954916E+01  0.25054725887E+02  0.41800000000E+01 0. -1.
         -5    1    3    3    0  502 -0.63059822014E+01 -0.30524454920E+02  0.25343218472E+03  0.25537590414E+03  0.41800000000E+01 0. -1.
        -11    1    4    4    0    0  0.47139959424E+02  0.21961538339E+02  0.60907295452E+02  0.80088598315E+02  0.00000000000E+00 0.  1.
         11    1    4    4    0    0 -0.33149025614E+02 -0.14730495640E+02  0.87361917910E+02  0.94593604973E+02  0.00000000000E+00 0. -1.
</event>
<event>
 8    1  0.6505836E-009  0.1551906E+03  0.7561462E-02  0.1194236E+00
          2   -1    0    0  501    0  0.00000000000E+00  0.00000000000E+00  0.20762530342E+03  0.20762530342E+03  0.00000000000E+00 0. -1.
         -2   -1    0    0    0  501 -0.00000000000E+00 -0.00000000000E+00 -0.25712799878E+03  0.25712799878E+03  0.00000000000E+00 0.  1.
         25    2    1    2    0    0  0.13699135547E+03 -0.18109730053E+02 -0.17701847646E+03  0.25705745135E+03  0.12509355896E+03 0.  0.
         23    2    1    2    0    0 -0.13699135547E+03  0.18109730053E+02  0.12751578110E+03  0.20769585085E+03  0.88219602328E+02 0.  0.
          5    1    3    3  502    0 -0.14805871067E+02  0.10008999270E+01  0.76481099506E+01  0.17209927500E+02  0.41800000000E+01 0.  1.
         -5    1    3    3    0  502  0.15179722653E+03 -0.19110629980E+02 -0.18466658641E+03  0.23984752385E+03  0.41800000000E+01 0.  1.
        -11    1    4    4    0    0 -0.76406090403E+02  0.26232956513E+02  0.18752446718E+02  0.82931977644E+02  0.00000000000E+00 0.  1.
         11    1    4    4    0    0 -0.60585265062E+02 -0.81232264603E+01  0.10876333438E+03  0.12476387320E+03  0.00000000000E+00 0. -1.
</event>
<event>
 8    1  0.6505836E-009  0.7773249E+02  0.7561462E-02  0.1335612E+00
          2   -1    0    0  501    0  0.00000000000E+00  0.00000000000E+00  0.13042179910E+03  0.13042179910E+03  0.00000000000E+00 0. -1.
         -2   -1    0    0    0  501 -0.00000000000E+00 -0.00000000000E+00 -0.22790929347E+03  0.22790929347E+03  0.00000000000E+00 0.  1.
         25    2    1    2    0    0 -0.30831579815E+02 -0.45513227009E+02 -0.17306962423E+03  0.22050721092E+03  0.12509314566E+03 0.  0.
         23    2    1    2    0    0  0.30831579815E+02  0.45513227009E+02  0.75582129855E+02  0.13782388166E+03  0.10129523116E+03 0.  0.
          5    1    3    3  502    0 -0.48969367254E+02 -0.58801332884E+02 -0.18079591783E+03  0.19636759402E+03  0.41800000000E+01 0. -1.
         -5    1    3    3    0  502  0.18137787439E+02  0.13288105875E+02  0.77262936041E+01  0.24139616894E+02  0.41800000000E+01 0. -1.
        -11    1    4    4    0    0  0.22875613244E+02  0.24642703926E+02  0.99542301455E+02  0.10506772253E+03  0.00000000000E+00 0. -1.
         11    1    4    4    0    0  0.79559665712E+01  0.20870523083E+02 -0.23960171600E+02  0.32756159130E+02  0.00000000000E+00 0.  1.
</event>
<event>
 8    1  0.6505836E-009  0.1170152E+03  0.7561462E-02  0.1248104E+00
          1   -1    0    0  501    0  0.00000000000E+00  0.00000000000E+00  0.40338507647E+03  0.40338507647E+03  0.00000000000E+00 0. -1.
         -1   -1    0    0    0  501 -0.00000000000E+00 -0.00000000000E+00 -0.38524903083E+02  0.38524903083E+02  0.00000000000E+00 0.  1.
         25    2    1    2    0    0 -0.56711375605E+02 -0.64553587423E+01  0.16578114921E+03  0.21538158624E+03  0.12509191213E+03 0.  0.
         23    2    1    2    0    0  0.56711375605E+02  0.64553587423E+01  0.19907902418E+03  0.22652839331E+03  0.91786727414E+02 0.  0.
          5    1    3    3  502    0 -0.90059969187E+02 -0.15345356641E+02  0.15317857821E+03  0.17840243060E+03  0.41800000000E+01 0. -1.
         -5    1    3    3    0  502  0.33348593581E+02  0.88899978984E+01  0.12602571002E+02  0.36979155647E+02  0.41800000000E+01 0. -1.
        -11    1    4    4    0    0  0.44590858811E+02 -0.39937735332E+02  0.11850384668E+03  0.13276493916E+03  0.00000000000E+00 0.  1.
         11    1    4    4    0    0  0.12120516794E+02  0.46393094075E+02  0.80575177500E+02  0.93763454151E+02  0.00000000000E+00 0. -1.
</event>
<event>
 8    1  0.6505836E-009  0.8615040E+02  0.7561462E-02  0.1312451E+00
         -2   -1    0    0    0  501 -0.00000000000E+00  0.00000000000E+00  0.24052736099E+02  0.24052736099E+02  0.00000000000E+00 0.  1.
          2   -1    0    0  501    0  0.00000000000E+00 -0.00000000000E+00 -0.59602845183E+03  0.59602845183E+03  0.00000000000E+00 0. -1.
         25    2    1    2    0    0 -0.13765977560E+02  0.34216065610E+01 -0.44374882510E+03  0.46126122169E+03  0.12509070838E+03 0.  0.
         23    2    1    2    0    0  0.13765977560E+02 -0.34216065610E+01 -0.12822689062E+03  0.15881996624E+03  0.92630646479E+02 0.  0.
          5    1    3    3  502    0 -0.44726478509E+02 -0.11954952332E+02 -0.41047543590E+03  0.41309918258E+03  0.41800000000E+01 0. -1.
         -5    1    3    3    0  502  0.30960500949E+02  0.15376558893E+02 -0.33273389198E+02  0.48162039109E+02  0.41800000000E+01 0. -1.
        -11    1    4    4    0    0  0.85425262342E+01 -0.46663593717E+02 -0.85653079901E+02  0.97912797067E+02  0.00000000000E+00 0.  1.
         11    1    4    4    0    0  0.52234513253E+01  0.43241987156E+02 -0.42573810724E+02  0.60907169171E+02  0.00000000000E+00 0. -1.
</event>
<event>
 8    1  0.6505836E-009  0.7554141E+02  0.7561462E-02  0.1342203E+00
          2   -1    0    0  501    0  0.00000000000E+00  0.00000000000E+00  0.38424532915E+03  0.38424532915E+03  0.00000000000E+00 0. -1.
         -2   -1    0    0    0  501 -0.00000000000E+00 -0.00000000000E+00 -0.33240316355E+02  0.33240316355E+02  0.00000000000E+00 0.  1.
         25    2    1    2    0    0  0.14256577355E+02  0.16544253819E+02  0.14445165318E+03  0.19233416700E+03  0.12509672001E+03 0.  0.
         23    2    1    2    0    0 -0.14256577355E+02 -0.16544253819E+02  0.20655335961E+03  0.22515147850E+03  0.86901873242E+02 0.  0.
          5    1    3    3  502    0  0.23149682039E+02  0.38463178228E+02 -0.81599563303E+00  0.45093925387E+02  0.41800000000E+01 0. -1.
         -5    1    3    3    0  502 -0.88931046849E+01 -0.21918924409E+02  0.14526764881E+03  0.14724024161E+03  0.41800000000E+01 0. -1.
        -11    1    4    4    0    0 -0.67105048097E+01 -0.48591048311E+02  0.75572361883E+02  0.90096075005E+02  0.00000000000E+00 0.  1.
         11    1    4    4    0    0 -0.75460725448E+01  0.32046794491E+02  0.13098099773E+03  0.13505540350E+03  0.00000000000E+00 0. -1.
</event>
<event>
 8    1  0.6505836E-009  0.7149196E+02  0.7561462E-02  0.1355092E+00
         -1   -1    0    0    0  501 -0.00000000000E+00  0.00000000000E+00  0.14164470615E+02  0.14164470615E+02  0.00000000000E+00 0.  1.
          1   -1    0    0  501    0  0.00000000000E+00 -0.00000000000E+00 -0.11716481541E+04  0.11716481541E+04  0.00000000000E+00 0. -1.
         25    2    1    2    0    0 -0.52595056010E+02 -0.18042620153E+02 -0.83385651704E+03  0.84501840648E+03  0.12509052811E+03 0.  0.
         23    2    1    2    0    0  0.52595056010E+02  0.18042620153E+02 -0.32362716645E+03  0.34079421823E+03  0.91183223577E+02 0.  0.
          5    1    3    3  502    0  0.36612045239E+01 -0.72777963086E+01  0.30030098860E-01  0.91566390932E+01  0.41800000000E+01 0.  1.
         -5    1    3    3    0  502 -0.56256260534E+02 -0.10764823844E+02 -0.83388654714E+03  0.83586176739E+03  0.41800000000E+01 0.  1.
        -11    1    4    4    0    0  0.50782801597E+02 -0.70237936184E+01 -0.30558806141E+03  0.30985849978E+03  0.00000000000E+00 0. -1.
         11    1    4    4    0    0  0.18122544130E+01  0.25066413771E+02 -0.18039105040E+02  0.30935718450E+02  0.00000000000E+00 0.  1.
</event>
<event>
 7    1  0.6505836E-009  0.6934859E+02  0.7561462E-02  0.1362322E+00
          1   -1    0    0  501    0  0.00000000000E+00  0.00000000000E+00  0.50688293361E+03  0.50688293361E+03  0.00000000000E+00 0. -1.
         -1   -1    0    0    0  501 -0.00000000000E+00 -0.00000000000E+00 -0.30370936745E+02  0.30370936745E+02  0.00000000000E+00 0.  1.
         23    2    1    2    0    0 -0.36830599035E+02 -0.18793572345E+02  0.11863002209E+03  0.15591803163E+03  0.92345325056E+02 0.  0.
          5    1    1    2  502    0  0.47750056910E+02  0.83483107362E+01  0.39776653956E+02  0.62844385803E+02  0.41800000000E+01 0. -1.
         -5    1    1    2    0  502 -0.10919457875E+02  0.10445261608E+02  0.31810532082E+03  0.31849145292E+03  0.41800000000E+01 0. -1.
        -11    1    3    3    0    0 -0.23833797253E+02 -0.41698441593E+02  0.12029637866E+03  0.12953002989E+03  0.00000000000E+00 0. -1.
         11    1    3    3    0    0 -0.12996801782E+02  0.22904869248E+02 -0.16663565729E+01  0.26388001745E+02  0.00000000000E+00 0.  1.
</event>
<event>
 8    1  0.6505836E-009  0.2162080E+03  0.7561462E-02  0.1136742E+00
         -1   -1    0    0    0  501 -0.00000000000E+00  0.00000000000E+00  0.35654128109E+02  0.35654128109E+02  0.00000000000E+00 0.  1.
          1   -1    0    0  501    0  0.00000000000E+00 -0.00000000000E+00 -0.15551619480E+04  0.15551619480E+04  0.00000000000E+00 0. -1.
         25    2    1    2    0    0 -0.18409760559E+03  0.47558660066E+02 -0.49597143898E+03  0.54570002307E+03  0.12508833824E+03 0.  0.
         23    2    1    2    0    0  0.18409760559E+03 -0.47558660066E+02 -0.10235363810E+04  0.10451160531E+04  0.92125386007E+02 0.  0.
          5    1    3    3  502    0 -0.20048133348E+03  0.41299108399E+02 -0.41510182069E+03  0.46284487182E+03  0.41800000000E+01 0.  1.
         -5    1    3    3    0  502  0.16383727889E+02  0.62595516676E+01 -0.80869618294E+02  0.82855151256E+02  0.41800000000E+01 0.  1.
        -11    1    4    4    0    0  0.72459958679E+02  0.24833706503E+02 -0.31361678879E+03  0.32283532769E+03  0.00000000000E+00 0. -1.
         11    1    4    4    0    0  0.11163764691E+03 -0.72392366569E+02 -0.70991959216E+03  0.72228072539E+03  0.00000000000E+00 0.  1.
</event>
<event>
 8    1  0.6505836E-009  0.1396232E+03  0.7561462E-02  0.1213837E+00
          2   -1    0    0  501    0  0.00000000000E+00  0.00000000000E+00  0.32589314946E+03  0.32589314946E+03  0.00000000000E+00 0.  1.
         -2   -1    0    0    0  501 -0.00000000000E+00 -0.00000000000E+00 -0.67553922067E+02  0.67553922067E+02  0.00000000000E+00 0. -1.
         25    2    1    2    0    0 -0.88600888332E+02  0.42867655416E+02  0.16712628886E+03  0.23079570982E+03  0.12509080681E+03 0.  0.
         23    2    1    2    0    0  0.88600888332E+02 -0.42867655416E+02  0.91212938534E+02  0.16265136171E+03  0.91912523716E+02 0.  0.
          5    1    3    3  502    0  0.32010557134E+02  0.13283835091E+02  0.37461044779E+02  0.51204866162E+02  0.41800000000E+01 0.  1.
         -5    1    3    3    0  502 -0.12061144547E+03  0.29583820325E+02  0.12966524408E+03  0.17959084366E+03  0.41800000000E+01 0.  1.
        -11    1    4    4    0    0  0.30714335077E+02  0.18390478123E+02 -0.33794264444E+01  0.35958317368E+02  0.00000000000E+00 0. -1.
         11    1    4    4    0    0  0.57886553255E+02 -0.61258133539E+02  0.94592364979E+02  0.12669304434E+03  0.00000000000E+00 0.  1.
</event>
<event>
 8    1  0.6505836E-009  0.6851701E+02  0.7561462E-02  0.1365210E+00
          3   -1    0    0  501    0  0.00000000000E+00  0.00000000000E+00  0.56110260470E+02  0.56110260470E+02  0.00000000000E+00 0. -1.
         -3   -1    0    0    0  501 -0.00000000000E+00 -0.00000000000E+00 -0.22066387200E+03  0.22066387200E+03  0.00000000000E+00 0.  1.
         25    2    1    2    0    0  0.69579964823E+01 -0.10320932028E+02 -0.83122232554E+02  0.15070485269E+03  0.12509081392E+03 0.  0.
         23    2    1    2    0    0 -0.69579964823E+01  0.10320932028E+02 -0.81431378974E+02  0.12606927978E+03  0.95433005135E+02 0.  0.
          5    1    3    3  502    0 -0.11949705902E+02 -0.16202636028E+02 -0.11286894453E+03  0.11472659641E+03  0.41800000000E+01 0. -1.
         -5    1    3    3    0  502  0.18907702385E+02  0.58817040003E+01  0.29746711976E+02  0.35978256277E+02  0.41800000000E+01 0. -1.
        -11    1    4    4    0    0  0.42625076825E+02 -0.80101424461E+01 -0.35942303336E+02  0.56328578230E+02  0.00000000000E+00 0. -1.
         11    1    4    4    0    0 -0.49583073307E+02  0.18331074474E+02 -0.45489075638E+02  0.69740701548E+02  0.00000000000E+00 0.  1.
</event>
<event>
 8    1  0.6505836E-009  0.1037147E+03  0.7561462E-02  0.1272673E+00
         -3   -1    0    0    0  501 -0.00000000000E+00  0.00000000000E+00  0.86061446590E+02  0.86061446590E+02  0.00000000000E+00 0.  1.
          3   -1    0    0  501    0  0.00000000000E+00 -0.00000000000E+00 -0.20232631542E+03  0.20232631542E+03  0.00000000000E+00 0. -1.
         25    2    1    2    0    0 -0.18182128774E+02 -0.64458131652E+02 -0.35428372952E+02  0.14624894824E+03  0.12509254458E+03 0.  0.
         23    2    1    2    0    0  0.18182128774E+02  0.64458131652E+02 -0.80836495879E+02  0.14213881377E+03  0.95830385429E+02 0.  0.
          5    1    3    3  502    0  0.51958516122E+02 -0.31519642475E+02  0.64383530114E-01  0.60915119672E+02  0.41800000000E+01 0.  1.
         -5    1    3    3    0  502 -0.70140644895E+02 -0.32938489177E+02 -0.35492756482E+02  0.85333828569E+02  0.41800000000E+01 0.  1.
        -11    1    4    4    0    0  0.10077371634E+01  0.33450675606E+02  0.17388611089E+02  0.37713751183E+02  0.00000000000E+00 0.  1.
         11    1    4    4    0    0  0.17174391610E+02  0.31007456046E+02 -0.98225106968E+02  0.10442506259E+03  0.00000000000E+00 0. -1.
</event>
<event>
 8    1  0.6505836E-009  0.1089487E+03  0.7561462E-02  0.1262529E+00
         -3   -1    0    0    0  501 -0.00000000000E+00  0.00000000000E+00  0.18281131167E+03  0.18281131167E+03  0.00000000000E+00 0.  1.
          3   -1    0    0  501    0  0.00000000000E+00 -0.00000000000E+00 -0.71592777980E+02  0.71592777980E+02  0.00000000000E+00 0. -1.
         25    2    1    2    0    0 -0.23030289157E+02  0.25795440001E+02  0.47511642569E+02  0.13820560852E+03  0.12509050765E+03 0.  0.
         23    2    1    2    0    0  0.23030289157E+02 -0.25795440001E+02  0.63706891125E+02  0.11619848113E+03  0.90816959304E+02 0.  0.
          5    1    3    3  502    0 -0.70408198988E+02 -0.73626237323E+01  0.18079753893E+02  0.73183827543E+02  0.41800000000E+01 0.  1.
         -5    1    3    3    0  502  0.47377909831E+02  0.33158063733E+02  0.29431888677E+02  0.65021780978E+02  0.41800000000E+01 0.  1.
        -11    1    4    4    0    0  0.48096798833E+02 -0.37835188656E+02  0.63781299135E+02  0.88390370957E+02  0.00000000000E+00 0.  1.
         11    1    4    4    0    0 -0.25066509675E+02  0.12039748656E+02 -0.74408010124E-01  0.27808110176E+02  0.00000000000E+00 0. -1.
</event>
<event>
 8    1  0.6505836E-009  0.1186362E+03  0.7561462E-02  0.1245364E+00
         -2   -1    0    0    0  501 -0.00000000000E+00  0.00000000000E+00  0.84433713713E+02  0.84433713713E+02  0.00000000000E+00 0.  1.
          2   -1    0    0  501    0  0.00000000000E+00 -0.00000000000E+00 -0.23181082509E+03  0.23181082509E+03  0.00000000000E+00 0. -1.
         25    2    1    2    0    0 -0.35959151586E+01  0.87915102251E+02 -0.68407276979E+02  0.16753814546E+03  0.12508988300E+03 0.  0.
         23    2    1    2    0    0  0.35959151586E+01 -0.87915102251E+02 -0.78969834397E+02  0.14870639335E+03  0.90196235330E+02 0.  0.
          5    1    3    3  502    0  0.37340727804E+02  0.33307381449E+01  0.16171532367E+02  0.41041620687E+02  0.41800000000E+01 0. -1.
         -5    1    3    3    0  502 -0.40936642962E+02  0.84584364107E+02 -0.84578809346E+02  0.12649652477E+03  0.41800000000E+01 0. -1.
        -11    1    4    4    0    0  0.27447030989E+02 -0.21331364462E+02 -0.69024889791E+02  0.77283905379E+02  0.00000000000E+00 0. -1.
         11    1    4    4    0    0 -0.23851115830E+02 -0.66583737789E+02 -0.99449446063E+01  0.71422487968E+02  0.00000000000E+00 0.  1.
</event>
<event>
 8    1  0.6505836E-009  0.1124285E+03  0.7561462E-02  0.1256138E+00
         -4   -1    0    0    0  501 -0.00000000000E+00  0.00000000000E+00  0.20969879178E+03  0.20969879178E+03  0.00000000000E+00 0.  1.
          4   -1    0    0  501    0  0.00000000000E+00 -0.00000000000E+00 -0.11062686351E+03  0.11062686351E+03  0.00000000000E+00 0. -1.
         25    2    1    2    0    0  0.84326905425E+02 -0.10806965538E+02  0.12089921011E+03  0.19362968363E+03  0.12509203769E+03 0.  0.
         23    2    1    2    0    0 -0.84326905425E+02  0.10806965538E+02 -0.21827281839E+02  0.12669597165E+03  0.91365319012E+02 0.  0.
          5    1    3    3  502    0  0.54865045936E+01  0.19147430209E+02  0.10593400881E+03  0.10787127717E+03  0.41800000000E+01 0.  1.
         -5    1    3    3    0  502  0.78840400832E+02 -0.29954395747E+02  0.14965201298E+02  0.85758406456E+02  0.41800000000E+01 0.  1.
        -11    1    4    4    0    0 -0.17177735999E+02 -0.34855672042E+02  0.89139490938E+01  0.39867919133E+02  0.00000000000E+00 0.  1.
         11    1    4    4    0    0 -0.67149169427E+02  0.45662637580E+02 -0.30741230933E+02  0.86828052521E+02  0.00000000000E+00 0. -1.
</event>
<event>
 8    1  0.6505836E-009  0.1092562E+03  0.7561462E-02  0.1261954E+00
         -3   -1    0    0    0  501 -0.00000000000E+00  0.00000000000E+00  0.10138472398E+03  0.10138472398E+03  0.00000000000E+00 0.  1.
          3   -1    0    0  501    0  0.00000000000E+00 -0.00000000000E+00 -0.15635887366E+03  0.15635887366E+03  0.00000000000E+00 0. -1.
         25    2    1    2    0    0  0.27889326620E+02  0.55663638989E+02 -0.28273681077E+02  0.14255927163E+03  0.12508992621E+03 0.  0.
         23    2    1    2    0    0 -0.27889326620E+02 -0.55663638989E+02 -0.26700468610E+02  0.11518432601E+03  0.93157171973E+02 0.  0.
          5    1    3    3  502    0  0.61617727131E+02  0.34916193102E+02 -0.58992373023E+02  0.92268398233E+02  0.41800000000E+01 0. -1.
         -5    1    3    3    0  502 -0.33728400511E+02  0.20747445887E+02  0.30718691946E+02  0.50290873394E+02  0.41800000000E+01 0. -1.
        -11    1    4    4    0    0  0.31490296809E+02 -0.10677912173E+02 -0.23315989396E+02  0.40611475755E+02  0.00000000000E+00 0. -1.
         11    1    4    4    0    0 -0.59379623430E+02 -0.44985726816E+02 -0.33844792136E+01  0.74572850256E+02  0.00000000000E+00 0.  1.
</event>
<event>
 8    1  0.6505836E-009  0.1531602E+03  0.7561462E-02  0.1196643E+00
          2   -1    0    0  501    0  0.00000000000E+00  0.00000000000E+00  0.98031699649E+03  0.98031699649E+03  0.00000000000E+00 0. -1.
         -2   -1    0    0    0  501 -0.00000000000E+00 -0.00000000000E+00 -0.26740284780E+02  0.26740284780E+02  0.00000000000E+00 0.  1.
         25    2    1    2    0    0  0.10003542253E+03 -0.61616397944E+02  0.44838703601E+03  0.48010948724E+03  0.12510203604E+03 0.  0.
         23    2    1    2    0    0 -0.10003542253E+03  0.61616397944E+02  0.50518967570E+03  0.52694779402E+03  0.93025281176E+02 0.  0.
          5    1    3    3  502    0  0.11899565550E+03 -0.66590991340E+02  0.29031515492E+03  0.32077201832E+03  0.41800000000E+01 0. -1.
         -5    1    3    3    0  502 -0.18960232970E+02  0.49745933965E+01  0.15807188108E+03  0.15933746892E+03  0.41800000000E+01 0. -1.
        -11    1    4    4    0    0 -0.56956556125E+02 -0.17656729594E+02  0.20317666611E+03  0.21174646877E+03  0.00000000000E+00 0.  1.
         11    1    4    4    0    0 -0.43078866410E+02  0.79273127537E+02  0.30201300959E+03  0.31520132525E+03  0.00000000000E+00 0. -1.
</event>
<event>
 8    1  0.6505836E-009  0.1516970E+03  0.7561462E-02  0.1198403E+00
          2   -1    0    0  501    0  0.00000000000E+00  0.00000000000E+00  0.32434716719E+03  0.32434716719E+03  0.00000000000E+00 0. -1.
         -2   -1    0    0    0  501 -0.00000000000E+00 -0.00000000000E+00 -0.10246239525E+03  0.10246239525E+03  0.00000000000E+00 0.  1.
         25    2    1    2    0    0 -0.10781155435E+03 -0.56368846042E+02  0.23503388227E+02  0.17607088788E+03  0.12509104782E+03 0.  0.
         23    2    1    2    0    0  0.10781155435E+03  0.56368846042E+02  0.19838138371E+03  0.25073867456E+03  0.93348441130E+02 0.  0.
          5    1    3    3  502    0  0.11238280412E+02  0.26439659835E+02 -0.41578949552E+00  0.29034459521E+02  0.41800000000E+01 0. -1.
         -5    1    3    3    0  502 -0.11904983476E+03 -0.82808505876E+02  0.23919177722E+02  0.14703642836E+03  0.41800000000E+01 0. -1.
        -11    1    4    4    0    0  0.52629825006E+02  0.51910813363E+02  0.42390129777E+02  0.85214752987E+02  0.00000000000E+00 0.  1.
         11    1    4    4    0    0  0.55181729341E+02  0.44580326788E+01  0.15599125393E+03  0.16552392157E+03  0.00000000000E+00 0. -1.
</event>
<event>
 8    1  0.6505836E-009  0.1561035E+03  0.7561462E-02  0.1193167E+00
         -2   -1    0    0    0  501 -0.00000000000E+00  0.00000000000E+00  0.10775008868E+03  0.10775008868E+03  0.00000000000E+00 0.  1.
          2   -1    0    0  501    0  0.00000000000E+00 -0.00000000000E+00 -0.24908611502E+03  0.24908611502E+03  0.00000000000E+00 0. -1.
         25    2    1    2    0    0  0.33514230387E+02  0.10558371012E+03 -0.12861794204E+03  0.21085947406E+03  0.12509204333E+03 0.  0.
         23    2    1    2    0    0 -0.33514230387E+02 -0.10558371012E+03 -0.12718084301E+02  0.14597672963E+03  0.94214290031E+02 0.  0.
          5    1    3    3  502    0  0.73998765685E+02  0.10218945007E+03 -0.98232977343E+02  0.15995527895E+03  0.41800000000E+01 0.  1.
         -5    1    3    3    0  502 -0.40484535298E+02  0.33942600497E+01 -0.30384964694E+02  0.50904195103E+02  0.41800000000E+01 0.  1.
        -11    1    4    4    0    0 -0.63364591571E+02 -0.93448057487E+02 -0.60246774231E+01  0.11306594382E+03  0.00000000000E+00 0.  1.
         11    1    4    4    0    0  0.29850361184E+02 -0.12135652629E+02 -0.66934068776E+01  0.32910785818E+02  0.00000000000E+00 0. -1.
</event>
<event>
 8    1  0.6505836E-009  0.1593952E+03  0.7561462E-02  0.1189381E+00
          3   -1    0    0  501    0  0.00000000000E+00  0.00000000000E+00  0.54893081366E+02  0.54893081366E+02  0.00000000000E+00 0. -1.
         -3   -1    0    0    0  501 -0.00000000000E+00 -0.00000000000E+00 -0.58077404574E+03  0.58077404574E+03  0.00000000000E+00 0.  1.
         25    2    1    2    0    0 -0.22367097255E+02 -0.13872272921E+03 -0.24634538509E+03  0.30996475675E+03  0.12509124283E+03 0.  0.
         23    2    1    2    0    0  0.22367097255E+02  0.13872272921E+03 -0.27953557928E+03  0.32570237036E+03  0.90540661189E+02 0.  0.
          5    1    3    3  502    0  0.38315750548E+02 -0.34176351075E+02 -0.13902924128E+03  0.14826571433E+03  0.41800000000E+01 0.  1.
         -5    1    3    3    0  502 -0.60682847803E+02 -0.10454637814E+03 -0.10731614380E+03  0.16169904242E+03  0.41800000000E+01 0.  1.
        -11    1    4    4    0    0 -0.96507433993E+01  0.68118011801E+02 -0.21200710658E+03  0.22289058666E+03  0.00000000000E+00 0.  1.
         11    1    4    4    0    0  0.32017840654E+02  0.70604717413E+02 -0.67528472702E+02  0.10281178370E+03  0.00000000000E+00 0. -1.
</event>
<event>
 8    1  0.6505836E-009  0.8766568E+02  0.7561462E-02  0.1308605E+00
         -1   -1    0    0    0  501 -0.00000000000E+00  0.00000000000E+00  0.67049863725E+02  0.67049863725E+02  0.00000000000E+00 0.  1.
          1   -1    0    0  501    0  0.00000000000E+00 -0.00000000000E+00 -0.20318220528E+03  0.20318220528E+03  0.00000000000E+00 0. -1.
         25    2    1    2    0    0  0.21259565679E+02 -0.29578791500E+02 -0.43949406174E+02  0.13749745539E+03  0.12508847227E+03 0.  0.
         23    2    1    2    0    0 -0.21259565679E+02  0.29578791500E+02 -0.92182935382E+02  0.13273461362E+03  0.88283124311E+02 0.  0.
          5    1    3    3  502    0  0.50640758876E+02 -0.10724535079E+02  0.26839324633E+02  0.58457881069E+02  0.41800000000E+01 0. -1.
         -5    1    3    3    0  502 -0.29381193197E+02 -0.18854256420E+02 -0.70788730807E+02  0.79039574317E+02  0.41800000000E+01 0. -1.
        -11    1    4    4    0    0  0.22875240924E+02 -0.13502962816E+02 -0.54043588508E+02  0.60218901608E+02  0.00000000000E+00 0. -1.
         11    1    4    4    0    0 -0.44134806603E+02  0.43081754315E+02 -0.38139346874E+02  0.72515712013E+02  0.00000000000E+00 0.  1.
</event>
<event>
 8    1  0.6505836E-009  0.1167219E+03  0.7561462E-02  0.1248605E+00
          4   -1    0    0  501    0  0.00000000000E+00  0.00000000000E+00  0.28081578215E+03  0.28081578215E+03  0.00000000000E+00 0. -1.
         -4   -1    0    0    0  501 -0.00000000000E+00 -0.00000000000E+00 -0.10096389774E+03  0.10096389774E+03  0.00000000000E+00 0.  1.
         25    2    1    2    0    0  0.90101108426E+02 -0.59107047214E+02  0.17981979891E+02  0.16608124090E+03  0.12509106367E+03 0.  0.
         23    2    1    2    0    0 -0.90101108426E+02  0.59107047214E+02  0.16186990452E+03  0.21569843899E+03  0.93338619125E+02 0.  0.
          5    1    3    3  502    0  0.21311255965E+02 -0.24146797698E+02 -0.52340153583E+02  0.61597090410E+02  0.41800000000E+01 0.  1.
         -5    1    3    3    0  502  0.68789852462E+02 -0.34960249516E+02  0.70322133474E+02  0.10448415049E+03  0.41800000000E+01 0.  1.
        -11    1    4    4    0    0 -0.36027726652E+02  0.59567447995E+02  0.35284361560E+02  0.78046550975E+02  0.00000000000E+00 0.  1.
         11    1    4    4    0    0 -0.54073381774E+02 -0.46040078128E+00  0.12658554296E+03  0.13765188801E+03  0.00000000000E+00 0. -1.
</event>
<event>
 8    1  0.6505836E-009  0.1202792E+03  0.7561462E-02  0.1242637E+00
          2   -1    0    0  501    0  0.00000000000E+00  0.00000000000E+00  0.91073638407E+03  0.91073638407E+03  0.00000000000E+00 0. -1.
         -2   -1    0    0    0  501 -0.00000000000E+00 -0.00000000000E+00 -0.16528115517E+02  0.16528115517E+02  0.00000000000E+00 0.  1.
         25    2    1    2    0    0 -0.24728489556E+02 -0.14775718817E+02  0.39715678690E+03  0.41738538133E+03  0.12508886082E+03 0.  0.
         23    2    1    2    0    0  0.24728489556E+02  0.14775718817E+02  0.49705148165E+03  0.50987911826E+03  0.10993961872E+03 0.  0.
          5    1    3    3  502    0 -0.16308746369E+02 -0.69465061489E+02  0.25348764462E+03  0.26337203411E+03  0.41800000000E+01 0. -1.
         -5    1    3    3    0  502 -0.84197431869E+01  0.54689342672E+02  0.14366914229E+03  0.15401334722E+03  0.41800000000E+01 0. -1.
        -11    1    4    4    0    0 -0.30506243944E+02  0.42081143330E+02  0.21920298455E+03  0.22528071817E+03  0.00000000000E+00 0. -1.
         11    1    4    4    0    0  0.55234733500E+02 -0.27305424513E+02  0.27784849711E+03  0.28459840009E+03  0.00000000000E+00 0.  1.
</event>
<event>
 8    1  0.6505836E-009  0.9746644E+02  0.7561462E-02  0.1285716E+00
          2   -1    0    0  501    0  0.00000000000E+00  0.00000000000E+00  0.27360204698E+03  0.27360204698E+03  0.00000000000E+00 0. -1.
         -2   -1    0    0    0  501 -0.00000000000E+00 -0.00000000000E+00 -0.63331159759E+02  0.63331159759E+02  0.00000000000E+00 0.  1.
         25    2    1    2    0    0  0.41006655149E+02 -0.56326906033E+01  0.19940662029E+03  0.23901440070E+03  0.12510639695E+03 0.  0.
         23    2    1    2    0    0 -0.41006655149E+02  0.56326906033E+01  0.10864266929E+02  0.97918806035E+02  0.88072625199E+02 0.  0.
          5    1    3    3  502    0  0.72579497404E+02 -0.41573631678E+02  0.12554918481E+03  0.15091792637E+03  0.41800000000E+01 0.  1.
         -5    1    3    3    0  502 -0.31572842255E+02  0.35940941075E+02  0.73857435481E+02  0.88096474329E+02  0.41800000000E+01 0.  1.
        -11    1    4    4    0    0  0.10110457209E+02 -0.44759462058E+01 -0.29824031912E+02  0.31807677043E+02  0.00000000000E+00 0.  1.
         11    1    4    4    0    0 -0.51117112358E+02  0.10108636809E+02  0.40688298841E+02  0.66111128992E+02  0.00000000000E+00 0. -1.
</event>
<event>
 8    1  0.6505836E-009  0.1070710E+03  0.7561462E-02  0.1266092E+00
         -2   -1    0    0    0  501 -0.00000000000E+00  0.00000000000E+00  0.75843917584E+03  0.75843917584E+03  0.00000000000E+00 0. -1.
          2   -1    0    0  501    0  0.00000000000E+00 -0.00000000000E+00 -0.33639428300E+02  0.33639428300E+02  0.00000000000E+00 0.  1.
         25    2    1    2    0    0  0.22366930199E+02  0.79918227148E+02  0.18272676971E+03  0.23648026084E+03  0.12508652527E+03 0.  0.
         23    2    1    2    0    0 -0.22366930199E+02 -0.79918227148E+02  0.54207297784E+03  0.55559834330E+03  0.89214366447E+02 0.  0.
          5    1    3    3  502    0  0.24449356964E+02  0.88196407022E+01  0.15932293747E+03  0.16148321251E+03  0.41800000000E+01 0.  1.
         -5    1    3    3    0  502 -0.20824267654E+01  0.71098586445E+02  0.23403832240E+02  0.74997048337E+02  0.41800000000E+01 0.  1.
        -11    1    4    4    0    0 -0.23440512871E+02 -0.96825959057E+02  0.50640623603E+03  0.51611239074E+03  0.00000000000E+00 0.  1.
         11    1    4    4    0    0  0.10735826724E+01  0.16907731909E+02  0.35666741809E+02  0.39485952557E+02  0.00000000000E+00 0. -1.
</event>
<event>
 8    1  0.6505836E-009  0.1152165E+03  0.7561462E-02  0.1251204E+00
         -2   -1    0    0    0  501 -0.00000000000E+00  0.00000000000E+00  0.46726302763E+03  0.46726302763E+03  0.00000000000E+00 0.  1.
          2   -1    0    0  501    0  0.00000000000E+00 -0.00000000000E+00 -0.35288210856E+02  0.35288210856E+02  0.00000000000E+00 0. -1.
         25    2    1    2    0    0  0.40057544230E+02  0.43521018897E+02  0.30378461296E+03  0.33381352979E+03  0.12509074972E+03 0.  0.
         23    2    1    2    0    0 -0.40057544230E+02 -0.43521018897E+02  0.12819020382E+03  0.16873770870E+03  0.92417531052E+02 0.  0.
          5    1    3    3  502    0  0.20945305422E+02  0.86554613928E+02  0.17062039951E+03  0.19250766255E+03  0.41800000000E+01 0. -1.
         -5    1    3    3    0  502  0.19112238808E+02 -0.43033595031E+02  0.13316421345E+03  0.14130586724E+03  0.41800000000E+01 0. -1.
        -11    1    4    4    0    0 -0.29516085812E+02  0.15992539351E+02  0.92830812964E+02  0.98714337723E+02  0.00000000000E+00 0.  1.
         11    1    4    4    0    0 -0.10541458418E+02 -0.59513558248E+02  0.35359390852E+02  0.70023370972E+02  0.00000000000E+00 0. -1.
</event>
<event>
 8    1  0.6505836E-009  0.1102179E+03  0.7561462E-02  0.1260167E+00
         -1   -1    0    0    0  501 -0.00000000000E+00  0.00000000000E+00  0.64666026515E+03  0.64666026515E+03  0.00000000000E+00 0.  1.
          1   -1    0    0  501    0  0.00000000000E+00 -0.00000000000E+00 -0.23443036517E+02  0.23443036517E+02  0.00000000000E+00 0. -1.
         25    2    1    2    0    0  0.33651970535E+02  0.25159196205E+02  0.45351428289E+03  0.47232151037E+03  0.12508782554E+03 0.  0.
         23    2    1    2    0    0 -0.33651970535E+02 -0.25159196205E+02  0.16970294574E+03  0.19778179129E+03  0.92483008708E+02 0.  0.
          5    1    3    3  502    0  0.38981554688E+02 -0.45941001308E+02  0.19704765046E+03  0.20609557530E+03  0.41800000000E+01 0.  1.
         -5    1    3    3    0  502 -0.53295841533E+01  0.71100197513E+02  0.25646663243E+03  0.26622593506E+03  0.41800000000E+01 0.  1.
        -11    1    4    4    0    0  0.17981574533E+02 -0.31827544714E+02  0.25780164505E+02  0.44731940570E+02  0.00000000000E+00 0. -1.
         11    1    4    4    0    0 -0.51633545068E+02  0.66683485087E+01  0.14392278124E+03  0.15304985073E+03  0.00000000000E+00 0.  1.
</event>
<event>
 8    1  0.6505836E-009  0.8608300E+02  0.7561462E-02  0.1312624E+00
          2   -1    0    0  501    0  0.00000000000E+00  0.00000000000E+00  0.58038314254E+03  0.58038314254E+03  0.00000000000E+00 0. -1.
         -2   -1    0    0    0  501 -0.00000000000E+00 -0.00000000000E+00 -0.23621485850E+02  0.23621485850E+02  0.00000000000E+00 0.  1.
         25    2    1    2    0    0 -0.35134119453E+02  0.33175216781E+02  0.33718834750E+03  0.36287468128E+03  0.12508817395E+03 0.  0.
         23    2    1    2    0    0  0.35134119453E+02 -0.33175216781E+02  0.21957330919E+03  0.24112994711E+03  0.87156250085E+02 0.  0.
          5    1    3    3  502    0  0.22523850484E+02 -0.21429976366E+02  0.21374722117E+03  0.21603683640E+03  0.41800000000E+01 0.  1.
         -5    1    3    3    0  502 -0.57657969937E+02  0.54605193147E+02  0.12344112634E+03  0.14683784487E+03  0.41800000000E+01 0.  1.
        -11    1    4    4    0    0  0.22529672496E+02  0.32205691444E+01  0.52278878300E+01  0.23351424358E+02  0.00000000000E+00 0.  1.
         11    1    4    4    0    0  0.12604446957E+02 -0.36395785925E+02  0.21434542136E+03  0.21777852276E+03  0.00000000000E+00 0. -1.
</event>
<event>
 8    1  0.6505836E-009  0.7395131E+02  0.7561462E-02  0.1347150E+00
         -2   -1    0    0    0  501 -0.00000000000E+00  0.00000000000E+00  0.45901711171E+02  0.45901711171E+02  0.00000000000E+00 0.  1.
          2   -1    0    0  501    0  0.00000000000E+00 -0.00000000000E+00 -0.33027609329E+03  0.33027609329E+03  0.00000000000E+00 0. -1.
         25    2    1    2    0    0 -0.59801833477E+01  0.76853720705E+01 -0.24458216500E+03  0.27488571490E+03  0.12508754247E+03 0.  0.
         23    2    1    2    0    0  0.59801833477E+01 -0.76853720705E+01 -0.39792217121E+02  0.10129208957E+03  0.92638217430E+02 0.  0.
          5    1    3    3  502    0  0.13704444364E+02  0.25843993296E+02 -0.24597608181E+03  0.24774468513E+03  0.41800000000E+01 0.  1.
         -5    1    3    3    0  502 -0.19684627711E+02 -0.18158621225E+02  0.13939168116E+01  0.27141029771E+02  0.41800000000E+01 0.  1.
        -11    1    4    4    0    0 -0.33284603474E+02  0.23799845655E+02 -0.28054878794E+02  0.49612233429E+02  0.00000000000E+00 0. -1.
         11    1    4    4    0    0  0.39264786822E+02 -0.31485217725E+02 -0.11737338327E+02  0.51679856137E+02  0.00000000000E+00 0.  1.
</event>
<event>
 8    1  0.6505836E-009  0.1856216E+03  0.7561462E-02  0.1162471E+00
         -1   -1    0    0    0  501 -0.00000000000E+00  0.00000000000E+00  0.11088343125E+03  0.11088343125E+03  0.00000000000E+00 0.  1.
          1   -1    0    0  501    0  0.00000000000E+00 -0.00000000000E+00 -0.41403685617E+03  0.41403685617E+03  0.00000000000E+00 0. -1.
         25    2    1    2    0    0 -0.91714293761E+02  0.15281117358E+03 -0.10110331946E+03  0.24006866213E+03  0.12509322476E+03 0.  0.
         23    2    1    2    0    0  0.91714293761E+02 -0.15281117358E+03 -0.20205010546E+03  0.28485162529E+03  0.92484792586E+02 0.  0.
          5    1    3    3  502    0 -0.74878641227E+02  0.60294031331E+02 -0.10925199595E+03  0.14558726643E+03  0.41800000000E+01 0. -1.
         -5    1    3    3    0  502 -0.16835652534E+02  0.92517142251E+02  0.81486764894E+01  0.94481395709E+02  0.41800000000E+01 0. -1.
        -11    1    4    4    0    0  0.13281592178E+02 -0.49055479301E+02 -0.12191061601E+03  0.13207966928E+03  0.00000000000E+00 0. -1.
         11    1    4    4    0    0  0.78432701584E+02 -0.10375569428E+03 -0.80139489449E+02  0.15277195601E+03  0.00000000000E+00 0.  1.
</event>
<event>
 8    1  0.6505836E-009  0.1061531E+03  0.7561462E-02  0.1267864E+00
          2   -1    0    0  501    0  0.00000000000E+00  0.00000000000E+00  0.68314580271E+02  0.68314580271E+02  0.00000000000E+00 0. -1.
         -2   -1    0    0    0  501 -0.00000000000E+00 -0.00000000000E+00 -0.33465068987E+03  0.33465068987E+03  0.00000000000E+00 0.  1.
         25    2    1    2    0    0  0.21044080613E+02  0.61562894817E+02 -0.24408451144E+03  0.28188073162E+03  0.12508658917E+03 0.  0.
         23    2    1    2    0    0 -0.21044080613E+02 -0.61562894817E+02 -0.22251598161E+02  0.12108453852E+03  0.99666887682E+02 0.  0.
          5    1    3    3  502    0  0.47652337869E+02  0.72451719011E+02 -0.23638707498E+03  0.25182596870E+03  0.41800000000E+01 0.  1.
         -5    1    3    3    0  502 -0.26608257256E+02 -0.10888824194E+02 -0.76974364570E+01  0.30054762926E+02  0.41800000000E+01 0.  1.
        -11    1    4    4    0    0  0.23067314986E+02 -0.32162264867E+01  0.24871954767E+02  0.34074319764E+02  0.00000000000E+00 0. -1.
         11    1    4    4    0    0 -0.44111395599E+02 -0.58346668330E+02 -0.47123552928E+02  0.87010218753E+02  0.00000000000E+00 0.  1.
</event>
<event>
 8    1  0.6505836E-009  0.9560178E+02  0.7561462E-02  0.1289826E+00
         -1   -1    0    0    0  501 -0.00000000000E+00  0.00000000000E+00  0.12884518296E+03  0.12884518296E+03  0.00000000000E+00 0.  1.
          1   -1    0    0  501    0  0.00000000000E+00 -0.00000000000E+00 -0.12400767310E+03  0.12400767310E+03  0.00000000000E+00 0. -1.
         25    2    1    2    0    0  0.16751216429E+02 -0.59667566592E+02  0.25486582960E+01  0.13962788425E+03  0.12509447888E+03 0.  0.
         23    2    1    2    0    0 -0.16751216429E+02  0.59667566592E+02  0.22888515575E+01  0.11322497181E+03  0.94730320620E+02 0.  0.
          5    1    3    3  502    0  0.27818261884E+02 -0.15165288675E+02 -0.56400524472E+02  0.64825405788E+02  0.41800000000E+01 0.  1.
         -5    1    3    3    0  502 -0.11067045455E+02 -0.44502277917E+02  0.58949182768E+02  0.74802478461E+02  0.41800000000E+01 0.  1.
        -11    1    4    4    0    0  0.35080661888E+02  0.12532338512E+01  0.11567328345E+01  0.35122093679E+02  0.00000000000E+00 0.  1.
         11    1    4    4    0    0 -0.51831878317E+02  0.58414332740E+02  0.11321187230E+01  0.78102878130E+02  0.00000000000E+00 0. -1.
</event>
<event>
 8    1  0.6505836E-009  0.6706463E+02  0.7561462E-02  0.1370369E+00
          1   -1    0    0  501    0  0.00000000000E+00  0.00000000000E+00  0.28779451484E+03  0.28779451484E+03  0.00000000000E+00 0. -1.
         -1   -1    0    0    0  501 -0.00000000000E+00 -0.00000000000E+00 -0.53659669758E+02  0.53659669758E+02  0.00000000000E+00 0.  1.
         25    2    1    2    0    0 -0.28615929397E+02  0.45671698976E+02  0.97554976968E+02  0.16753772566E+03  0.12508853060E+03 0.  0.
         23    2    1    2    0    0  0.28615929397E+02 -0.45671698976E+02  0.13657986811E+03  0.17391645894E+03  0.93209971634E+02 0.  0.
          5    1    3    3  502    0 -0.19401963916E+02  0.57007222949E+02 -0.80032424630E+01  0.60891575460E+02  0.41800000000E+01 0.  1.
         -5    1    3    3    0  502 -0.92139654808E+01 -0.11335523973E+02  0.10555821943E+03  0.10664615020E+03  0.41800000000E+01 0.  1.
        -11    1    4    4    0    0  0.28623882245E+02 -0.25306752377E+02  0.14640290857E+03  0.15130621265E+03  0.00000000000E+00 0. -1.
         11    1    4    4    0    0 -0.79528481538E-02 -0.20364946600E+02 -0.98230404522E+01  0.22610246283E+02  0.00000000000E+00 0.  1.
</event>
<event>
 8    1  0.6505836E-009  0.1433167E+03  0.7561462E-02  0.1208934E+00
          2   -1    0    0  501    0  0.00000000000E+00  0.00000000000E+00  0.58233149866E+03  0.58233149866E+03  0.00000000000E+00 0. -1.
         -2   -1    0    0    0  501 -0.00000000000E+00 -0.00000000000E+00 -0.37525986962E+02  0.37525986962E+02  0.00000000000E+00 0.  1.
         25    2    1    2    0    0  0.65916013508E+02  0.75119738674E+02  0.27122822912E+03  0.31496075764E+03  0.12509048969E+03 0.  0.
         23    2    1    2    0    0 -0.65916013508E+02 -0.75119738674E+02  0.27357728258E+03  0.30489672798E+03  0.90164234663E+02 0.  0.
          5    1    3    3  502    0 -0.28080044424E+02  0.45549033283E+02  0.14603335785E+03  0.15558411659E+03  0.41800000000E+01 0.  1.
         -5    1    3    3    0  502  0.93996057932E+02  0.29570705392E+02  0.12519487126E+03  0.15937664106E+03  0.41800000000E+01 0.  1.
        -11    1    4    4    0    0  0.19667380035E+02 -0.34247263781E+02  0.71918128956E+02  0.82048145540E+02  0.00000000000E+00 0.  1.
         11    1    4    4    0    0 -0.85583393544E+02 -0.40872474893E+02  0.20165915363E+03  0.22284858244E+03  0.00000000000E+00 0. -1.
</event>
<event>
 8    1  0.6505836E-009  0.9595168E+02  0.7561462E-02  0.1289047E+00
         -2   -1    0    0    0  501 -0.00000000000E+00  0.00000000000E+00  0.41729167455E+02  0.41729167455E+02  0.00000000000E+00 0.  1.
          2   -1    0    0  501    0  0.00000000000E+00 -0.00000000000E+00 -0.36750478485E+03  0.36750478485E+03  0.00000000000E+00 0. -1.
         25    2    1    2    0    0  0.16241268390E+01 -0.60078097864E+02 -0.15191295808E+03  0.20575575990E+03  0.12508345321E+03 0.  0.
         23    2    1    2    0    0 -0.16241268390E+01  0.60078097864E+02 -0.17386265932E+03  0.20347819241E+03  0.86966285716E+02 0.  0.
          5    1    3    3  502    0 -0.34651874578E+02 -0.29219851951E+02 -0.15124094224E+03  0.15794254389E+03  0.41800000000E+01 0.  1.
         -5    1    3    3    0  502  0.36276001417E+02 -0.30858245914E+02 -0.67201583747E+00  0.47813216007E+02  0.41800000000E+01 0.  1.
        -11    1    4    4    0    0  0.31521063944E+02  0.18509913283E+01 -0.25142788372E+02  0.40362896925E+02  0.00000000000E+00 0.  1.
         11    1    4    4    0    0 -0.33145190783E+02  0.58227106536E+02 -0.14871987095E+03  0.16311529549E+03  0.00000000000E+00 0. -1.
</event>
<event>
 8    1  0.6505836E-009  0.1011315E+03  0.7561462E-02  0.1277934E+00
          2   -1    0    0  501    0  0.00000000000E+00  0.00000000000E+00  0.11440527595E+04  0.11440527595E+04  0.00000000000E+00 0. -1.
         -2   -1    0    0    0  501 -0.00000000000E+00 -0.00000000000E+00 -0.17752575630E+02  0.17752575630E+02  0.00000000000E+00 0.  1.
         25    2    1    2    0    0  0.36672764691E+02 -0.48476819036E+02  0.89078210269E+03  0.90157257990E+03  0.12508184794E+03 0.  0.
         23    2    1    2    0    0 -0.36672764691E+02  0.48476819036E+02  0.23551808120E+03  0.26023275526E+03  0.92506360230E+02 0.  0.
          5    1    3    3  502    0  0.21397067934E+02  0.22438351349E+02  0.60439284124E+02  0.68056547024E+02  0.41800000000E+01 0.  1.
         -5    1    3    3    0  502  0.15275696757E+02 -0.70915170385E+02  0.83034281857E+03  0.83351603287E+03  0.41800000000E+01 0.  1.
        -11    1    4    4    0    0  0.52421224860E+01  0.55559451609E+02  0.18967322019E+03  0.19771257665E+03  0.00000000000E+00 0.  1.
         11    1    4    4    0    0 -0.41914887177E+02 -0.70826325737E+01  0.45844861012E+02  0.62520178602E+02  0.00000000000E+00 0. -1.
</event>
<event>
 8    1  0.6505836E-009  0.6166054E+02  0.7561462E-02  0.1390992E+00
          2   -1    0    0  501    0  0.00000000000E+00  0.00000000000E+00  0.55577302766E+03  0.55577302766E+03  0.00000000000E+00 0.  1.
         -2   -1    0    0    0  501 -0.00000000000E+00 -0.00000000000E+00 -0.17721213553E+02  0.17721213553E+02  0.00000000000E+00 0. -1.
         25    2    1    2    0    0 -0.17198203879E+02  0.10565836112E+02  0.37615795746E+03  0.39692824489E+03  0.12509919071E+03 0.  0.
         23    2    1    2    0    0  0.17198203879E+02 -0.10565836112E+02  0.16189385664E+03  0.17656599633E+03  0.67516776658E+02 0.  0.
          5    1    3    3  502    0 -0.20445360725E+02 -0.24571983704E+02  0.35309971352E+03  0.35456829419E+03  0.41800000000E+01 0. -1.
         -5    1    3    3    0  502  0.32471568459E+01  0.35137819816E+02  0.23058243942E+02  0.42359950692E+02  0.41800000000E+01 0. -1.
        -11    1    4    4    0    0 -0.15710288247E+02 -0.15737289869E+02  0.12456583886E+03  0.12653506890E+03  0.00000000000E+00 0.  1.
         11    1    4    4    0    0  0.32908492126E+02  0.51714537579E+01  0.37328017783E+02  0.50030927431E+02  0.00000000000E+00 0. -1.
</event>
<event>
 8    1  0.6505836E-009  0.1167208E+03  0.7561462E-02  0.1248607E+00
          3   -1    0    0  501    0  0.00000000000E+00  0.00000000000E+00  0.92364321381E+02  0.92364321381E+02  0.00000000000E+00 0. -1.
         -3   -1    0    0    0  501 -0.00000000000E+00 -0.00000000000E+00 -0.15899637592E+03  0.15899637592E+03  0.00000000000E+00 0.  1.
         25    2    1    2    0    0  0.53307263619E+02 -0.14884278983E+00 -0.33509816739E+02  0.14003626792E+03  0.12508222098E+03 0.  0.
         23    2    1    2    0    0 -0.53307263619E+02  0.14884278983E+00 -0.33122237805E+02  0.11132442939E+03  0.91947590686E+02 0.  0.
          5    1    3    3  502    0  0.14272341325E+01 -0.52881720088E+02 -0.38825904279E+02  0.65752844499E+02  0.41800000000E+01 0. -1.
         -5    1    3    3    0  502  0.51880029487E+02  0.52732877298E+02  0.53160875396E+01  0.74283423416E+02  0.41800000000E+01 0. -1.
        -11    1    4    4    0    0 -0.26483053100E+02 -0.45899299394E+02 -0.16498176965E+02  0.55500339004E+02  0.00000000000E+00 0.  1.
         11    1    4    4    0    0 -0.26824210519E+02  0.46048142184E+02 -0.16624060839E+02  0.55824090385E+02  0.00000000000E+00 0. -1.
</event>
<event>
 8    1  0.6505836E-009  0.1245547E+03  0.7561462E-02  0.1235767E+00
          2   -1    0    0  501    0  0.00000000000E+00  0.00000000000E+00  0.69667270975E+03  0.69667270975E+03  0.00000000000E+00 0. -1.
         -2   -1    0    0    0  501 -0.00000000000E+00 -0.00000000000E+00 -0.26191385570E+02  0.26191385570E+02  0.00000000000E+00 0.  1.
         25    2    1    2    0    0  0.68502950326E+02  0.29207194990E+02  0.28654897886E+03  0.32140849443E+03  0.12508952220E+03 0.  0.
         23    2    1    2    0    0 -0.68502950326E+02 -0.29207194990E+02  0.38393234531E+03  0.40145560088E+03  0.90646782943E+02 0.  0.
          5    1    3    3  502    0  0.89062692338E+02 -0.18271778463E+02  0.15161950715E+03  0.17683882041E+03  0.41800000000E+01 0. -1.
         -5    1    3    3    0  502 -0.20559742012E+02  0.47478973453E+02  0.13492947171E+03  0.14456967403E+03  0.41800000000E+01 0. -1.
        -11    1    4    4    0    0 -0.83392051115E+02 -0.13381162187E+02  0.35697997674E+03  0.36683510394E+03  0.00000000000E+00 0. -1.
         11    1    4    4    0    0  0.14889100789E+02 -0.15826032802E+02  0.26952368574E+02  0.34620496939E+02  0.00000000000E+00 0.  1.
</event>
<event>
 8    1  0.6505836E-009  0.2039959E+03  0.7561462E-02  0.1146411E+00
         -1   -1    0    0    0  501 -0.00000000000E+00  0.00000000000E+00  0.16099228692E+03  0.16099228692E+03  0.00000000000E+00 0.  1.
          1   -1    0    0  501    0  0.00000000000E+00 -0.00000000000E+00 -0.35542715180E+03  0.35542715180E+03  0.00000000000E+00 0. -1.
         25    2    1    2    0    0 -0.80906130456E+02 -0.18238446488E+03 -0.18023774220E+03  0.29655803214E+03  0.12510446731E+03 0.  0.
         23    2    1    2    0    0  0.80906130456E+02  0.18238446488E+03 -0.14197122678E+02  0.21986140657E+03  0.91255601637E+02 0.  0.
          5    1    3    3  502    0 -0.69793999824E+02 -0.13796338422E+03 -0.19442159276E+03  0.24843978331E+03  0.41800000000E+01 0.  1.
         -5    1    3    3    0  502 -0.11112130632E+02 -0.44421080661E+02  0.14183850565E+02  0.48118248837E+02  0.41800000000E+01 0.  1.
        -11    1    4    4    0    0  0.45244347298E+02  0.15746640184E+03 -0.40834315630E+02  0.16884951882E+03  0.00000000000E+00 0. -1.
         11    1    4    4    0    0  0.35661783158E+02  0.24918063040E+02  0.26637192952E+02  0.51011887752E+02  0.00000000000E+00 0.  1.
</event>
<event>
 8    1  0.6505836E-009  0.1013981E+03  0.7561462E-02  0.1277383E+00
          2   -1    0    0  501    0  0.00000000000E+00  0.00000000000E+00  0.48008444335E+02  0.48008444335E+02  0.00000000000E+00 0. -1.
         -2   -1    0    0    0  501 -0.00000000000E+00 -0.00000000000E+00 -0.36081472197E+03  0.36081472197E+03  0.00000000000E+00 0.  1.
         25    2    1    2    0    0  0.22880604427E+02  0.67285123936E+02 -0.20741698038E+03  0.25242907232E+03  0.12509125803E+03 0.  0.
         23    2    1    2    0    0 -0.22880604427E+02 -0.67285123936E+02 -0.10538929726E+03  0.15639409399E+03  0.91112011821E+02 0.  0.
          5    1    3    3  502    0 -0.26698245311E+02  0.13455239537E+02  0.22952200602E+01  0.30275075703E+02  0.41800000000E+01 0.  1.
         -5    1    3    3    0  502  0.49578849738E+02  0.53829884400E+02 -0.20971220044E+03  0.22215399661E+03  0.41800000000E+01 0.  1.
        -11    1    4    4    0    0 -0.18831783256E+02  0.10401964444E+02 -0.65557000058E+02  0.68996791096E+02  0.00000000000E+00 0.  1.
         11    1    4    4    0    0 -0.40488211707E+01 -0.77687088380E+02 -0.39832297197E+02  0.87397302898E+02  0.00000000000E+00 0. -1.
</event>
<event>
 8    1  0.6505836E-009  0.1083815E+03  0.7561462E-02  0.1263597E+00
          1   -1    0    0  501    0  0.00000000000E+00  0.00000000000E+00  0.22664062173E+03  0.22664062173E+03  0.00000000000E+00 0. -1.
         -1   -1    0    0    0  501 -0.00000000000E+00 -0.00000000000E+00 -0.75894843717E+02  0.75894843717E+02  0.00000000000E+00 0.  1.
         25    2    1    2    0    0 -0.22387747384E+02  0.38283033565E+02  0.13561712533E+03  0.18975222283E+03  0.12508836674E+03 0.  0.
         23    2    1    2    0    0  0.22387747384E+02 -0.38283033565E+02  0.15128652682E+02  0.11278324262E+03  0.10258840964E+03 0.  0.
          5    1    3    3  502    0 -0.18340261320E+02  0.83313950977E+02  0.10321228812E+03  0.13396950560E+03  0.41800000000E+01 0.  1.
         -5    1    3    3    0  502 -0.40474860645E+01 -0.45030917412E+02  0.32404837212E+02  0.55782717226E+02  0.41800000000E+01 0.  1.
        -11    1    4    4    0    0 -0.88025499795E+01  0.18878203283E+02 -0.27837888867E+02  0.34768081655E+02  0.00000000000E+00 0.  1.
         11    1    4    4    0    0  0.31190297364E+02 -0.57161236849E+02  0.42966541549E+02  0.78015160965E+02  0.00000000000E+00 0. -1.
</event>
<event>
 8    1  0.6505836E-009  0.1287744E+03  0.7561462E-02  0.1229286E+00
          3   -1    0    0  501    0  0.00000000000E+00  0.00000000000E+00  0.25990567461E+03  0.25990567461E+03  0.00000000000E+00 0. -1.
         -3   -1    0    0    0  501 -0.00000000000E+00 -0.00000000000E+00 -0.80205063092E+02  0.80205063092E+02  0.00000000000E+00 0.  1.
         25    2    1    2    0    0 -0.67420510000E+02  0.54903263734E+02  0.14107851871E+03  0.20763002474E+03  0.12508870929E+03 0.  0.
         23    2    1    2    0    0  0.67420510000E+02 -0.54903263734E+02  0.38622092802E+02  0.13248071296E+03  0.92193165243E+02 0.  0.
          5    1    3    3  502    0  0.18690192086E+02  0.60523101626E+02  0.41721051998E+02  0.75963726149E+02  0.41800000000E+01 0. -1.
         -5    1    3    3    0  502 -0.86110702086E+02 -0.56198378915E+01  0.99357466716E+02  0.13166629859E+03  0.41800000000E+01 0. -1.
        -11    1    4    4    0    0  0.40624663798E+02 -0.66935881867E+02 -0.65776570659E+01  0.78575067054E+02  0.00000000000E+00 0.  1.
         11    1    4    4    0    0  0.26795846202E+02  0.12032618133E+02  0.45199749868E+02  0.53905645909E+02  0.00000000000E+00 0. -1.
</event>
<event>
 8    1  0.6505836E-009  0.1164786E+03  0.7561462E-02  0.1249022E+00
         -2   -1    0    0    0  501 -0.00000000000E+00  0.00000000000E+00  0.67810365027E+02  0.67810365027E+02  0.00000000000E+00 0.  1.
          2   -1    0    0  501    0  0.00000000000E+00 -0.00000000000E+00 -0.27820714739E+03  0.27820714739E+03  0.00000000000E+00 0. -1.
         25    2    1    2    0    0  0.38943253263E+02  0.50387582938E+02 -0.18485859686E+03  0.23209106047E+03  0.12505228519E+03 0.  0.
         23    2    1    2    0    0 -0.38943253263E+02 -0.50387582938E+02 -0.25538185508E+02  0.11392645194E+03  0.90948073342E+02 0.  0.
          5    1    3    3  502    0  0.69336412221E+02 -0.12054428032E+02 -0.85958352538E+02  0.11117175030E+03  0.41800000000E+01 0.  1.
         -5    1    3    3    0  502 -0.30393158958E+02  0.62442010970E+02 -0.98900244317E+02  0.12091931017E+03  0.41800000000E+01 0.  1.
        -11    1    4    4    0    0 -0.22150577254E+02 -0.66207162845E+02  0.11038643440E+02  0.70681596853E+02  0.00000000000E+00 0.  1.
         11    1    4    4    0    0 -0.16792676009E+02  0.15819579907E+02 -0.36576828948E+02  0.43244855092E+02  0.00000000000E+00 0. -1.
</event>
<event>
 8    1  0.6505836E-009  0.1300330E+03  0.7561462E-02  0.1227407E+00
          2   -1    0    0  501    0  0.00000000000E+00  0.00000000000E+00  0.57592035518E+02  0.57592035518E+02  0.00000000000E+00 0. -1.
         -2   -1    0    0    0  501 -0.00000000000E+00 -0.00000000000E+00 -0.41097712890E+03  0.41097712890E+03  0.00000000000E+00 0.  1.
         25    2    1    2    0    0  0.36673622222E+02  0.10133241738E+03 -0.22167316344E+03  0.27640499638E+03  0.12509003659E+03 0.  0.
         23    2    1    2    0    0 -0.36673622222E+02 -0.10133241738E+03 -0.13171192994E+03  0.19216416804E+03  0.89251451587E+02 0.  0.
          5    1    3    3  502    0  0.72253555968E+02  0.53146670509E+02 -0.18606100502E+03  0.20659456654E+03  0.41800000000E+01 0.  1.
         -5    1    3    3    0  502 -0.35579933746E+02  0.48185746870E+02 -0.35612158423E+02  0.69810429839E+02  0.41800000000E+01 0.  1.
        -11    1    4    4    0    0 -0.12271145910E+02 -0.10416415439E+02 -0.86045506737E+02  0.87538060078E+02  0.00000000000E+00 0.  1.
         11    1    4    4    0    0 -0.24402476312E+02 -0.90916001940E+02 -0.45666423208E+02  0.10462610796E+03  0.00000000000E+00 0. -1.
</event>
<event>
 8    1  0.6505836E-009  0.7602755E+02  0.7561462E-02  0.1340718E+00
          2   -1    0    0  501    0  0.00000000000E+00  0.00000000000E+00  0.75132705843E+03  0.75132705843E+03  0.00000000000E+00 0. -1.
         -2   -1    0    0    0  501 -0.00000000000E+00 -0.00000000000E+00 -0.18346416962E+02  0.18346416962E+02  0.00000000000E+00 0.  1.
         25    2    1    2    0    0 -0.36163371681E+02 -0.11485071684E+02  0.33086570442E+03  0.35575215854E+03  0.12509111729E+03 0.  0.
         23    2    1    2    0    0  0.36163371681E+02  0.11485071684E+02  0.40211493705E+03  0.41392131685E+03  0.90524790098E+02 0.  0.
          5    1    3    3  502    0 -0.38068240893E+02  0.32866407246E+01  0.33694548838E+03  0.33913084129E+03  0.41800000000E+01 0.  1.
         -5    1    3    3    0  502  0.19048692125E+01 -0.14771712409E+02 -0.60797839631E+01  0.16621317254E+02  0.41800000000E+01 0.  1.
        -11    1    4    4    0    0 -0.24823908433E+02 -0.17748436227E+02  0.12269406660E+03  0.12643206633E+03  0.00000000000E+00 0.  1.
         11    1    4    4    0    0  0.60987280114E+02  0.29233507911E+02  0.27942087045E+03  0.28748925052E+03  0.00000000000E+00 0. -1.
</event>
<event>
 8    1  0.6505836E-009  0.8367073E+02  0.7561462E-02  0.1318946E+00
          2   -1    0    0  501    0  0.00000000000E+00  0.00000000000E+00  0.38069805765E+03  0.38069805765E+03  0.00000000000E+00 0. -1.
         -2   -1    0    0    0  501 -0.00000000000E+00 -0.00000000000E+00 -0.50146485147E+02  0.50146485147E+02  0.00000000000E+00 0.  1.
         25    2    1    2    0    0 -0.45956149844E+02  0.41310434144E+02  0.90364349503E+02  0.16622928131E+03  0.12509172085E+03 0.  0.
         23    2    1    2    0    0  0.45956149844E+02 -0.41310434144E+02  0.24018722300E+03  0.26461526149E+03  0.92264916645E+02 0.  0.
          5    1    3    3  502    0 -0.45710992958E+02  0.41724921575E+02  0.12064471945E+03  0.13565796950E+03  0.41800000000E+01 0. -1.
         -5    1    3    3    0  502 -0.24515688547E+00 -0.41448743125E+00 -0.30280369944E+02  0.30571311809E+02  0.41800000000E+01 0. -1.
        -11    1    4    4    0    0 -0.17525183737E+02  0.93689129229E+01  0.14066534832E+02  0.24346991530E+02  0.00000000000E+00 0.  1.
         11    1    4    4    0    0  0.63481333581E+02 -0.50679347067E+02  0.22612068816E+03  0.24026826996E+03  0.00000000000E+00 0. -1.
</event>
<event>
 8    1  0.6505836E-009  0.7792040E+02  0.7561462E-02  0.1335059E+00
          2   -1    0    0  501    0  0.00000000000E+00  0.00000000000E+00  0.26751301029E+03  0.26751301029E+03  0.00000000000E+00 0.  1.
         -2   -1    0    0    0  501 -0.00000000000E+00 -0.00000000000E+00 -0.52768957364E+02  0.52768957364E+02  0.00000000000E+00 0. -1.
         25    2    1    2    0    0 -0.22842070240E+02  0.41579238639E+02  0.11351080952E+03  0.17545100467E+03  0.12509099849E+03 0.  0.
         23    2    1    2    0    0  0.22842070240E+02 -0.41579238639E+02  0.10123324341E+03  0.14483096299E+03  0.92071955611E+02 0.  0.
          5    1    3    3  502    0 -0.78183262706E+01  0.46731984841E+02  0.13799835184E+03  0.14596582526E+03  0.41800000000E+01 0.  1.
         -5    1    3    3    0  502 -0.15023743970E+02 -0.51527462022E+01 -0.24487542318E+02  0.29485179414E+02  0.41800000000E+01 0.  1.
        -11    1    4    4    0    0  0.52296177817E+02 -0.29257886918E+02  0.94969684518E+02  0.11229494708E+03  0.00000000000E+00 0.  1.
         11    1    4    4    0    0 -0.29454107577E+02 -0.12321351720E+02  0.62635588894E+01  0.32536015911E+02  0.00000000000E+00 0. -1.
</event>
<event>
 8    1  0.6505836E-009  0.1607334E+03  0.7561462E-02  0.1187871E+00
         -1   -1    0    0    0  501 -0.00000000000E+00  0.00000000000E+00  0.33504635016E+02  0.33504635016E+02  0.00000000000E+00 0.  1.
          1   -1    0    0  501    0  0.00000000000E+00 -0.00000000000E+00 -0.84698860020E+03  0.84698860020E+03  0.00000000000E+00 0. -1.
         25    2    1    2    0    0 -0.12560856141E+03 -0.21681133336E+02 -0.37941966102E+03  0.41935022900E+03  0.12509097951E+03 0.  0.
         23    2    1    2    0    0  0.12560856141E+03  0.21681133336E+02 -0.43406430417E+03  0.46114300621E+03  0.89406206640E+02 0.  0.
          5    1    3    3  502    0 -0.12690785071E+03  0.26255597873E+02 -0.29349509851E+03  0.32086103572E+03  0.41800000000E+01 0. -1.
         -5    1    3    3    0  502  0.12992892980E+01 -0.47936731209E+02 -0.85924562505E+02  0.98489193282E+02  0.41800000000E+01 0. -1.
        -11    1    4    4    0    0  0.15316249294E+02 -0.20495534250E+02 -0.26576639322E+02  0.36891356363E+02  0.00000000000E+00 0.  1.
         11    1    4    4    0    0  0.11029231212E+03  0.42176667586E+02 -0.40748766485E+03  0.42425164985E+03  0.00000000000E+00 0. -1.
</event>
<event>
 8    1  0.6505836E-009  0.9050267E+02  0.7561462E-02  0.1301639E+00
         -3   -1    0    0    0  501 -0.00000000000E+00  0.00000000000E+00  0.20159975628E+03  0.20159975628E+03  0.00000000000E+00 0.  1.
          3   -1    0    0  501    0  0.00000000000E+00 -0.00000000000E+00 -0.15880221437E+03  0.15880221437E+03  0.00000000000E+00 0. -1.
         25    2    1    2    0    0 -0.44548325849E+02  0.78713383521E+00 -0.11322767094E+03  0.17449430170E+03  0.12507031200E+03 0.  0.
         23    2    1    2    0    0  0.44548325849E+02 -0.78713383521E+00  0.15602521285E+03  0.18590766895E+03  0.90733794223E+02 0.  0.
          5    1    3    3  502    0 -0.14090498750E+02  0.57484927687E+02 -0.23112394012E+02  0.63676637970E+02  0.41800000000E+01 0.  1.
         -5    1    3    3    0  502 -0.30457827099E+02 -0.56697793852E+02 -0.90115276924E+02  0.11081766373E+03  0.41800000000E+01 0.  1.
        -11    1    4    4    0    0  0.39945746147E+02 -0.14665805309E+02  0.16387652986E+03  0.16931115002E+03  0.00000000000E+00 0.  1.
         11    1    4    4    0    0  0.46025797018E+01  0.13878671474E+02 -0.78513170142E+01  0.16596518931E+02  0.00000000000E+00 0. -1.
</event>
<event>
 8    1  0.6505836E-009  0.1050442E+03  0.7561462E-02  0.1270033E+00
          2   -1    0    0  501    0  0.00000000000E+00  0.00000000000E+00  0.42035813031E+03  0.42035813031E+03  0.00000000000E+00 0.  1.
         -2   -1    0    0    0  501 -0.00000000000E+00 -0.00000000000E+00 -0.32969970530E+02  0.32969970530E+02  0.00000000000E+00 0. -1.
         25    2    1    2    0    0  0.30611182291E+02 -0.21113118065E+02  0.27614843294E+03  0.30543040165E+03  0.12508782913E+03 0.  0.
         23    2    1    2    0    0 -0.30611182291E+02  0.21113118065E+02  0.11123972684E+03  0.14789769920E+03  0.90092421238E+02 0.  0.
          5    1    3    3  502    0  0.68548659503E+02 -0.28178456828E+02  0.97108653480E+02  0.12223136721E+03  0.41800000000E+01 0. -1.
         -5    1    3    3    0  502 -0.37937477212E+02  0.70653387629E+01  0.17903977946E+03  0.18319903444E+03  0.41800000000E+01 0. -1.
        -11    1    4    4    0    0  0.17626745022E+02 -0.24812981493E+02  0.28668575470E+02  0.41812359538E+02  0.00000000000E+00 0. -1.
         11    1    4    4    0    0 -0.48237927313E+02  0.45926099558E+02  0.82571151370E+02  0.10608533966E+03  0.00000000000E+00 0.  1.
</event>
<event>
 8    1  0.6505836E-009  0.1222163E+03  0.7561462E-02  0.1239485E+00
         -2   -1    0    0    0  501 -0.00000000000E+00  0.00000000000E+00  0.54144261890E+02  0.54144261890E+02  0.00000000000E+00 0.  1.
          2   -1    0    0  501    0  0.00000000000E+00 -0.00000000000E+00 -0.29591472949E+03  0.29591472949E+03  0.00000000000E+00 0. -1.
         25    2    1    2    0    0 -0.40586269594E+02  0.39125489887E+02 -0.16687976592E+03  0.21604258627E+03  0.12508994192E+03 0.  0.
         23    2    1    2    0    0  0.40586269594E+02 -0.39125489887E+02 -0.74890701681E+02  0.13401640511E+03  0.95779592828E+02 0.  0.
          5    1    3    3  502    0 -0.34276736335E+02  0.84245540323E+02 -0.10304621850E+03  0.13750709533E+03  0.41800000000E+01 0. -1.
         -5    1    3    3    0  502 -0.63095332588E+01 -0.45120050436E+02 -0.63833547417E+02  0.78535490939E+02  0.41800000000E+01 0. -1.
        -11    1    4    4    0    0  0.47773069648E+02  0.17258148422E+02 -0.52141341959E+02  0.72793058816E+02  0.00000000000E+00 0.  1.
         11    1    4    4    0    0 -0.71868000537E+01 -0.56383638308E+02 -0.22749359722E+02  0.61223346296E+02  0.00000000000E+00 0. -1.
</event>
<event>
 8    1  0.6505836E-009  0.1176062E+03  0.7561462E-02  0.1247099E+00
          1   -1    0    0  501    0  0.00000000000E+00  0.00000000000E+00  0.37823485142E+03  0.37823485142E+03  0.00000000000E+00 0. -1.
         -1   -1    0    0    0  501 -0.00000000000E+00 -0.00000000000E+00 -0.62790231757E+02  0.62790231757E+02  0.00000000000E+00 0.  1.
         25    2    1    2    0    0  0.35793986430E+02 -0.77845197912E+02  0.74127095435E+02  0.16877057292E+03  0.12509035016E+03 0.  0.
         23    2    1    2    0    0 -0.35793986430E+02  0.77845197912E+02  0.24131752423E+03  0.27225451026E+03  0.92451536238E+02 0.  0.
          5    1    3    3  502    0 -0.45572467971E+02 -0.22761555511E+02  0.12190939206E+02  0.52545500711E+02  0.41800000000E+01 0. -1.
         -5    1    3    3    0  502  0.81366454401E+02 -0.55083642401E+02  0.61936156229E+02  0.11622507221E+03  0.41800000000E+01 0. -1.
        -11    1    4    4    0    0 -0.11283780206E+02  0.28611487199E+02  0.69647244340E+01  0.31534874059E+02  0.00000000000E+00 0.  1.
         11    1    4    4    0    0 -0.24510206225E+02  0.49233710713E+02  0.23435279979E+03  0.24071963620E+03  0.00000000000E+00 0. -1.
</event>
<event>
 8    1  0.6505836E-009  0.1204289E+03  0.7561462E-02  0.1242391E+00
         -2   -1    0    0    0  501 -0.00000000000E+00  0.00000000000E+00  0.29474393239E+02  0.29474393239E+02  0.00000000000E+00 0. -1.
          2   -1    0    0  501    0  0.00000000000E+00 -0.00000000000E+00 -0.67395309951E+03  0.67395309951E+03  0.00000000000E+00 0.  1.
         25    2    1    2    0    0 -0.46512081118E+02  0.57947232032E+02 -0.47904138285E+03  0.50064995421E+03  0.12509386389E+03 0.  0.
         23    2    1    2    0    0  0.46512081118E+02 -0.57947232032E+02 -0.16543732342E+03  0.20277753853E+03  0.90708140552E+02 0.  0.
          5    1    3    3  502    0 -0.77585745492E+02  0.47466675394E+02 -0.20112766023E+03  0.22077690388E+03  0.41800000000E+01 0. -1.
         -5    1    3    3    0  502  0.31073664374E+02  0.10480556638E+02 -0.27791372261E+03  0.27987305033E+03  0.41800000000E+01 0. -1.
        -11    1    4    4    0    0  0.72243003187E+02 -0.28546098849E+02 -0.10093324881E+03  0.12736346408E+03  0.00000000000E+00 0. -1.
         11    1    4    4    0    0 -0.25730922069E+02 -0.29401133183E+02 -0.64504074615E+02  0.75414074448E+02  0.00000000000E+00 0.  1.
</event>
<event>
 8    1  0.6505836E-009  0.9211613E+02  0.7561462E-02  0.1297807E+00
          1   -1    0    0  501    0  0.00000000000E+00  0.00000000000E+00  0.65768367838E+02  0.65768367838E+02  0.00000000000E+00 0. -1.
         -1   -1    0    0    0  501 -0.00000000000E+00 -0.00000000000E+00 -0.28381884616E+03  0.28381884616E+03  0.00000000000E+00 0.  1.
         25    2    1    2    0    0 -0.52470268141E+02 -0.14417701800E+02 -0.20004733143E+03  0.24213074259E+03  0.12508941815E+03 0.  0.
         23    2    1    2    0    0  0.52470268141E+02  0.14417701800E+02 -0.18003146895E+02  0.10745647141E+03  0.90894338576E+02 0.  0.
          5    1    3    3  502    0 -0.49813240621E+02  0.45079031207E+02 -0.14930785425E+03  0.16377968658E+03  0.41800000000E+01 0. -1.
         -5    1    3    3    0  502 -0.26570275195E+01 -0.59496733007E+02 -0.50739477178E+02  0.78351056011E+02  0.41800000000E+01 0. -1.
        -11    1    4    4    0    0  0.12637571100E+02  0.11813992212E+02 -0.52138531580E+02  0.54933642611E+02  0.00000000000E+00 0.  1.
         11    1    4    4    0    0  0.39832697041E+02  0.26037095888E+01  0.34135384685E+02  0.52522828796E+02  0.00000000000E+00 0. -1.
</event>
<event>
 8    1  0.6505836E-009  0.1180596E+03  0.7561462E-02  0.1246333E+00
         -1   -1    0    0    0  501 -0.00000000000E+00  0.00000000000E+00  0.16537651658E+02  0.16537651658E+02  0.00000000000E+00 0.  1.
          1   -1    0    0  501    0  0.00000000000E+00 -0.00000000000E+00 -0.12819028477E+04  0.12819028477E+04  0.00000000000E+00 0. -1.
         25    2    1    2    0    0  0.44357858661E+02  0.69028399684E+02 -0.90229322953E+03  0.91461089696E+03  0.12508989242E+03 0.  0.
         23    2    1    2    0    0 -0.44357858661E+02 -0.69028399684E+02 -0.36307196650E+03  0.38382960240E+03  0.93655599009E+02 0.  0.
          5    1    3    3  502    0  0.16686290531E+02  0.80499322193E+02 -0.85168370231E+03  0.85565248456E+03  0.41800000000E+01 0. -1.
         -5    1    3    3    0  502  0.27671568130E+02 -0.11470922509E+02 -0.50609527224E+02  0.58958412392E+02  0.41800000000E+01 0. -1.
        -11    1    4    4    0    0 -0.38316144741E+02 -0.92076347851E+02 -0.27251855352E+03  0.29019397442E+03  0.00000000000E+00 0.  1.
         11    1    4    4    0    0 -0.60417139197E+01  0.23047948167E+02 -0.90553412988E+02  0.93635627972E+02  0.00000000000E+00 0. -1.
</event>
<event>
 8    1  0.6505836E-009  0.1074241E+03  0.7561462E-02  0.1265416E+00
          2   -1    0    0  501    0  0.00000000000E+00  0.00000000000E+00  0.12924348750E+04  0.12924348750E+04  0.00000000000E+00 0. -1.
         -2   -1    0    0    0  501 -0.00000000000E+00 -0.00000000000E+00 -0.10675040721E+02  0.10675040721E+02  0.00000000000E+00 0.  1.
         25    2    1    2    0    0 -0.21294915757E+02 -0.32511077957E+02  0.79308875256E+03  0.80383294064E+03  0.12508870213E+03 0.  0.
         23    2    1    2    0    0  0.21294915757E+02  0.32511077957E+02  0.48867108170E+03  0.49927697506E+03  0.94697561246E+02 0.  0.
          5    1    3    3  502    0  0.45703994012E+01 -0.68335405736E+02  0.65959677570E+03  0.66315608656E+03  0.41800000000E+01 0.  1.
         -5    1    3    3    0  502 -0.25865315159E+02  0.35824327779E+02  0.13349197686E+03  0.14067685409E+03  0.41800000000E+01 0.  1.
        -11    1    4    4    0    0  0.57746826706E+02  0.30585932712E+02  0.33679033489E+03  0.34307131175E+03  0.00000000000E+00 0.  1.
         11    1    4    4    0    0 -0.36451910949E+02  0.19251452443E+01  0.15188074681E+03  0.15620566331E+03  0.00000000000E+00 0. -1.
</event>
<event>
 8    1  0.6505836E-009  0.1226353E+03  0.7561462E-02  0.1238812E+00
          2   -1    0    0  501    0  0.00000000000E+00  0.00000000000E+00  0.25628474919E+03  0.25628474919E+03  0.00000000000E+00 0.  1.
         -2   -1    0    0    0  501 -0.00000000000E+00 -0.00000000000E+00 -0.11292803056E+03  0.11292803056E+03  0.00000000000E+00 0. -1.
         25    2    1    2    0    0  0.59526027227E+02 -0.31431144679E+02 -0.45474048926E+02  0.14915387538E+03  0.12509086554E+03 0.  0.
         23    2    1    2    0    0 -0.59526027227E+02  0.31431144679E+02  0.18883076755E+03  0.22005890437E+03  0.90761213325E+02 0.  0.
          5    1    3    3  502    0  0.60157512841E+02 -0.71754514391E+02 -0.82127954720E+01  0.94088039071E+02  0.41800000000E+01 0.  1.
         -5    1    3    3    0  502 -0.63148561391E+00  0.40323369712E+02 -0.37261253454E+02  0.55065836305E+02  0.41800000000E+01 0.  1.
        -11    1    4    4    0    0  0.21109940747E+02  0.20848715117E+02  0.70358049339E+02  0.76358061965E+02  0.00000000000E+00 0.  1.
         11    1    4    4    0    0 -0.80635967974E+02  0.10582429562E+02  0.11847271822E+03  0.14370084241E+03  0.00000000000E+00 0. -1.
</event>
<event>
 8    1  0.6505836E-009  0.9916153E+02  0.7561462E-02  0.1282069E+00
         -4   -1    0    0    0  501 -0.00000000000E+00  0.00000000000E+00  0.19382678595E+03  0.19382678595E+03  0.00000000000E+00 0.  1.
          4   -1    0    0  501    0  0.00000000000E+00 -0.00000000000E+00 -0.65655875952E+02  0.65655875952E+02  0.00000000000E+00 0. -1.
         25    2    1    2    0    0 -0.22700472180E+02  0.81602992748E+01  0.90411834249E+02  0.15622120173E+03  0.12509541229E+03 0.  0.
         23    2    1    2    0    0  0.22700472180E+02 -0.81602992748E+01  0.37759075746E+02  0.10326146017E+03  0.93033754273E+02 0.  0.
          5    1    3    3  502    0 -0.43658134624E+01 -0.45228371977E+02 -0.43538552800E+01  0.45837696437E+02  0.41800000000E+01 0. -1.
         -5    1    3    3    0  502 -0.18334658718E+02  0.53388671252E+02  0.94765689529E+02  0.11038350529E+03  0.41800000000E+01 0. -1.
        -11    1    4    4    0    0 -0.36177184534E+02 -0.87006718781E+01  0.15684350886E+02  0.40379316917E+02  0.00000000000E+00 0.  1.
         11    1    4    4    0    0  0.58877656714E+02  0.54037260334E+00  0.22074724860E+02  0.62882143255E+02  0.00000000000E+00 0. -1.
</event>
<event>
 8    1  0.6505836E-009  0.9500467E+02  0.7561462E-02  0.1291166E+00
          1   -1    0    0  501    0  0.00000000000E+00  0.00000000000E+00  0.16311525304E+03  0.16311525304E+03  0.00000000000E+00 0.  1.
         -1   -1    0    0    0  501 -0.00000000000E+00 -0.00000000000E+00 -0.12010509200E+03  0.12010509200E+03  0.00000000000E+00 0. -1.
         25    2    1    2    0    0 -0.52823239757E+02  0.13383838871E+02  0.93864119117E+02  0.16563390079E+03  0.12511872135E+03 0.  0.
         23    2    1    2    0    0  0.52823239757E+02 -0.13383838871E+02 -0.50853958079E+02  0.11758644426E+03  0.90945175900E+02 0.  0.
          5    1    3    3  502    0 -0.53252535464E+02  0.53714734488E+02  0.99111685197E+02  0.12474655818E+03  0.41800000000E+01 0.  1.
         -5    1    3    3    0  502  0.42929570689E+00 -0.40330895618E+02 -0.52475660799E+01  0.40887342612E+02  0.41800000000E+01 0.  1.
        -11    1    4    4    0    0  0.44705383284E+02  0.12630376654E+02  0.12933076861E+02  0.48222009354E+02  0.00000000000E+00 0.  1.
         11    1    4    4    0    0  0.81178564730E+01 -0.26014215525E+02 -0.63787034940E+02  0.69364434904E+02  0.00000000000E+00 0. -1.
</event>
<event>
 8    1  0.6505836E-009  0.1175935E+03  0.7561462E-02  0.1247121E+00
         -2   -1    0    0    0  501 -0.00000000000E+00  0.00000000000E+00  0.29942088008E+03  0.29942088008E+03  0.00000000000E+00 0.  1.
          2   -1    0    0  501    0  0.00000000000E+00 -0.00000000000E+00 -0.50228433358E+02  0.50228433358E+02  0.00000000000E+00 0. -1.
         25    2    1    2    0    0  0.42643954835E+02  0.42308512978E+02  0.15625037934E+03  0.20897132346E+03  0.12508523426E+03 0.  0.
         23    2    1    2    0    0 -0.42643954835E+02 -0.42308512978E+02  0.92942067378E+02  0.14067798997E+03  0.86853622953E+02 0.  0.
          5    1    3    3  502    0  0.62954764519E+02 -0.20515050083E+02  0.47198045500E+02  0.81420498369E+02  0.41800000000E+01 0.  1.
         -5    1    3    3    0  502 -0.20310809684E+02  0.62823563061E+02  0.10905233384E+03  0.12755082509E+03  0.41800000000E+01 0.  1.
        -11    1    4    4    0    0  0.24701539613E+02 -0.34740383904E+01  0.38103031468E+02  0.45542024648E+02  0.00000000000E+00 0.  1.
         11    1    4    4    0    0 -0.67345494448E+02 -0.38834474588E+02  0.54839035910E+02  0.95135965325E+02  0.00000000000E+00 0. -1.
</event>
<event>
 8    1  0.6505836E-009  0.9615353E+02  0.7561462E-02  0.1288599E+00
         -3   -1    0    0    0  501 -0.00000000000E+00  0.00000000000E+00  0.32523421394E+03  0.32523421394E+03  0.00000000000E+00 0.  1.
          3   -1    0    0  501    0  0.00000000000E+00 -0.00000000000E+00 -0.39573795462E+02  0.39573795462E+02  0.00000000000E+00 0. -1.
         25    2    1    2    0    0 -0.14997532540E+02 -0.16157848596E+02  0.12361149930E+03  0.17723883974E+03  0.12509117275E+03 0.  0.
         23    2    1    2    0    0  0.14997532540E+02  0.16157848596E+02  0.16204891918E+03  0.18756916967E+03  0.91849546257E+02 0.  0.
          5    1    3    3  502    0 -0.57428098011E+02 -0.23605599623E+02  0.11825139577E+03  0.13362662824E+03  0.41800000000E+01 0.  1.
         -5    1    3    3    0  502  0.42430565470E+02  0.74477510266E+01  0.53601035293E+01  0.43612211493E+02  0.41800000000E+01 0.  1.
        -11    1    4    4    0    0 -0.11911682385E+02 -0.30605427615E+02  0.10045296046E+03  0.10568527637E+03  0.00000000000E+00 0.  1.
         11    1    4    4    0    0  0.26909214926E+02  0.46763276212E+02  0.61595958721E+02  0.81883893292E+02  0.00000000000E+00 0. -1.
</event>
<event>
 8    1  0.6505836E-009  0.9894172E+02  0.7561462E-02  0.1282537E+00
          1   -1    0    0  501    0  0.00000000000E+00  0.00000000000E+00  0.43374030875E+03  0.43374030875E+03  0.00000000000E+00 0. -1.
         -1   -1    0    0    0  501 -0.00000000000E+00 -0.00000000000E+00 -0.43294290919E+02  0.43294290919E+02  0.00000000000E+00 0.  1.
         25    2    1    2    0    0 -0.45355699407E+02  0.62089655237E+02  0.26950339882E+03  0.30690502509E+03  0.12508536163E+03 0.  0.
         23    2    1    2    0    0  0.45355699407E+02 -0.62089655237E+02  0.12094261902E+03  0.17012957459E+03  0.91677098001E+02 0.  0.
          5    1    3    3  502    0 -0.37809799635E+02  0.69626741307E+02  0.28020961199E+03  0.29122562234E+03  0.41800000000E+01 0. -1.
         -5    1    3    3    0  502 -0.75458997722E+01 -0.75370860698E+01 -0.10706213179E+02  0.15679402745E+02  0.41800000000E+01 0. -1.
        -11    1    4    4    0    0  0.19502880936E+02  0.15749139553E+02  0.13378302835E+01  0.25103536630E+02  0.00000000000E+00 0.  1.
         11    1    4    4    0    0  0.25852818471E+02 -0.77838794790E+02  0.11960478874E+03  0.14502603796E+03  0.00000000000E+00 0. -1.
</event>
<event>
 7    1  0.6505836E-009  0.1640973E+03  0.7561462E-02  0.1184147E+00
         -2   -1    0    0    0  501 -0.00000000000E+00  0.00000000000E+00  0.73233389820E+02  0.73233389820E+02  0.00000000000E+00 0.  1.
          2   -1    0    0  501    0  0.00000000000E+00 -0.00000000000E+00 -0.57652184819E+03  0.57652184819E+03  0.00000000000E+00 0. -1.
         23    2    1    2    0    0  0.12043833634E+03  0.58150469791E+02 -0.63308968281E+02  0.17317130060E+03  0.89963347472E+02 0.  0.
          5    1    1    2  502    0 -0.14920079506E+02 -0.73756921626E+02 -0.20764843404E+03  0.22090277685E+03  0.41800000000E+01 0. -1.
         -5    1    1    2    0  502 -0.10551825683E+03  0.15606451836E+02 -0.23233105605E+03  0.25568116057E+03  0.41800000000E+01 0. -1.
        -11    1    3    3    0    0  0.26453429739E+02  0.43568214275E+02  0.11398295015E+02  0.52229248217E+02  0.00000000000E+00 0.  1.
         11    1    3    3    0    0  0.93984906598E+02  0.14582255515E+02 -0.74707263296E+02  0.12094205238E+03  0.00000000000E+00 0. -1.
</event>
<event>
 8    1  0.6505836E-009  0.8218469E+02  0.7561462E-02  0.1322963E+00
          2   -1    0    0  501    0  0.00000000000E+00  0.00000000000E+00  0.19678008269E+02  0.19678008269E+02  0.00000000000E+00 0. -1.
         -2   -1    0    0    0  501 -0.00000000000E+00 -0.00000000000E+00 -0.70998799360E+03  0.70998799360E+03  0.00000000000E+00 0.  1.
         25    2    1    2    0    0  0.53293589599E+01 -0.41447483621E+02 -0.32363745992E+03  0.34947955076E+03  0.12509378468E+03 0.  0.
         23    2    1    2    0    0 -0.53293589599E+01  0.41447483621E+02 -0.36667252541E+03  0.38018645111E+03  0.91360279961E+02 0.  0.
          5    1    3    3  502    0  0.19365657237E+02  0.13035274069E+01 -0.29566865786E+03  0.29633453310E+03  0.41800000000E+01 0.  1.
         -5    1    3    3    0  502 -0.14036298277E+02 -0.42751011028E+02 -0.27968802061E+02  0.53145017659E+02  0.41800000000E+01 0.  1.
        -11    1    4    4    0    0  0.18010696976E+02 -0.23904481591E+02 -0.85884550047E+02  0.90950345697E+02  0.00000000000E+00 0. -1.
         11    1    4    4    0    0 -0.23340055936E+02  0.65351965211E+02 -0.28078797536E+03  0.28923610541E+03  0.00000000000E+00 0.  1.
</event>
<event>
 8    1  0.6505836E-009  0.1005334E+03  0.7561462E-02  0.1279178E+00
          2   -1    0    0  501    0  0.00000000000E+00  0.00000000000E+00  0.22551081339E+04  0.22551081339E+04  0.00000000000E+00 0. -1.
         -2   -1    0    0    0  501 -0.00000000000E+00 -0.00000000000E+00 -0.11566860424E+02  0.11566860424E+02  0.00000000000E+00 0.  1.
         25    2    1    2    0    0  0.25219140823E+02 -0.74917609959E+02  0.18165375122E+04  0.18225545130E+04  0.12509103134E+03 0.  0.
         23    2    1    2    0    0 -0.25219140823E+02  0.74917609959E+02  0.42700376123E+03  0.44412048132E+03  0.93070599433E+02 0.  0.
          5    1    3    3  502    0  0.17249900724E+02 -0.63107758778E+02  0.17960841739E+04  0.17972801619E+04  0.41800000000E+01 0.  1.
         -5    1    3    3    0  502  0.79692400987E+01 -0.11809851182E+02  0.20453338291E+02  0.25274351029E+02  0.41800000000E+01 0.  1.
        -11    1    4    4    0    0 -0.16343293728E+02  0.96213316049E+02  0.31525226013E+03  0.33001226182E+03  0.00000000000E+00 0. -1.
         11    1    4    4    0    0 -0.88758470948E+01 -0.21295706089E+02  0.11175150110E+03  0.11410821950E+03  0.00000000000E+00 0.  1.
</event>
<event>
 8    1  0.6505836E-009  0.1300096E+03  0.7561462E-02  0.1227442E+00
          1   -1    0    0  501    0  0.00000000000E+00  0.00000000000E+00  0.90572546259E+02  0.90572546259E+02  0.00000000000E+00 0. -1.
         -1   -1    0    0    0  501 -0.00000000000E+00 -0.00000000000E+00 -0.25392785368E+03  0.25392785368E+03  0.00000000000E+00 0.  1.
         25    2    1    2    0    0 -0.54231371609E+02 -0.74837801149E+02 -0.33422068906E+02  0.15911460549E+03  0.12513466683E+03 0.  0.
         23    2    1    2    0    0  0.54231371609E+02  0.74837801149E+02 -0.12993323852E+03  0.18538579445E+03  0.94570123006E+02 0.  0.
          5    1    3    3  502    0  0.13996573936E+02 -0.56863578539E+02  0.28395055470E+02  0.65215966000E+02  0.41800000000E+01 0.  1.
         -5    1    3    3    0  502 -0.68227945545E+02 -0.17974222611E+02 -0.61817124376E+02  0.93898639489E+02  0.41800000000E+01 0.  1.
        -11    1    4    4    0    0 -0.24363911425E+01 -0.20001998892E+02 -0.10619005589E+02  0.22776725866E+02  0.00000000000E+00 0. -1.
         11    1    4    4    0    0  0.56667762752E+02  0.94839800041E+02 -0.11931423293E+03  0.16260906859E+03  0.00000000000E+00 0.  1.
</event>
<event>
 8    1  0.6505836E-009  0.1162294E+03  0.7561462E-02  0.1249450E+00
          1   -1    0    0  501    0  0.00000000000E+00  0.00000000000E+00  0.74567401456E+03  0.74567401456E+03  0.00000000000E+00 0. -1.
         -1   -1    0    0    0  501 -0.00000000000E+00 -0.00000000000E+00 -0.20649273852E+02  0.20649273852E+02  0.00000000000E+00 0.  1.
         25    2    1    2    0    0  0.54782398987E+02 -0.18209676162E+02  0.35171715219E+03  0.37773827504E+03  0.12509414752E+03 0.  0.
         23    2    1    2    0    0 -0.54782398987E+02  0.18209676162E+02  0.37330758852E+03  0.38858501337E+03  0.91143038264E+02 0.  0.
          5    1    3    3  502    0 -0.25251029796E+02 -0.38642313955E+02  0.19615666184E+03  0.20155830749E+03  0.41800000000E+01 0.  1.
         -5    1    3    3    0  502  0.80033428783E+02  0.20432637793E+02  0.15556049035E+03  0.17617996755E+03  0.41800000000E+01 0.  1.
        -11    1    4    4    0    0 -0.28576968266E+02  0.52781646386E+02  0.15947016890E+03  0.17039154932E+03  0.00000000000E+00 0.  1.
         11    1    4    4    0    0 -0.26205430721E+02 -0.34571970224E+02  0.21383741961E+03  0.21819346405E+03  0.00000000000E+00 0. -1.
</event>
<event>
 8    1  0.6505836E-009  0.1639918E+03  0.7561462E-02  0.1184262E+00
         -1   -1    0    0    0  501 -0.00000000000E+00  0.00000000000E+00  0.49770821241E+02  0.49770821241E+02  0.00000000000E+00 0.  1.
          1   -1    0    0  501    0  0.00000000000E+00 -0.00000000000E+00 -0.69999617861E+03  0.69999617861E+03  0.00000000000E+00 0. -1.
         25    2    1    2    0    0  0.60857084816E+02 -0.13804197780E+03 -0.30833132388E+03  0.36534127836E+03  0.12508745733E+03 0.  0.
         23    2    1    2    0    0 -0.60857084816E+02  0.13804197780E+03 -0.34189403349E+03  0.38442572149E+03  0.90180002218E+02 0.  0.
          5    1    3    3  502    0  0.34193909335E+02 -0.13783835188E+03 -0.15749911032E+03  0.21211335846E+03  0.41800000000E+01 0. -1.
         -5    1    3    3    0  502  0.26663175480E+02 -0.20362592078E+00 -0.15083221356E+03  0.15322791990E+03  0.41800000000E+01 0. -1.
        -11    1    4    4    0    0 -0.20511776449E+02  0.67947350619E+01 -0.73897446204E+01  0.22836587381E+02  0.00000000000E+00 0.  1.
         11    1    4    4    0    0 -0.40345308366E+02  0.13124724274E+03 -0.33450428887E+03  0.36158913411E+03  0.00000000000E+00 0. -1.
</event>
<event>
 8    1  0.6505836E-009  0.3234063E+03  0.7561462E-02  0.1074092E+00
         -2   -1    0    0    0  501 -0.00000000000E+00  0.00000000000E+00  0.88476412709E+02  0.88476412709E+02  0.00000000000E+00 0.  1.
          2   -1    0    0  501    0  0.00000000000E+00 -0.00000000000E+00 -0.13124896121E+04  0.13124896121E+04  0.00000000000E+00 0. -1.
         25    2    1    2    0    0  0.11143058080E+03  0.30256144437E+03 -0.64260962580E+03  0.72976445716E+03  0.12509528289E+03 0.  0.
         23    2    1    2    0    0 -0.11143058080E+03 -0.30256144437E+03 -0.58140357363E+03  0.67120156769E+03  0.92310492824E+02 0.  0.
          5    1    3    3  502    0  0.61121797500E+02  0.20212267480E+03 -0.28384212651E+03  0.35379835356E+03  0.41800000000E+01 0.  1.
         -5    1    3    3    0  502  0.50308783298E+02  0.10043876957E+03 -0.35876749929E+03  0.37596610360E+03  0.41800000000E+01 0.  1.
        -11    1    4    4    0    0 -0.41466007918E+02 -0.83407749702E+02 -0.94516178478E+02  0.13270113231E+03  0.00000000000E+00 0. -1.
         11    1    4    4    0    0 -0.69964572879E+02 -0.21915369467E+03 -0.48688739515E+03  0.53850043538E+03  0.00000000000E+00 0.  1.
</event>
<event>
 8    1  0.7037747E-009  0.8966114E+02  0.7561462E-02  0.1303674E+00
          1   -1    0    0  501    0  0.00000000000E+00  0.00000000000E+00  0.42374628658E+03  0.42374628658E+03  0.00000000000E+00 0. -1.
         -1   -1    0    0    0  501 -0.00000000000E+00 -0.00000000000E+00 -0.23303582380E+02  0.23303582380E+02  0.00000000000E+00 0.  1.
         25    2    1    2    0    0 -0.22671240938E+00 -0.25602399727E+02  0.29577409701E+03  0.32215669093E+03  0.12508829993E+03 0.  0.
         23    2    1    2    0    0  0.22671240938E+00  0.25602399727E+02  0.10466860719E+03  0.12489317803E+03  0.63144709331E+02 0.  0.
          5    1    3    3  502    0  0.60173384627E+01  0.43075800156E+02  0.19591054260E+03  0.20072405442E+03  0.41800000000E+01 0. -1.
         -5    1    3    3    0  502 -0.62440508721E+01 -0.68678199883E+02  0.99863554407E+02  0.12143263651E+03  0.41800000000E+01 0. -1.
        -11    1    4    4    0    0 -0.15816870494E+02  0.41219691511E+02  0.55914123951E+02  0.71243425084E+02  0.00000000000E+00 0.  1.
         11    1    4    4    0    0  0.16043582904E+02 -0.15617291784E+02  0.48754483238E+02  0.53649752943E+02  0.00000000000E+00 0. -1.
</event>
<event>
 8    1  0.6505836E-009  0.2353860E+03  0.7561462E-02  0.1122905E+00
          1   -1    0    0  501    0  0.00000000000E+00  0.00000000000E+00  0.15074109523E+04  0.15074109523E+04  0.00000000000E+00 0.  1.
         -1   -1    0    0    0  501 -0.00000000000E+00 -0.00000000000E+00 -0.39551486286E+02  0.39551486286E+02  0.00000000000E+00 0. -1.
         25    2    1    2    0    0 -0.83978767161E+00  0.21441345071E+03  0.88931498337E+03  0.92331087818E+03  0.12509198632E+03 0.  0.
         23    2    1    2    0    0  0.83978767161E+00 -0.21441345071E+03  0.57854448270E+03  0.62365156045E+03  0.90849971423E+02 0.  0.
          5    1    3    3  502    0  0.61643233788E+02  0.94569296974E+02  0.39512389960E+03  0.41095450921E+03  0.41800000000E+01 0.  1.
         -5    1    3    3    0  502 -0.62483021460E+02  0.11984415374E+03  0.49419108376E+03  0.51235636897E+03  0.41800000000E+01 0.  1.
        -11    1    4    4    0    0 -0.27995431439E+02 -0.14026502253E+03  0.45279145524E+03  0.47484536711E+03  0.00000000000E+00 0. -1.
         11    1    4    4    0    0  0.28835219110E+02 -0.74148428184E+02  0.12575302746E+03  0.14880619335E+03  0.00000000000E+00 0.  1.
</event>
<event>
 8    1  0.6505836E-009  0.3021753E+03  0.7561462E-02  0.1084158E+00
         -1   -1    0    0    0  501 -0.00000000000E+00  0.00000000000E+00  0.49349551290E+03  0.49349551290E+03  0.00000000000E+00 0.  1.
          1   -1    0    0  501    0  0.00000000000E+00 -0.00000000000E+00 -0.20732482762E+03  0.20732482762E+03  0.00000000000E+00 0. -1.
         25    2    1    2    0    0  0.27150126997E+03 -0.82304878091E+02  0.25108864955E+03  0.39897421909E+03  0.12509150656E+03 0.  0.
         23    2    1    2    0    0 -0.27150126997E+03  0.82304878091E+02  0.35082035732E+02  0.30184612143E+03  0.96919034454E+02 0.  0.
          5    1    3    3  502    0  0.89617158911E+02  0.30429352401E+02  0.94240377420E+02  0.13362597725E+03  0.41800000000E+01 0.  1.
         -5    1    3    3    0  502  0.18188411106E+03 -0.11273423049E+03  0.15684827213E+03  0.26534824185E+03  0.41800000000E+01 0.  1.
        -11    1    4    4    0    0 -0.17453539296E+03  0.93457597348E+02 -0.42666268689E+00  0.19798259504E+03  0.00000000000E+00 0. -1.
         11    1    4    4    0    0 -0.96965877013E+02 -0.11152719257E+02  0.35508698419E+02  0.10386352639E+03  0.00000000000E+00 0.  1.
</event>
<event>
 8    1  0.6505836E-009  0.1078507E+03  0.7561462E-02  0.1264603E+00
          3   -1    0    0  501    0  0.00000000000E+00  0.00000000000E+00  0.38813333085E+03  0.38813333085E+03  0.00000000000E+00 0. -1.
         -3   -1    0    0    0  501 -0.00000000000E+00 -0.00000000000E+00 -0.43165054258E+02  0.43165054258E+02  0.00000000000E+00 0.  1.
         25    2    1    2    0    0  0.43412113096E+02 -0.56453607892E+02  0.19844740447E+03  0.24515431716E+03  0.12509054908E+03 0.  0.
         23    2    1    2    0    0 -0.43412113096E+02  0.56453607892E+02  0.14652087211E+03  0.18614406795E+03  0.90053465565E+02 0.  0.
          5    1    3    3  502    0 -0.88047523866E+01 -0.60918163291E+02  0.29821074728E+02  0.68522369933E+02  0.41800000000E+01 0. -1.
         -5    1    3    3    0  502  0.52216865482E+02  0.44645553993E+01  0.16862632975E+03  0.17663194722E+03  0.41800000000E+01 0. -1.
        -11    1    4    4    0    0  0.18645825025E+02  0.26819716257E+02  0.94290302685E+02  0.99787900827E+02  0.00000000000E+00 0. -1.
         11    1    4    4    0    0 -0.62057938121E+02  0.29633891635E+02  0.52230569430E+02  0.86356167123E+02  0.00000000000E+00 0.  1.
</event>
<event>
 8    1  0.6505836E-009  0.1444882E+03  0.7561462E-02  0.1207414E+00
          1   -1    0    0  501    0  0.00000000000E+00  0.00000000000E+00  0.83900613274E+03  0.83900613274E+03  0.00000000000E+00 0. -1.
         -1   -1    0    0    0  501 -0.00000000000E+00 -0.00000000000E+00 -0.41270348482E+02  0.41270348482E+02  0.00000000000E+00 0.  1.
         25    2    1    2    0    0 -0.98123030081E+02  0.59061581374E+02  0.65271431323E+03  0.67438747019E+03  0.12508431487E+03 0.  0.
         23    2    1    2    0    0  0.98123030081E+02 -0.59061581374E+02  0.14502147103E+03  0.20588901103E+03  0.90789087327E+02 0.  0.
          5    1    3    3  502    0 -0.57295814498E+01  0.74165765691E+02  0.33231072397E+03  0.34056024221E+03  0.41800000000E+01 0. -1.
         -5    1    3    3    0  502 -0.92393448632E+02 -0.15104184317E+02  0.32040358926E+03  0.33382722798E+03  0.41800000000E+01 0. -1.
        -11    1    4    4    0    0  0.31501170639E+02 -0.41053110166E+02  0.78543271793E+01  0.52339010894E+02  0.00000000000E+00 0.  1.
         11    1    4    4    0    0  0.66621859443E+02 -0.18008471208E+02  0.13716714385E+03  0.15355000014E+03  0.00000000000E+00 0. -1.
</event>
<event>
 8    1  0.6505836E-009  0.9960522E+02  0.7561462E-02  0.1281128E+00
          2   -1    0    0  501    0  0.00000000000E+00  0.00000000000E+00  0.12651509221E+03  0.12651509221E+03  0.00000000000E+00 0. -1.
         -2   -1    0    0    0  501 -0.00000000000E+00 -0.00000000000E+00 -0.13203561257E+03  0.13203561257E+03  0.00000000000E+00 0.  1.
         25    2    1    2    0    0  0.44694187462E+02 -0.47816583052E+02  0.18396609676E+02  0.14237065693E+03  0.12508785992E+03 0.  0.
         23    2    1    2    0    0 -0.44694187462E+02  0.47816583052E+02 -0.23917130032E+02  0.11618004785E+03  0.92961166098E+02 0.  0.
          5    1    3    3  502    0  0.53286208211E+02  0.86787951083E+01  0.52723174221E+02  0.75577423680E+02  0.41800000000E+01 0. -1.
         -5    1    3    3    0  502 -0.85920207491E+01 -0.56495378160E+02 -0.34326564545E+02  0.66793233246E+02  0.41800000000E+01 0. -1.
        -11    1    4    4    0    0 -0.58659675387E+02  0.43871913034E+02 -0.48345239190E+02  0.87766533611E+02  0.00000000000E+00 0.  1.
         11    1    4    4    0    0  0.13965487925E+02  0.39446700185E+01  0.24428109158E+02  0.28413514242E+02  0.00000000000E+00 0. -1.
</event>
<event>
 8    1  0.6505836E-009  0.1083455E+03  0.7561462E-02  0.1263665E+00
         -2   -1    0    0    0  501 -0.00000000000E+00  0.00000000000E+00  0.59988948345E+02  0.59988948345E+02  0.00000000000E+00 0.  1.
          2   -1    0    0  501    0  0.00000000000E+00 -0.00000000000E+00 -0.21638892512E+03  0.21638892512E+03  0.00000000000E+00 0. -1.
         25    2    1    2    0    0  0.23683343205E+02  0.61355636627E+01 -0.12903978836E+03  0.18137927967E+03  0.12509448520E+03 0.  0.
         23    2    1    2    0    0 -0.23683343205E+02 -0.61355636627E+01 -0.27360188418E+02  0.94998593797E+02  0.87621955161E+02 0.  0.
          5    1    3    3  502    0  0.11265968880E+02  0.64858543264E+02 -0.54343870245E+02  0.85465088325E+02  0.41800000000E+01 0. -1.
         -5    1    3    3    0  502  0.12417374325E+02 -0.58722979602E+02 -0.74695918117E+02  0.95914191347E+02  0.41800000000E+01 0. -1.
        -11    1    4    4    0    0  0.26107965623E+02  0.21315813663E+02 -0.14578984955E+02  0.36722426165E+02  0.00000000000E+00 0. -1.
         11    1    4    4    0    0 -0.49791308828E+02 -0.27451377326E+02 -0.12781203463E+02  0.58276167632E+02  0.00000000000E+00 0.  1.
</event>
<event>
 8    1  0.6505836E-009  0.2427837E+03  0.7561462E-02  0.1117952E+00
          2   -1    0    0  501    0  0.00000000000E+00  0.00000000000E+00  0.84249728303E+03  0.84249728303E+03  0.00000000000E+00 0. -1.
         -2   -1    0    0    0  501 -0.00000000000E+00 -0.00000000000E+00 -0.99552610208E+02  0.99552610208E+02  0.00000000000E+00 0.  1.
         25    2    1    2    0    0 -0.23645217349E+03  0.76338598829E+00  0.58513849234E+03  0.64338474938E+03  0.12508663963E+03 0.  0.
         23    2    1    2    0    0  0.23645217349E+03 -0.76338598829E+00  0.15780618048E+03  0.29866514385E+03  0.91585285104E+02 0.  0.
          5    1    3    3  502    0 -0.16955508401E+03 -0.28118137187E+02  0.51185871123E+03  0.53995959924E+03  0.41800000000E+01 0.  1.
         -5    1    3    3    0  502 -0.66897089484E+02  0.28881523176E+02  0.73279781115E+02  0.10342515015E+03  0.41800000000E+01 0.  1.
        -11    1    4    4    0    0  0.19791134242E+03 -0.17415747730E+02  0.88192683620E+02  0.21737101272E+03  0.00000000000E+00 0.  1.
         11    1    4    4    0    0  0.38540831071E+02  0.16652361742E+02  0.69613496859E+02  0.81294131130E+02  0.00000000000E+00 0. -1.
</event>
<event>
 8    1  0.6505836E-009  0.1855773E+03  0.7561462E-02  0.1162512E+00
          1   -1    0    0  501    0  0.00000000000E+00  0.00000000000E+00  0.92108937807E+03  0.92108937807E+03  0.00000000000E+00 0. -1.
         -1   -1    0    0    0  501 -0.00000000000E+00 -0.00000000000E+00 -0.86412794030E+02  0.86412794030E+02  0.00000000000E+00 0.  1.
         25    2    1    2    0    0 -0.29153548199E+02  0.16657914505E+03  0.73930429443E+02  0.22296329753E+03  0.12509349587E+03 0.  0.
         23    2    1    2    0    0  0.29153548199E+02 -0.16657914505E+03  0.76074615460E+03  0.78453887458E+03  0.90376949767E+02 0.  0.
          5    1    3    3  502    0 -0.43141839505E+02  0.28995371699E+02 -0.19872651794E+02  0.55806313130E+02  0.41800000000E+01 0.  1.
         -5    1    3    3    0  502  0.13988291306E+02  0.13758377335E+03  0.93803081238E+02  0.16715698439E+03  0.41800000000E+01 0.  1.
        -11    1    4    4    0    0  0.33657831119E+02 -0.33476260831E+02  0.10255408943E+03  0.11300818949E+03  0.00000000000E+00 0.  1.
         11    1    4    4    0    0 -0.45042829203E+01 -0.13310288422E+03  0.65819206517E+03  0.67153068508E+03  0.00000000000E+00 0. -1.
</event>
<event>
 8    1  0.6505836E-009  0.1190987E+03  0.7561462E-02  0.1244591E+00
          2   -1    0    0  501    0  0.00000000000E+00  0.00000000000E+00  0.37394794179E+03  0.37394794179E+03  0.00000000000E+00 0.  1.
         -2   -1    0    0    0  501 -0.00000000000E+00 -0.00000000000E+00 -0.59980144038E+02  0.59980144038E+02  0.00000000000E+00 0. -1.
         25    2    1    2    0    0  0.77976748119E+02  0.50015272148E+02  0.10470882991E+03  0.18759910211E+03  0.12509030081E+03 0.  0.
         23    2    1    2    0    0 -0.77976748119E+02 -0.50015272148E+02  0.20925896785E+03  0.24632898372E+03  0.91141384128E+02 0.  0.
          5    1    3    3  502    0  0.66251276843E+02  0.63451443803E+02  0.12827184265E+03  0.15775441490E+03  0.41800000000E+01 0.  1.
         -5    1    3    3    0  502  0.11725471276E+02 -0.13436171656E+02 -0.23563012740E+02  0.29844687212E+02  0.41800000000E+01 0.  1.
        -11    1    4    4    0    0 -0.56893459235E+02 -0.75779437037E+02  0.13487764297E+03  0.16483739671E+03  0.00000000000E+00 0. -1.
         11    1    4    4    0    0 -0.21083288885E+02  0.25764164890E+02  0.74381324881E+02  0.81491587012E+02  0.00000000000E+00 0.  1.
</event>
<event>
 8    1  0.6505836E-009  0.1277651E+03  0.7561462E-02  0.1230810E+00
         -2   -1    0    0    0  501 -0.00000000000E+00  0.00000000000E+00  0.31441207896E+03  0.31441207896E+03  0.00000000000E+00 0.  1.
          2   -1    0    0  501    0  0.00000000000E+00 -0.00000000000E+00 -0.10027437488E+03  0.10027437488E+03  0.00000000000E+00 0. -1.
         25    2    1    2    0    0 -0.68953729147E+02  0.86268957853E+02  0.12181583101E+02  0.16731229729E+03  0.12509222200E+03 0.  0.
         23    2    1    2    0    0  0.68953729147E+02 -0.86268957853E+02  0.20195612098E+03  0.24737415655E+03  0.90613181567E+02 0.  0.
          5    1    3    3  502    0 -0.79197940372E+02  0.91807296735E+02  0.47195949196E+02  0.13017612497E+03  0.41800000000E+01 0. -1.
         -5    1    3    3    0  502  0.10244211225E+02 -0.55383388822E+01 -0.35014366095E+02  0.37136172316E+02  0.41800000000E+01 0. -1.
        -11    1    4    4    0    0  0.65530104743E+02 -0.42876652993E+02  0.59312741489E+02  0.98237484203E+02  0.00000000000E+00 0. -1.
         11    1    4    4    0    0  0.34236244035E+01 -0.43392304860E+02  0.14264337949E+03  0.14913667235E+03  0.00000000000E+00 0.  1.
</event>
<event>
 8    1  0.6505836E-009  0.9988934E+02  0.7561462E-02  0.1280529E+00
         -1   -1    0    0    0  501 -0.00000000000E+00  0.00000000000E+00  0.12707833813E+03  0.12707833813E+03  0.00000000000E+00 0.  1.
          1   -1    0    0  501    0  0.00000000000E+00 -0.00000000000E+00 -0.14903591531E+03  0.14903591531E+03  0.00000000000E+00 0. -1.
         25    2    1    2    0    0  0.60231223439E+02 -0.82941360351E+01 -0.72761043032E+02  0.15696798789E+03  0.12509271310E+03 0.  0.
         23    2    1    2    0    0 -0.60231223439E+02  0.82941360351E+01  0.50803465848E+02  0.11914626555E+03  0.88984535072E+02 0.  0.
          5    1    3    3  502    0 -0.11824307748E+02 -0.40860900062E+02 -0.64469575787E+02  0.77351315501E+02  0.41800000000E+01 0.  1.
         -5    1    3    3    0  502  0.72055531187E+02  0.32566764027E+02 -0.82914672446E+01  0.79616672393E+02  0.41800000000E+01 0.  1.
        -11    1    4    4    0    0 -0.43626342227E+02  0.28187270967E+02  0.69808398376E+02  0.87011450192E+02  0.00000000000E+00 0.  1.
         11    1    4    4    0    0 -0.16604881212E+02 -0.19893134932E+02 -0.19004932528E+02  0.32134815355E+02  0.00000000000E+00 0. -1.
</event>
<event>
 8    1  0.6505836E-009  0.1954020E+03  0.7561462E-02  0.1153677E+00
          3   -1    0    0  501    0  0.00000000000E+00  0.00000000000E+00  0.98821334100E+02  0.98821334100E+02  0.00000000000E+00 0. -1.
         -3   -1    0    0    0  501 -0.00000000000E+00 -0.00000000000E+00 -0.45694170226E+03  0.45694170226E+03  0.00000000000E+00 0.  1.
         25    2    1    2    0    0 -0.82040071642E+02 -0.15703611942E+03 -0.23346576240E+03  0.31866146334E+03  0.12509176570E+03 0.  0.
         23    2    1    2    0    0  0.82040071642E+02  0.15703611942E+03 -0.12465460575E+03  0.23710157302E+03  0.96371515681E+02 0.  0.
          5    1    3    3  502    0 -0.27521967031E+01  0.19334776478E+02 -0.77822429615E+01  0.21434641906E+02  0.41800000000E+01 0. -1.
         -5    1    3    3    0  502 -0.79287874939E+02 -0.17637089590E+03 -0.22568351944E+03  0.29722682143E+03  0.41800000000E+01 0. -1.
        -11    1    4    4    0    0  0.12901180947E+02  0.32598936608E+02  0.14585515037E+02  0.37971942098E+02  0.00000000000E+00 0. -1.
         11    1    4    4    0    0  0.69138890695E+02  0.12443718281E+03 -0.13924012079E+03  0.19912963092E+03  0.00000000000E+00 0.  1.
</event>
<event>
 8    1  0.6505836E-009  0.8380548E+02  0.7561462E-02  0.1318586E+00
          1   -1    0    0  501    0  0.00000000000E+00  0.00000000000E+00  0.24216297021E+03  0.24216297021E+03  0.00000000000E+00 0. -1.
         -1   -1    0    0    0  501 -0.00000000000E+00 -0.00000000000E+00 -0.65655665100E+02  0.65655665100E+02  0.00000000000E+00 0.  1.
         25    2    1    2    0    0  0.92480388636E+01 -0.53686406327E+02  0.47493480520E+02  0.14446670903E+03  0.12508893988E+03 0.  0.
         23    2    1    2    0    0 -0.92480388636E+01  0.53686406327E+02  0.12901382459E+03  0.16335192628E+03  0.84092380368E+02 0.  0.
          5    1    3    3  502    0 -0.78989905672E+01  0.26738083820E+02  0.54982159331E+02  0.61788586511E+02  0.41800000000E+01 0. -1.
         -5    1    3    3    0  502  0.17147029431E+02 -0.80424490147E+02 -0.74886788105E+01  0.82678122523E+02  0.41800000000E+01 0. -1.
        -11    1    4    4    0    0  0.30300174165E+01  0.32131831093E+02  0.30643741978E+00  0.32275834285E+02  0.00000000000E+00 0.  1.
         11    1    4    4    0    0 -0.12278056280E+02  0.21554575234E+02  0.12870738717E+03  0.13107609199E+03  0.00000000000E+00 0. -1.
</event>
<event>
 8    1  0.6505836E-009  0.1261526E+03  0.7561462E-02  0.1233279E+00
         -2   -1    0    0    0  501 -0.00000000000E+00  0.00000000000E+00  0.36132767728E+02  0.36132767728E+02  0.00000000000E+00 0.  1.
          2   -1    0    0  501    0  0.00000000000E+00 -0.00000000000E+00 -0.53818595753E+03  0.53818595753E+03  0.00000000000E+00 0. -1.
         25    2    1    2    0    0 -0.22135168343E+00  0.79337794863E+02 -0.35097128215E+03  0.38095024200E+03  0.12509081218E+03 0.  0.
         23    2    1    2    0    0  0.22135168343E+00 -0.79337794863E+02 -0.15108190765E+03  0.19336848326E+03  0.90945548591E+02 0.  0.
          5    1    3    3  502    0  0.37066498930E+02 -0.76036324632E+01 -0.37295738122E+02  0.53293386566E+02  0.41800000000E+01 0. -1.
         -5    1    3    3    0  502 -0.37287850614E+02  0.86941427327E+02 -0.31367554403E+03  0.32765685543E+03  0.41800000000E+01 0. -1.
        -11    1    4    4    0    0 -0.43755165270E+02 -0.51140130180E+02 -0.71703965495E+02  0.98342697087E+02  0.00000000000E+00 0. -1.
         11    1    4    4    0    0  0.43976516953E+02 -0.28197664683E+02 -0.79377942155E+02  0.95025786172E+02  0.00000000000E+00 0.  1.
</event>
<event>
 8    1  0.6505836E-009  0.1369135E+03  0.7561462E-02  0.1217543E+00
          2   -1    0    0  501    0  0.00000000000E+00  0.00000000000E+00  0.63507850381E+02  0.63507850381E+02  0.00000000000E+00 0. -1.
         -2   -1    0    0    0  501 -0.00000000000E+00 -0.00000000000E+00 -0.49904493093E+03  0.49904493093E+03  0.00000000000E+00 0.  1.
         25    2    1    2    0    0  0.82507314876E+02  0.39692438504E+02 -0.61575312651E+02  0.16681020119E+03  0.12510466583E+03 0.  0.
         23    2    1    2    0    0 -0.82507314876E+02 -0.39692438504E+02 -0.37396176789E+03  0.39574258011E+03  0.91552384921E+02 0.  0.
          5    1    3    3  502    0  0.16885962938E+02 -0.40658465878E+02 -0.42326222395E+02  0.61214606869E+02  0.41800000000E+01 0.  1.
         -5    1    3    3    0  502  0.65621351938E+02  0.80350904382E+02 -0.19249090255E+02  0.10559559432E+03  0.41800000000E+01 0.  1.
        -11    1    4    4    0    0 -0.13576463971E+02  0.26774930084E+02 -0.54293081694E+02  0.62039954664E+02  0.00000000000E+00 0. -1.
         11    1    4    4    0    0 -0.68930850905E+02 -0.66467368588E+02 -0.31966868620E+03  0.33370262545E+03  0.00000000000E+00 0.  1.
</event>
<event>
 8    1  0.6505836E-009  0.9792360E+02  0.7561462E-02  0.1284724E+00
         -1   -1    0    0    0  501 -0.00000000000E+00  0.00000000000E+00  0.34903712002E+02  0.34903712002E+02  0.00000000000E+00 0. -1.
          1   -1    0    0  501    0  0.00000000000E+00 -0.00000000000E+00 -0.48056611699E+03  0.48056611699E+03  0.00000000000E+00 0.  1.
         25    2    1    2    0    0 -0.17680007538E+02 -0.45408676244E+02 -0.34913649714E+03  0.37405673294E+03  0.12509042842E+03 0.  0.
         23    2    1    2    0    0  0.17680007538E+02  0.45408676244E+02 -0.96525907846E+02  0.14141309605E+03  0.91136613405E+02 0.  0.
          5    1    3    3  502    0  0.15802634446E+02  0.30865804332E+02 -0.36634186564E+02  0.50615779730E+02  0.41800000000E+01 0.  1.
         -5    1    3    3    0  502 -0.33482641983E+02 -0.76274480576E+02 -0.31250231058E+03  0.32344095321E+03  0.41800000000E+01 0.  1.
        -11    1    4    4    0    0 -0.16905086173E+02  0.38775007813E+02 -0.97397871299E+02  0.10618676237E+03  0.00000000000E+00 0.  1.
         11    1    4    4    0    0  0.34585093711E+02  0.66336684312E+01  0.87196345307E+00  0.35226333674E+02  0.00000000000E+00 0. -1.
</event>
<event>
 8    1  0.6505836E-009  0.1122170E+03  0.7561462E-02  0.1256519E+00
          1   -1    0    0  501    0  0.00000000000E+00  0.00000000000E+00  0.13495610673E+03  0.13495610673E+03  0.00000000000E+00 0. -1.
         -1   -1    0    0    0  501 -0.00000000000E+00 -0.00000000000E+00 -0.14965723867E+03  0.14965723867E+03  0.00000000000E+00 0.  1.
         25    2    1    2    0    0  0.61225922897E+02  0.58513851409E+02  0.29541722145E+02  0.15392091377E+03  0.12508577021E+03 0.  0.
         23    2    1    2    0    0 -0.61225922897E+02 -0.58513851409E+02 -0.44242854086E+02  0.13069243163E+03  0.89166120838E+02 0.  0.
          5    1    3    3  502    0  0.89181367652E+02  0.64802386147E+02 -0.30020784635E+01  0.11035918839E+03  0.41800000000E+01 0. -1.
         -5    1    3    3    0  502 -0.27955444755E+02 -0.62885347380E+01  0.32543800608E+02  0.43561725386E+02  0.41800000000E+01 0. -1.
        -11    1    4    4    0    0 -0.14419344303E+02 -0.19328600877E+02  0.27446066136E+02  0.36534899046E+02  0.00000000000E+00 0. -1.
         11    1    4    4    0    0 -0.46806578593E+02 -0.39185250533E+02 -0.71688920222E+02  0.94157532580E+02  0.00000000000E+00 0.  1.
</event>
<event>
 8    1  0.6505836E-009  0.1153727E+03  0.7561462E-02  0.1250932E+00
         -2   -1    0    0    0  501 -0.00000000000E+00  0.00000000000E+00  0.12265207543E+03  0.12265207543E+03  0.00000000000E+00 0.  1.
          2   -1    0    0  501    0  0.00000000000E+00 -0.00000000000E+00 -0.29177489823E+03  0.29177489823E+03  0.00000000000E+00 0. -1.
         25    2    1    2    0    0  0.87894481144E+02  0.31949973451E+02  0.45791058110E+02  0.16275542011E+03  0.12508503169E+03 0.  0.
         23    2    1    2    0    0 -0.87894481144E+02 -0.31949973451E+02 -0.21491388091E+03  0.25167155355E+03  0.91675264053E+02 0.  0.
          5    1    3    3  502    0  0.35927846192E+02 -0.18377928739E+02 -0.35461430309E+02  0.53884541720E+02  0.41800000000E+01 0.  1.
         -5    1    3    3    0  502  0.51966634952E+02  0.50327902190E+02  0.81252488419E+02  0.10887087839E+03  0.41800000000E+01 0.  1.
        -11    1    4    4    0    0  0.10179507969E+02 -0.15083747765E+02 -0.90717911896E+02  0.92525031034E+02  0.00000000000E+00 0. -1.
         11    1    4    4    0    0 -0.98073989113E+02 -0.16866225686E+02 -0.12419596901E+03  0.15914652252E+03  0.00000000000E+00 0.  1.
</event>
<event>
 8    1  0.6505836E-009  0.1740074E+03  0.7561462E-02  0.1173732E+00
         -2   -1    0    0    0  501 -0.00000000000E+00  0.00000000000E+00  0.48910096893E+02  0.48910096893E+02  0.00000000000E+00 0.  1.
          2   -1    0    0  501    0  0.00000000000E+00 -0.00000000000E+00 -0.78616319808E+03  0.78616319808E+03  0.00000000000E+00 0. -1.
         25    2    1    2    0    0 -0.28600801663E+00 -0.16188059898E+03 -0.35597418144E+03  0.41057327522E+03  0.12508951335E+03 0.  0.
         23    2    1    2    0    0  0.28600801663E+00  0.16188059898E+03 -0.38127891974E+03  0.42450001975E+03  0.92850643497E+02 0.  0.
          5    1    3    3  502    0  0.16156679858E+02  0.56517884566E+01 -0.95703356159E+00  0.17645660374E+02  0.41800000000E+01 0. -1.
         -5    1    3    3    0  502 -0.16442687875E+02 -0.16753238743E+03 -0.35501714788E+03  0.39292761485E+03  0.41800000000E+01 0. -1.
        -11    1    4    4    0    0 -0.29027364548E+01  0.53808404319E+02 -0.41737302259E+02  0.68159905033E+02  0.00000000000E+00 0.  1.
         11    1    4    4    0    0  0.31887444714E+01  0.10807219466E+03 -0.33954161748E+03  0.35634011471E+03  0.00000000000E+00 0. -1.
</event>
<event>
 8    1  0.6505836E-009  0.1064540E+03  0.7561462E-02  0.1267281E+00
          1   -1    0    0  501    0  0.00000000000E+00  0.00000000000E+00  0.61826473224E+02  0.61826473224E+02  0.00000000000E+00 0. -1.
         -1   -1    0    0    0  501 -0.00000000000E+00 -0.00000000000E+00 -0.19877042034E+03  0.19877042034E+03  0.00000000000E+00 0.  1.
         25    2    1    2    0    0  0.25635988899E+02 -0.29097637274E+00 -0.79668801447E+02  0.15050581982E+03  0.12509034848E+03 0.  0.
         23    2    1    2    0    0 -0.25635988899E+02  0.29097637274E+00 -0.57275145670E+02  0.11009107374E+03  0.90456141923E+02 0.  0.
          5    1    3    3  502    0  0.48181254258E+02 -0.49380283810E+02 -0.24901532774E+02  0.73467029513E+02  0.41800000000E+01 0. -1.
         -5    1    3    3    0  502 -0.22545265359E+02  0.49089307437E+02 -0.54767268674E+02  0.77038790312E+02  0.41800000000E+01 0. -1.
        -11    1    4    4    0    0 -0.41780451353E+02  0.32928749940E+02 -0.49902966936E+02  0.72939802556E+02  0.00000000000E+00 0. -1.
         11    1    4    4    0    0  0.16144462454E+02 -0.32637773567E+02 -0.73721787341E+01  0.37151271184E+02  0.00000000000E+00 0.  1.
</event>
<event>
 8    1  0.6505836E-009  0.1455381E+03  0.7561462E-02  0.1206065E+00
         -1   -1    0    0    0  501 -0.00000000000E+00  0.00000000000E+00  0.33966699295E+02  0.33966699295E+02  0.00000000000E+00 0.  1.
          1   -1    0    0  501    0  0.00000000000E+00 -0.00000000000E+00 -0.67443062456E+03  0.67443062456E+03  0.00000000000E+00 0. -1.
         25    2    1    2    0    0  0.30344121076E+02 -0.97556903232E+02 -0.33381832076E+03  0.37083210663E+03  0.12507463764E+03 0.  0.
         23    2    1    2    0    0 -0.30344121076E+02  0.97556903232E+02 -0.30664560450E+03  0.33756521722E+03  0.97368547622E+02 0.  0.
          5    1    3    3  502    0 -0.17857038918E+01  0.23905554304E+02 -0.16178477442E+02  0.29221221694E+02  0.41800000000E+01 0. -1.
         -5    1    3    3    0  502  0.32129824968E+02 -0.12146245754E+03 -0.31763984332E+03  0.34161088494E+03  0.41800000000E+01 0. -1.
        -11    1    4    4    0    0  0.30581586051E+02  0.61686913511E+01 -0.62648992589E+02  0.69987016158E+02  0.00000000000E+00 0.  1.
         11    1    4    4    0    0 -0.60925707126E+02  0.91388211881E+02 -0.24399661191E+03  0.26757820107E+03  0.00000000000E+00 0. -1.
</event>
<event>
 8    1  0.6505836E-009  0.1183462E+03  0.7561462E-02  0.1245850E+00
          3   -1    0    0  501    0  0.00000000000E+00  0.00000000000E+00  0.69800404764E+03  0.69800404764E+03  0.00000000000E+00 0. -1.
         -3   -1    0    0    0  501 -0.00000000000E+00 -0.00000000000E+00 -0.25942026487E+02  0.25942026487E+02  0.00000000000E+00 0.  1.
         25    2    1    2    0    0  0.30199085067E+02 -0.73194958572E+02  0.39112725695E+03  0.41820718991E+03  0.12508891182E+03 0.  0.
         23    2    1    2    0    0 -0.30199085067E+02  0.73194958572E+02  0.28093476420E+03  0.30573888421E+03  0.91007894643E+02 0.  0.
          5    1    3    3  502    0  0.33672024181E+02  0.81433474547E+01  0.24524537103E+02  0.42650259557E+02  0.41800000000E+01 0. -1.
         -5    1    3    3    0  502 -0.34729391145E+01 -0.81338306027E+02  0.36660271985E+03  0.37555693035E+03  0.41800000000E+01 0. -1.
        -11    1    4    4    0    0 -0.41695011269E+02  0.90419721775E+02  0.24086633633E+03  0.26063536220E+03  0.00000000000E+00 0. -1.
         11    1    4    4    0    0  0.11495926203E+02 -0.17224763203E+02  0.40068427861E+02  0.45103522012E+02  0.00000000000E+00 0.  1.
</event>
<event>
 7    1  0.6505836E-009  0.1122396E+03  0.7561462E-02  0.1256478E+00
          2   -1    0    0  501    0  0.00000000000E+00  0.00000000000E+00  0.28422800779E+03  0.28422800779E+03  0.00000000000E+00 0. -1.
         -2   -1    0    0    0  501 -0.00000000000E+00 -0.00000000000E+00 -0.64120539810E+02  0.64120539810E+02  0.00000000000E+00 0.  1.
         23    2    1    2    0    0 -0.20382124685E+02 -0.45623350298E+02  0.25091781519E+02  0.11128862101E+03  0.96221819601E+02 0.  0.
          5    1    1    2  502    0 -0.28974276178E+02  0.72502023864E+02  0.12021464316E+03  0.14340531710E+03  0.41800000000E+01 0. -1.
         -5    1    1    2    0  502  0.49356400863E+02 -0.26878673566E+02  0.74801043304E+02  0.93654609487E+02  0.41800000000E+01 0. -1.
        -11    1    3    3    0    0 -0.47941487213E+02 -0.38452845292E+02  0.45318358687E+02  0.76359420777E+02  0.00000000000E+00 0. -1.
         11    1    3    3    0    0  0.27559362528E+02 -0.71705050056E+01 -0.20226577167E+02  0.34929200233E+02  0.00000000000E+00 0.  1.
</event>
<event>
 8    1  0.6505836E-009  0.1520136E+03  0.7561462E-02  0.1198020E+00
         -1   -1    0    0    0  501 -0.00000000000E+00  0.00000000000E+00  0.14208836683E+04  0.14208836683E+04  0.00000000000E+00 0.  1.
          1   -1    0    0  501    0  0.00000000000E+00 -0.00000000000E+00 -0.18445406142E+02  0.18445406142E+02  0.00000000000E+00 0. -1.
         25    2    1    2    0    0  0.91470346778E+02 -0.74820772632E+02  0.88877533211E+03  0.90528134677E+03  0.12509098086E+03 0.  0.
         23    2    1    2    0    0 -0.91470346778E+02  0.74820772632E+02  0.51366293008E+03  0.53404772770E+03  0.85979051910E+02 0.  0.
          5    1    3    3  502    0 -0.40276991337E+01 -0.61246366938E+02  0.18612608033E+03  0.19602992119E+03  0.41800000000E+01 0.  1.
         -5    1    3    3    0  502  0.95498045912E+02 -0.13574405694E+02  0.70264925178E+03  0.70925142558E+03  0.41800000000E+01 0.  1.
        -11    1    4    4    0    0  0.21501799874E+01  0.48719396682E+02  0.18446935641E+03  0.19080656786E+03  0.00000000000E+00 0. -1.
         11    1    4    4    0    0 -0.93620526765E+02  0.26101375950E+02  0.32919357367E+03  0.34324115984E+03  0.00000000000E+00 0.  1.
</event>
<event>
 8    1  0.6505836E-009  0.1773305E+03  0.7561462E-02  0.1170412E+00
          2   -1    0    0  501    0  0.00000000000E+00  0.00000000000E+00  0.50320609953E+03  0.50320609953E+03  0.00000000000E+00 0. -1.
         -2   -1    0    0    0  501 -0.00000000000E+00 -0.00000000000E+00 -0.77026688024E+02  0.77026688024E+02  0.00000000000E+00 0.  1.
         25    2    1    2    0    0  0.15760089992E+03 -0.49638483567E+01  0.28966832667E+03  0.35272424444E+03  0.12507585575E+03 0.  0.
         23    2    1    2    0    0 -0.15760089992E+03  0.49638483567E+01  0.13651108484E+03  0.22750854312E+03  0.90896520641E+02 0.  0.
          5    1    3    3  502    0  0.78363463554E+02  0.32489654739E+02  0.23368847001E+03  0.24864469329E+03  0.41800000000E+01 0. -1.
         -5    1    3    3    0  502  0.79237436361E+02 -0.37453503096E+02  0.55979856660E+02  0.10407955115E+03  0.41800000000E+01 0. -1.
        -11    1    4    4    0    0 -0.14912173253E+03  0.32969093179E+02  0.11575489360E+03  0.19163362860E+03  0.00000000000E+00 0.  1.
         11    1    4    4    0    0 -0.84791673820E+01 -0.28005244822E+02  0.20756191236E+02  0.35874914518E+02  0.00000000000E+00 0. -1.
</event>
<event>
 8    1  0.6505836E-009  0.1052462E+03  0.7561462E-02  0.1269635E+00
          3   -1    0    0  501    0  0.00000000000E+00  0.00000000000E+00  0.14920381487E+03  0.14920381487E+03  0.00000000000E+00 0. -1.
         -3   -1    0    0    0  501 -0.00000000000E+00 -0.00000000000E+00 -0.12716829801E+03  0.12716829801E+03  0.00000000000E+00 0.  1.
         25    2    1    2    0    0 -0.59508859926E+02 -0.31370904213E+02  0.63723268595E+02  0.15567075474E+03  0.12508913174E+03 0.  0.
         23    2    1    2    0    0  0.59508859926E+02  0.31370904213E+02 -0.41687751740E+02  0.12070135814E+03  0.91134577247E+02 0.  0.
          5    1    3    3  502    0 -0.92559841554E+02 -0.16191683925E+02  0.71617025375E+02  0.11821998824E+03  0.41800000000E+01 0.  1.
         -5    1    3    3    0  502  0.33050981628E+02 -0.15179220288E+02 -0.78937567806E+01  0.37450766497E+02  0.41800000000E+01 0.  1.
        -11    1    4    4    0    0  0.59202240266E+02  0.11943587035E+02  0.13764508583E+02  0.61943653592E+02  0.00000000000E+00 0. -1.
         11    1    4    4    0    0  0.30661965960E+00  0.19427317178E+02 -0.55452260323E+02  0.58757704544E+02  0.00000000000E+00 0.  1.
</event>
<event>
 8    1  0.6505836E-009  0.9829094E+02  0.7561462E-02  0.1283931E+00
          2   -1    0    0  501    0  0.00000000000E+00  0.00000000000E+00  0.31203490578E+02  0.31203490578E+02  0.00000000000E+00 0. -1.
         -2   -1    0    0    0  501 -0.00000000000E+00 -0.00000000000E+00 -0.38933987295E+03  0.38933987295E+03  0.00000000000E+00 0.  1.
         25    2    1    2    0    0 -0.29735228847E+01  0.80531221734E+01 -0.15921213426E+03  0.20265718405E+03  0.12509091068E+03 0.  0.
         23    2    1    2    0    0  0.29735228847E+01 -0.80531221734E+01 -0.19892424810E+03  0.21788617947E+03  0.88486361138E+02 0.  0.
          5    1    3    3  502    0 -0.25810153172E+02  0.51885858531E+02 -0.13600418876E+03  0.14789495625E+03  0.41800000000E+01 0.  1.
         -5    1    3    3    0  502  0.22836630287E+02 -0.43832736358E+02 -0.23207945502E+02  0.54762227803E+02  0.41800000000E+01 0.  1.
        -11    1    4    4    0    0 -0.41033293172E+02  0.84233437755E+01 -0.91298121279E+02  0.10044914543E+03  0.00000000000E+00 0. -1.
         11    1    4    4    0    0  0.44006816057E+02 -0.16476465949E+02 -0.10762612682E+03  0.11743703404E+03  0.00000000000E+00 0.  1.
</event>
<event>
 8    1  0.6505836E-009  0.1149523E+03  0.7561462E-02  0.1251664E+00
         -2   -1    0    0    0  501 -0.00000000000E+00  0.00000000000E+00  0.10995439223E+02  0.10995439223E+02  0.00000000000E+00 0.  1.
          2   -1    0    0  501    0  0.00000000000E+00 -0.00000000000E+00 -0.12836877703E+04  0.12836877703E+04  0.00000000000E+00 0. -1.
         25    2    1    2    0    0 -0.32928947391E+01  0.24567470319E+02 -0.76131310099E+03  0.77191937025E+03  0.12508985840E+03 0.  0.
         23    2    1    2    0    0  0.32928947391E+01 -0.24567470319E+02 -0.51137923005E+03  0.52276383924E+03  0.10563574647E+03 0.  0.
          5    1    3    3  502    0 -0.60334470324E+02  0.25999036361E+02 -0.50663958001E+03  0.51089855611E+03  0.41800000000E+01 0. -1.
         -5    1    3    3    0  502  0.57041575585E+02 -0.14315660427E+01 -0.25467352098E+03  0.26102081415E+03  0.41800000000E+01 0. -1.
        -11    1    4    4    0    0  0.38992095005E+02 -0.49724072010E+02 -0.25640488724E+03  0.26407637723E+03  0.00000000000E+00 0.  1.
         11    1    4    4    0    0 -0.35699200265E+02  0.25156601691E+02 -0.25497434281E+03  0.25868746201E+03  0.00000000000E+00 0. -1.
</event>
<event>
 8    1  0.6505836E-009  0.2499806E+03  0.7561462E-02  0.1113317E+00
         -2   -1    0    0    0  501 -0.00000000000E+00  0.00000000000E+00  0.84398555404E+03  0.84398555404E+03  0.00000000000E+00 0.  1.
          2   -1    0    0  501    0  0.00000000000E+00 -0.00000000000E+00 -0.13484424735E+03  0.13484424735E+03  0.00000000000E+00 0. -1.
         25    2    1    2    0    0 -0.21500724792E+03  0.11893529418E+03  0.64041978125E+02  0.28306142188E+03  0.12509465510E+03 0.  0.
         23    2    1    2    0    0  0.21500724792E+03 -0.11893529418E+03  0.64509932856E+03  0.69576837950E+03  0.86987202221E+02 0.  0.
          5    1    3    3  502    0 -0.96912880354E+02  0.38506891598E+02  0.89962216331E+02  0.13778809762E+03  0.41800000000E+01 0.  1.
         -5    1    3    3    0  502 -0.11809436756E+03  0.80428402586E+02 -0.25920238206E+02  0.14527332426E+03  0.41800000000E+01 0.  1.
        -11    1    4    4    0    0  0.14639313432E+03 -0.48244113742E+02  0.47283333271E+03  0.49732263654E+03  0.00000000000E+00 0.  1.
         11    1    4    4    0    0  0.68614113600E+02 -0.70691180442E+02  0.17226599585E+03  0.19844574297E+03  0.00000000000E+00 0. -1.
</event>
<event>
 8    1  0.6505836E-009  0.8089709E+02  0.7561462E-02  0.1326525E+00
         -1   -1    0    0    0  501 -0.00000000000E+00  0.00000000000E+00  0.21021518450E+03  0.21021518450E+03  0.00000000000E+00 0.  1.
          1   -1    0    0  501    0  0.00000000000E+00 -0.00000000000E+00 -0.98586259415E+02  0.98586259415E+02  0.00000000000E+00 0. -1.
         25    2    1    2    0    0  0.31016786630E+02  0.54242941572E+02 -0.14806295797E+02  0.14060820573E+03  0.12508838220E+03 0.  0.
         23    2    1    2    0    0 -0.31016786630E+02 -0.54242941572E+02  0.12643522088E+03  0.16819323818E+03  0.91644762685E+02 0.  0.
          5    1    3    3  502    0 -0.52124298762E+01  0.45259458576E+02  0.48704676837E+02  0.66822196624E+02  0.41800000000E+01 0.  1.
         -5    1    3    3    0  502  0.36229216506E+02  0.89834829954E+01 -0.63510972634E+02  0.73786009110E+02  0.41800000000E+01 0.  1.
        -11    1    4    4    0    0 -0.43771790356E+02 -0.39168732411E+02  0.23309604383E+02  0.63194120661E+02  0.00000000000E+00 0. -1.
         11    1    4    4    0    0  0.12755003726E+02 -0.15074209161E+02  0.10312561650E+03  0.10499911752E+03  0.00000000000E+00 0.  1.
</event>
<event>
 8    1  0.6505836E-009  0.1164116E+03  0.7561462E-02  0.1249137E+00
         -1   -1    0    0    0  501 -0.00000000000E+00  0.00000000000E+00  0.62348370244E+03  0.62348370244E+03  0.00000000000E+00 0.  1.
          1   -1    0    0  501    0  0.00000000000E+00 -0.00000000000E+00 -0.25998165594E+02  0.25998165594E+02  0.00000000000E+00 0. -1.
         25    2    1    2    0    0 -0.55564282246E+01  0.64304479551E+02  0.38238529235E+03  0.40747388768E+03  0.12510202777E+03 0.  0.
         23    2    1    2    0    0  0.55564282246E+01 -0.64304479551E+02  0.21510024450E+03  0.24200798035E+03  0.90187623250E+02 0.  0.
          5    1    3    3  502    0 -0.43903482624E+02 -0.16763942001E+02  0.17979120456E+03  0.18587871093E+03  0.41800000000E+01 0.  1.
         -5    1    3    3    0  502  0.38347054400E+02  0.81068421552E+02  0.20259408779E+03  0.22159517675E+03  0.41800000000E+01 0.  1.
        -11    1    4    4    0    0 -0.29602210546E+02 -0.49585112664E+02  0.18389016192E+03  0.19274482073E+03  0.00000000000E+00 0.  1.
         11    1    4    4    0    0  0.35158638771E+02 -0.14719366886E+02  0.31210082579E+02  0.49263159626E+02  0.00000000000E+00 0. -1.
</event>
<event>
 8    1  0.6505836E-009  0.1505547E+03  0.7561462E-02  0.1199793E+00
         -2   -1    0    0    0  501 -0.00000000000E+00  0.00000000000E+00  0.84063967840E+02  0.84063967840E+02  0.00000000000E+00 0.  1.
          2   -1    0    0  501    0  0.00000000000E+00 -0.00000000000E+00 -0.32869682376E+03  0.32869682376E+03  0.00000000000E+00 0. -1.
         25    2    1    2    0    0  0.10588166115E+03 -0.62953135808E+02 -0.98325859962E+02  0.20121800330E+03  0.12508671647E+03 0.  0.
         23    2    1    2    0    0 -0.10588166115E+03  0.62953135808E+02 -0.14630699596E+03  0.21154278830E+03  0.90391320044E+02 0.  0.
          5    1    3    3  502    0 -0.28786811994E+02 -0.11480871616E+02 -0.19472986391E+02  0.36839660107E+02  0.41800000000E+01 0.  1.
         -5    1    3    3    0  502  0.13466847314E+03 -0.51472264192E+02 -0.78852873570E+02  0.16437834319E+03  0.41800000000E+01 0.  1.
        -11    1    4    4    0    0 -0.87640689975E+02  0.61974326679E+02 -0.59282771685E+02  0.12262199935E+03  0.00000000000E+00 0.  1.
         11    1    4    4    0    0 -0.18240971176E+02  0.97880912870E+00 -0.87024224271E+02  0.88920788946E+02  0.00000000000E+00 0. -1.
</event>
<event>
 8    1  0.6505836E-009  0.1115497E+03  0.7561462E-02  0.1257727E+00
          1   -1    0    0  501    0  0.00000000000E+00  0.00000000000E+00  0.83287247433E+03  0.83287247433E+03  0.00000000000E+00 0. -1.
         -1   -1    0    0    0  501 -0.00000000000E+00 -0.00000000000E+00 -0.16582533646E+02  0.16582533646E+02  0.00000000000E+00 0.  1.
         25    2    1    2    0    0  0.28323399076E+02 -0.23584850531E+02  0.52418348062E+03  0.54016104094E+03  0.12508864331E+03 0.  0.
         23    2    1    2    0    0 -0.28323399076E+02  0.23584850531E+02  0.29210646006E+03  0.30929396704E+03  0.94752909846E+02 0.  0.
          5    1    3    3  502    0  0.73353903935E+02 -0.31915229486E+02  0.26189347881E+03  0.27387048717E+03  0.41800000000E+01 0. -1.
         -5    1    3    3    0  502 -0.45030504859E+02  0.83303789550E+01  0.26229000181E+03  0.26629055378E+03  0.41800000000E+01 0. -1.
        -11    1    4    4    0    0  0.25668146888E+02  0.33409183459E+02  0.17449737036E+03  0.17951144690E+03  0.00000000000E+00 0. -1.
         11    1    4    4    0    0 -0.53991545965E+02 -0.98243329275E+01  0.11760908970E+03  0.12978252014E+03  0.00000000000E+00 0.  1.
</event>
<event>
 8    1  0.6505836E-009  0.1193920E+03  0.7561462E-02  0.1244103E+00
          2   -1    0    0  501    0  0.00000000000E+00  0.00000000000E+00  0.32698084008E+02  0.32698084008E+02  0.00000000000E+00 0.  1.
         -2   -1    0    0    0  501 -0.00000000000E+00 -0.00000000000E+00 -0.51430477790E+03  0.51430477790E+03  0.00000000000E+00 0. -1.
         25    2    1    2    0    0  0.32919013031E+02  0.60573138577E+02 -0.28559723337E+03  0.31932217587E+03  0.12509238888E+03 0.  0.
         23    2    1    2    0    0 -0.32919013031E+02 -0.60573138577E+02 -0.19600946052E+03  0.22768068604E+03  0.93091458499E+02 0.  0.
          5    1    3    3  502    0 -0.36072973951E+02 -0.10289098061E+02 -0.12588043036E+03  0.13141719879E+03  0.41800000000E+01 0. -1.
         -5    1    3    3    0  502  0.68991986982E+02  0.70862236638E+02 -0.15971680301E+03  0.18790497708E+03  0.41800000000E+01 0. -1.
        -11    1    4    4    0    0 -0.57448611377E+02 -0.45244852200E+02 -0.18073975934E+03  0.19497256270E+03  0.00000000000E+00 0. -1.
         11    1    4    4    0    0  0.24529598347E+02 -0.15328286377E+02 -0.15269701187E+02  0.32708123343E+02  0.00000000000E+00 0.  1.
</event>
<event>
 8    1  0.6505836E-009  0.7053860E+02  0.7561462E-02  0.1358271E+00
         -2   -1    0    0    0  501 -0.00000000000E+00  0.00000000000E+00  0.25227670220E+02  0.25227670220E+02  0.00000000000E+00 0.  1.
          2   -1    0    0  501    0  0.00000000000E+00 -0.00000000000E+00 -0.59481619493E+03  0.59481619493E+03  0.00000000000E+00 0. -1.
         25    2    1    2    0    0 -0.56534061944E+02  0.26162726297E+02 -0.36620181685E+03  0.39195955963E+03  0.12509171561E+03 0.  0.
         23    2    1    2    0    0  0.56534061944E+02 -0.26162726297E+02 -0.20338670786E+03  0.22808430552E+03  0.82314695427E+02 0.  0.
          5    1    3    3  502    0 -0.60778015206E+02  0.30115752427E+02 -0.37472358614E+03  0.38083613810E+03  0.41800000000E+01 0. -1.
         -5    1    3    3    0  502  0.42439532620E+01 -0.39530261297E+01  0.85217692831E+01  0.11123421532E+02  0.41800000000E+01 0. -1.
        -11    1    4    4    0    0  0.11571373521E+02 -0.16213121786E+02 -0.38258335621E+00  0.19922559405E+02  0.00000000000E+00 0.  1.
         11    1    4    4    0    0  0.44962688422E+02 -0.99496045114E+01 -0.20300412450E+03  0.20816174612E+03  0.00000000000E+00 0. -1.
</event>
<event>
 8    1  0.6505836E-009  0.2391068E+03  0.7561462E-02  0.1120389E+00
         -1   -1    0    0    0  501 -0.00000000000E+00  0.00000000000E+00  0.15735374413E+04  0.15735374413E+04  0.00000000000E+00 0.  1.
          1   -1    0    0  501    0  0.00000000000E+00 -0.00000000000E+00 -0.41390747499E+02  0.41390747499E+02  0.00000000000E+00 0. -1.
         25    2    1    2    0    0 -0.22044443896E+03 -0.18825892461E+02  0.99120044888E+03  0.10232680705E+04  0.12509616004E+03 0.  0.
         23    2    1    2    0    0  0.22044443896E+03  0.18825892461E+02  0.54094624494E+03  0.59166011836E+03  0.92134091701E+02 0.  0.
          5    1    3    3  502    0 -0.53034629543E+02  0.39311625625E+02  0.42049417870E+03  0.42566524707E+03  0.41800000000E+01 0. -1.
         -5    1    3    3    0  502 -0.16740980941E+03 -0.58137518086E+02  0.57070627018E+03  0.59760282338E+03  0.41800000000E+01 0. -1.
        -11    1    4    4    0    0  0.15520039611E+03 -0.23584771213E+02  0.30202614997E+03  0.34038683824E+03  0.00000000000E+00 0.  1.
         11    1    4    4    0    0  0.65244042847E+02  0.42410663674E+02  0.23892009497E+03  0.25127328012E+03  0.00000000000E+00 0. -1.
</event>
<event>
 8    1  0.6505836E-009  0.8954917E+02  0.7561462E-02  0.1303947E+00
          2   -1    0    0  501    0  0.00000000000E+00  0.00000000000E+00  0.69595165794E+03  0.69595165794E+03  0.00000000000E+00 0. -1.
         -2   -1    0    0    0  501 -0.00000000000E+00 -0.00000000000E+00 -0.18607512551E+02  0.18607512551E+02  0.00000000000E+00 0.  1.
         25    2    1    2    0    0  0.32785630491E+02 -0.17920366074E+01  0.44388150118E+03  0.46233852172E+03  0.12509201658E+03 0.  0.
         23    2    1    2    0    0 -0.32785630491E+02  0.17920366074E+01  0.23346264421E+03  0.25222064877E+03  0.89623325445E+02 0.  0.
          5    1    3    3  502    0  0.22566280972E+02  0.52297634151E+02  0.33937633589E+03  0.34414829556E+03  0.41800000000E+01 0. -1.
         -5    1    3    3    0  502  0.10219349519E+02 -0.54089670758E+02  0.10450516530E+03  0.11819022617E+03  0.41800000000E+01 0. -1.
        -11    1    4    4    0    0 -0.48984118576E+02  0.76062840019E+01  0.22918767940E+03  0.23448729564E+03  0.00000000000E+00 0. -1.
         11    1    4    4    0    0  0.16198488086E+02 -0.58142473945E+01  0.42749648069E+01  0.17733353127E+02  0.00000000000E+00 0.  1.
</event>
<event>
 8    1  0.6505836E-009  0.9984042E+02  0.7561462E-02  0.1280632E+00
          3   -1    0    0  501    0  0.00000000000E+00  0.00000000000E+00  0.90250918850E+03  0.90250918850E+03  0.00000000000E+00 0. -1.
         -3   -1    0    0    0  501 -0.00000000000E+00 -0.00000000000E+00 -0.17721324265E+02  0.17721324265E+02  0.00000000000E+00 0.  1.
         25    2    1    2    0    0  0.19541477293E+02 -0.55641518489E+02  0.58483807176E+03  0.60096626879E+03  0.12508812146E+03 0.  0.
         23    2    1    2    0    0 -0.19541477293E+02  0.55641518489E+02  0.29994979247E+03  0.31926424397E+03  0.92097402565E+02 0.  0.
          5    1    3    3  502    0  0.12925847504E+02  0.17856329217E+02  0.16521019951E+02  0.27862923878E+02  0.41800000000E+01 0.  1.
         -5    1    3    3    0  502  0.66156297886E+01 -0.73497847706E+02  0.56831705181E+03  0.57310334492E+03  0.41800000000E+01 0.  1.
        -11    1    4    4    0    0 -0.13468029739E+01  0.76008586259E+02  0.16628940739E+03  0.18284224368E+03  0.00000000000E+00 0.  1.
         11    1    4    4    0    0 -0.18194674319E+02 -0.20367067770E+02  0.13366038509E+03  0.13642200029E+03  0.00000000000E+00 0. -1.
</event>
<event>
 8    1  0.6505836E-009  0.1091595E+03  0.7561462E-02  0.1262134E+00
          1   -1    0    0  501    0  0.00000000000E+00  0.00000000000E+00  0.37888604295E+03  0.37888604295E+03  0.00000000000E+00 0. -1.
         -1   -1    0    0    0  501 -0.00000000000E+00 -0.00000000000E+00 -0.37602444015E+02  0.37602444015E+02  0.00000000000E+00 0.  1.
         25    2    1    2    0    0 -0.17691198378E+02 -0.28339326669E+02  0.13206625556E+03  0.18494668344E+03  0.12509070278E+03 0.  0.
         23    2    1    2    0    0  0.17691198378E+02  0.28339326669E+02  0.20921734337E+03  0.23154180352E+03  0.93400289471E+02 0.  0.
          5    1    3    3  502    0 -0.66031634853E+02 -0.76739248085E+01  0.36903106230E+02  0.76147078557E+02  0.41800000000E+01 0.  1.
         -5    1    3    3    0  502  0.48340436475E+02 -0.20665401860E+02  0.95163149328E+02  0.10879960488E+03  0.41800000000E+01 0.  1.
        -11    1    4    4    0    0 -0.21061156790E+02 -0.25224540676E+02  0.76914042424E+02  0.83639821255E+02  0.00000000000E+00 0.  1.
         11    1    4    4    0    0  0.38752355168E+02  0.53563867345E+02  0.13230330095E+03  0.14790198226E+03  0.00000000000E+00 0. -1.
</event>
<event>
 8    1  0.6505836E-009  0.1179516E+03  0.7561462E-02  0.1246515E+00
          2   -1    0    0  501    0  0.00000000000E+00  0.00000000000E+00  0.48419365967E+03  0.48419365967E+03  0.00000000000E+00 0. -1.
         -2   -1    0    0    0  501 -0.00000000000E+00 -0.00000000000E+00 -0.37889648116E+02  0.37889648116E+02  0.00000000000E+00 0.  1.
         25    2    1    2    0    0  0.71696909160E+02  0.19600794360E+02  0.18559535946E+03  0.23583667174E+03  0.12509460565E+03 0.  0.
         23    2    1    2    0    0 -0.71696909160E+02 -0.19600794360E+02  0.26070865210E+03  0.28624663605E+03  0.91888505518E+02 0.  0.
          5    1    3    3  502    0 -0.19572536870E+02 -0.18368069348E+02  0.10430552191E+03  0.10778489910E+03  0.41800000000E+01 0. -1.
         -5    1    3    3    0  502  0.91269446031E+02  0.37968863708E+02  0.81289837543E+02  0.12805177265E+03  0.41800000000E+01 0. -1.
        -11    1    4    4    0    0 -0.45990987474E+02  0.29314478011E+02  0.18257736050E+03  0.19054921180E+03  0.00000000000E+00 0.  1.
         11    1    4    4    0    0 -0.25705921687E+02 -0.48915272370E+02  0.78131291598E+02  0.95697424247E+02  0.00000000000E+00 0. -1.
</event>
<event>
 8    1  0.6505836E-009  0.1220886E+03  0.7561462E-02  0.1239691E+00
          2   -1    0    0  501    0  0.00000000000E+00  0.00000000000E+00  0.35217428106E+02  0.35217428106E+02  0.00000000000E+00 0. -1.
         -2   -1    0    0    0  501 -0.00000000000E+00 -0.00000000000E+00 -0.53427289170E+03  0.53427289170E+03  0.00000000000E+00 0.  1.
         25    2    1    2    0    0 -0.53321668358E+02  0.52741298202E+02 -0.31308222318E+03  0.34538979945E+03  0.12509512476E+03 0.  0.
         23    2    1    2    0    0  0.53321668358E+02 -0.52741298202E+02 -0.18597324042E+03  0.22410052036E+03  0.10005074823E+03 0.  0.
          5    1    3    3  502    0 -0.87902500202E+02  0.63387069069E+02 -0.25069098713E+03  0.27314504113E+03  0.41800000000E+01 0.  1.
         -5    1    3    3    0  502  0.34580831844E+02 -0.10645770867E+02 -0.62391236050E+02  0.72244758317E+02  0.41800000000E+01 0.  1.
        -11    1    4    4    0    0  0.51744560461E+02 -0.55038002778E+01 -0.16385124654E+03  0.17191574200E+03  0.00000000000E+00 0.  1.
         11    1    4    4    0    0  0.15771078970E+01 -0.47237497924E+02 -0.22121993877E+02  0.52184778361E+02  0.00000000000E+00 0. -1.
</event>
<event>
 8    1  0.6505836E-009  0.9062245E+02  0.7561462E-02  0.1301351E+00
          3   -1    0    0  501    0  0.00000000000E+00  0.00000000000E+00  0.15364503276E+03  0.15364503276E+03  0.00000000000E+00 0. -1.
         -3   -1    0    0    0  501 -0.00000000000E+00 -0.00000000000E+00 -0.99179806846E+02  0.99179806846E+02  0.00000000000E+00 0.  1.
         25    2    1    2    0    0  0.44319521038E+02 -0.18766876581E+02  0.65434299494E+02  0.14915425298E+03  0.12509567551E+03 0.  0.
         23    2    1    2    0    0 -0.44319521038E+02  0.18766876581E+02 -0.10969073579E+02  0.10367058663E+03  0.91163887340E+02 0.  0.
          5    1    3    3  502    0  0.98061054998E+01 -0.45237501093E+02 -0.21991471358E+02  0.51416810701E+02  0.41800000000E+01 0. -1.
         -5    1    3    3    0  502  0.34513415538E+02  0.26470624512E+02  0.87425770852E+02  0.97737442279E+02  0.41800000000E+01 0. -1.
        -11    1    4    4    0    0 -0.66524648517E+02  0.17712269234E+02  0.13987512779E+02  0.70248870848E+02  0.00000000000E+00 0. -1.
         11    1    4    4    0    0  0.22205127479E+02  0.10546073463E+01 -0.24956586358E+02  0.33421715780E+02  0.00000000000E+00 0.  1.
</event>
<event>
 8    1  0.6505836E-009  0.1093915E+03  0.7561462E-02  0.1261701E+00
         -3   -1    0    0    0  501 -0.00000000000E+00  0.00000000000E+00  0.29165420789E+03  0.29165420789E+03  0.00000000000E+00 0.  1.
          3   -1    0    0  501    0  0.00000000000E+00 -0.00000000000E+00 -0.57249278473E+02  0.57249278473E+02  0.00000000000E+00 0. -1.
         25    2    1    2    0    0 -0.27071382332E+02  0.62259344608E+02  0.10597799166E+03  0.17744755362E+03  0.12508882379E+03 0.  0.
         23    2    1    2    0    0  0.27071382332E+02 -0.62259344608E+02  0.12842693776E+03  0.17145593274E+03  0.91074545279E+02 0.  0.
          5    1    3    3  502    0 -0.40932990213E+02 -0.37941628364E+01  0.10160382453E+03  0.10968461569E+03  0.41800000000E+01 0. -1.
         -5    1    3    3    0  502  0.13861607881E+02  0.66053507445E+02  0.43741671251E+01  0.67762937930E+02  0.41800000000E+01 0. -1.
        -11    1    4    4    0    0 -0.30483482556E+02 -0.99484874444E+01  0.19220940105E+02  0.37385286540E+02  0.00000000000E+00 0. -1.
         11    1    4    4    0    0  0.57554864887E+02 -0.52310857164E+02  0.10920599765E+03  0.13407064620E+03  0.00000000000E+00 0.  1.
</event>
<event>
 8    1  0.6505836E-009  0.1017468E+03  0.7561462E-02  0.1276665E+00
          1   -1    0    0  501    0  0.00000000000E+00  0.00000000000E+00  0.34788111869E+03  0.34788111869E+03  0.00000000000E+00 0. -1.
         -1   -1    0    0    0  501 -0.00000000000E+00 -0.00000000000E+00 -0.40433201311E+02  0.40433201311E+02  0.00000000000E+00 0.  1.
         25    2    1    2    0    0 -0.42585672854E+02 -0.32370913841E+01  0.13445234534E+03  0.18854391837E+03  0.12508939881E+03 0.  0.
         23    2    1    2    0    0  0.42585672854E+02  0.32370913841E+01  0.17299557204E+03  0.19977040162E+03  0.90314600853E+02 0.  0.
          5    1    3    3  502    0 -0.44744455218E+02  0.56412441583E+02  0.68048552976E+02  0.99159002618E+02  0.41800000000E+01 0.  1.
         -5    1    3    3    0  502  0.21587823637E+01 -0.59649532967E+02  0.66403792361E+02  0.89384915755E+02  0.41800000000E+01 0.  1.
        -11    1    4    4    0    0  0.64136250285E+01 -0.24896745250E+02  0.14232544907E+03  0.14462889049E+03  0.00000000000E+00 0.  1.
         11    1    4    4    0    0  0.36172047825E+02  0.28133836634E+02  0.30670122964E+02  0.55141511135E+02  0.00000000000E+00 0. -1.
</event>
<event>
 8    1  0.6505836E-009  0.1079461E+03  0.7561462E-02  0.1264421E+00
         -1   -1    0    0    0  501 -0.00000000000E+00  0.00000000000E+00  0.15364912683E+02  0.15364912683E+02  0.00000000000E+00 0.  1.
          1   -1    0    0  501    0  0.00000000000E+00 -0.00000000000E+00 -0.11603862260E+04  0.11603862260E+04  0.00000000000E+00 0. -1.
         25    2    1    2    0    0 -0.20336086369E+01 -0.49615361061E+02 -0.98675297773E+03  0.99588812691E+03  0.12508358263E+03 0.  0.
         23    2    1    2    0    0  0.20336086369E+01  0.49615361061E+02 -0.15826833560E+03  0.17986301178E+03  0.69541479260E+02 0.  0.
          5    1    3    3  502    0  0.58729414322E+02 -0.52162814117E+01 -0.45280173659E+03  0.45664344817E+03  0.41800000000E+01 0. -1.
         -5    1    3    3    0  502 -0.60763022959E+02 -0.44399079649E+02 -0.53395124114E+03  0.53924467874E+03  0.41800000000E+01 0. -1.
        -11    1    4    4    0    0 -0.65158043904E+00  0.65398575210E+02 -0.14500824566E+03  0.15907479218E+03  0.00000000000E+00 0. -1.
         11    1    4    4    0    0  0.26851890760E+01 -0.15783214150E+02 -0.13260089938E+02  0.20788219607E+02  0.00000000000E+00 0.  1.
</event>
<event>
 8    1  0.6505836E-009  0.1086668E+03  0.7561462E-02  0.1263059E+00
         -1   -1    0    0    0  501 -0.00000000000E+00  0.00000000000E+00  0.45534093241E+02  0.45534093241E+02  0.00000000000E+00 0.  1.
          1   -1    0    0  501    0  0.00000000000E+00 -0.00000000000E+00 -0.49003345297E+03  0.49003345297E+03  0.00000000000E+00 0. -1.
         25    2    1    2    0    0  0.58191867350E+02 -0.33909867678E+02 -0.10281247714E+03  0.17536506976E+03  0.12508528964E+03 0.  0.
         23    2    1    2    0    0 -0.58191867350E+02  0.33909867678E+02 -0.34168688258E+03  0.36020247644E+03  0.91976767484E+02 0.  0.
          5    1    3    3  502    0  0.68784798877E+02 -0.56502755348E+02 -0.23565966506E+02  0.92177747292E+02  0.41800000000E+01 0.  1.
         -5    1    3    3    0  502 -0.10592931528E+02  0.22592887670E+02 -0.79246510639E+02  0.83187322472E+02  0.41800000000E+01 0.  1.
        -11    1    4    4    0    0 -0.58816220514E+02 -0.94359306854E+01 -0.26945307942E+03  0.27595895816E+03  0.00000000000E+00 0.  1.
         11    1    4    4    0    0  0.62435316458E+00  0.43345798364E+02 -0.72233803162E+02  0.84243518278E+02  0.00000000000E+00 0. -1.
</event>
<event>
 8    1  0.6505836E-009  0.1228771E+03  0.7561462E-02  0.1238425E+00
          1   -1    0    0  501    0  0.00000000000E+00  0.00000000000E+00  0.46267024009E+03  0.46267024009E+03  0.00000000000E+00 0. -1.
         -1   -1    0    0    0  501 -0.00000000000E+00 -0.00000000000E+00 -0.83755817786E+02  0.83755817786E+02  0.00000000000E+00 0.  1.
         25    2    1    2    0    0  0.78347570423E+02 -0.26559055910E+02  0.38916274816E+03  0.41705219826E+03  0.12506464840E+03 0.  0.
         23    2    1    2    0    0 -0.78347570423E+02  0.26559055910E+02 -0.10248325858E+02  0.12937385961E+03  0.98938577541E+02 0.  0.
          5    1    3    3  502    0  0.11225894744E+03 -0.18434388101E+02  0.31641349622E+03  0.33626904546E+03  0.41800000000E+01 0. -1.
         -5    1    3    3    0  502 -0.33911377021E+02 -0.81246678089E+01  0.72749251936E+02  0.80783152796E+02  0.41800000000E+01 0. -1.
        -11    1    4    4    0    0 -0.80524459499E+02  0.11221130348E+02 -0.43849401248E+02  0.92373547803E+02  0.00000000000E+00 0.  1.
         11    1    4    4    0    0  0.21768890757E+01  0.15337925563E+02  0.33601075390E+02  0.37000311809E+02  0.00000000000E+00 0. -1.
</event>
<event>
 8    1  0.6505836E-009  0.8759226E+02  0.7561462E-02  0.1308789E+00
          2   -1    0    0  501    0  0.00000000000E+00  0.00000000000E+00  0.16214957635E+04  0.16214957635E+04  0.00000000000E+00 0. -1.
         -2   -1    0    0    0  501 -0.00000000000E+00 -0.00000000000E+00 -0.13962890110E+02  0.13962890110E+02  0.00000000000E+00 0.  1.
         25    2    1    2    0    0  0.46961036768E+02 -0.26746204177E+02  0.13493454723E+04  0.13562083874E+04  0.12508912054E+03 0.  0.
         23    2    1    2    0    0 -0.46961036768E+02  0.26746204177E+02  0.25818740110E+03  0.27925026620E+03  0.91647578659E+02 0.  0.
          5    1    3    3  502    0 -0.10227387806E+02 -0.70753908616E+01  0.12936339653E+02  0.18425034621E+02  0.41800000000E+01 0.  1.
         -5    1    3    3    0  502  0.57188424573E+02 -0.19670813315E+02  0.13364091326E+04  0.13377833528E+04  0.41800000000E+01 0.  1.
        -11    1    4    4    0    0  0.21944096096E+02  0.23947893002E+02  0.12643968278E+03  0.13054515814E+03  0.00000000000E+00 0.  1.
         11    1    4    4    0    0 -0.68905132863E+02  0.27983111745E+01  0.13174771833E+03  0.14870510806E+03  0.00000000000E+00 0. -1.
</event>
<event>
 8    1  0.6505836E-009  0.1612185E+03  0.7561462E-02  0.1187328E+00
         -1   -1    0    0    0  501 -0.00000000000E+00  0.00000000000E+00  0.43643319312E+03  0.43643319312E+03  0.00000000000E+00 0.  1.
          1   -1    0    0  501    0  0.00000000000E+00 -0.00000000000E+00 -0.77954645147E+02  0.77954645147E+02  0.00000000000E+00 0. -1.
         25    2    1    2    0    0 -0.13182518678E+03  0.14508644276E+02  0.92269606190E+02  0.20432790286E+03  0.12509129079E+03 0.  0.
         23    2    1    2    0    0  0.13182518678E+03 -0.14508644276E+02  0.26620894179E+03  0.31005993541E+03  0.87644636070E+02 0.  0.
          5    1    3    3  502    0 -0.11305189462E+03 -0.43158175699E+02  0.54687700249E+02  0.13285923365E+03  0.41800000000E+01 0.  1.
         -5    1    3    3    0  502 -0.18773292156E+02  0.57666819975E+02  0.37581905941E+02  0.71468669210E+02  0.41800000000E+01 0.  1.
        -11    1    4    4    0    0  0.99572933213E+02  0.99771155130E+01  0.11009249187E+03  0.14877724499E+03  0.00000000000E+00 0.  1.
         11    1    4    4    0    0  0.32252253567E+02 -0.24485759789E+02  0.15611644992E+03  0.16128269042E+03  0.00000000000E+00 0. -1.
</event>
<event>
 8    1  0.6505836E-009  0.2201364E+03  0.7561462E-02  0.1133781E+00
          2   -1    0    0  501    0  0.00000000000E+00  0.00000000000E+00  0.14338953875E+03  0.14338953875E+03  0.00000000000E+00 0.  1.
         -2   -1    0    0    0  501 -0.00000000000E+00 -0.00000000000E+00 -0.35665376539E+03  0.35665376539E+03  0.00000000000E+00 0. -1.
         25    2    1    2    0    0  0.66490823459E+02  0.18633324335E+03 -0.10281000246E+03  0.25563683998E+03  0.12505674779E+03 0.  0.
         23    2    1    2    0    0 -0.66490823459E+02 -0.18633324335E+03 -0.11045422418E+03  0.24440646416E+03  0.91614829055E+02 0.  0.
          5    1    3    3  502    0  0.45124956244E+02  0.98987479684E+01 -0.54196624154E+02  0.71337180748E+02  0.41800000000E+01 0. -1.
         -5    1    3    3    0  502  0.21365867216E+02  0.17643449538E+03 -0.48613378302E+02  0.18429965923E+03  0.41800000000E+01 0. -1.
        -11    1    4    4    0    0  0.89526579557E+01 -0.10422218888E+03 -0.37361151712E+02  0.11107776733E+03  0.00000000000E+00 0.  1.
         11    1    4    4    0    0 -0.75443481415E+02 -0.82111054475E+02 -0.73093072468E+02  0.13332869683E+03  0.00000000000E+00 0. -1.
</event>
<event>
 8    1  0.6505836E-009  0.1143501E+03  0.7561462E-02  0.1252720E+00
         -4   -1    0    0    0  501 -0.00000000000E+00  0.00000000000E+00  0.13394773742E+04  0.13394773742E+04  0.00000000000E+00 0.  1.
          4   -1    0    0  501    0  0.00000000000E+00 -0.00000000000E+00 -0.18521363333E+02  0.18521363333E+02  0.00000000000E+00 0. -1.
         25    2    1    2    0    0 -0.97758608988E+02 -0.17841615191E+02  0.94857266520E+03  0.96193132112E+03  0.12508675597E+03 0.  0.
         23    2    1    2    0    0  0.97758608988E+02  0.17841615191E+02  0.37238334563E+03  0.39606741638E+03  0.91241291914E+02 0.  0.
          5    1    3    3  502    0 -0.41285409111E+02  0.57648991210E+01  0.72661767000E+02  0.83874452910E+02  0.41800000000E+01 0. -1.
         -5    1    3    3    0  502 -0.56473199877E+02 -0.23606514312E+02  0.87591089820E+03  0.87805686821E+03  0.41800000000E+01 0. -1.
        -11    1    4    4    0    0  0.32325676361E+02  0.44328817918E+02  0.93677302352E+02  0.10856072230E+03  0.00000000000E+00 0. -1.
         11    1    4    4    0    0  0.65432932628E+02 -0.26487202727E+02  0.27870604328E+03  0.28750669408E+03  0.00000000000E+00 0.  1.
</event>
<event>
 8    1  0.6505836E-009  0.1763583E+03  0.7561462E-02  0.1171375E+00
          4   -1    0    0  501    0  0.00000000000E+00  0.00000000000E+00  0.41806898013E+02  0.41806898013E+02  0.00000000000E+00 0. -1.
         -4   -1    0    0    0  501 -0.00000000000E+00 -0.00000000000E+00 -0.10885463787E+04  0.10885463787E+04  0.00000000000E+00 0.  1.
         25    2    1    2    0    0 -0.11495086917E+03 -0.10810995362E+03 -0.78845826264E+03  0.81376614341E+03  0.12508972716E+03 0.  0.
         23    2    1    2    0    0  0.11495086917E+03  0.10810995362E+03 -0.25828121809E+03  0.31658713335E+03  0.92826510162E+02 0.  0.
          5    1    3    3  502    0 -0.13765651844E+03 -0.10090300964E+03 -0.74201144741E+03  0.76139949758E+03  0.41800000000E+01 0.  1.
         -5    1    3    3    0  502  0.22705649279E+02 -0.72069439824E+01 -0.46446815228E+02  0.52366645830E+02  0.41800000000E+01 0.  1.
        -11    1    4    4    0    0  0.10029275896E+03  0.94440927829E+02 -0.26217993304E+03  0.29616894441E+03  0.00000000000E+00 0.  1.
         11    1    4    4    0    0  0.14658110209E+02  0.13669025791E+02  0.38987149480E+01  0.20418188931E+02  0.00000000000E+00 0. -1.
</event>
<event>
 8    1  0.6505836E-009  0.1840286E+03  0.7561462E-02  0.1163960E+00
         -2   -1    0    0    0  501 -0.00000000000E+00  0.00000000000E+00  0.13385225048E+03  0.13385225048E+03  0.00000000000E+00 0.  1.
          2   -1    0    0  501    0  0.00000000000E+00 -0.00000000000E+00 -0.32295688998E+03  0.32295688998E+03  0.00000000000E+00 0. -1.
         25    2    1    2    0    0 -0.15551295731E+03  0.47328114612E+02 -0.17553150659E+03  0.26996817841E+03  0.12508907715E+03 0.  0.
         23    2    1    2    0    0  0.15551295731E+03 -0.47328114612E+02 -0.13573132906E+02  0.18684096205E+03  0.91110289425E+02 0.  0.
          5    1    3    3  502    0 -0.13478911300E+03 -0.31143728243E+01 -0.72060712010E+02  0.15293143207E+03  0.41800000000E+01 0. -1.
         -5    1    3    3    0  502 -0.20723844316E+02  0.50442487436E+02 -0.10347079458E+03  0.11703674634E+03  0.41800000000E+01 0. -1.
        -11    1    4    4    0    0  0.12493912923E+03 -0.34406090830E+01  0.15531827564E+02  0.12594785218E+03  0.00000000000E+00 0.  1.
         11    1    4    4    0    0  0.30573828087E+02 -0.43887505529E+02 -0.29104960470E+02  0.60893109868E+02  0.00000000000E+00 0. -1.
</event>
<event>
 8    1  0.6505836E-009  0.2273316E+03  0.7561462E-02  0.1128532E+00
         -1   -1    0    0    0  501 -0.00000000000E+00  0.00000000000E+00  0.99515303039E+02  0.99515303039E+02  0.00000000000E+00 0.  1.
          1   -1    0    0  501    0  0.00000000000E+00 -0.00000000000E+00 -0.58006866617E+03  0.58006866617E+03  0.00000000000E+00 0. -1.
         25    2    1    2    0    0 -0.36958392624E+02  0.21004231948E+03 -0.22435994283E+03  0.33387221682E+03  0.12509825921E+03 0.  0.
         23    2    1    2    0    0  0.36958392624E+02 -0.21004231948E+03 -0.25619342030E+03  0.34571175239E+03  0.91639775120E+02 0.  0.
          5    1    3    3  502    0  0.32075335084E+01 -0.90769632694E+01  0.70419427699E+01  0.12638864323E+02  0.41800000000E+01 0. -1.
         -5    1    3    3    0  502 -0.40165926132E+02  0.21911928274E+03 -0.23140188560E+03  0.32123335249E+03  0.41800000000E+01 0. -1.
        -11    1    4    4    0    0  0.41188621885E+02 -0.69757329416E+02 -0.46567469978E+02  0.93440445419E+02  0.00000000000E+00 0.  1.
         11    1    4    4    0    0 -0.42302292612E+01 -0.14028499006E+03 -0.20962595032E+03  0.25227130698E+03  0.00000000000E+00 0. -1.
</event>
<event>
 8    1  0.6505836E-009  0.1597869E+03  0.7561462E-02  0.1188938E+00
         -2   -1    0    0    0  501 -0.00000000000E+00  0.00000000000E+00  0.29930751645E+02  0.29930751645E+02  0.00000000000E+00 0.  1.
          2   -1    0    0  501    0  0.00000000000E+00 -0.00000000000E+00 -0.10978480669E+04  0.10978480669E+04  0.00000000000E+00 0. -1.
         25    2    1    2    0    0 -0.13138311796E+02  0.14246302308E+03 -0.49409111752E+03  0.52938032853E+03  0.12509664919E+03 0.  0.
         23    2    1    2    0    0  0.13138311796E+02 -0.14246302308E+03 -0.57382619775E+03  0.59839849003E+03  0.91301256644E+02 0.  0.
          5    1    3    3  502    0 -0.30490891318E+02  0.74112099281E+02 -0.41767308332E+03  0.42531232599E+03  0.41800000000E+01 0. -1.
         -5    1    3    3    0  502  0.17352579522E+02  0.68350923802E+02 -0.76418034207E+02  0.10406800254E+03  0.41800000000E+01 0. -1.
        -11    1    4    4    0    0  0.44420547134E+02 -0.12543059626E+03 -0.42362142490E+03  0.44402829991E+03  0.00000000000E+00 0. -1.
         11    1    4    4    0    0 -0.31282235338E+02 -0.17032426818E+02 -0.15020477284E+03  0.15437019012E+03  0.00000000000E+00 0.  1.
</event>
<event>
 8    1  0.6505836E-009  0.1669667E+03  0.7561462E-02  0.1181049E+00
         -1   -1    0    0    0  501 -0.00000000000E+00  0.00000000000E+00  0.62738404590E+02  0.62738404590E+02  0.00000000000E+00 0.  1.
          1   -1    0    0  501    0  0.00000000000E+00 -0.00000000000E+00 -0.55510427564E+03  0.55510427564E+03  0.00000000000E+00 0. -1.
         25    2    1    2    0    0 -0.13871200428E+03 -0.10207369290E+02 -0.16223962619E+03  0.24761641769E+03  0.12508790303E+03 0.  0.
         23    2    1    2    0    0  0.13871200428E+03  0.10207369290E+02 -0.33012624485E+03  0.37022626253E+03  0.93482283935E+02 0.  0.
          5    1    3    3  502    0 -0.15328096567E+03 -0.24364391744E+02 -0.10686210912E+03  0.18848252117E+03  0.41800000000E+01 0.  1.
         -5    1    3    3    0  502  0.14568961387E+02  0.14157022454E+02 -0.55377517069E+02  0.59133896518E+02  0.41800000000E+01 0.  1.
        -11    1    4    4    0    0  0.37754388542E+02  0.37641662375E+02 -0.58498500519E+02  0.79147729996E+02  0.00000000000E+00 0.  1.
         11    1    4    4    0    0  0.10095761574E+03 -0.27434293084E+02 -0.27162774433E+03  0.29107853254E+03  0.00000000000E+00 0. -1.
</event>
<event>
 8    1  0.6505836E-009  0.1174323E+03  0.7561462E-02  0.1247394E+00
         -1   -1    0    0    0  501 -0.00000000000E+00  0.00000000000E+00  0.77246103970E+03  0.77246103970E+03  0.00000000000E+00 0.  1.
          1   -1    0    0  501    0  0.00000000000E+00 -0.00000000000E+00 -0.33166429063E+02  0.33166429063E+02  0.00000000000E+00 0. -1.
         25    2    1    2    0    0  0.56220719382E+02 -0.45604250689E+02  0.62668544089E+03  0.64313536060E+03  0.12509169941E+03 0.  0.
         23    2    1    2    0    0 -0.56220719382E+02  0.45604250689E+02  0.11260916974E+03  0.16249210816E+03  0.92099636998E+02 0.  0.
          5    1    3    3  502    0 -0.31449212135E+02  0.11509766459E+02  0.85651252899E+02  0.92060508314E+02  0.41800000000E+01 0. -1.
         -5    1    3    3    0  502  0.87669931517E+02 -0.57114017148E+02  0.54103418799E+03  0.55107485229E+03  0.41800000000E+01 0. -1.
        -11    1    4    4    0    0  0.14338618870E+01 -0.13649601782E+02 -0.82856137795E+01  0.16031811638E+02  0.00000000000E+00 0. -1.
         11    1    4    4    0    0 -0.57654581269E+02  0.59253852470E+02  0.12089478352E+03  0.14646029652E+03  0.00000000000E+00 0.  1.
</event>
<event>
 8    1  0.6505836E-009  0.2177550E+03  0.7561462E-02  0.1135568E+00
         -1   -1    0    0    0  501 -0.00000000000E+00  0.00000000000E+00  0.89834486332E+02  0.89834486332E+02  0.00000000000E+00 0.  1.
          1   -1    0    0  501    0  0.00000000000E+00 -0.00000000000E+00 -0.70885333100E+03  0.70885333100E+03  0.00000000000E+00 0. -1.
         25    2    1    2    0    0 -0.13993062317E+03 -0.15152712740E+03 -0.16822423013E+03  0.29408733929E+03  0.12508765682E+03 0.  0.
         23    2    1    2    0    0  0.13993062317E+03  0.15152712740E+03 -0.45079461453E+03  0.50460047804E+03  0.94153110967E+02 0.  0.
          5    1    3    3  502    0 -0.46224764916E+02  0.48821644872E+01 -0.77309932570E+02  0.90304277283E+02  0.41800000000E+01 0. -1.
         -5    1    3    3    0  502 -0.93705858252E+02 -0.15640929189E+03 -0.90914297565E+02  0.20378306201E+03  0.41800000000E+01 0. -1.
        -11    1    4    4    0    0  0.35003251769E+02  0.32174181961E+02 -0.21539422762E+03  0.22057896298E+03  0.00000000000E+00 0.  1.
         11    1    4    4    0    0  0.10492737140E+03  0.11935294544E+03 -0.23540038691E+03  0.28402151505E+03  0.00000000000E+00 0. -1.
</event>
<event>
 8    1  0.6505836E-009  0.3737373E+03  0.7561462E-02  0.1053273E+00
         -1   -1    0    0    0  501 -0.00000000000E+00  0.00000000000E+00  0.45490829988E+03  0.45490829988E+03  0.00000000000E+00 0.  1.
          1   -1    0    0  501    0  0.00000000000E+00 -0.00000000000E+00 -0.39000943772E+03  0.39000943772E+03  0.00000000000E+00 0. -1.
         25    2    1    2    0    0  0.18158073596E+03  0.32056820968E+03  0.20639275745E+03  0.44043296316E+03  0.12509070302E+03 0.  0.
         23    2    1    2    0    0 -0.18158073596E+03 -0.32056820968E+03 -0.14149389530E+03  0.40448477445E+03  0.88610776014E+02 0.  0.
          5    1    3    3  502    0  0.13780667644E+03  0.24964241674E+03  0.93652196424E+02  0.30016699119E+03  0.41800000000E+01 0. -1.
         -5    1    3    3    0  502  0.43774059523E+02  0.70925792932E+02  0.11274056103E+03  0.14026597197E+03  0.41800000000E+01 0. -1.
        -11    1    4    4    0    0 -0.94783732915E+02 -0.24870582418E+03 -0.95383079959E+02  0.28273039268E+03  0.00000000000E+00 0.  1.
         11    1    4    4    0    0 -0.86797003045E+02 -0.71862385499E+02 -0.46110815337E+02  0.12175438176E+03  0.00000000000E+00 0. -1.
</event>
<event>
 8    1  0.6505836E-009  0.9237477E+02  0.7561462E-02  0.1297201E+00
          1   -1    0    0  501    0  0.00000000000E+00  0.00000000000E+00  0.28919414900E+03  0.28919414900E+03  0.00000000000E+00 0. -1.
         -1   -1    0    0    0  501 -0.00000000000E+00 -0.00000000000E+00 -0.59807390971E+02  0.59807390971E+02  0.00000000000E+00 0.  1.
         25    2    1    2    0    0  0.57153598526E+02  0.39743761950E+02  0.92944115689E+02  0.17068235584E+03  0.12509099694E+03 0.  0.
         23    2    1    2    0    0 -0.57153598526E+02 -0.39743761950E+02  0.13644264234E+03  0.17831918413E+03  0.91296420201E+02 0.  0.
          5    1    3    3  502    0  0.57375377880E+01  0.17386686274E+02 -0.30056677284E+02  0.35441394566E+02  0.41800000000E+01 0.  1.
         -5    1    3    3    0  502  0.51416060738E+02  0.22357075676E+02  0.12300079297E+03  0.13524096127E+03  0.41800000000E+01 0.  1.
        -11    1    4    4    0    0  0.15583443739E+02 -0.33250577642E+02  0.22760977332E+02  0.43203086943E+02  0.00000000000E+00 0.  1.
         11    1    4    4    0    0 -0.72737042265E+02 -0.64931843075E+01  0.11368166501E+03  0.13511609719E+03  0.00000000000E+00 0. -1.
</event>
<event>
 8    1  0.6505836E-009  0.1945880E+03  0.7561462E-02  0.1154387E+00
         -2   -1    0    0    0  501 -0.00000000000E+00  0.00000000000E+00  0.48796532679E+02  0.48796532679E+02  0.00000000000E+00 0.  1.
          2   -1    0    0  501    0  0.00000000000E+00 -0.00000000000E+00 -0.81426975288E+03  0.81426975288E+03  0.00000000000E+00 0. -1.
         25    2    1    2    0    0  0.14955434691E+03 -0.72950768984E+02 -0.36517893745E+03  0.42035100954E+03  0.12510394675E+03 0.  0.
         23    2    1    2    0    0 -0.14955434691E+03  0.72950768984E+02 -0.40029428275E+03  0.44271527602E+03  0.89849793746E+02 0.  0.
          5    1    3    3  502    0 -0.21067429971E+02 -0.20140065760E+02 -0.47693665955E+02  0.56050129586E+02  0.41800000000E+01 0.  1.
         -5    1    3    3    0  502  0.17062177689E+03 -0.52810703224E+02 -0.31748527150E+03  0.36430087996E+03  0.41800000000E+01 0.  1.
        -11    1    4    4    0    0 -0.13856765013E+03  0.36912630528E+02 -0.36020912565E+03  0.38770368860E+03  0.00000000000E+00 0. -1.
         11    1    4    4    0    0 -0.10986696788E+02  0.36038138456E+02 -0.40085157100E+02  0.55011587411E+02  0.00000000000E+00 0.  1.
</event>
<event>
 7    1  0.6505836E-009  0.1316581E+03  0.7561462E-02  0.1225016E+00
         -2   -1    0    0    0  501 -0.00000000000E+00  0.00000000000E+00  0.14549062756E+03  0.14549062756E+03  0.00000000000E+00 0.  1.
          2   -1    0    0  501    0  0.00000000000E+00 -0.00000000000E+00 -0.12168753681E+03  0.12168753681E+03  0.00000000000E+00 0. -1.
         23    2    1    2    0    0 -0.73068399923E+02  0.10475921480E+02  0.29793855161E+02  0.12172202244E+03  0.92086051836E+02 0.  0.
          5    1    1    2  502    0  0.52593742685E+02  0.55218954366E+02 -0.18797638924E+01  0.76395291760E+02  0.41800000000E+01 0.  1.
         -5    1    1    2    0  502  0.20474657239E+02 -0.65694875846E+02 -0.41110005242E+01  0.69060850174E+02  0.41800000000E+01 0.  1.
        -11    1    3    3    0    0  0.18015378270E+02 -0.14981862161E+02  0.66614947321E+01  0.24359506565E+02  0.00000000000E+00 0.  1.
         11    1    3    3    0    0 -0.91083778193E+02  0.25457783641E+02  0.23132360429E+02  0.97362515872E+02  0.00000000000E+00 0. -1.
</event>
<event>
 8    1  0.6505836E-009  0.9455614E+02  0.7561462E-02  0.1292179E+00
         -4   -1    0    0    0  501 -0.00000000000E+00  0.00000000000E+00  0.28160859720E+03  0.28160859720E+03  0.00000000000E+00 0.  1.
          4   -1    0    0  501    0  0.00000000000E+00 -0.00000000000E+00 -0.56434896499E+02  0.56434896499E+02  0.00000000000E+00 0. -1.
         25    2    1    2    0    0 -0.80830726976E+01  0.57700580770E+02  0.89700501092E+02  0.16458902407E+03  0.12509465961E+03 0.  0.
         23    2    1    2    0    0  0.80830726976E+01 -0.57700580770E+02  0.13547319960E+03  0.17345446962E+03  0.91316877608E+02 0.  0.
          5    1    3    3  502    0 -0.62511127381E+02  0.27084186088E+02  0.20463066130E+02  0.71255902618E+02  0.41800000000E+01 0.  1.
         -5    1    3    3    0  502  0.54428054683E+02  0.30616394682E+02  0.69237434962E+02  0.93333121452E+02  0.41800000000E+01 0.  1.
        -11    1    4    4    0    0  0.55278210763E+01 -0.36575766976E+02  0.14535860340E+03  0.14999155683E+03  0.00000000000E+00 0.  1.
         11    1    4    4    0    0  0.25552516213E+01 -0.21124813793E+02 -0.98854037997E+01  0.23462912797E+02  0.00000000000E+00 0. -1.
</event>
<event>
 8    1  0.6505836E-009  0.1469346E+03  0.7561462E-02  0.1204291E+00
         -1   -1    0    0    0  501 -0.00000000000E+00  0.00000000000E+00  0.28314414553E+03  0.28314414553E+03  0.00000000000E+00 0.  1.
          1   -1    0    0  501    0  0.00000000000E+00 -0.00000000000E+00 -0.90004099719E+02  0.90004099719E+02  0.00000000000E+00 0. -1.
         25    2    1    2    0    0 -0.10670470460E+03  0.17453544876E+02  0.15407483911E+03  0.22600599462E+03  0.12509649612E+03 0.  0.
         23    2    1    2    0    0  0.10670470460E+03 -0.17453544876E+02  0.39065206701E+02  0.14714225064E+03  0.91838071275E+02 0.  0.
          5    1    3    3  502    0 -0.11122708505E+03 -0.25644545384E+02  0.13905419007E+03  0.17995179170E+03  0.41800000000E+01 0.  1.
         -5    1    3    3    0  502  0.45223804546E+01  0.43098090260E+02  0.15020649041E+02  0.46054202920E+02  0.41800000000E+01 0.  1.
        -11    1    4    4    0    0  0.11887745357E+03 -0.54290011344E+01  0.47419492178E+02  0.12810125393E+03  0.00000000000E+00 0.  1.
         11    1    4    4    0    0 -0.12172748970E+02 -0.12024543741E+02 -0.83542854769E+01  0.19040996705E+02  0.00000000000E+00 0. -1.
</event>
<event>
 8    1  0.6505836E-009  0.1071222E+03  0.7561462E-02  0.1265994E+00
          2   -1    0    0  501    0  0.00000000000E+00  0.00000000000E+00  0.16607922494E+04  0.16607922494E+04  0.00000000000E+00 0. -1.
         -2   -1    0    0    0  501 -0.00000000000E+00 -0.00000000000E+00 -0.18342864307E+02  0.18342864307E+02  0.00000000000E+00 0.  1.
         25    2    1    2    0    0  0.22023098732E+02 -0.11360206147E+02  0.15131654681E+04  0.15185294822E+04  0.12509189960E+03 0.  0.
         23    2    1    2    0    0 -0.22023098732E+02  0.11360206147E+02  0.12928391704E+03  0.16060563153E+03  0.92009600124E+02 0.  0.
          5    1    3    3  502    0 -0.36661617894E+01 -0.61882955379E+02  0.51269636387E+03  0.51644745603E+03  0.41800000000E+01 0.  1.
         -5    1    3    3    0  502  0.25689260521E+02  0.50522749233E+02  0.10004691042E+04  0.10020820262E+04  0.41800000000E+01 0.  1.
        -11    1    4    4    0    0 -0.92915884809E+01 -0.40668070055E+02  0.57689617033E+02  0.71192116501E+02  0.00000000000E+00 0.  1.
         11    1    4    4    0    0 -0.12731510251E+02  0.52028276201E+02  0.71594300003E+02  0.89413515033E+02  0.00000000000E+00 0. -1.
</event>
<event>
 8    1  0.6505836E-009  0.8065674E+02  0.7561462E-02  0.1327198E+00
         -1   -1    0    0    0  501 -0.00000000000E+00  0.00000000000E+00  0.84589776073E+02  0.84589776073E+02  0.00000000000E+00 0.  1.
          1   -1    0    0  501    0  0.00000000000E+00 -0.00000000000E+00 -0.18843427637E+03  0.18843427637E+03  0.00000000000E+00 0. -1.
         25    2    1    2    0    0  0.32831476395E+02  0.25349876835E+02 -0.39415432683E+01  0.13184400864E+03  0.12508710866E+03 0.  0.
         23    2    1    2    0    0 -0.32831476395E+02 -0.25349876835E+02 -0.99902957030E+02  0.14118004380E+03  0.90723105368E+02 0.  0.
          5    1    3    3  502    0 -0.17080095897E+02 -0.14000390403E+02 -0.48941634321E+02  0.53856258479E+02  0.41800000000E+01 0.  1.
         -5    1    3    3    0  502  0.49911572292E+02  0.39350267238E+02  0.45000091053E+02  0.77987750161E+02  0.41800000000E+01 0.  1.
        -11    1    4    4    0    0  0.15774725817E+02 -0.21106747976E+02 -0.86726375133E+02  0.90641055424E+02  0.00000000000E+00 0. -1.
         11    1    4    4    0    0 -0.48606202212E+02 -0.42431288586E+01 -0.13176581897E+02  0.50538988380E+02  0.00000000000E+00 0.  1.
</event>
<event>
 8    1  0.6505836E-009  0.1588410E+03  0.7561462E-02  0.1190012E+00
         -1   -1    0    0    0  501 -0.00000000000E+00  0.00000000000E+00  0.31519242927E+03  0.31519242927E+03  0.00000000000E+00 0.  1.
          1   -1    0    0  501    0  0.00000000000E+00 -0.00000000000E+00 -0.14114908594E+03  0.14114908594E+03  0.00000000000E+00 0. -1.
         25    2    1    2    0    0  0.12412588048E+03 -0.73681069532E+02 -0.27183642305E+02  0.19293166900E+03  0.12509014463E+03 0.  0.
         23    2    1    2    0    0 -0.12412588048E+03  0.73681069532E+02  0.20122698563E+03  0.26340984620E+03  0.89756966965E+02 0.  0.
          5    1    3    3  502    0  0.27842530092E+02  0.37434623601E+01  0.42428261758E+02  0.51057318655E+02  0.41800000000E+01 0. -1.
         -5    1    3    3    0  502  0.96283350383E+02 -0.77424531892E+02 -0.69611904063E+02  0.14187435035E+03  0.41800000000E+01 0. -1.
        -11    1    4    4    0    0 -0.13145643798E+03  0.49628901754E+02  0.14549736530E+03  0.20227037916E+03  0.00000000000E+00 0. -1.
         11    1    4    4    0    0  0.73305575041E+01  0.24052167778E+02  0.55729620331E+02  0.61139467044E+02  0.00000000000E+00 0.  1.
</event>
<event>
 8    1  0.6505836E-009  0.8796679E+02  0.7561462E-02  0.1307851E+00
          2   -1    0    0  501    0  0.00000000000E+00  0.00000000000E+00  0.77251738576E+03  0.77251738576E+03  0.00000000000E+00 0. -1.
         -2   -1    0    0    0  501 -0.00000000000E+00 -0.00000000000E+00 -0.17725255242E+02  0.17725255242E+02  0.00000000000E+00 0.  1.
         25    2    1    2    0    0 -0.25483436548E+02  0.26858755427E+02  0.48225274390E+03  0.49958582792E+03  0.12508993637E+03 0.  0.
         23    2    1    2    0    0  0.25483436548E+02 -0.26858755427E+02  0.27253938661E+03  0.29065681307E+03  0.93983336018E+02 0.  0.
          5    1    3    3  502    0  0.23535667148E+02  0.16148561795E+02  0.41277876631E+03  0.41378555556E+03  0.41800000000E+01 0.  1.
         -5    1    3    3    0  502 -0.49019103697E+02  0.10710193632E+02  0.69473977589E+02  0.85800272359E+02  0.41800000000E+01 0.  1.
        -11    1    4    4    0    0  0.40062065304E+02 -0.53219711905E+02  0.22242380136E+03  0.23218452623E+03  0.00000000000E+00 0.  1.
         11    1    4    4    0    0 -0.14578628756E+02  0.26360956478E+02  0.50115585256E+02  0.58472286841E+02  0.00000000000E+00 0. -1.
</event>
<event>
 8    1  0.6505836E-009  0.6791514E+02  0.7561462E-02  0.1367330E+00
         -2   -1    0    0    0  501 -0.00000000000E+00  0.00000000000E+00  0.14144980698E+03  0.14144980698E+03  0.00000000000E+00 0.  1.
          2   -1    0    0  501    0  0.00000000000E+00 -0.00000000000E+00 -0.13569176657E+03  0.13569176657E+03  0.00000000000E+00 0. -1.
         25    2    1    2    0    0 -0.46218010433E+02  0.34265612026E+02  0.65848802309E+02  0.15262185350E+03  0.12508848366E+03 0.  0.
         23    2    1    2    0    0  0.46218010433E+02 -0.34265612026E+02 -0.60090761906E+02  0.12451972005E+03  0.92650010029E+02 0.  0.
          5    1    3    3  502    0 -0.25676287049E+02  0.39239304975E+02 -0.29041702158E+02  0.55316251100E+02  0.41800000000E+01 0. -1.
         -5    1    3    3    0  502 -0.20541723384E+02 -0.49736929488E+01  0.94890504466E+02  0.97305602403E+02  0.41800000000E+01 0. -1.
        -11    1    4    4    0    0  0.11393811124E+02 -0.30038078127E+02  0.19471926710E+02  0.37566753910E+02  0.00000000000E+00 0.  1.
         11    1    4    4    0    0  0.34824199308E+02 -0.42275338991E+01 -0.79562688616E+02  0.86952966138E+02  0.00000000000E+00 0. -1.
</event>
<event>
 8    1  0.6505836E-009  0.1093376E+03  0.7561462E-02  0.1261801E+00
         -3   -1    0    0    0  501 -0.00000000000E+00  0.00000000000E+00  0.27596126352E+02  0.27596126352E+02  0.00000000000E+00 0.  1.
          3   -1    0    0  501    0  0.00000000000E+00 -0.00000000000E+00 -0.62276123665E+03  0.62276123665E+03  0.00000000000E+00 0. -1.
         25    2    1    2    0    0  0.18349566676E+02  0.61419523098E+02 -0.23118353371E+03  0.27055855607E+03  0.12508813528E+03 0.  0.
         23    2    1    2    0    0 -0.18349566676E+02 -0.61419523098E+02 -0.36398157659E+03  0.37979880693E+03  0.87495606964E+02 0.  0.
          5    1    3    3  502    0 -0.28477013195E+02  0.71272622906E+02 -0.75930624049E+02  0.10804470892E+03  0.41800000000E+01 0. -1.
         -5    1    3    3    0  502  0.46826579871E+02 -0.98530998078E+01 -0.15525290966E+03  0.16251384716E+03  0.41800000000E+01 0. -1.
        -11    1    4    4    0    0  0.26256739086E+02 -0.22599437004E+02 -0.53504914111E+02  0.63741091411E+02  0.00000000000E+00 0.  1.
         11    1    4    4    0    0 -0.44606305762E+02 -0.38820086094E+02 -0.31047666248E+03  0.31605771552E+03  0.00000000000E+00 0. -1.
</event>
<event>
 8    1  0.6505836E-009  0.1028637E+03  0.7561462E-02  0.1274387E+00
          1   -1    0    0  501    0  0.00000000000E+00  0.00000000000E+00  0.22600209497E+02  0.22600209497E+02  0.00000000000E+00 0. -1.
         -1   -1    0    0    0  501 -0.00000000000E+00 -0.00000000000E+00 -0.69915244262E+03  0.69915244262E+03  0.00000000000E+00 0.  1.
         25    2    1    2    0    0 -0.46101674994E+02  0.31990098828E+02 -0.48014736539E+03  0.49933697892E+03  0.12508874913E+03 0.  0.
         23    2    1    2    0    0  0.46101674994E+02 -0.31990098828E+02 -0.19640486773E+03  0.22241567320E+03  0.88006413157E+02 0.  0.
          5    1    3    3  502    0 -0.63807460545E+02  0.64174566683E+02 -0.41163454228E+03  0.42148574807E+03  0.41800000000E+01 0. -1.
         -5    1    3    3    0  502  0.17705785551E+02 -0.32184467855E+02 -0.68512823118E+02  0.77851230849E+02  0.41800000000E+01 0. -1.
        -11    1    4    4    0    0  0.20082170044E+02 -0.44848796355E+02 -0.40059757548E+02  0.63399465794E+02  0.00000000000E+00 0. -1.
         11    1    4    4    0    0  0.26019504950E+02  0.12858697527E+02 -0.15634511018E+03  0.15901620740E+03  0.00000000000E+00 0.  1.
</event>
<event>
 8    1  0.6505836E-009  0.8335261E+02  0.7561462E-02  0.1319798E+00
          2   -1    0    0  501    0  0.00000000000E+00  0.00000000000E+00  0.82753859770E+02  0.82753859770E+02  0.00000000000E+00 0.  1.
         -2   -1    0    0    0  501 -0.00000000000E+00 -0.00000000000E+00 -0.15085526901E+03  0.15085526901E+03  0.00000000000E+00 0. -1.
         25    2    1    2    0    0 -0.49641410781E+01 -0.25643757742E+02 -0.24021264263E+02  0.13002196764E+03  0.12508575428E+03 0.  0.
         23    2    1    2    0    0  0.49641410781E+01  0.25643757742E+02 -0.44080144975E+02  0.10358716114E+03  0.90027749968E+02 0.  0.
          5    1    3    3  502    0  0.38378161411E+02 -0.98784201355E+01  0.36348086357E+02  0.53936279436E+02  0.41800000000E+01 0.  1.
         -5    1    3    3    0  502 -0.43342302489E+02 -0.15765337606E+02 -0.60369350619E+02  0.76085688201E+02  0.41800000000E+01 0.  1.
        -11    1    4    4    0    0  0.39146099342E+01  0.53013016566E+02 -0.17716125847E+01  0.53186865930E+02  0.00000000000E+00 0.  1.
         11    1    4    4    0    0  0.10495311440E+01 -0.27369258824E+02 -0.42308532391E+02  0.50400295210E+02  0.00000000000E+00 0. -1.
</event>
<event>
 8    1  0.6505836E-009  0.1802328E+03  0.7561462E-02  0.1167578E+00
         -1   -1    0    0    0  501 -0.00000000000E+00  0.00000000000E+00  0.81133789508E+02  0.81133789508E+02  0.00000000000E+00 0.  1.
          1   -1    0    0  501    0  0.00000000000E+00 -0.00000000000E+00 -0.46400903939E+03  0.46400903939E+03  0.00000000000E+00 0. -1.
         25    2    1    2    0    0 -0.15577823604E+03 -0.32610633046E+02 -0.22705631815E+03  0.30419108704E+03  0.12508930253E+03 0.  0.
         23    2    1    2    0    0  0.15577823604E+03  0.32610633046E+02 -0.15581893172E+03  0.24095174186E+03  0.91912405082E+02 0.  0.
          5    1    3    3  502    0 -0.19886531411E+02 -0.59310334470E+02 -0.56020204592E+02  0.84076903065E+02  0.41800000000E+01 0.  1.
         -5    1    3    3    0  502 -0.13589170463E+03  0.26699701424E+02 -0.17103611356E+03  0.22011418397E+03  0.41800000000E+01 0.  1.
        -11    1    4    4    0    0  0.74796777314E+02  0.13377448452E+02 -0.13537858644E+03  0.15524456735E+03  0.00000000000E+00 0. -1.
         11    1    4    4    0    0  0.80981458728E+02  0.19233184594E+02 -0.20440345284E+02  0.85707174511E+02  0.00000000000E+00 0.  1.
</event>
<event>
 8    1  0.6505836E-009  0.2358276E+03  0.7561462E-02  0.1122604E+00
          2   -1    0    0  501    0  0.00000000000E+00  0.00000000000E+00  0.37994614877E+03  0.37994614877E+03  0.00000000000E+00 0. -1.
         -2   -1    0    0    0  501 -0.00000000000E+00 -0.00000000000E+00 -0.14878368891E+03  0.14878368891E+03  0.00000000000E+00 0.  1.
         25    2    1    2    0    0 -0.15316385840E+03 -0.14347104535E+03  0.14136425521E+03  0.28226836703E+03  0.12509384478E+03 0.  0.
         23    2    1    2    0    0  0.15316385840E+03  0.14347104535E+03  0.89798204657E+02  0.24646147066E+03  0.92932397934E+02 0.  0.
          5    1    3    3  502    0 -0.53796760365E+02  0.15610804821E+02  0.40605980604E+02  0.69311663619E+02  0.41800000000E+01 0. -1.
         -5    1    3    3    0  502 -0.99367098034E+02 -0.15908185017E+03  0.10075827460E+03  0.21295670341E+03  0.41800000000E+01 0. -1.
        -11    1    4    4    0    0  0.66829923810E+02  0.81077747570E+01  0.13318637254E+02  0.68624782887E+02  0.00000000000E+00 0.  1.
         11    1    4    4    0    0  0.86333934588E+02  0.13536327059E+03  0.76479567403E+02  0.17783668777E+03  0.00000000000E+00 0. -1.
</event>
<event>
 8    1  0.6505836E-009  0.8678288E+02  0.7561462E-02  0.1310835E+00
          1   -1    0    0  501    0  0.00000000000E+00  0.00000000000E+00  0.76945846947E+02  0.76945846947E+02  0.00000000000E+00 0. -1.
         -1   -1    0    0    0  501 -0.00000000000E+00 -0.00000000000E+00 -0.17678866310E+03  0.17678866310E+03  0.00000000000E+00 0.  1.
         25    2    1    2    0    0  0.35263060687E+02 -0.21262458416E+02 -0.44697256350E+02  0.13907178827E+03  0.12509013543E+03 0.  0.
         23    2    1    2    0    0 -0.35263060687E+02  0.21262458416E+02 -0.55145559808E+02  0.11466272178E+03  0.91711130256E+02 0.  0.
          5    1    3    3  502    0  0.17299485982E+02  0.37289389655E+02 -0.62707474104E+02  0.75096408067E+02  0.41800000000E+01 0. -1.
         -5    1    3    3    0  502  0.17963574705E+02 -0.58551848070E+02  0.18010217754E+02  0.63975380204E+02  0.41800000000E+01 0. -1.
        -11    1    4    4    0    0 -0.32532810385E+02  0.40206127848E+02 -0.72344816265E+02  0.88930809669E+02  0.00000000000E+00 0.  1.
         11    1    4    4    0    0 -0.27302503018E+01 -0.18943669432E+02  0.17199256457E+02  0.25731912112E+02  0.00000000000E+00 0. -1.
</event>
<event>
 8    1  0.6505836E-009  0.1466477E+03  0.7561462E-02  0.1204654E+00
          3   -1    0    0  501    0  0.00000000000E+00  0.00000000000E+00  0.28399761623E+02  0.28399761623E+02  0.00000000000E+00 0. -1.
         -3   -1    0    0    0  501 -0.00000000000E+00 -0.00000000000E+00 -0.87074123426E+03  0.87074123426E+03  0.00000000000E+00 0.  1.
         25    2    1    2    0    0  0.85507580073E+02 -0.73726648678E+02 -0.49857600497E+03  0.52628236218E+03  0.12509167452E+03 0.  0.
         23    2    1    2    0    0 -0.85507580073E+02  0.73726648678E+02 -0.34376546767E+03  0.37285863371E+03  0.90009438348E+02 0.  0.
          5    1    3    3  502    0 -0.12709111306E+00 -0.75751061100E+02 -0.30955133963E+03  0.31871263495E+03  0.41800000000E+01 0. -1.
         -5    1    3    3    0  502  0.85634671186E+02  0.20244124214E+01 -0.18902466533E+03  0.20756972722E+03  0.41800000000E+01 0. -1.
        -11    1    4    4    0    0 -0.97294080409E+02  0.65176154048E+02 -0.33706634287E+03  0.35683019580E+03  0.00000000000E+00 0.  1.
         11    1    4    4    0    0  0.11786500336E+02  0.85504946301E+01 -0.66991247980E+01  0.16028437904E+02  0.00000000000E+00 0. -1.
</event>
<event>
 8    1  0.6505836E-009  0.8245164E+02  0.7561462E-02  0.1322235E+00
         -2   -1    0    0    0  501 -0.00000000000E+00  0.00000000000E+00  0.24696397016E+02  0.24696397016E+02  0.00000000000E+00 0.  1.
          2   -1    0    0  501    0  0.00000000000E+00 -0.00000000000E+00 -0.51041349273E+03  0.51041349273E+03  0.00000000000E+00 0. -1.
         25    2    1    2    0    0 -0.14766536109E+02 -0.17031775936E+02 -0.32469495671E+03  0.34868694310E+03  0.12509051680E+03 0.  0.
         23    2    1    2    0    0  0.14766536109E+02  0.17031775936E+02 -0.16102213901E+03  0.18642294665E+03  0.91198979201E+02 0.  0.
          5    1    3    3  502    0 -0.15985690750E+02 -0.65275622213E+02 -0.11317203841E+03  0.13168838917E+03  0.41800000000E+01 0. -1.
         -5    1    3    3    0  502  0.12191546409E+01  0.48243846277E+02 -0.21152291830E+03  0.21699855393E+03  0.41800000000E+01 0. -1.
        -11    1    4    4    0    0 -0.14383320427E+02 -0.16938059324E+01  0.61236774327E+01  0.15724131465E+02  0.00000000000E+00 0.  1.
         11    1    4    4    0    0  0.29149856536E+02  0.18725581868E+02 -0.16714581644E+03  0.17069881519E+03  0.00000000000E+00 0. -1.
</event>
<event>
 8    1  0.6505836E-009  0.1466931E+03  0.7561462E-02  0.1204596E+00
          2   -1    0    0  501    0  0.00000000000E+00  0.00000000000E+00  0.76208862250E+02  0.76208862250E+02  0.00000000000E+00 0. -1.
         -2   -1    0    0    0  501 -0.00000000000E+00 -0.00000000000E+00 -0.42585865098E+03  0.42585865098E+03  0.00000000000E+00 0.  1.
         25    2    1    2    0    0  0.58399206300E+02 -0.76655045920E+02 -0.31751811078E+03  0.35461497811E+03  0.12509024209E+03 0.  0.
         23    2    1    2    0    0 -0.58399206300E+02  0.76655045920E+02 -0.32131677950E+02  0.14745253512E+03  0.10688003566E+03 0.  0.
          5    1    3    3  502    0 -0.22040517329E+02 -0.64283978749E+02 -0.89379216432E+02  0.11235804848E+03  0.41800000000E+01 0. -1.
         -5    1    3    3    0  502  0.80439723629E+02 -0.12371067171E+02 -0.22813889435E+03  0.24225692963E+03  0.41800000000E+01 0. -1.
        -11    1    4    4    0    0 -0.87500541481E+02  0.37932994791E+02 -0.23918549882E+02  0.98322702779E+02  0.00000000000E+00 0.  1.
         11    1    4    4    0    0  0.29101335182E+02  0.38722051129E+02 -0.82131280676E+01  0.49129832339E+02  0.00000000000E+00 0. -1.
</event>
<event>
 8    1  0.6505836E-009  0.7347615E+02  0.7561462E-02  0.1348656E+00
         -2   -1    0    0    0  501 -0.00000000000E+00  0.00000000000E+00  0.38906539352E+02  0.38906539352E+02  0.00000000000E+00 0.  1.
          2   -1    0    0  501    0  0.00000000000E+00 -0.00000000000E+00 -0.34055911095E+03  0.34055911095E+03  0.00000000000E+00 0. -1.
         25    2    1    2    0    0 -0.16803345253E+01 -0.32069526974E+02 -0.13851503417E+03  0.18937936860E+03  0.12508737937E+03 0.  0.
         23    2    1    2    0    0  0.16803345253E+01  0.32069526974E+02 -0.16313753743E+03  0.19008628170E+03  0.92128498784E+02 0.  0.
          5    1    3    3  502    0 -0.19648331291E+02 -0.92381961616E+01 -0.15441962803E+03  0.15599453552E+03  0.41800000000E+01 0. -1.
         -5    1    3    3    0  502  0.17967996766E+02 -0.22831330812E+02  0.15904593857E+02  0.33384833086E+02  0.41800000000E+01 0. -1.
        -11    1    4    4    0    0 -0.40187222125E+02 -0.37874720690E+01 -0.50214637304E+02  0.64427226903E+02  0.00000000000E+00 0. -1.
         11    1    4    4    0    0  0.41867556651E+02  0.35856999043E+02 -0.11292290012E+03  0.12565905480E+03  0.00000000000E+00 0.  1.
</event>
<event>
 8    1  0.6505836E-009  0.1272058E+03  0.7561462E-02  0.1231662E+00
          1   -1    0    0  501    0  0.00000000000E+00  0.00000000000E+00  0.90428002342E+03  0.90428002342E+03  0.00000000000E+00 0. -1.
         -1   -1    0    0    0  501 -0.00000000000E+00 -0.00000000000E+00 -0.26413592192E+02  0.26413592192E+02  0.00000000000E+00 0.  1.
         25    2    1    2    0    0  0.66198262547E+02  0.78577221459E+02  0.59059623215E+03  0.61237894181E+03  0.12508984468E+03 0.  0.
         23    2    1    2    0    0 -0.66198262547E+02 -0.78577221459E+02  0.28727019908E+03  0.31831467380E+03  0.90793582288E+02 0.  0.
          5    1    3    3  502    0  0.72054837644E+02  0.49749222405E+02  0.56883521745E+03  0.57555005149E+03  0.41800000000E+01 0. -1.
         -5    1    3    3    0  502 -0.58565750966E+01  0.28827999053E+02  0.21761014700E+02  0.36828890318E+02  0.41800000000E+01 0. -1.
        -11    1    4    4    0    0 -0.12405532500E+02 -0.82193627474E+02  0.16908834448E+03  0.18841591725E+03  0.00000000000E+00 0. -1.
         11    1    4    4    0    0 -0.53792730047E+02  0.36164060152E+01  0.11818185460E+03  0.12989875655E+03  0.00000000000E+00 0.  1.
</event>
<event>
 8    1  0.6505836E-009  0.7950294E+02  0.7561462E-02  0.1330468E+00
         -1   -1    0    0    0  501 -0.00000000000E+00  0.00000000000E+00  0.13799133971E+03  0.13799133971E+03  0.00000000000E+00 0.  1.
          1   -1    0    0  501    0  0.00000000000E+00 -0.00000000000E+00 -0.89077769853E+02  0.89077769853E+02  0.00000000000E+00 0. -1.
         25    2    1    2    0    0  0.32245940787E+00  0.25847878940E+02  0.43735036260E+02  0.13501443378E+03  0.12509167481E+03 0.  0.
         23    2    1    2    0    0 -0.32245940787E+00 -0.25847878940E+02  0.51785335961E+01  0.92054675779E+02  0.88198805529E+02 0.  0.
          5    1    3    3  502    0 -0.16828298698E+02  0.51269764257E+02  0.74030632929E+02  0.91704892868E+02  0.41800000000E+01 0.  1.
         -5    1    3    3    0  502  0.17150758106E+02 -0.25421885318E+02 -0.30295596669E+02  0.43309540915E+02  0.41800000000E+01 0.  1.
        -11    1    4    4    0    0  0.34110969840E+02 -0.18193366754E+02 -0.24658427117E+02  0.45854060727E+02  0.00000000000E+00 0. -1.
         11    1    4    4    0    0 -0.34433429248E+02 -0.76545121857E+01  0.29836960713E+02  0.46200615052E+02  0.00000000000E+00 0.  1.
</event>
<event>
 8    1  0.6505836E-009  0.1440426E+03  0.7561462E-02  0.1207991E+00
         -2   -1    0    0    0  501 -0.00000000000E+00  0.00000000000E+00  0.48869302675E+03  0.48869302675E+03  0.00000000000E+00 0.  1.
          2   -1    0    0  501    0  0.00000000000E+00 -0.00000000000E+00 -0.57287504130E+02  0.57287504130E+02  0.00000000000E+00 0. -1.
         25    2    1    2    0    0 -0.68913951930E+02 -0.10961988308E+03  0.22254871760E+03  0.28625367827E+03  0.12509030769E+03 0.  0.
         23    2    1    2    0    0  0.68913951930E+02  0.10961988308E+03  0.20885680502E+03  0.25972685262E+03  0.84090554941E+02 0.  0.
          5    1    3    3  502    0 -0.22910592364E+02 -0.66984748686E+02  0.21066172102E+03  0.22227839504E+03  0.41800000000E+01 0. -1.
         -5    1    3    3    0  502 -0.46003359565E+02 -0.42635134391E+02  0.11886996579E+02  0.63975283223E+02  0.41800000000E+01 0. -1.
        -11    1    4    4    0    0 -0.14734306250E+02  0.48551610563E+02  0.64650998353E+02  0.82183394046E+02  0.00000000000E+00 0.  1.
         11    1    4    4    0    0  0.83648258180E+02  0.61068272514E+02  0.14420580667E+03  0.17754345857E+03  0.00000000000E+00 0. -1.
</event>
<event>
 8    1  0.6505836E-009  0.1466271E+03  0.7561462E-02  0.1204680E+00
         -2   -1    0    0    0  501 -0.00000000000E+00  0.00000000000E+00  0.28972778522E+02  0.28972778522E+02  0.00000000000E+00 0.  1.
          2   -1    0    0  501    0  0.00000000000E+00 -0.00000000000E+00 -0.96745464666E+03  0.96745464666E+03  0.00000000000E+00 0. -1.
         25    2    1    2    0    0  0.12340468552E+03  0.43054673302E+01 -0.58677868780E+03  0.61253926257E+03  0.12509143166E+03 0.  0.
         23    2    1    2    0    0 -0.12340468552E+03 -0.43054673302E+01 -0.35170318034E+03  0.38388816262E+03  0.91802728062E+02 0.  0.
          5    1    3    3  502    0 -0.12612551605E+02 -0.34632929857E+01 -0.23311101248E+03  0.23351506889E+03  0.41800000000E+01 0. -1.
         -5    1    3    3    0  502  0.13601723712E+03  0.77687603159E+01 -0.35366767532E+03  0.37902419368E+03  0.41800000000E+01 0. -1.
        -11    1    4    4    0    0 -0.75672760670E+02  0.33082729298E+02 -0.12976874513E+03  0.15382054771E+03  0.00000000000E+00 0.  1.
         11    1    4    4    0    0 -0.47731924847E+02 -0.37388196628E+02 -0.22193443521E+03  0.23006761491E+03  0.00000000000E+00 0. -1.
</event>
<event>
 8    1  0.6505836E-009  0.9607972E+02  0.7561462E-02  0.1288763E+00
          1   -1    0    0  501    0  0.00000000000E+00  0.00000000000E+00  0.18792287932E+03  0.18792287932E+03  0.00000000000E+00 0. -1.
         -1   -1    0    0    0  501 -0.00000000000E+00 -0.00000000000E+00 -0.81185339279E+02  0.81185339279E+02  0.00000000000E+00 0.  1.
         25    2    1    2    0    0 -0.34330312269E+02  0.16369135871E+02  0.10644950371E+03  0.16860038103E+03  0.12509225672E+03 0.  0.
         23    2    1    2    0    0  0.34330312269E+02 -0.16369135871E+02  0.28803632878E+00  0.10050783758E+03  0.93033453659E+02 0.  0.
          5    1    3    3  502    0 -0.80492617078E+02  0.19949810176E+02  0.79010127452E+02  0.11461731532E+03  0.41800000000E+01 0. -1.
         -5    1    3    3    0  502  0.46162304809E+02 -0.35806743047E+01  0.27439376262E+02  0.53983065709E+02  0.41800000000E+01 0. -1.
        -11    1    4    4    0    0  0.66265812401E+01  0.17598218606E+02  0.38185101882E+02  0.42564197194E+02  0.00000000000E+00 0. -1.
         11    1    4    4    0    0  0.27703731029E+02 -0.33967354477E+02 -0.37897065554E+02  0.57943640382E+02  0.00000000000E+00 0.  1.
</event>
<event>
 8    1  0.6505836E-009  0.1495089E+03  0.7561462E-02  0.1201078E+00
         -2   -1    0    0    0  501 -0.00000000000E+00  0.00000000000E+00  0.12578846071E+03  0.12578846071E+03  0.00000000000E+00 0.  1.
          2   -1    0    0  501    0  0.00000000000E+00 -0.00000000000E+00 -0.23208591516E+03  0.23208591516E+03  0.00000000000E+00 0. -1.
         25    2    1    2    0    0 -0.11782552754E+03  0.54562199702E+02 -0.78265172999E+02  0.19655047324E+03  0.12508702032E+03 0.  0.
         23    2    1    2    0    0  0.11782552754E+03 -0.54562199702E+02 -0.28032281453E+02  0.16132390263E+03  0.91540724167E+02 0.  0.
          5    1    3    3  502    0 -0.52717742540E+02 -0.30355985096E+02 -0.64202475973E+02  0.88544206647E+02  0.41800000000E+01 0.  1.
         -5    1    3    3    0  502 -0.65107784997E+02  0.84918184798E+02 -0.14062697026E+02  0.10800626660E+03  0.41800000000E+01 0.  1.
        -11    1    4    4    0    0  0.49635338471E+02 -0.32312193110E+02  0.32419699654E+02  0.67518749798E+02  0.00000000000E+00 0.  1.
         11    1    4    4    0    0  0.68190189067E+02 -0.22250006593E+02 -0.60451981107E+02  0.93805152833E+02  0.00000000000E+00 0. -1.
</event>
<event>
 8    1  0.6505836E-009  0.8452261E+02  0.7561462E-02  0.1316686E+00
          1   -1    0    0  501    0  0.00000000000E+00  0.00000000000E+00  0.19488998380E+03  0.19488998380E+03  0.00000000000E+00 0. -1.
         -1   -1    0    0    0  501 -0.00000000000E+00 -0.00000000000E+00 -0.12561543625E+03  0.12561543625E+03  0.00000000000E+00 0.  1.
         25    2    1    2    0    0 -0.16236754169E+02  0.22075333142E+02 -0.74801718791E+02  0.14830230659E+03  0.12508926607E+03 0.  0.
         23    2    1    2    0    0  0.16236754169E+02 -0.22075333142E+02  0.14407626634E+03  0.17220311346E+03  0.90249594132E+02 0.  0.
          5    1    3    3  502    0 -0.40760308121E+02  0.29949506050E+02 -0.99927988863E+02  0.11207787912E+03  0.41800000000E+01 0. -1.
         -5    1    3    3    0  502  0.24523553952E+02 -0.78741729074E+01  0.25126270072E+02  0.36224427465E+02  0.41800000000E+01 0. -1.
        -11    1    4    4    0    0 -0.17443068893E+01  0.33623868044E+02  0.70985952149E+02  0.78565975531E+02  0.00000000000E+00 0. -1.
         11    1    4    4    0    0  0.17981061058E+02 -0.55699201186E+02  0.73090314196E+02  0.93637137925E+02  0.00000000000E+00 0.  1.
</event>
<event>
 8    1  0.6505836E-009  0.1166170E+03  0.7561462E-02  0.1248785E+00
          4   -1    0    0  501    0  0.00000000000E+00  0.00000000000E+00  0.53392923863E+02  0.53392923863E+02  0.00000000000E+00 0. -1.
         -4   -1    0    0    0  501 -0.00000000000E+00 -0.00000000000E+00 -0.39807458897E+03  0.39807458897E+03  0.00000000000E+00 0.  1.
         25    2    1    2    0    0  0.62604323985E+02 -0.74205497221E+02 -0.20483424652E+03  0.25890272619E+03  0.12509115030E+03 0.  0.
         23    2    1    2    0    0 -0.62604323985E+02  0.74205497221E+02 -0.13984741859E+03  0.19256478664E+03  0.89989662566E+02 0.  0.
          5    1    3    3  502    0  0.23484635886E+02 -0.10417885987E+02 -0.17708201943E+03  0.17898484426E+03  0.41800000000E+01 0.  1.
         -5    1    3    3    0  502  0.39119688099E+02 -0.63787611234E+02 -0.27752227092E+02  0.79917881932E+02  0.41800000000E+01 0.  1.
        -11    1    4    4    0    0 -0.52111268142E+02  0.95346634452E+02 -0.11169845789E+03  0.15583039005E+03  0.00000000000E+00 0. -1.
         11    1    4    4    0    0 -0.10493055843E+02 -0.21141137231E+02 -0.28148960702E+02  0.36734396592E+02  0.00000000000E+00 0.  1.
</event>
<event>
 8    1  0.6505836E-009  0.8139501E+02  0.7561462E-02  0.1325139E+00
          2   -1    0    0  501    0  0.00000000000E+00  0.00000000000E+00  0.76060712625E+03  0.76060712625E+03  0.00000000000E+00 0. -1.
         -2   -1    0    0    0  501 -0.00000000000E+00 -0.00000000000E+00 -0.19463153349E+02  0.19463153349E+02  0.00000000000E+00 0.  1.
         25    2    1    2    0    0 -0.48903766037E+02  0.12167314583E+01  0.45930512784E+03  0.47854211331E+03  0.12509314526E+03 0.  0.
         23    2    1    2    0    0  0.48903766037E+02 -0.12167314583E+01  0.28183884507E+03  0.30152816629E+03  0.95357441804E+02 0.  0.
          5    1    3    3  502    0 -0.10013272230E+02 -0.12782762061E+02  0.42310988976E+03  0.42344198640E+03  0.41800000000E+01 0.  1.
         -5    1    3    3    0  502 -0.38890493806E+02  0.13999493519E+02  0.36195238071E+02  0.55100126917E+02  0.41800000000E+01 0.  1.
        -11    1    4    4    0    0  0.64364555859E+02  0.28953992435E+02  0.21949746830E+03  0.23056510646E+03  0.00000000000E+00 0.  1.
         11    1    4    4    0    0 -0.15460789822E+02 -0.30170723893E+02  0.62341376772E+02  0.70963059827E+02  0.00000000000E+00 0. -1.
</event>
<event>
 8    1  0.6505836E-009  0.9407746E+02  0.7561462E-02  0.1293268E+00
         -2   -1    0    0    0  501 -0.00000000000E+00  0.00000000000E+00  0.43473480079E+02  0.43473480079E+02  0.00000000000E+00 0.  1.
          2   -1    0    0  501    0  0.00000000000E+00 -0.00000000000E+00 -0.29636376664E+03  0.29636376664E+03  0.00000000000E+00 0. -1.
         25    2    1    2    0    0  0.24005562691E+02  0.37020397229E+01 -0.18458641657E+03  0.22428948528E+03  0.12507460128E+03 0.  0.
         23    2    1    2    0    0 -0.24005562691E+02 -0.37020397229E+01 -0.68303869989E+02  0.11554776144E+03  0.89977188110E+02 0.  0.
          5    1    3    3  502    0 -0.48377658464E+02  0.20746870757E+02 -0.71684519562E+02  0.89033551145E+02  0.41800000000E+01 0. -1.
         -5    1    3    3    0  502  0.72383221154E+02 -0.17044831034E+02 -0.11290189701E+03  0.13525593413E+03  0.41800000000E+01 0. -1.
        -11    1    4    4    0    0  0.13957327754E+02  0.13294911022E+02 -0.71286613092E+02  0.73846752557E+02  0.00000000000E+00 0. -1.
         11    1    4    4    0    0 -0.37962890444E+02 -0.16996950745E+02  0.29827431029E+01  0.41701008884E+02  0.00000000000E+00 0.  1.
</event>
<event>
 8    1  0.6505836E-009  0.7340515E+02  0.7561462E-02  0.1348882E+00
         -2   -1    0    0    0  501 -0.00000000000E+00  0.00000000000E+00  0.18761796928E+02  0.18761796928E+02  0.00000000000E+00 0.  1.
          2   -1    0    0  501    0  0.00000000000E+00 -0.00000000000E+00 -0.69058889980E+03  0.69058889980E+03  0.00000000000E+00 0. -1.
         25    2    1    2    0    0  0.34184736577E+02 -0.66134882831E+01 -0.36024910419E+03  0.38293510437E+03  0.12509013809E+03 0.  0.
         23    2    1    2    0    0 -0.34184736577E+02  0.66134882831E+01 -0.31157799868E+03  0.32641559236E+03  0.90851280840E+02 0.  0.
          5    1    3    3  502    0  0.16722233303E+02  0.21741157482E+02 -0.77021096725E+01  0.28794199219E+02  0.41800000000E+01 0. -1.
         -5    1    3    3    0  502  0.17462503274E+02 -0.28354645765E+02 -0.35254699452E+03  0.35414090515E+03  0.41800000000E+01 0. -1.
        -11    1    4    4    0    0 -0.46806033819E+02 -0.23847660453E+02 -0.25960005468E+03  0.26486166974E+03  0.00000000000E+00 0. -1.
         11    1    4    4    0    0  0.12621297242E+02  0.30461148736E+02 -0.51977944004E+02  0.61553922615E+02  0.00000000000E+00 0.  1.
</event>
<event>
 8    1  0.6505836E-009  0.1094807E+03  0.7561462E-02  0.1261535E+00
         -2   -1    0    0    0  501 -0.00000000000E+00  0.00000000000E+00  0.28753035602E+02  0.28753035602E+02  0.00000000000E+00 0.  1.
          2   -1    0    0  501    0  0.00000000000E+00 -0.00000000000E+00 -0.91080242126E+03  0.91080242126E+03  0.00000000000E+00 0. -1.
         25    2    1    2    0    0  0.81172441598E+02 -0.58511259182E+02 -0.65890270871E+03  0.67809436291E+03  0.12508658101E+03 0.  0.
         23    2    1    2    0    0 -0.81172441598E+02  0.58511259182E+02 -0.22314667696E+03  0.26146109395E+03  0.92492872636E+02 0.  0.
          5    1    3    3  502    0  0.24068848662E+01 -0.13305465402E+02 -0.45053546283E+03  0.45075770007E+03  0.41800000000E+01 0.  1.
         -5    1    3    3    0  502  0.78765556732E+02 -0.45205793780E+02 -0.20836724587E+03  0.22733666284E+03  0.41800000000E+01 0.  1.
        -11    1    4    4    0    0 -0.43809701068E+02 -0.77767440286E+00 -0.16401686869E+03  0.16976874830E+03  0.00000000000E+00 0. -1.
         11    1    4    4    0    0 -0.37362740530E+02  0.59288933585E+02 -0.59129808269E+02  0.91692345654E+02  0.00000000000E+00 0.  1.
</event>
<event>
 8    1  0.6505836E-009  0.2323069E+03  0.7561462E-02  0.1125027E+00
         -2   -1    0    0    0  501 -0.00000000000E+00  0.00000000000E+00  0.50355896336E+02  0.50355896336E+02  0.00000000000E+00 0.  1.
          2   -1    0    0  501    0  0.00000000000E+00 -0.00000000000E+00 -0.13532723575E+04  0.13532723575E+04  0.00000000000E+00 0. -1.
         25    2    1    2    0    0  0.20965418984E+03 -0.40977439862E+02 -0.39240248816E+03  0.46396260230E+03  0.12509018238E+03 0.  0.
         23    2    1    2    0    0 -0.20965418984E+03  0.40977439862E+02 -0.91051397301E+03  0.93966565154E+03  0.91114278477E+02 0.  0.
          5    1    3    3  502    0  0.71721009917E+02 -0.76283269064E+02 -0.15470849804E+03  0.18685618044E+03  0.41800000000E+01 0. -1.
         -5    1    3    3    0  502  0.13793317992E+03  0.35305829202E+02 -0.23769399012E+03  0.27710642186E+03  0.41800000000E+01 0. -1.
        -11    1    4    4    0    0 -0.99045874885E+02 -0.10755234331E+01 -0.25510591649E+03  0.27366086807E+03  0.00000000000E+00 0.  1.
         11    1    4    4    0    0 -0.11060831495E+03  0.42052963295E+02 -0.65540805651E+03  0.66600478347E+03  0.00000000000E+00 0. -1.
</event>
<event>
 8    1  0.6505836E-009  0.9986931E+02  0.7561462E-02  0.1280571E+00
         -1   -1    0    0    0  501 -0.00000000000E+00  0.00000000000E+00  0.35938177881E+03  0.35938177881E+03  0.00000000000E+00 0.  1.
          1   -1    0    0  501    0  0.00000000000E+00 -0.00000000000E+00 -0.36732775957E+02  0.36732775957E+02  0.00000000000E+00 0. -1.
         25    2    1    2    0    0 -0.32748096400E+02  0.52705559430E+01  0.15636565264E+03  0.20297219514E+03  0.12508908064E+03 0.  0.
         23    2    1    2    0    0  0.32748096400E+02 -0.52705559430E+01  0.16628335021E+03  0.19314235963E+03  0.92485685095E+02 0.  0.
          5    1    3    3  502    0 -0.58785226364E+02 -0.43234490889E+02  0.10203198277E+03  0.12551064476E+03  0.41800000000E+01 0.  1.
         -5    1    3    3    0  502  0.26037129964E+02  0.48505046832E+02  0.54333669878E+02  0.77461550381E+02  0.41800000000E+01 0.  1.
        -11    1    4    4    0    0  0.35813557134E+02 -0.29877451891E+02  0.16122372893E+03  0.16783433432E+03  0.00000000000E+00 0.  1.
         11    1    4    4    0    0 -0.30654607335E+01  0.24606895948E+02  0.50596212853E+01  0.25308025314E+02  0.00000000000E+00 0. -1.
</event>
<event>
 8    1  0.6505836E-009  0.9057191E+02  0.7561462E-02  0.1301473E+00
         -2   -1    0    0    0  501 -0.00000000000E+00  0.00000000000E+00  0.51675840891E+02  0.51675840891E+02  0.00000000000E+00 0.  1.
          2   -1    0    0  501    0  0.00000000000E+00 -0.00000000000E+00 -0.25524056579E+03  0.25524056579E+03  0.00000000000E+00 0. -1.
         25    2    1    2    0    0  0.15589088712E+02  0.23015692712E+02 -0.15251758340E+03  0.19920125663E+03  0.12508711205E+03 0.  0.
         23    2    1    2    0    0 -0.15589088712E+02 -0.23015692712E+02 -0.51047141506E+02  0.10771515005E+03  0.90686278440E+02 0.  0.
          5    1    3    3  502    0 -0.58319704207E+01  0.53973496693E+02 -0.15185116894E+03  0.16131769938E+03  0.41800000000E+01 0.  1.
         -5    1    3    3    0  502  0.21421059132E+02 -0.30957803981E+02 -0.66641445389E+00  0.37883557250E+02  0.41800000000E+01 0.  1.
        -11    1    4    4    0    0  0.32478630589E+02 -0.24569506156E+02 -0.42511708003E+02  0.58870768595E+02  0.00000000000E+00 0. -1.
         11    1    4    4    0    0 -0.48067719301E+02  0.15538134442E+01 -0.85354335032E+01  0.48844381459E+02  0.00000000000E+00 0.  1.
</event>
<event>
 8    1  0.6505836E-009  0.1008545E+03  0.7561462E-02  0.1278509E+00
         -1   -1    0    0    0  501 -0.00000000000E+00  0.00000000000E+00  0.48515230065E+02  0.48515230065E+02  0.00000000000E+00 0.  1.
          1   -1    0    0  501    0  0.00000000000E+00 -0.00000000000E+00 -0.31668700808E+03  0.31668700808E+03  0.00000000000E+00 0. -1.
         25    2    1    2    0    0 -0.19067929175E+02 -0.67183139590E+01 -0.23315778453E+03  0.26536479030E+03  0.12508875960E+03 0.  0.
         23    2    1    2    0    0  0.19067929175E+02  0.67183139590E+01 -0.35013993482E+02  0.99837447845E+02  0.91284251583E+02 0.  0.
          5    1    3    3  502    0 -0.69049506832E+02  0.18765126233E+01 -0.17443933379E+03  0.18766435268E+03  0.41800000000E+01 0. -1.
         -5    1    3    3    0  502  0.49981577657E+02 -0.85948265823E+01 -0.58718450745E+02  0.77700437624E+02  0.41800000000E+01 0. -1.
        -11    1    4    4    0    0 -0.15879275316E+02  0.33842127473E+02  0.78961376627E+01  0.38207197836E+02  0.00000000000E+00 0.  1.
         11    1    4    4    0    0  0.34947204491E+02 -0.27123813514E+02 -0.42910131145E+02  0.61630250009E+02  0.00000000000E+00 0. -1.
</event>
<event>
 8    1  0.6505836E-009  0.1236751E+03  0.7561462E-02  0.1237155E+00
          1   -1    0    0  501    0  0.00000000000E+00  0.00000000000E+00  0.68473582290E+02  0.68473582290E+02  0.00000000000E+00 0. -1.
         -1   -1    0    0    0  501 -0.00000000000E+00 -0.00000000000E+00 -0.26777479430E+03  0.26777479430E+03  0.00000000000E+00 0.  1.
         25    2    1    2    0    0 -0.63580681819E+02 -0.49183398018E+02 -0.12138398984E+03  0.19194754578E+03  0.12509307574E+03 0.  0.
         23    2    1    2    0    0  0.63580681819E+02  0.49183398018E+02 -0.77917222168E+02  0.14430083081E+03  0.91050131916E+02 0.  0.
          5    1    3    3  502    0  0.24868806656E+02 -0.13274395397E+01 -0.78639538429E+02  0.82594606631E+02  0.41800000000E+01 0. -1.
         -5    1    3    3    0  502 -0.88449488475E+02 -0.47855958478E+02 -0.42744451414E+02  0.10935293915E+03  0.41800000000E+01 0. -1.
        -11    1    4    4    0    0 -0.45185306576E+00  0.56942145707E+02 -0.35544174028E+02  0.67126749036E+02  0.00000000000E+00 0.  1.
         11    1    4    4    0    0  0.64032534885E+02 -0.77587476886E+01 -0.42373048140E+02  0.77174081777E+02  0.00000000000E+00 0. -1.
</event>
<event>
 8    1  0.6505836E-009  0.1144620E+03  0.7561462E-02  0.1252523E+00
         -1   -1    0    0    0  501 -0.00000000000E+00  0.00000000000E+00  0.39965773144E+02  0.39965773144E+02  0.00000000000E+00 0.  1.
          1   -1    0    0  501    0  0.00000000000E+00 -0.00000000000E+00 -0.55281318970E+03  0.55281318970E+03  0.00000000000E+00 0. -1.
         25    2    1    2    0    0  0.98219507045E+02 -0.32753559366E+02 -0.29254280083E+03  0.33458879006E+03  0.12509396830E+03 0.  0.
         23    2    1    2    0    0 -0.98219507045E+02  0.32753559366E+02 -0.22030461573E+03  0.25819017278E+03  0.86070752249E+02 0.  0.
          5    1    3    3  502    0  0.84183984728E+02 -0.33458421489E+02 -0.30319465035E+03  0.31646623462E+03  0.41800000000E+01 0.  1.
         -5    1    3    3    0  502  0.14035522317E+02  0.70486212283E+00  0.10651849528E+02  0.18122555440E+02  0.41800000000E+01 0.  1.
        -11    1    4    4    0    0 -0.10129247387E+03  0.45081422724E+02 -0.14879041688E+03  0.18555615887E+03  0.00000000000E+00 0. -1.
         11    1    4    4    0    0  0.30729668259E+01 -0.12327863358E+02 -0.71514198849E+02  0.72634013913E+02  0.00000000000E+00 0.  1.
</event>
<event>
 8    1  0.6505836E-009  0.1331811E+03  0.7561462E-02  0.1222811E+00
          1   -1    0    0  501    0  0.00000000000E+00  0.00000000000E+00  0.57225695253E+03  0.57225695253E+03  0.00000000000E+00 0. -1.
         -1   -1    0    0    0  501 -0.00000000000E+00 -0.00000000000E+00 -0.36628318251E+02  0.36628318251E+02  0.00000000000E+00 0.  1.
         25    2    1    2    0    0  0.49322420600E+02  0.59689994705E+02  0.17339388428E+03  0.22739483529E+03  0.12508946945E+03 0.  0.
         23    2    1    2    0    0 -0.49322420600E+02 -0.59689994705E+02  0.36223475000E+03  0.38149043549E+03  0.91243310030E+02 0.  0.
          5    1    3    3  502    0 -0.22937885753E+02  0.70107476378E+02  0.82832722621E+02  0.11099521244E+03  0.41800000000E+01 0. -1.
         -5    1    3    3    0  502  0.72260306353E+02 -0.10417481673E+02  0.90561161661E+02  0.11639962285E+03  0.41800000000E+01 0. -1.
        -11    1    4    4    0    0 -0.74401933569E+02 -0.57775050483E+02  0.27399464445E+03  0.28973551622E+03  0.00000000000E+00 0.  1.
         11    1    4    4    0    0  0.25079512969E+02 -0.19149442220E+01  0.88240105554E+02  0.91754919270E+02  0.00000000000E+00 0. -1.
</event>
<event>
 8    1  0.6505836E-009  0.9076592E+02  0.7561462E-02  0.1301007E+00
         -1   -1    0    0    0  501 -0.00000000000E+00  0.00000000000E+00  0.52309263573E+02  0.52309263573E+02  0.00000000000E+00 0.  1.
          1   -1    0    0  501    0  0.00000000000E+00 -0.00000000000E+00 -0.28595629574E+03  0.28595629574E+03  0.00000000000E+00 0. -1.
         25    2    1    2    0    0  0.35144904364E+02 -0.36840798096E+02 -0.97624334283E+02  0.16665938936E+03  0.12510968272E+03 0.  0.
         23    2    1    2    0    0 -0.35144904364E+02  0.36840798096E+02 -0.13602269789E+03  0.17160616996E+03  0.91400735886E+02 0.  0.
          5    1    3    3  502    0 -0.62642717760E+01  0.38007080237E+02 -0.63670406761E+02  0.74533028559E+02  0.41800000000E+01 0.  1.
         -5    1    3    3    0  502  0.41409176140E+02 -0.74847878333E+02 -0.33953927522E+02  0.92126360797E+02  0.41800000000E+01 0.  1.
        -11    1    4    4    0    0  0.15284329036E+01  0.13690934663E+02  0.11434742591E+02  0.17903383401E+02  0.00000000000E+00 0.  1.
         11    1    4    4    0    0 -0.36673337268E+02  0.23149863432E+02 -0.14745744048E+03  0.15370278656E+03  0.00000000000E+00 0. -1.
</event>
<event>
 8    1  0.6505836E-009  0.1229536E+03  0.7561462E-02  0.1238303E+00
         -2   -1    0    0    0  501 -0.00000000000E+00  0.00000000000E+00  0.97805668755E+02  0.97805668755E+02  0.00000000000E+00 0. -1.
          2   -1    0    0  501    0  0.00000000000E+00 -0.00000000000E+00 -0.27883158693E+03  0.27883158693E+03  0.00000000000E+00 0.  1.
         25    2    1    2    0    0  0.27029193935E+02  0.82722763642E+02  0.44041198019E+01  0.15244528401E+03  0.12508611193E+03 0.  0.
         23    2    1    2    0    0 -0.27029193935E+02 -0.82722763642E+02 -0.18543003798E+03  0.22419197167E+03  0.91126879838E+02 0.  0.
          5    1    3    3  502    0  0.49608706034E+02 -0.14650870964E+02 -0.39927033358E+01  0.52048879088E+02  0.41800000000E+01 0.  1.
         -5    1    3    3    0  502 -0.22579512099E+02  0.97373634605E+02  0.83968231378E+01  0.10039640492E+03  0.41800000000E+01 0.  1.
        -11    1    4    4    0    0 -0.31059075341E+02 -0.38067995659E+02 -0.20431040167E+02  0.53209640638E+02  0.00000000000E+00 0. -1.
         11    1    4    4    0    0  0.40298814062E+01 -0.44654767983E+02 -0.16499899781E+03  0.17098233104E+03  0.00000000000E+00 0.  1.
</event>
<event>
 8    1  0.6505836E-009  0.2109395E+03  0.7561462E-02  0.1140824E+00
         -2   -1    0    0    0  501 -0.00000000000E+00  0.00000000000E+00  0.21237190058E+02  0.21237190058E+02  0.00000000000E+00 0.  1.
          2   -1    0    0  501    0  0.00000000000E+00 -0.00000000000E+00 -0.24816103295E+04  0.24816103295E+04  0.00000000000E+00 0. -1.
         25    2    1    2    0    0  0.28408744954E+02 -0.19851108976E+03 -0.12117343746E+04  0.12345694880E+04  0.12509163321E+03 0.  0.
         23    2    1    2    0    0 -0.28408744954E+02  0.19851108976E+03 -0.12486387649E+04  0.12682780315E+04  0.96003596711E+02 0.  0.
          5    1    3    3  502    0  0.71921897451E+01 -0.95046483186E+02 -0.25944936596E+03  0.27643626292E+03  0.41800000000E+01 0. -1.
         -5    1    3    3    0  502  0.21216555209E+02 -0.10346460658E+03 -0.95228500861E+03  0.95813322510E+03  0.41800000000E+01 0. -1.
        -11    1    4    4    0    0 -0.41777536105E+02  0.29293655778E+02 -0.22987010046E+03  0.23546495255E+03  0.00000000000E+00 0.  1.
         11    1    4    4    0    0  0.13368791151E+02  0.16921743398E+03 -0.10187686644E+04  0.10328130790E+04  0.00000000000E+00 0. -1.
</event>
<event>
 8    1  0.6505836E-009  0.1247668E+03  0.7561462E-02  0.1235434E+00
         -1   -1    0    0    0  501 -0.00000000000E+00  0.00000000000E+00  0.13156375342E+03  0.13156375342E+03  0.00000000000E+00 0.  1.
          1   -1    0    0  501    0  0.00000000000E+00 -0.00000000000E+00 -0.15925341134E+03  0.15925341134E+03  0.00000000000E+00 0. -1.
         25    2    1    2    0    0 -0.99290392268E+01  0.80155502063E+02  0.35818229004E+02  0.15314783502E+03  0.12509126073E+03 0.  0.
         23    2    1    2    0    0  0.99290392268E+01 -0.80155502063E+02 -0.63507886923E+02  0.13766932975E+03  0.91630247846E+02 0.  0.
          5    1    3    3  502    0  0.17639063498E+02  0.99183042794E+02  0.54451414536E+02  0.11458988386E+03  0.41800000000E+01 0. -1.
         -5    1    3    3    0  502 -0.27568102724E+02 -0.19027540730E+02 -0.18633185532E+02  0.38557951154E+02  0.41800000000E+01 0. -1.
        -11    1    4    4    0    0 -0.28297362535E+02 -0.25136076027E+01  0.29393048045E+01  0.28560435262E+02  0.00000000000E+00 0.  1.
         11    1    4    4    0    0  0.38226401762E+02 -0.77641894460E+02 -0.66447191727E+02  0.10910889448E+03  0.00000000000E+00 0. -1.
</event>
<event>
 8    1  0.6505836E-009  0.1075126E+03  0.7561462E-02  0.1265247E+00
          2   -1    0    0  501    0  0.00000000000E+00  0.00000000000E+00  0.35995514732E+03  0.35995514732E+03  0.00000000000E+00 0. -1.
         -2   -1    0    0    0  501 -0.00000000000E+00 -0.00000000000E+00 -0.37740558169E+02  0.37740558169E+02  0.00000000000E+00 0.  1.
         25    2    1    2    0    0 -0.79986751808E+01  0.37943287106E+02  0.15282110803E+03  0.20126343988E+03  0.12509600047E+03 0.  0.
         23    2    1    2    0    0  0.79986751808E+01 -0.37943287106E+02  0.16939348112E+03  0.19643226560E+03  0.91584997042E+02 0.  0.
          5    1    3    3  502    0 -0.15452898024E+02  0.79874692564E+02  0.67431647418E+02  0.10575092455E+03  0.41800000000E+01 0.  1.
         -5    1    3    3    0  502  0.74542228433E+01 -0.41931405459E+02  0.85389460613E+02  0.95512515335E+02  0.41800000000E+01 0.  1.
        -11    1    4    4    0    0  0.23263078993E+01 -0.64030061354E+02  0.76543920257E+02  0.99821000765E+02  0.00000000000E+00 0.  1.
         11    1    4    4    0    0  0.56723672815E+01  0.26086774248E+02  0.92849560861E+02  0.96611264836E+02  0.00000000000E+00 0. -1.
</event>
<event>
 8    1  0.6505836E-009  0.9638481E+02  0.7561462E-02  0.1288087E+00
         -1   -1    0    0    0  501 -0.00000000000E+00  0.00000000000E+00  0.41970273114E+03  0.41970273114E+03  0.00000000000E+00 0.  1.
          1   -1    0    0  501    0  0.00000000000E+00 -0.00000000000E+00 -0.49340079045E+02  0.49340079045E+02  0.00000000000E+00 0. -1.
         25    2    1    2    0    0 -0.56151150441E+02  0.71596418913E+02  0.24851495550E+03  0.29271894639E+03  0.12508277088E+03 0.  0.
         23    2    1    2    0    0  0.56151150441E+02 -0.71596418913E+02  0.12184769659E+03  0.17632386379E+03  0.89242618077E+02 0.  0.
          5    1    3    3  502    0 -0.54723373734E+02  0.47912837947E+02  0.25703829654E+03  0.26716370630E+03  0.41800000000E+01 0.  1.
         -5    1    3    3    0  502 -0.14277767075E+01  0.23683580967E+02 -0.85233410411E+01  0.25555240094E+02  0.41800000000E+01 0.  1.
        -11    1    4    4    0    0  0.23630470819E+02 -0.90059685497E+01  0.99003210433E+02  0.10218190787E+03  0.00000000000E+00 0.  1.
         11    1    4    4    0    0  0.32520679623E+02 -0.62590450364E+02  0.22844486160E+02  0.74141955921E+02  0.00000000000E+00 0. -1.
</event>
<event>
 8    1  0.6505836E-009  0.9604203E+02  0.7561462E-02  0.1288846E+00
         -1   -1    0    0    0  501 -0.00000000000E+00  0.00000000000E+00  0.57008684212E+02  0.57008684212E+02  0.00000000000E+00 0.  1.
          1   -1    0    0  501    0  0.00000000000E+00 -0.00000000000E+00 -0.32450478738E+03  0.32450478738E+03  0.00000000000E+00 0. -1.
         25    2    1    2    0    0  0.76803881729E+02 -0.32510394916E+02 -0.14574861415E+03  0.20939354789E+03  0.12508891776E+03 0.  0.
         23    2    1    2    0    0 -0.76803881729E+02  0.32510394916E+02 -0.12174748901E+03  0.17211992370E+03  0.88583604728E+02 0.  0.
          5    1    3    3  502    0  0.59595654636E+02 -0.38932733453E+02 -0.96042313419E+01  0.71952160810E+02  0.41800000000E+01 0.  1.
         -5    1    3    3    0  502  0.17208227093E+02  0.64223385369E+01 -0.13614438281E+03  0.13744138708E+03  0.41800000000E+01 0.  1.
        -11    1    4    4    0    0 -0.58961458617E+02  0.49736600283E+02 -0.12522475856E+03  0.14707624950E+03  0.00000000000E+00 0. -1.
         11    1    4    4    0    0 -0.17842423112E+02 -0.17226205367E+02  0.34772695488E+01  0.25043674199E+02  0.00000000000E+00 0.  1.
</event>
<event>
 8    1  0.6505836E-009  0.1052771E+03  0.7561462E-02  0.1269575E+00
          2   -1    0    0  501    0  0.00000000000E+00  0.00000000000E+00  0.20666503127E+03  0.20666503127E+03  0.00000000000E+00 0. -1.
         -2   -1    0    0    0  501 -0.00000000000E+00 -0.00000000000E+00 -0.10145029506E+03  0.10145029506E+03  0.00000000000E+00 0.  1.
         25    2    1    2    0    0  0.32246315890E+01  0.22739291316E+02 -0.41567446244E+02  0.13379888005E+03  0.12508722596E+03 0.  0.
         23    2    1    2    0    0 -0.32246315890E+01 -0.22739291316E+02  0.14678218245E+03  0.17431644627E+03  0.91179716701E+02 0.  0.
          5    1    3    3  502    0 -0.44846689691E+02  0.49920219893E+02 -0.49749818698E+01  0.67420151105E+02  0.41800000000E+01 0.  1.
         -5    1    3    3    0  502  0.48071321280E+02 -0.27180928577E+02 -0.36592464374E+02  0.66378728949E+02  0.41800000000E+01 0.  1.
        -11    1    4    4    0    0  0.20306279194E+02  0.26486867879E+02  0.27858992442E+02  0.43474390216E+02  0.00000000000E+00 0.  1.
         11    1    4    4    0    0 -0.23530910783E+02 -0.49226159195E+02  0.11892319001E+03  0.13084205606E+03  0.00000000000E+00 0. -1.
</event>
<event>
 8    1  0.6505836E-009  0.8833905E+02  0.7561462E-02  0.1306924E+00
          1   -1    0    0  501    0  0.00000000000E+00  0.00000000000E+00  0.45436590861E+02  0.45436590861E+02  0.00000000000E+00 0. -1.
         -1   -1    0    0    0  501 -0.00000000000E+00 -0.00000000000E+00 -0.33389370399E+03  0.33389370399E+03  0.00000000000E+00 0.  1.
         25    2    1    2    0    0 -0.35867397192E+01  0.28884529402E+02 -0.83203913661E+02  0.15302501984E+03  0.12508630904E+03 0.  0.
         23    2    1    2    0    0  0.35867397192E+01 -0.28884529402E+02 -0.20525319946E+03  0.22630527500E+03  0.90763543695E+02 0.  0.
          5    1    3    3  502    0  0.21037634558E+02  0.50768112388E+02 -0.10121535330E+03  0.11524757458E+03  0.41800000000E+01 0.  1.
         -5    1    3    3    0  502 -0.24624374277E+02 -0.21883582986E+02  0.18011439636E+02  0.37777445264E+02  0.41800000000E+01 0.  1.
        -11    1    4    4    0    0  0.20164831030E+02 -0.54350722756E+02 -0.17078261992E+03  0.18035333305E+03  0.00000000000E+00 0.  1.
         11    1    4    4    0    0 -0.16578091311E+02  0.25466193354E+02 -0.34470579542E+02  0.45951941955E+02  0.00000000000E+00 0. -1.
</event>
<event>
 8    1  0.6505836E-009  0.1395400E+03  0.7561462E-02  0.1213949E+00
         -1   -1    0    0    0  501 -0.00000000000E+00  0.00000000000E+00  0.34990365943E+03  0.34990365943E+03  0.00000000000E+00 0.  1.
          1   -1    0    0  501    0  0.00000000000E+00 -0.00000000000E+00 -0.88429852267E+02  0.88429852267E+02  0.00000000000E+00 0. -1.
         25    2    1    2    0    0 -0.57689139932E+02  0.10938151577E+03  0.21519560730E+03  0.27793910586E+03  0.12509454148E+03 0.  0.
         23    2    1    2    0    0  0.57689139932E+02 -0.10938151577E+03  0.46278199864E+02  0.16039440583E+03  0.91062290672E+02 0.  0.
          5    1    3    3  502    0 -0.75879723517E+02  0.10228056145E+03  0.10262394612E+03  0.16360987870E+03  0.41800000000E+01 0. -1.
         -5    1    3    3    0  502  0.18190583585E+02  0.71009543187E+01  0.11257166117E+03  0.11432922716E+03  0.41800000000E+01 0. -1.
        -11    1    4    4    0    0  0.31434721930E+02 -0.17184420530E+02  0.53359982687E+02  0.64270784997E+02  0.00000000000E+00 0.  1.
         11    1    4    4    0    0  0.26254418002E+02 -0.92197095236E+02 -0.70817828232E+01  0.96123620836E+02  0.00000000000E+00 0. -1.
</event>
<event>
 8    1  0.6505836E-009  0.1083932E+03  0.7561462E-02  0.1263575E+00
         -1   -1    0    0    0  501 -0.00000000000E+00  0.00000000000E+00  0.39457151522E+02  0.39457151522E+02  0.00000000000E+00 0.  1.
          1   -1    0    0  501    0  0.00000000000E+00 -0.00000000000E+00 -0.51064428282E+03  0.51064428282E+03  0.00000000000E+00 0. -1.
         25    2    1    2    0    0  0.72593098936E+02 -0.30804896089E+02 -0.34828922201E+03  0.37837992162E+03  0.12508910137E+03 0.  0.
         23    2    1    2    0    0 -0.72593098936E+02  0.30804896089E+02 -0.12289790929E+03  0.17172151272E+03  0.90364164285E+02 0.  0.
          5    1    3    3  502    0 -0.15660867066E+02  0.46021345118E+00  0.14694158412E+01  0.16282080230E+02  0.41800000000E+01 0. -1.
         -5    1    3    3    0  502  0.88253966003E+02 -0.31265109540E+02 -0.34975863785E+03  0.36209784139E+03  0.41800000000E+01 0. -1.
        -11    1    4    4    0    0  0.93770114323E+01  0.22601690034E+02 -0.69167570799E+02  0.73368369111E+02  0.00000000000E+00 0. -1.
         11    1    4    4    0    0 -0.81970110368E+02  0.82032060552E+01 -0.53730338489E+02  0.98353143608E+02  0.00000000000E+00 0.  1.
</event>
<event>
 8    1  0.6505836E-009  0.8231589E+02  0.7561462E-02  0.1322605E+00
         -1   -1    0    0    0  501 -0.00000000000E+00  0.00000000000E+00  0.92755594759E+02  0.92755594759E+02  0.00000000000E+00 0.  1.
          1   -1    0    0  501    0  0.00000000000E+00 -0.00000000000E+00 -0.13093749484E+03  0.13093749484E+03  0.00000000000E+00 0. -1.
         25    2    1    2    0    0  0.21375034189E+02  0.85058026812E+01 -0.13669268385E+02  0.12789000931E+03  0.12505904532E+03 0.  0.
         23    2    1    2    0    0 -0.21375034189E+02 -0.85058026812E+01 -0.24512631691E+02  0.95803080287E+02  0.89711316534E+02 0.  0.
          5    1    3    3  502    0 -0.41926872948E+02  0.32214323527E+02 -0.25972343723E+02  0.59056416705E+02  0.41800000000E+01 0.  1.
         -5    1    3    3    0  502  0.63301907137E+02 -0.23708520846E+02  0.12303075337E+02  0.68833592603E+02  0.41800000000E+01 0.  1.
        -11    1    4    4    0    0 -0.22617497833E+02 -0.21267421992E+02  0.27963677621E+02  0.41783031394E+02  0.00000000000E+00 0.  1.
         11    1    4    4    0    0  0.12424636446E+01  0.12761619310E+02 -0.52476309312E+02  0.54020048893E+02  0.00000000000E+00 0. -1.
</event>
<event>
 8    1  0.6505836E-009  0.1728898E+03  0.7561462E-02  0.1174867E+00
          2   -1    0    0  501    0  0.00000000000E+00  0.00000000000E+00  0.76169254699E+03  0.76169254699E+03  0.00000000000E+00 0. -1.
         -2   -1    0    0    0  501 -0.00000000000E+00 -0.00000000000E+00 -0.44846079170E+02  0.44846079170E+02  0.00000000000E+00 0.  1.
         25    2    1    2    0    0  0.10869975281E+03 -0.10204281710E+03  0.38127295624E+03  0.42807222098E+03  0.12509351074E+03 0.  0.
         23    2    1    2    0    0 -0.10869975281E+03  0.10204281710E+03  0.33557351157E+03  0.37846640518E+03  0.91645323909E+02 0.  0.
          5    1    3    3  502    0  0.14753848541E+01 -0.67242451772E+02  0.70815077330E+02  0.97754650314E+02  0.41800000000E+01 0. -1.
         -5    1    3    3    0  502  0.10722436796E+03 -0.34800365332E+02  0.31045787891E+03  0.33031757066E+03  0.41800000000E+01 0. -1.
        -11    1    4    4    0    0 -0.39278219023E+02  0.85688034441E+02  0.24932374917E+03  0.26654746226E+03  0.00000000000E+00 0.  1.
         11    1    4    4    0    0 -0.69421533789E+02  0.16354782662E+02  0.86249762403E+02  0.11191894292E+03  0.00000000000E+00 0. -1.
</event>
<event>
 8    1  0.6505836E-009  0.1298341E+03  0.7561462E-02  0.1227702E+00
         -1   -1    0    0    0  501 -0.00000000000E+00  0.00000000000E+00  0.72908649678E+03  0.72908649678E+03  0.00000000000E+00 0.  1.
          1   -1    0    0  501    0  0.00000000000E+00 -0.00000000000E+00 -0.26799231699E+02  0.26799231699E+02  0.00000000000E+00 0. -1.
         25    2    1    2    0    0 -0.55687977507E+02 -0.65710740116E+02  0.33963407712E+03  0.37204524010E+03  0.12508917674E+03 0.  0.
         23    2    1    2    0    0  0.55687977507E+02  0.65710740116E+02  0.36265318796E+03  0.38384048837E+03  0.91635874921E+02 0.  0.
          5    1    3    3  502    0  0.29448894026E+02  0.92949743148E+01  0.34598321720E+02  0.46563399497E+02  0.41800000000E+01 0. -1.
         -5    1    3    3    0  502 -0.85136871533E+02 -0.75005714431E+02  0.30503575540E+03  0.32548184060E+03  0.41800000000E+01 0. -1.
        -11    1    4    4    0    0  0.69480120288E+02  0.71776958985E+02  0.35057371445E+03  0.36452894017E+03  0.00000000000E+00 0.  1.
         11    1    4    4    0    0 -0.13792142782E+02 -0.60662188687E+01  0.12079473511E+02  0.19311548208E+02  0.00000000000E+00 0. -1.
</event>
<event>
 8    1  0.6505836E-009  0.6932610E+02  0.7561462E-02  0.1362400E+00
         -1   -1    0    0    0  501 -0.00000000000E+00  0.00000000000E+00  0.20676348983E+03  0.20676348983E+03  0.00000000000E+00 0.  1.
          1   -1    0    0  501    0  0.00000000000E+00 -0.00000000000E+00 -0.65128035932E+02  0.65128035932E+02  0.00000000000E+00 0. -1.
         25    2    1    2    0    0 -0.23483122471E+02 -0.20807392337E+02  0.97997895950E+02  0.16197320278E+03  0.12508927289E+03 0.  0.
         23    2    1    2    0    0  0.23483122471E+02  0.20807392337E+02  0.43637557945E+02  0.10991832298E+03  0.95882201925E+02 0.  0.
          5    1    3    3  502    0 -0.29516207762E+02  0.10882197469E+02  0.11906294265E+03  0.12321966343E+03  0.41800000000E+01 0. -1.
         -5    1    3    3    0  502  0.60330852904E+01 -0.31689589805E+02 -0.21065046699E+02  0.38753539356E+02  0.41800000000E+01 0. -1.
        -11    1    4    4    0    0  0.26084492137E+02  0.43946099642E+02  0.61940599605E+02  0.80301296896E+02  0.00000000000E+00 0.  1.
         11    1    4    4    0    0 -0.26013696659E+01 -0.23138707305E+02 -0.18303041660E+02  0.29617026081E+02  0.00000000000E+00 0. -1.
</event>
<event>
 8    1  0.6505836E-009  0.9316092E+02  0.7561462E-02  0.1295373E+00
         -1   -1    0    0    0  501 -0.00000000000E+00  0.00000000000E+00  0.55247451345E+02  0.55247451345E+02  0.00000000000E+00 0.  1.
          1   -1    0    0  501    0  0.00000000000E+00 -0.00000000000E+00 -0.23131052265E+03  0.23131052265E+03  0.00000000000E+00 0. -1.
         25    2    1    2    0    0 -0.27509565298E+02  0.13803538836E+01 -0.10314646722E+03  0.16445555722E+03  0.12509098705E+03 0.  0.
         23    2    1    2    0    0  0.27509565298E+02 -0.13803538836E+01 -0.72916604087E+02  0.12210241678E+03  0.93986634538E+02 0.  0.
          5    1    3    3  502    0  0.26277289123E+02  0.43785409067E+02 -0.16289635315E+02  0.53763208512E+02  0.41800000000E+01 0. -1.
         -5    1    3    3    0  502 -0.53786854421E+02 -0.42405055184E+02 -0.86856831908E+02  0.11069234871E+03  0.41800000000E+01 0. -1.
        -11    1    4    4    0    0  0.13315989593E+02  0.29562477551E+02 -0.80883204046E+02  0.87139820717E+02  0.00000000000E+00 0. -1.
         11    1    4    4    0    0  0.14193575705E+02 -0.30942831435E+02  0.79665999589E+01  0.34962596062E+02  0.00000000000E+00 0.  1.
</event>
<event>
 8    1  0.6505836E-009  0.1468739E+03  0.7561462E-02  0.1204368E+00
          2   -1    0    0  501    0  0.00000000000E+00  0.00000000000E+00  0.10097669081E+04  0.10097669081E+04  0.00000000000E+00 0. -1.
         -2   -1    0    0    0  501 -0.00000000000E+00 -0.00000000000E+00 -0.22337050864E+02  0.22337050864E+02  0.00000000000E+00 0.  1.
         25    2    1    2    0    0 -0.99988358739E+02  0.28858173131E+02  0.49806745459E+03  0.52397428017E+03  0.12508953162E+03 0.  0.
         23    2    1    2    0    0  0.99988358739E+02 -0.28858173131E+02  0.48936240264E+03  0.50812967879E+03  0.88824227023E+02 0.  0.
          5    1    3    3  502    0  0.15141761825E+02 -0.29473211121E+02  0.92435788651E+02  0.98284233468E+02  0.41800000000E+01 0.  1.
         -5    1    3    3    0  502 -0.11513012056E+03  0.58331384252E+02  0.40563166594E+03  0.42569004670E+03  0.41800000000E+01 0.  1.
        -11    1    4    4    0    0  0.18625418608E+02  0.26802269170E+02  0.68531488655E+02  0.75906737436E+02  0.00000000000E+00 0.  1.
         11    1    4    4    0    0  0.81362940131E+02 -0.55660442301E+02  0.42083091399E+03  0.43222294135E+03  0.00000000000E+00 0. -1.
</event>
<event>
 8    1  0.6505836E-009  0.8063771E+02  0.7561462E-02  0.1327251E+00
          1   -1    0    0  501    0  0.00000000000E+00  0.00000000000E+00  0.65052781407E+02  0.65052781407E+02  0.00000000000E+00 0. -1.
         -1   -1    0    0    0  501 -0.00000000000E+00 -0.00000000000E+00 -0.20897369293E+03  0.20897369293E+03  0.00000000000E+00 0.  1.
         25    2    1    2    0    0  0.11283709437E+02  0.36854972887E+02 -0.10627248160E+03  0.16860256909E+03  0.12508946731E+03 0.  0.
         23    2    1    2    0    0 -0.11283709437E+02 -0.36854972887E+02 -0.37648429918E+02  0.10542390524E+03  0.90615585835E+02 0.  0.
          5    1    3    3  502    0  0.10368902463E+02 -0.10473469088E+02  0.24817507812E+02  0.29164855340E+02  0.41800000000E+01 0. -1.
         -5    1    3    3    0  502  0.91480697453E+00  0.47328441975E+02 -0.13108998941E+03  0.13943771375E+03  0.41800000000E+01 0. -1.
        -11    1    4    4    0    0  0.38472097572E+02 -0.28739290615E+02 -0.19823817489E+02  0.51952217051E+02  0.00000000000E+00 0.  1.
         11    1    4    4    0    0 -0.49755807009E+02 -0.81156822723E+01 -0.17824612429E+02  0.53471688192E+02  0.00000000000E+00 0. -1.
</event>
<event>
 8    1  0.6505836E-009  0.1590000E+03  0.7561462E-02  0.1189830E+00
         -2   -1    0    0    0  501 -0.00000000000E+00  0.00000000000E+00  0.28981200891E+03  0.28981200891E+03  0.00000000000E+00 0.  1.
          2   -1    0    0  501    0  0.00000000000E+00 -0.00000000000E+00 -0.15408530931E+03  0.15408530931E+03  0.00000000000E+00 0. -1.
         25    2    1    2    0    0  0.36017365321E+01 -0.12287286652E+03  0.21022774598E+03  0.27377755287E+03  0.12509088473E+03 0.  0.
         23    2    1    2    0    0 -0.36017365321E+01  0.12287286652E+03 -0.74501046384E+02  0.17011976535E+03  0.90992388790E+02 0.  0.
          5    1    3    3  502    0 -0.26444058580E+02 -0.13781973599E+03  0.15604456818E+03  0.20990699731E+03  0.41800000000E+01 0.  1.
         -5    1    3    3    0  502  0.30045795112E+02  0.14946869469E+02  0.54183177804E+02  0.63870555562E+02  0.41800000000E+01 0.  1.
        -11    1    4    4    0    0 -0.39030298021E+02  0.69885738971E+02 -0.12165710401E+02  0.80965333228E+02  0.00000000000E+00 0.  1.
         11    1    4    4    0    0  0.35428561489E+02  0.52987127552E+02 -0.62335335983E+02  0.89154432125E+02  0.00000000000E+00 0. -1.
</event>
<event>
 8    1  0.6505836E-009  0.1049615E+03  0.7561462E-02  0.1270195E+00
         -1   -1    0    0    0  501 -0.00000000000E+00  0.00000000000E+00  0.57787516473E+03  0.57787516473E+03  0.00000000000E+00 0.  1.
          1   -1    0    0  501    0  0.00000000000E+00 -0.00000000000E+00 -0.21900227778E+02  0.21900227778E+02  0.00000000000E+00 0. -1.
         25    2    1    2    0    0 -0.31533822469E+02  0.87086211126E+01  0.32360847342E+03  0.34848338842E+03  0.12509198973E+03 0.  0.
         23    2    1    2    0    0  0.31533822469E+02 -0.87086211126E+01  0.23236646353E+03  0.25129200408E+03  0.89907040339E+02 0.  0.
          5    1    3    3  502    0 -0.69738001461E+02  0.24274176779E+02  0.27410860013E+03  0.28391129173E+03  0.41800000000E+01 0.  1.
         -5    1    3    3    0  502  0.38204178992E+02 -0.15565555666E+02  0.49499873293E+02  0.64572096696E+02  0.41800000000E+01 0.  1.
        -11    1    4    4    0    0 -0.23254314095E+02 -0.28014296022E+02  0.71051735704E+02  0.79836790092E+02  0.00000000000E+00 0. -1.
         11    1    4    4    0    0  0.54788136564E+02  0.19305674910E+02  0.16131472783E+03  0.17145521399E+03  0.00000000000E+00 0.  1.
</event>
<event>
 8    1  0.6505836E-009  0.1945109E+03  0.7561462E-02  0.1154455E+00
          4   -1    0    0  501    0  0.00000000000E+00  0.00000000000E+00  0.34686520341E+03  0.34686520341E+03  0.00000000000E+00 0. -1.
         -4   -1    0    0    0  501 -0.00000000000E+00 -0.00000000000E+00 -0.12185220897E+03  0.12185220897E+03  0.00000000000E+00 0.  1.
         25    2    1    2    0    0  0.13524303736E+03  0.98317165897E+02  0.17586754323E+03  0.27301012652E+03  0.12509273423E+03 0.  0.
         23    2    1    2    0    0 -0.13524303736E+03 -0.98317165897E+02  0.49145451211E+02  0.19570728586E+03  0.89045618074E+02 0.  0.
          5    1    3    3  502    0  0.15363277063E+03  0.10304391216E+03  0.13935082649E+03  0.23164024108E+03  0.41800000000E+01 0.  1.
         -5    1    3    3    0  502 -0.18389733268E+02 -0.47267462668E+01  0.36516716743E+02  0.41369885444E+02  0.41800000000E+01 0.  1.
        -11    1    4    4    0    0 -0.26013999354E+02 -0.65521597614E+02 -0.24354341194E+01  0.70538920148E+02  0.00000000000E+00 0.  1.
         11    1    4    4    0    0 -0.10922903800E+03 -0.32795568283E+02  0.51580885331E+02  0.12516836571E+03  0.00000000000E+00 0. -1.
</event>
<event>
 7    1  0.6505836E-009  0.1091821E+03  0.7561462E-02  0.1262092E+00
          2   -1    0    0  501    0  0.00000000000E+00  0.00000000000E+00  0.10932248708E+04  0.10932248708E+04  0.00000000000E+00 0. -1.
         -2   -1    0    0    0  501 -0.00000000000E+00 -0.00000000000E+00 -0.15798133312E+02  0.15798133312E+02  0.00000000000E+00 0.  1.
         23    2    1    2    0    0  0.46852373021E+02 -0.10858119381E+02  0.24352318845E+03  0.26447999857E+03  0.91285720226E+02 0.  0.
          5    1    1    2  502    0 -0.79276493991E+02 -0.39252235043E+01  0.73586483960E+03  0.74014505635E+03  0.41800000000E+01 0.  1.
         -5    1    1    2    0  502  0.32424120970E+02  0.14783342885E+02  0.98038709462E+02  0.10439794922E+03  0.41800000000E+01 0.  1.
        -11    1    3    3    0    0 -0.26089362838E+02 -0.14723136117E+02  0.63929764424E+02  0.70600569188E+02  0.00000000000E+00 0.  1.
         11    1    3    3    0    0  0.72941735859E+02  0.38650167358E+01  0.17959342403E+03  0.19387942939E+03  0.00000000000E+00 0. -1.
</event>
<event>
 8    1  0.6505836E-009  0.9455786E+02  0.7561462E-02  0.1292175E+00
         -1   -1    0    0    0  501 -0.00000000000E+00  0.00000000000E+00  0.84839027925E+02  0.84839027925E+02  0.00000000000E+00 0.  1.
          1   -1    0    0  501    0  0.00000000000E+00 -0.00000000000E+00 -0.16064898223E+03  0.16064898223E+03  0.00000000000E+00 0. -1.
         25    2    1    2    0    0 -0.87712547529E+01  0.38633892646E+02 -0.61359819178E+02  0.14486114316E+03  0.12510080263E+03 0.  0.
         23    2    1    2    0    0  0.87712547529E+01 -0.38633892646E+02 -0.14450135123E+02  0.10062686699E+03  0.91364366049E+02 0.  0.
          5    1    3    3  502    0 -0.62354519847E+02  0.23694878596E+02 -0.58799120667E+02  0.89018775594E+02  0.41800000000E+01 0. -1.
         -5    1    3    3    0  502  0.53583265094E+02  0.14939014049E+02 -0.25606985103E+01  0.55842367570E+02  0.41800000000E+01 0. -1.
        -11    1    4    4    0    0  0.31289457727E+02 -0.18898117648E+02  0.29824974823E+02  0.47177305335E+02  0.00000000000E+00 0.  1.
         11    1    4    4    0    0 -0.22518202974E+02 -0.19735774998E+02 -0.44275109946E+02  0.53449561651E+02  0.00000000000E+00 0. -1.
</event>
<event>
 8    1  0.6505836E-009  0.1887081E+03  0.7561462E-02  0.1159632E+00
          2   -1    0    0  501    0  0.00000000000E+00  0.00000000000E+00  0.65942819699E+03  0.65942819699E+03  0.00000000000E+00 0. -1.
         -2   -1    0    0    0  501 -0.00000000000E+00 -0.00000000000E+00 -0.67720172592E+02  0.67720172592E+02  0.00000000000E+00 0.  1.
         25    2    1    2    0    0 -0.46188835993E+02 -0.15837410998E+03  0.43907728379E+03  0.48544023656E+03  0.12509034675E+03 0.  0.
         23    2    1    2    0    0  0.46188835993E+02  0.15837410998E+03  0.15263074061E+03  0.24170813302E+03  0.88943303903E+02 0.  0.
          5    1    3    3  502    0  0.32414708105E+02 -0.70198886700E+02  0.10081051303E+03  0.12711738250E+03  0.41800000000E+01 0. -1.
         -5    1    3    3    0  502 -0.78603544098E+02 -0.88175223275E+02  0.33826677076E+03  0.35832285407E+03  0.41800000000E+01 0. -1.
        -11    1    4    4    0    0  0.64028600314E+02  0.14773232087E+03  0.15121757142E+03  0.22088742426E+03  0.00000000000E+00 0. -1.
         11    1    4    4    0    0 -0.17839764321E+02  0.10641789102E+02  0.14131691895E+01  0.20820708765E+02  0.00000000000E+00 0.  1.
</event>
<event>
 8    1  0.6505836E-009  0.1884592E+03  0.7561462E-02  0.1159858E+00
          2   -1    0    0  501    0  0.00000000000E+00  0.00000000000E+00  0.43398712079E+03  0.43398712079E+03  0.00000000000E+00 0. -1.
         -2   -1    0    0    0  501 -0.00000000000E+00 -0.00000000000E+00 -0.14148963230E+03  0.14148963230E+03  0.00000000000E+00 0.  1.
         25    2    1    2    0    0 -0.14278281203E+03 -0.86645681373E+02  0.32116780698E+03  0.38300248509E+03  0.12509091828E+03 0.  0.
         23    2    1    2    0    0  0.14278281203E+03  0.86645681373E+02 -0.28670318499E+02  0.19247426800E+03  0.91268566150E+02 0.  0.
          5    1    3    3  502    0 -0.88074258162E+02 -0.11657671647E+03  0.22502628237E+03  0.26833096342E+03  0.41800000000E+01 0.  1.
         -5    1    3    3    0  502 -0.54708553865E+02  0.29931035097E+02  0.96141524610E+02  0.11467152167E+03  0.41800000000E+01 0.  1.
        -11    1    4    4    0    0  0.77974789172E+02  0.35420785080E+02 -0.59519442146E+02  0.10429412138E+03  0.00000000000E+00 0.  1.
         11    1    4    4    0    0  0.64808022855E+02  0.51224896293E+02  0.30849123647E+02  0.88180146612E+02  0.00000000000E+00 0. -1.
</event>
<event>
 8    1  0.6505836E-009  0.1162139E+03  0.7561462E-02  0.1249477E+00
          1   -1    0    0  501    0  0.00000000000E+00  0.00000000000E+00  0.76790782757E+03  0.76790782757E+03  0.00000000000E+00 0. -1.
         -1   -1    0    0    0  501 -0.00000000000E+00 -0.00000000000E+00 -0.23405089363E+02  0.23405089363E+02  0.00000000000E+00 0.  1.
         25    2    1    2    0    0 -0.62331547781E+01 -0.74747354536E+02  0.48578586669E+03  0.50720955629E+03  0.12509039327E+03 0.  0.
         23    2    1    2    0    0  0.62331547781E+01  0.74747354536E+02  0.25871687152E+03  0.28410336064E+03  0.90301055871E+02 0.  0.
          5    1    3    3  502    0 -0.56816037256E+02 -0.28924477814E+01  0.16513753321E+03  0.17471206489E+03  0.41800000000E+01 0. -1.
         -5    1    3    3    0  502  0.50582882478E+02 -0.71854906755E+02  0.32064833348E+03  0.33249749140E+03  0.41800000000E+01 0. -1.
        -11    1    4    4    0    0  0.25335379075E+02  0.33925461283E+02  0.22191007939E+03  0.22591348275E+03  0.00000000000E+00 0. -1.
         11    1    4    4    0    0 -0.19102224297E+02  0.40821893253E+02  0.36806792135E+02  0.58189877892E+02  0.00000000000E+00 0.  1.
</event>
<event>
 8    1  0.6505836E-009  0.1026768E+03  0.7561462E-02  0.1274766E+00
         -2   -1    0    0    0  501 -0.00000000000E+00  0.00000000000E+00  0.37472895807E+02  0.37472895807E+02  0.00000000000E+00 0.  1.
          2   -1    0    0  501    0  0.00000000000E+00 -0.00000000000E+00 -0.32961060358E+03  0.32961060358E+03  0.00000000000E+00 0. -1.
         25    2    1    2    0    0  0.12194253378E+01  0.45252821024E+01 -0.21668792978E+03  0.25024261688E+03  0.12508294534E+03 0.  0.
         23    2    1    2    0    0 -0.12194253378E+01 -0.45252821024E+01 -0.75449777992E+02  0.11684088251E+03  0.89090727069E+02 0.  0.
          5    1    3    3  502    0 -0.58150762071E+02  0.10333928123E+02 -0.14662956598E+03  0.15813286571E+03  0.41800000000E+01 0. -1.
         -5    1    3    3    0  502  0.59370187408E+02 -0.58086460209E+01 -0.70058363804E+02  0.92109751169E+02  0.41800000000E+01 0. -1.
        -11    1    4    4    0    0 -0.16202068145E+02  0.37971426096E+02 -0.50864323117E+02  0.65509660189E+02  0.00000000000E+00 0. -1.
         11    1    4    4    0    0  0.14982642808E+02 -0.42496708198E+02 -0.24585454875E+02  0.51331222318E+02  0.00000000000E+00 0.  1.
</event>
<event>
 8    1  0.6505836E-009  0.8697181E+02  0.7561462E-02  0.1310355E+00
         -1   -1    0    0    0  501 -0.00000000000E+00  0.00000000000E+00  0.61999004739E+02  0.61999004739E+02  0.00000000000E+00 0.  1.
          1   -1    0    0  501    0  0.00000000000E+00 -0.00000000000E+00 -0.19227784889E+03  0.19227784889E+03  0.00000000000E+00 0. -1.
         25    2    1    2    0    0 -0.22579738012E+01  0.88462386823E+01 -0.57888436700E+02  0.13813702797E+03  0.12508961991E+03 0.  0.
         23    2    1    2    0    0  0.22579738012E+01 -0.88462386823E+01 -0.72390407456E+02  0.11613982566E+03  0.90358915600E+02 0.  0.
          5    1    3    3  502    0 -0.57323099483E+02 -0.17383528755E+02 -0.10896087554E+02  0.61027222862E+02  0.41800000000E+01 0. -1.
         -5    1    3    3    0  502  0.55065125681E+02  0.26229767437E+02 -0.46992349146E+02  0.77109805112E+02  0.41800000000E+01 0. -1.
        -11    1    4    4    0    0 -0.23339851848E+02  0.46867727323E+01  0.12186593962E+02  0.26743739367E+02  0.00000000000E+00 0.  1.
         11    1    4    4    0    0  0.25597825649E+02 -0.13533011415E+02 -0.84577001417E+02  0.89396086294E+02  0.00000000000E+00 0. -1.
</event>
<event>
 8    1  0.6505836E-009  0.2716937E+03  0.7561462E-02  0.1100314E+00
          2   -1    0    0  501    0  0.00000000000E+00  0.00000000000E+00  0.26158819490E+04  0.26158819490E+04  0.00000000000E+00 0. -1.
         -2   -1    0    0    0  501 -0.00000000000E+00 -0.00000000000E+00 -0.34404368781E+02  0.34404368781E+02  0.00000000000E+00 0.  1.
         25    2    1    2    0    0  0.28630223698E+02  0.25827043789E+03  0.18376025693E+04  0.18600952040E+04  0.12509059276E+03 0.  0.
         23    2    1    2    0    0 -0.28630223698E+02 -0.25827043789E+03  0.74387501090E+03  0.79019111377E+03  0.59402488576E+02 0.  0.
          5    1    3    3  502    0 -0.19496984603E+01 -0.10474469631E+02  0.19771396266E+03  0.19804494255E+03  0.41800000000E+01 0. -1.
         -5    1    3    3    0  502  0.30579922158E+02  0.26874490753E+03  0.16398886066E+04  0.16620502614E+04  0.41800000000E+01 0. -1.
        -11    1    4    4    0    0 -0.32674378523E+02 -0.17262768091E+03  0.56762088737E+03  0.59418970288E+03  0.00000000000E+00 0.  1.
         11    1    4    4    0    0  0.40441548251E+01 -0.85642756985E+02  0.17625412353E+03  0.19600141089E+03  0.00000000000E+00 0. -1.
</event>
<event>
 8    1  0.6505836E-009  0.8545823E+02  0.7561462E-02  0.1314239E+00
         -1   -1    0    0    0  501 -0.00000000000E+00  0.00000000000E+00  0.18711560311E+03  0.18711560311E+03  0.00000000000E+00 0.  1.
          1   -1    0    0  501    0  0.00000000000E+00 -0.00000000000E+00 -0.88948241350E+02  0.88948241350E+02  0.00000000000E+00 0. -1.
         25    2    1    2    0    0 -0.98049379352E+01 -0.49878612084E+02 -0.10566480555E+01  0.13503093802E+03  0.12509286536E+03 0.  0.
         23    2    1    2    0    0  0.98049379352E+01  0.49878612084E+02  0.99224009815E+02  0.14103290644E+03  0.86376292030E+02 0.  0.
          5    1    3    3  502    0 -0.10774586051E+02 -0.60683381850E+02 -0.53250712958E+02  0.81557803844E+02  0.41800000000E+01 0.  1.
         -5    1    3    3    0  502  0.96964811566E+00  0.10804769766E+02  0.52194064902E+02  0.53473134172E+02  0.41800000000E+01 0.  1.
        -11    1    4    4    0    0  0.46413910430E+02  0.34389913185E+02  0.42274523205E+02  0.71582487540E+02  0.00000000000E+00 0. -1.
         11    1    4    4    0    0 -0.36608972495E+02  0.15488698899E+02  0.56949486610E+02  0.69450418903E+02  0.00000000000E+00 0.  1.
</event>
<event>
 8    1  0.6505836E-009  0.1460913E+03  0.7561462E-02  0.1205360E+00
          4   -1    0    0  501    0  0.00000000000E+00  0.00000000000E+00  0.16992775231E+03  0.16992775231E+03  0.00000000000E+00 0. -1.
         -4   -1    0    0    0  501 -0.00000000000E+00 -0.00000000000E+00 -0.13716673535E+03  0.13716673535E+03  0.00000000000E+00 0.  1.
         25    2    1    2    0    0 -0.95497359596E+02 -0.47840109312E+02  0.25607151702E+02  0.16646865157E+03  0.12509062310E+03 0.  0.
         23    2    1    2    0    0  0.95497359596E+02  0.47840109312E+02  0.71538652592E+01  0.14062583610E+03  0.91192248807E+02 0.  0.
          5    1    3    3  502    0 -0.83844623131E+02  0.18514518250E+02 -0.15621233967E+02  0.87373929549E+02  0.41800000000E+01 0.  1.
         -5    1    3    3    0  502 -0.11652736465E+02 -0.66354627562E+02  0.41228385669E+02  0.79094722017E+02  0.41800000000E+01 0.  1.
        -11    1    4    4    0    0  0.71710354187E+02 -0.13460630803E+02 -0.72196434075E+01  0.73319074805E+02  0.00000000000E+00 0.  1.
         11    1    4    4    0    0  0.23787005409E+02  0.61300740115E+02  0.14373508667E+02  0.67306761298E+02  0.00000000000E+00 0. -1.
</event>
<event>
 8    1  0.6505836E-009  0.1610910E+03  0.7561462E-02  0.1187471E+00
          2   -1    0    0  501    0  0.00000000000E+00  0.00000000000E+00  0.79371463096E+02  0.79371463096E+02  0.00000000000E+00 0. -1.
         -2   -1    0    0    0  501 -0.00000000000E+00 -0.00000000000E+00 -0.40766864516E+03  0.40766864516E+03  0.00000000000E+00 0.  1.
         25    2    1    2    0    0 -0.13023672270E+03  0.16669636840E+02 -0.25360793627E+03  0.31177604553E+03  0.12509131262E+03 0.  0.
         23    2    1    2    0    0  0.13023672270E+03 -0.16669636840E+02 -0.74689245793E+02  0.17526406273E+03  0.88879286202E+02 0.  0.
          5    1    3    3  502    0  0.84933296618E+00  0.36549310127E+02 -0.17030827303E+02  0.40547440312E+02  0.41800000000E+01 0.  1.
         -5    1    3    3    0  502 -0.13108605566E+03 -0.19879673287E+02 -0.23657710897E+03  0.27122860521E+03  0.41800000000E+01 0.  1.
        -11    1    4    4    0    0  0.68471262559E+02  0.30558780505E+02 -0.60235282792E+02  0.96179218938E+02  0.00000000000E+00 0.  1.
         11    1    4    4    0    0  0.61765460138E+02 -0.47228417345E+02 -0.14453963001E+02  0.79084843791E+02  0.00000000000E+00 0. -1.
</event>
<event>
 8    1  0.6505836E-009  0.1152199E+03  0.7561462E-02  0.1251198E+00
          1   -1    0    0  501    0  0.00000000000E+00  0.00000000000E+00  0.36372421968E+03  0.36372421968E+03  0.00000000000E+00 0. -1.
         -1   -1    0    0    0  501 -0.00000000000E+00 -0.00000000000E+00 -0.50618995358E+02  0.50618995358E+02  0.00000000000E+00 0.  1.
         25    2    1    2    0    0  0.43085883985E+02  0.46732508860E+02  0.87869614881E+02  0.16556077941E+03  0.12509588993E+03 0.  0.
         23    2    1    2    0    0 -0.43085883985E+02 -0.46732508860E+02  0.22523560944E+03  0.24878243563E+03  0.84387793744E+02 0.  0.
          5    1    3    3  502    0  0.28238153261E+02 -0.38979947984E+02  0.53090445889E+02  0.71783685397E+02  0.41800000000E+01 0.  1.
         -5    1    3    3    0  502  0.14847730724E+02  0.85712456844E+02  0.34779168992E+02  0.93777094014E+02  0.41800000000E+01 0.  1.
        -11    1    4    4    0    0  0.18039377265E+02  0.87590921223E-01  0.10995531762E+02  0.21126488658E+02  0.00000000000E+00 0.  1.
         11    1    4    4    0    0 -0.61125261250E+02 -0.46820099781E+02  0.21424007768E+03  0.22765594697E+03  0.00000000000E+00 0. -1.
</event>
<event>
 8    1  0.6505836E-009  0.1009783E+03  0.7561462E-02  0.1278252E+00
         -3   -1    0    0    0  501 -0.00000000000E+00  0.00000000000E+00  0.39157647862E+03  0.39157647862E+03  0.00000000000E+00 0.  1.
          3   -1    0    0  501    0  0.00000000000E+00 -0.00000000000E+00 -0.33556655468E+02  0.33556655468E+02  0.00000000000E+00 0. -1.
         25    2    1    2    0    0  0.31593142539E+02 -0.16136837437E+02  0.19329782535E+03  0.23296039577E+03  0.12509185638E+03 0.  0.
         23    2    1    2    0    0 -0.31593142539E+02  0.16136837437E+02  0.16472199780E+03  0.19217273833E+03  0.92404007581E+02 0.  0.
          5    1    3    3  502    0 -0.41393811543E+02  0.22377534105E+02  0.64935619084E+02  0.80301361710E+02  0.41800000000E+01 0.  1.
         -5    1    3    3    0  502  0.72986954081E+02 -0.38514371542E+02  0.12836220627E+03  0.15265903406E+03  0.41800000000E+01 0.  1.
        -11    1    4    4    0    0 -0.32950876797E+02 -0.18252636916E+02  0.15014265070E+03  0.15479578352E+03  0.00000000000E+00 0.  1.
         11    1    4    4    0    0  0.13577342583E+01  0.34389474353E+02  0.14579347104E+02  0.37376954807E+02  0.00000000000E+00 0. -1.
</event>
<event>
 8    1  0.6505836E-009  0.1065185E+03  0.7561462E-02  0.1267156E+00
         -1   -1    0    0    0  501 -0.00000000000E+00  0.00000000000E+00  0.24775126259E+03  0.24775126259E+03  0.00000000000E+00 0.  1.
          1   -1    0    0  501    0  0.00000000000E+00 -0.00000000000E+00 -0.68412752297E+02  0.68412752297E+02  0.00000000000E+00 0. -1.
         25    2    1    2    0    0  0.64469861853E+02  0.30838530958E+02  0.86093639604E+02  0.16783380718E+03  0.12509473999E+03 0.  0.
         23    2    1    2    0    0 -0.64469861853E+02 -0.30838530958E+02  0.93244870687E+02  0.14833020770E+03  0.90553114406E+02 0.  0.
          5    1    3    3  502    0  0.69395686337E+02 -0.29682806888E+02  0.20440537975E+02  0.78307843155E+02  0.41800000000E+01 0. -1.
         -5    1    3    3    0  502 -0.49258244839E+01  0.60521337846E+02  0.65653101629E+02  0.89525964027E+02  0.41800000000E+01 0. -1.
        -11    1    4    4    0    0 -0.26475606144E+02 -0.27913252678E+02  0.10218626352E+03  0.10918855181E+03  0.00000000000E+00 0.  1.
         11    1    4    4    0    0 -0.37994255709E+02 -0.29252782794E+01 -0.89413928304E+01  0.39141655888E+02  0.00000000000E+00 0. -1.
</event>
<event>
 8    1  0.6505836E-009  0.1790395E+03  0.7561462E-02  0.1168736E+00
          4   -1    0    0  501    0  0.00000000000E+00  0.00000000000E+00  0.20536375745E+03  0.20536375745E+03  0.00000000000E+00 0. -1.
         -4   -1    0    0    0  501 -0.00000000000E+00 -0.00000000000E+00 -0.17647838945E+03  0.17647838945E+03  0.00000000000E+00 0.  1.
         25    2    1    2    0    0  0.58203882938E+02  0.14354497000E+03  0.33283329943E+02  0.20186400878E+03  0.12509375519E+03 0.  0.
         23    2    1    2    0    0 -0.58203882938E+02 -0.14354497000E+03 -0.43979619429E+01  0.17997813811E+03  0.91541999796E+02 0.  0.
          5    1    3    3  502    0 -0.26149820571E+02 -0.33916776784E+01  0.16892557790E+02  0.31593472460E+02  0.41800000000E+01 0. -1.
         -5    1    3    3    0  502  0.84353703509E+02  0.14693664768E+03  0.16390772153E+02  0.17027053632E+03  0.41800000000E+01 0. -1.
        -11    1    4    4    0    0 -0.41467485661E+02 -0.13826824661E+03 -0.31444238020E+02  0.14773760690E+03  0.00000000000E+00 0.  1.
         11    1    4    4    0    0 -0.16736397276E+02 -0.52767233995E+01  0.27046276077E+02  0.32240531218E+02  0.00000000000E+00 0. -1.
</event>
<event>
 8    1  0.6505836E-009  0.1661275E+03  0.7561462E-02  0.1181948E+00
          2   -1    0    0  501    0  0.00000000000E+00  0.00000000000E+00  0.66467355495E+02  0.66467355495E+02  0.00000000000E+00 0. -1.
         -2   -1    0    0    0  501 -0.00000000000E+00 -0.00000000000E+00 -0.55351953806E+03  0.55351953806E+03  0.00000000000E+00 0.  1.
         25    2    1    2    0    0  0.54831282201E+02 -0.13382965868E+03 -0.35479355036E+03  0.40304224519E+03  0.12509093085E+03 0.  0.
         23    2    1    2    0    0 -0.54831282201E+02  0.13382965868E+03 -0.13225863220E+03  0.21694464836E+03  0.93036485377E+02 0.  0.
          5    1    3    3  502    0  0.49659751381E+02 -0.24511083293E+02 -0.23177290431E+03  0.23833387439E+03  0.41800000000E+01 0.  1.
         -5    1    3    3    0  502  0.51715308205E+01 -0.10931857539E+03 -0.12302064605E+03  0.16470837080E+03  0.41800000000E+01 0.  1.
        -11    1    4    4    0    0 -0.70147822409E+02  0.61581490455E+02 -0.98622741858E+02  0.13579190759E+03  0.00000000000E+00 0.  1.
         11    1    4    4    0    0  0.15316540208E+02  0.72248168225E+02 -0.33635890347E+02  0.81152740775E+02  0.00000000000E+00 0. -1.
</event>
<event>
 8    1  0.6505836E-009  0.1149287E+03  0.7561462E-02  0.1251706E+00
         -3   -1    0    0    0  501 -0.00000000000E+00  0.00000000000E+00  0.33832232638E+02  0.33832232638E+02  0.00000000000E+00 0. -1.
          3   -1    0    0  501    0  0.00000000000E+00 -0.00000000000E+00 -0.43135637091E+03  0.43135637091E+03  0.00000000000E+00 0.  1.
         25    2    1    2    0    0 -0.13819092338E+02 -0.50443528435E+02 -0.23346999670E+03  0.26998387230E+03  0.12509010781E+03 0.  0.
         23    2    1    2    0    0  0.13819092338E+02  0.50443528435E+02 -0.16405414157E+03  0.19520473124E+03  0.91954384658E+02 0.  0.
          5    1    3    3  502    0 -0.28847577512E+02  0.31131085759E+02 -0.13278082868E+03  0.13946163663E+03  0.41800000000E+01 0.  1.
         -5    1    3    3    0  502  0.15028485174E+02 -0.81574614194E+02 -0.10068916802E+03  0.13052223567E+03  0.41800000000E+01 0.  1.
        -11    1    4    4    0    0  0.44195639755E+02 -0.12343023053E+01 -0.86899081160E+02  0.97499889139E+02  0.00000000000E+00 0. -1.
         11    1    4    4    0    0 -0.30376547418E+02  0.51677830740E+02 -0.77155060410E+02  0.97704842100E+02  0.00000000000E+00 0.  1.
</event>
<event>
 8    1  0.6505836E-009  0.2140733E+03  0.7561462E-02  0.1138380E+00
          2   -1    0    0  501    0  0.00000000000E+00  0.00000000000E+00  0.13179938281E+04  0.13179938281E+04  0.00000000000E+00 0. -1.
         -2   -1    0    0    0  501 -0.00000000000E+00 -0.00000000000E+00 -0.35876782408E+02  0.35876782408E+02  0.00000000000E+00 0.  1.
         25    2    1    2    0    0  0.11048820284E+03 -0.15859852523E+03  0.61512813364E+03  0.65680393977E+03  0.12509060448E+03 0.  0.
         23    2    1    2    0    0 -0.11048820284E+03  0.15859852523E+03  0.66698891205E+03  0.69706667074E+03  0.60552452338E+02 0.  0.
          5    1    3    3  502    0 -0.36459920348E+00 -0.10598768374E+03  0.32132881893E+03  0.33838322109E+03  0.41800000000E+01 0. -1.
         -5    1    3    3    0  502  0.11085280204E+03 -0.52610841490E+02  0.29379931471E+03  0.31842071868E+03  0.41800000000E+01 0. -1.
        -11    1    4    4    0    0 -0.82766684563E+02  0.76714106042E+02  0.31458999935E+03  0.33421885918E+03  0.00000000000E+00 0.  1.
         11    1    4    4    0    0 -0.27721518273E+02  0.81884419190E+02  0.35239891270E+03  0.36284781156E+03  0.00000000000E+00 0. -1.
</event>
<event>
 8    1  0.6505836E-009  0.1485712E+03  0.7561462E-02  0.1202240E+00
          1   -1    0    0  501    0  0.00000000000E+00  0.00000000000E+00  0.11997538572E+03  0.11997538572E+03  0.00000000000E+00 0. -1.
         -1   -1    0    0    0  501 -0.00000000000E+00 -0.00000000000E+00 -0.29888944196E+03  0.29888944196E+03  0.00000000000E+00 0.  1.
         25    2    1    2    0    0 -0.14396522905E+03 -0.56329415692E+01 -0.29681411041E+02  0.19309789180E+03  0.12509233570E+03 0.  0.
         23    2    1    2    0    0  0.14396522905E+03  0.56329415692E+01 -0.14923264520E+03  0.22576693587E+03  0.89121320295E+02 0.  0.
          5    1    3    3  502    0 -0.10657167145E+03  0.18587649778E+02 -0.73193851824E+02  0.13068218787E+03  0.41800000000E+01 0.  1.
         -5    1    3    3    0  502 -0.37393557600E+02 -0.24220591347E+02  0.43512440783E+02  0.62415703938E+02  0.41800000000E+01 0.  1.
        -11    1    4    4    0    0  0.58957276378E+02  0.43136871891E+01 -0.62855858037E+01  0.59448102779E+02  0.00000000000E+00 0. -1.
         11    1    4    4    0    0  0.85007952676E+02  0.13192543800E+01 -0.14294705940E+03  0.16631883309E+03  0.00000000000E+00 0.  1.
</event>
<event>
 8    1  0.6505836E-009  0.8714655E+02  0.7561462E-02  0.1309913E+00
          1   -1    0    0  501    0  0.00000000000E+00  0.00000000000E+00  0.63969036684E+03  0.63969036684E+03  0.00000000000E+00 0. -1.
         -1   -1    0    0    0  501 -0.00000000000E+00 -0.00000000000E+00 -0.63117921337E+02  0.63117921337E+02  0.00000000000E+00 0.  1.
         25    2    1    2    0    0 -0.45785228623E+02  0.29365895453E+02  0.57996973847E+03  0.59579593454E+03  0.12509698274E+03 0.  0.
         23    2    1    2    0    0  0.45785228623E+02 -0.29365895453E+02 -0.33972929680E+01  0.10701235364E+03  0.92094838383E+02 0.  0.
          5    1    3    3  502    0  0.10335717137E+02  0.22171506289E+02  0.48159281693E+03  0.48223180780E+03  0.41800000000E+01 0.  1.
         -5    1    3    3    0  502 -0.56120945759E+02  0.71943891640E+01  0.98376921546E+02  0.11356412674E+03  0.41800000000E+01 0.  1.
        -11    1    4    4    0    0  0.63108978461E+02 -0.37705859959E+02  0.20519898146E+02  0.76325233426E+02  0.00000000000E+00 0. -1.
         11    1    4    4    0    0 -0.17323749838E+02  0.83399645057E+01 -0.23917191114E+02  0.30687120217E+02  0.00000000000E+00 0.  1.
</event>
<event>
 8    1  0.6505836E-009  0.1137794E+03  0.7561462E-02  0.1253727E+00
         -2   -1    0    0    0  501 -0.00000000000E+00  0.00000000000E+00  0.17236027202E+03  0.17236027202E+03  0.00000000000E+00 0.  1.
          2   -1    0    0  501    0  0.00000000000E+00 -0.00000000000E+00 -0.11808237679E+03  0.11808237679E+03  0.00000000000E+00 0. -1.
         25    2    1    2    0    0 -0.91420347219E+02  0.72398861451E+00  0.16806857817E+02  0.15585506991E+03  0.12510047283E+03 0.  0.
         23    2    1    2    0    0  0.91420347219E+02 -0.72398861451E+00  0.37471037415E+02  0.13458757890E+03  0.91386726083E+02 0.  0.
          5    1    3    3  502    0 -0.55113779098E+02  0.49959559641E+02 -0.28337516207E+02  0.79711815126E+02  0.41800000000E+01 0. -1.
         -5    1    3    3    0  502 -0.36306568121E+02 -0.49235571026E+02  0.45144374023E+02  0.76143254783E+02  0.41800000000E+01 0. -1.
        -11    1    4    4    0    0  0.41293891491E+02  0.34455229324E+01  0.65122858989E+02  0.77188366129E+02  0.00000000000E+00 0.  1.
         11    1    4    4    0    0  0.50126455729E+02 -0.41695115469E+01 -0.27651821574E+02  0.57399212772E+02  0.00000000000E+00 0. -1.
</event>
<event>
 8    1  0.6505836E-009  0.3485138E+03  0.7561462E-02  0.1063227E+00
         -2   -1    0    0    0  501 -0.00000000000E+00  0.00000000000E+00  0.83227151839E+02  0.83227151839E+02  0.00000000000E+00 0.  1.
          2   -1    0    0  501    0  0.00000000000E+00 -0.00000000000E+00 -0.16385154061E+04  0.16385154061E+04  0.00000000000E+00 0. -1.
         25    2    1    2    0    0  0.30900955365E+02  0.34526298550E+03 -0.63523807334E+03  0.73439556356E+03  0.12509210910E+03 0.  0.
         23    2    1    2    0    0 -0.30900955365E+02 -0.34526298550E+03 -0.92005018096E+03  0.98734699441E+03  0.90555804354E+02 0.  0.
          5    1    3    3  502    0  0.50365723388E+01  0.23881592669E+02 -0.33459627947E+01  0.24987304703E+02  0.41800000000E+01 0.  1.
         -5    1    3    3    0  502  0.25864383026E+02  0.32138139283E+03 -0.63189211054E+03  0.70940825886E+03  0.41800000000E+01 0.  1.
        -11    1    4    4    0    0 -0.42467712513E+02 -0.22292126391E+03 -0.48841964982E+03  0.53856397098E+03  0.00000000000E+00 0.  1.
         11    1    4    4    0    0  0.11566757148E+02 -0.12234172159E+03 -0.43163053114E+03  0.44878302343E+03  0.00000000000E+00 0. -1.
</event>
<event>
 8    1  0.6505836E-009  0.9709339E+02  0.7561462E-02  0.1286530E+00
         -1   -1    0    0    0  501 -0.00000000000E+00  0.00000000000E+00  0.10215494817E+03  0.10215494817E+03  0.00000000000E+00 0.  1.
          1   -1    0    0  501    0  0.00000000000E+00 -0.00000000000E+00 -0.12293468205E+03  0.12293468205E+03  0.00000000000E+00 0. -1.
         25    2    1    2    0    0 -0.16268645074E+02 -0.37106235829E+01  0.20957903669E+02  0.12792479675E+03  0.12508829825E+03 0.  0.
         23    2    1    2    0    0  0.16268645074E+02  0.37106235829E+01 -0.41737637544E+02  0.97164833465E+02  0.86142538473E+02 0.  0.
          5    1    3    3  502    0 -0.41757064092E+02 -0.54621844222E+02  0.76436139864E+01  0.69304368567E+02  0.41800000000E+01 0.  1.
         -5    1    3    3    0  502  0.25488419018E+02  0.50911220639E+02  0.13314289682E+02  0.58620428186E+02  0.41800000000E+01 0.  1.
        -11    1    4    4    0    0  0.22030581438E+02  0.32274985564E+02 -0.53065109092E+02  0.65900887813E+02  0.00000000000E+00 0. -1.
         11    1    4    4    0    0 -0.57619363639E+01 -0.28564361981E+02  0.11327471548E+02  0.31263945652E+02  0.00000000000E+00 0.  1.
</event>
<event>
 8    1  0.6505836E-009  0.2078418E+03  0.7561462E-02  0.1143287E+00
          1   -1    0    0  501    0  0.00000000000E+00  0.00000000000E+00  0.98923802117E+02  0.98923802117E+02  0.00000000000E+00 0. -1.
         -1   -1    0    0    0  501 -0.00000000000E+00 -0.00000000000E+00 -0.54026921444E+03  0.54026921444E+03  0.00000000000E+00 0.  1.
         25    2    1    2    0    0  0.12847556549E+03 -0.13885884971E+03 -0.33250916600E+03  0.40249069244E+03  0.12509460802E+03 0.  0.
         23    2    1    2    0    0 -0.12847556549E+03  0.13885884971E+03 -0.10883624633E+03  0.23670232412E+03  0.91623745068E+02 0.  0.
          5    1    3    3  502    0  0.10182550892E+03 -0.43887096921E+02 -0.25111120580E+03  0.27453382601E+03  0.41800000000E+01 0.  1.
         -5    1    3    3    0  502  0.26650056570E+02 -0.94971752785E+02 -0.81397960198E+02  0.12795686643E+03  0.41800000000E+01 0.  1.
        -11    1    4    4    0    0 -0.71154757453E+02  0.12971625110E+03 -0.55947288401E+02  0.15817523317E+03  0.00000000000E+00 0. -1.
         11    1    4    4    0    0 -0.57320808038E+02  0.91425986050E+01 -0.52888957927E+02  0.78527090956E+02  0.00000000000E+00 0.  1.
</event>
<event>
 8    1  0.6505836E-009  0.1192503E+03  0.7561462E-02  0.1244339E+00
         -4   -1    0    0    0  501 -0.00000000000E+00  0.00000000000E+00  0.17887012370E+03  0.17887012370E+03  0.00000000000E+00 0.  1.
          4   -1    0    0  501    0  0.00000000000E+00 -0.00000000000E+00 -0.10020926889E+03  0.10020926889E+03  0.00000000000E+00 0. -1.
         25    2    1    2    0    0  0.58169757565E+02  0.61387217862E+01 -0.95334580858E+01  0.13841978231E+03  0.12509094576E+03 0.  0.
         23    2    1    2    0    0 -0.58169757565E+02 -0.61387217862E+01  0.88194312896E+02  0.14065961027E+03  0.92657889761E+02 0.  0.
          5    1    3    3  502    0 -0.35735650718E+02 -0.84004997157E+01  0.15496824760E+02  0.40065310498E+02  0.41800000000E+01 0.  1.
         -5    1    3    3    0  502  0.93905408282E+02  0.14539221502E+02 -0.25030282845E+02  0.98354471814E+02  0.41800000000E+01 0.  1.
        -11    1    4    4    0    0  0.14514584576E+02 -0.27142063444E+02  0.41799624602E+02  0.51909280386E+02  0.00000000000E+00 0.  1.
         11    1    4    4    0    0 -0.72684342141E+02  0.21003341658E+02  0.46394688294E+02  0.88750329887E+02  0.00000000000E+00 0. -1.
</event>
<event>
 8    1  0.6505836E-009  0.1931139E+03  0.7561462E-02  0.1155682E+00
         -2   -1    0    0    0  501 -0.00000000000E+00  0.00000000000E+00  0.35749911833E+02  0.35749911833E+02  0.00000000000E+00 0.  1.
          2   -1    0    0  501    0  0.00000000000E+00 -0.00000000000E+00 -0.13306873505E+04  0.13306873505E+04  0.00000000000E+00 0. -1.
         25    2    1    2    0    0 -0.15025095934E+03 -0.10227417793E+03 -0.83122005259E+03  0.86000176491E+03  0.12506359013E+03 0.  0.
         23    2    1    2    0    0  0.15025095934E+03  0.10227417793E+03 -0.46371738610E+03  0.50643549745E+03  0.91693732851E+02 0.  0.
          5    1    3    3  502    0 -0.13555753214E+03 -0.50032712130E+02 -0.39921162269E+03  0.42457803628E+03  0.41800000000E+01 0. -1.
         -5    1    3    3    0  502 -0.14693427202E+02 -0.52241465795E+02 -0.43200842990E+03  0.43542372863E+03  0.41800000000E+01 0. -1.
        -11    1    4    4    0    0  0.75855335000E+02  0.78447874714E+02 -0.16611931657E+03  0.19875544831E+03  0.00000000000E+00 0.  1.
         11    1    4    4    0    0  0.74395624341E+02  0.23826303212E+02 -0.29759806953E+03  0.30768004913E+03  0.00000000000E+00 0. -1.
</event>
<event>
 8    1  0.6505836E-009  0.2330282E+03  0.7561462E-02  0.1124526E+00
         -2   -1    0    0    0  501 -0.00000000000E+00  0.00000000000E+00  0.42009466693E+03  0.42009466693E+03  0.00000000000E+00 0. -1.
          2   -1    0    0  501    0  0.00000000000E+00 -0.00000000000E+00 -0.13455589912E+03  0.13455589912E+03  0.00000000000E+00 0.  1.
         25    2    1    2    0    0  0.72785768677E+02  0.19635167719E+03  0.11860330871E+03  0.27122971112E+03  0.12508821727E+03 0.  0.
         23    2    1    2    0    0 -0.72785768677E+02 -0.19635167719E+03  0.16693545911E+03  0.28342085493E+03  0.92780300966E+02 0.  0.
          5    1    3    3  502    0  0.23966144196E+02  0.19078628522E+03  0.10873007636E+03  0.22093773920E+03  0.41800000000E+01 0.  1.
         -5    1    3    3    0  502  0.48819624481E+02  0.55653919650E+01  0.98732323452E+01  0.50291971916E+02  0.41800000000E+01 0.  1.
        -11    1    4    4    0    0 -0.83954985500E+02 -0.11548078682E+03  0.13261537751E+03  0.19486172037E+03  0.00000000000E+00 0. -1.
         11    1    4    4    0    0  0.11169216823E+02 -0.80870890367E+02  0.34320081600E+02  0.88559134561E+02  0.00000000000E+00 0.  1.
</event>
<event>
 8    1  0.6505836E-009  0.1296275E+03  0.7561462E-02  0.1228009E+00
          1   -1    0    0  501    0  0.00000000000E+00  0.00000000000E+00  0.14374335044E+03  0.14374335044E+03  0.00000000000E+00 0. -1.
         -1   -1    0    0    0  501 -0.00000000000E+00 -0.00000000000E+00 -0.13464847659E+03  0.13464847659E+03  0.00000000000E+00 0.  1.
         25    2    1    2    0    0  0.84387097524E+02  0.51407890177E+00 -0.12212363127E+02  0.15138805413E+03  0.12509098534E+03 0.  0.
         23    2    1    2    0    0 -0.84387097524E+02 -0.51407890177E+00  0.21307236978E+02  0.12700377289E+03  0.92490612907E+02 0.  0.
          5    1    3    3  502    0  0.97524599305E+02 -0.28710715181E+02 -0.39447508415E+02  0.10912804844E+03  0.41800000000E+01 0. -1.
         -5    1    3    3    0  502 -0.13137501781E+02  0.29224794083E+02  0.27235145288E+02  0.42260005692E+02  0.41800000000E+01 0. -1.
        -11    1    4    4    0    0 -0.10214035804E+03 -0.13731984978E+02  0.16900201361E+02  0.10443580305E+03  0.00000000000E+00 0. -1.
         11    1    4    4    0    0  0.17753260517E+02  0.13217906076E+02  0.44070356165E+01  0.22567969846E+02  0.00000000000E+00 0.  1.
</event>
<event>
 8    1  0.6505836E-009  0.8273088E+02  0.7561462E-02  0.1321475E+00
         -1   -1    0    0    0  501 -0.00000000000E+00  0.00000000000E+00  0.67758002699E+03  0.67758002699E+03  0.00000000000E+00 0.  1.
          1   -1    0    0  501    0  0.00000000000E+00 -0.00000000000E+00 -0.20236942900E+02  0.20236942900E+02  0.00000000000E+00 0. -1.
         25    2    1    2    0    0 -0.26128900875E+02 -0.21061153021E+02  0.29864168319E+03  0.32551571908E+03  0.12508931528E+03 0.  0.
         23    2    1    2    0    0  0.26128900875E+02  0.21061153021E+02  0.35870140090E+03  0.37230125082E+03  0.93889481449E+02 0.  0.
          5    1    3    3  502    0  0.23412323502E+02 -0.64711582597E+01  0.23851864003E+01  0.24762356414E+02  0.41800000000E+01 0. -1.
         -5    1    3    3    0  502 -0.49541224377E+02 -0.14589994761E+02  0.29625649679E+03  0.30075336266E+03  0.41800000000E+01 0. -1.
        -11    1    4    4    0    0  0.32318117564E+02  0.49929596912E+02  0.30748443112E+03  0.31318381304E+03  0.00000000000E+00 0. -1.
         11    1    4    4    0    0 -0.61892166887E+01 -0.28868443891E+02  0.51216969783E+02  0.59117437780E+02  0.00000000000E+00 0.  1.
</event>
<event>
 8    1  0.6505836E-009  0.8080957E+02  0.7561462E-02  0.1326770E+00
          2   -1    0    0  501    0  0.00000000000E+00  0.00000000000E+00  0.42815539852E+03  0.42815539852E+03  0.00000000000E+00 0. -1.
         -2   -1    0    0    0  501 -0.00000000000E+00 -0.00000000000E+00 -0.30024393704E+02  0.30024393704E+02  0.00000000000E+00 0.  1.
         25    2    1    2    0    0 -0.30723944056E+02 -0.10302996805E+02  0.19832905093E+03  0.23671220886E+03  0.12509254534E+03 0.  0.
         23    2    1    2    0    0  0.30723944056E+02  0.10302996805E+02  0.19980195389E+03  0.22146758337E+03  0.89871893396E+02 0.  0.
          5    1    3    3  502    0 -0.47352654910E+02 -0.34699475094E+01  0.11575460929E+02  0.49048732486E+02  0.41800000000E+01 0.  1.
         -5    1    3    3    0  502  0.16628710854E+02 -0.68330492960E+01  0.18675359000E+03  0.18766347637E+03  0.41800000000E+01 0.  1.
        -11    1    4    4    0    0  0.28462681712E+02 -0.37813692500E+02  0.95929051934E+02  0.10696907308E+03  0.00000000000E+00 0.  1.
         11    1    4    4    0    0  0.22612623443E+01  0.48116689305E+02  0.10387290195E+03  0.11449851029E+03  0.00000000000E+00 0. -1.
</event>
<event>
 8    1  0.6505836E-009  0.1825786E+03  0.7561462E-02  0.1165331E+00
         -2   -1    0    0    0  501 -0.00000000000E+00  0.00000000000E+00  0.84176922233E+02  0.84176922233E+02  0.00000000000E+00 0. -1.
          2   -1    0    0  501    0  0.00000000000E+00 -0.00000000000E+00 -0.47573352910E+03  0.47573352910E+03  0.00000000000E+00 0.  1.
         25    2    1    2    0    0 -0.10735481614E+03 -0.12034774953E+03 -0.11797133990E+03  0.23573340543E+03  0.12507743216E+03 0.  0.
         23    2    1    2    0    0  0.10735481614E+03  0.12034774953E+03 -0.27358526697E+03  0.32417704590E+03  0.65063210981E+02 0.  0.
          5    1    3    3  502    0  0.26767339218E+02 -0.74029129159E+01 -0.10223252577E+02  0.29887804565E+02  0.41800000000E+01 0.  1.
         -5    1    3    3    0  502 -0.13412215536E+03 -0.11294483661E+03 -0.10774808732E+03  0.20584560087E+03  0.41800000000E+01 0.  1.
        -11    1    4    4    0    0  0.23480904220E+02  0.33820642918E+02 -0.13189501990E+03  0.13817194007E+03  0.00000000000E+00 0.  1.
         11    1    4    4    0    0  0.83873911920E+02  0.86527106609E+02 -0.14169024707E+03  0.18600510583E+03  0.00000000000E+00 0. -1.
</event>
<event>
 8    1  0.6505836E-009  0.1039006E+03  0.7561462E-02  0.1272301E+00
         -1   -1    0    0    0  501 -0.00000000000E+00  0.00000000000E+00  0.64492353763E+02  0.64492353763E+02  0.00000000000E+00 0.  1.
          1   -1    0    0  501    0  0.00000000000E+00 -0.00000000000E+00 -0.23781369801E+03  0.23781369801E+03  0.00000000000E+00 0. -1.
         25    2    1    2    0    0 -0.25925178875E+02 -0.53837729187E+02 -0.86840697274E+02  0.16358469527E+03  0.12509208544E+03 0.  0.
         23    2    1    2    0    0  0.25925178875E+02  0.53837729187E+02 -0.86480646978E+02  0.13872135651E+03  0.90521248699E+02 0.  0.
          5    1    3    3  502    0 -0.57656590030E+02 -0.52277634985E+02 -0.78412056715E+01  0.78333839430E+02  0.41800000000E+01 0.  1.
         -5    1    3    3    0  502  0.31731411155E+02 -0.15600942021E+01 -0.78999491602E+02  0.85250855838E+02  0.41800000000E+01 0.  1.
        -11    1    4    4    0    0  0.29750424136E+02 -0.11846037759E+02 -0.26179665469E+01  0.32128960389E+02  0.00000000000E+00 0.  1.
         11    1    4    4    0    0 -0.38252452605E+01  0.65683766945E+02 -0.83862680431E+02  0.10659239612E+03  0.00000000000E+00 0. -1.
</event>
<event>
 8    1  0.6505836E-009  0.1213713E+03  0.7561462E-02  0.1240852E+00
         -2   -1    0    0    0  501 -0.00000000000E+00  0.00000000000E+00  0.36426347500E+03  0.36426347500E+03  0.00000000000E+00 0.  1.
          2   -1    0    0  501    0  0.00000000000E+00 -0.00000000000E+00 -0.46236338431E+02  0.46236338431E+02  0.00000000000E+00 0. -1.
         25    2    1    2    0    0 -0.61614192264E+02 -0.26242069038E+02  0.14459573486E+03  0.20258326772E+03  0.12508836455E+03 0.  0.
         23    2    1    2    0    0  0.61614192264E+02  0.26242069038E+02  0.17343140171E+03  0.20791654571E+03  0.93090729954E+02 0.  0.
          5    1    3    3  502    0 -0.97925701853E+02 -0.16308652079E+02  0.12577499830E+03  0.16028798399E+03  0.41800000000E+01 0. -1.
         -5    1    3    3    0  502  0.36311509589E+02 -0.99334169596E+01  0.18820736558E+02  0.42295283729E+02  0.41800000000E+01 0. -1.
        -11    1    4    4    0    0  0.26119956743E+01 -0.26340841322E+02  0.13937698299E+02  0.29915244890E+02  0.00000000000E+00 0. -1.
         11    1    4    4    0    0  0.59002196590E+02  0.52582910360E+02  0.15949370341E+03  0.17800130082E+03  0.00000000000E+00 0.  1.
</event>
<event>
 8    1  0.6505836E-009  0.1112907E+03  0.7561462E-02  0.1258198E+00
         -2   -1    0    0    0  501 -0.00000000000E+00  0.00000000000E+00  0.56957130284E+02  0.56957130284E+02  0.00000000000E+00 0.  1.
          2   -1    0    0  501    0  0.00000000000E+00 -0.00000000000E+00 -0.25431547711E+03  0.25431547711E+03  0.00000000000E+00 0. -1.
         25    2    1    2    0    0 -0.16741317549E+02  0.34763884002E+02 -0.15617600856E+03  0.20378003319E+03  0.12508619801E+03 0.  0.
         23    2    1    2    0    0  0.16741317549E+02 -0.34763884002E+02 -0.41182338265E+02  0.10749257421E+03  0.91486989130E+02 0.  0.
          5    1    3    3  502    0 -0.66361968826E+02  0.86189373557E+01 -0.11827662373E+03  0.13595965986E+03  0.41800000000E+01 0. -1.
         -5    1    3    3    0  502  0.49620651276E+02  0.26144946646E+02 -0.37899384830E+02  0.67820373330E+02  0.41800000000E+01 0. -1.
        -11    1    4    4    0    0 -0.35173113219E+02  0.26873028637E+01 -0.14952377352E+02  0.38313745297E+02  0.00000000000E+00 0.  1.
         11    1    4    4    0    0  0.51914430768E+02 -0.37451186865E+02 -0.26229960913E+02  0.69178828908E+02  0.00000000000E+00 0. -1.
</event>
<event>
 8    1  0.6505836E-009  0.9574260E+02  0.7561462E-02  0.1289512E+00
          1   -1    0    0  501    0  0.00000000000E+00  0.00000000000E+00  0.25204927801E+02  0.25204927801E+02  0.00000000000E+00 0.  1.
         -1   -1    0    0    0  501 -0.00000000000E+00 -0.00000000000E+00 -0.48849801581E+03  0.48849801581E+03  0.00000000000E+00 0. -1.
         25    2    1    2    0    0 -0.28064020647E+02 -0.10947186669E+02 -0.25936253350E+03  0.28952469481E+03  0.12509274546E+03 0.  0.
         23    2    1    2    0    0  0.28064020647E+02  0.10947186669E+02 -0.20393055451E+03  0.22417824881E+03  0.88095323514E+02 0.  0.
          5    1    3    3  502    0 -0.20052105900E+02  0.49857965786E+02 -0.58866240202E+02  0.79816103255E+02  0.41800000000E+01 0.  1.
         -5    1    3    3    0  502 -0.80119147474E+01 -0.60805152455E+02 -0.20049629330E+03  0.20970859155E+03  0.41800000000E+01 0.  1.
        -11    1    4    4    0    0  0.32084389428E+02  0.37444414241E+02 -0.18476043081E+03  0.19122737512E+03  0.00000000000E+00 0. -1.
         11    1    4    4    0    0 -0.40203687806E+01 -0.26497227572E+02 -0.19170123704E+02  0.32950873690E+02  0.00000000000E+00 0.  1.
</event>
<event>
 8    1  0.6505836E-009  0.1154815E+03  0.7561462E-02  0.1250743E+00
          2   -1    0    0  501    0  0.00000000000E+00  0.00000000000E+00  0.88272293194E+03  0.88272293194E+03  0.00000000000E+00 0. -1.
         -2   -1    0    0    0  501 -0.00000000000E+00 -0.00000000000E+00 -0.15606766007E+02  0.15606766007E+02  0.00000000000E+00 0.  1.
         25    2    1    2    0    0 -0.38117458525E+02 -0.19453877705E+02  0.44239420817E+03  0.46172651992E+03  0.12508936712E+03 0.  0.
         23    2    1    2    0    0  0.38117458525E+02  0.19453877705E+02  0.42472195776E+03  0.43660317803E+03  0.91663513246E+02 0.  0.
          5    1    3    3  502    0 -0.70774887445E+02 -0.48696773563E+02  0.25086465492E+03  0.26519993955E+03  0.41800000000E+01 0. -1.
         -5    1    3    3    0  502  0.32657428920E+02  0.29242895858E+02  0.19152955325E+03  0.19652658037E+03  0.41800000000E+01 0. -1.
        -11    1    4    4    0    0  0.57521793326E+02  0.41960270099E+02  0.28538681093E+03  0.29413441286E+03  0.00000000000E+00 0.  1.
         11    1    4    4    0    0 -0.19404334802E+02 -0.22506392395E+02  0.13933514683E+03  0.14246876517E+03  0.00000000000E+00 0. -1.
</event>
<event>
 8    1  0.6505836E-009  0.9021829E+02  0.7561462E-02  0.1302324E+00
         -2   -1    0    0    0  501 -0.00000000000E+00  0.00000000000E+00  0.24920332953E+03  0.24920332953E+03  0.00000000000E+00 0.  1.
          2   -1    0    0  501    0  0.00000000000E+00 -0.00000000000E+00 -0.79873168027E+02  0.79873168027E+02  0.00000000000E+00 0. -1.
         25    2    1    2    0    0  0.17024595792E+01  0.21438099383E+02  0.19443261598E+03  0.23220094448E+03  0.12510294156E+03 0.  0.
         23    2    1    2    0    0 -0.17024595792E+01 -0.21438099383E+02 -0.25102454481E+02  0.96875553075E+02  0.91061787204E+02 0.  0.
          5    1    3    3  502    0  0.27417924621E+01  0.69976378732E+02  0.72470962398E+02  0.10086487891E+03  0.41800000000E+01 0. -1.
         -5    1    3    3    0  502 -0.10393328829E+01 -0.48538279350E+02  0.12196165359E+03  0.13133606557E+03  0.41800000000E+01 0. -1.
        -11    1    4    4    0    0  0.26214503476E+02  0.22690734580E+00  0.24560838931E+02  0.35923341833E+02  0.00000000000E+00 0.  1.
         11    1    4    4    0    0 -0.27916963055E+02 -0.21665006729E+02 -0.49663293412E+02  0.60952211242E+02  0.00000000000E+00 0. -1.
</event>
<event>
 8    1  0.6505836E-009  0.1491865E+03  0.7561462E-02  0.1201476E+00
         -2   -1    0    0    0  501 -0.00000000000E+00  0.00000000000E+00  0.44866618802E+02  0.44866618802E+02  0.00000000000E+00 0.  1.
          2   -1    0    0  501    0  0.00000000000E+00 -0.00000000000E+00 -0.57887425453E+03  0.57887425453E+03  0.00000000000E+00 0. -1.
         25    2    1    2    0    0 -0.58401998435E+02  0.10431765929E+03 -0.28305978453E+03  0.33175776858E+03  0.12508959962E+03 0.  0.
         23    2    1    2    0    0  0.58401998435E+02 -0.10431765929E+03 -0.25094785120E+03  0.29198310475E+03  0.89366335831E+02 0.  0.
          5    1    3    3  502    0 -0.53761479430E+02  0.10316007312E+02 -0.31867451468E+02  0.63480103501E+02  0.41800000000E+01 0.  1.
         -5    1    3    3    0  502 -0.46405190050E+01  0.94001651975E+02 -0.25119233306E+03  0.26827766508E+03  0.41800000000E+01 0.  1.
        -11    1    4    4    0    0  0.72681344311E+02 -0.39162349637E+02 -0.13903256166E+03  0.16169823945E+03  0.00000000000E+00 0. -1.
         11    1    4    4    0    0 -0.14279345876E+02 -0.65155309650E+02 -0.11191528954E+03  0.13028486530E+03  0.00000000000E+00 0.  1.
</event>
<event>
 8    1  0.6505836E-009  0.2805258E+03  0.7561462E-02  0.1095402E+00
         -1   -1    0    0    0  501 -0.00000000000E+00  0.00000000000E+00  0.80262479937E+02  0.80262479937E+02  0.00000000000E+00 0.  1.
          1   -1    0    0  501    0  0.00000000000E+00 -0.00000000000E+00 -0.99887487557E+03  0.99887487557E+03  0.00000000000E+00 0. -1.
         25    2    1    2    0    0 -0.22642779277E+03 -0.13333502155E+03 -0.45213519398E+03  0.53770384229E+03  0.12510561567E+03 0.  0.
         23    2    1    2    0    0  0.22642779277E+03  0.13333502155E+03 -0.46647720166E+03  0.54143351322E+03  0.80631856334E+02 0.  0.
          5    1    3    3  502    0 -0.19510107730E+03 -0.51633103911E+02 -0.28870600321E+03  0.35227693151E+03  0.41800000000E+01 0. -1.
         -5    1    3    3    0  502 -0.31326715471E+02 -0.81701917640E+02 -0.16342919077E+03  0.18542691078E+03  0.41800000000E+01 0. -1.
        -11    1    4    4    0    0  0.70026240924E+02  0.80057372676E+02 -0.22457179769E+03  0.24848611562E+03  0.00000000000E+00 0.  1.
         11    1    4    4    0    0  0.15640155185E+03  0.53277648875E+02 -0.24190540396E+03  0.29294739759E+03  0.00000000000E+00 0. -1.
</event>
<event>
 8    1  0.6505836E-009  0.1343314E+03  0.7561462E-02  0.1221167E+00
          2   -1    0    0  501    0  0.00000000000E+00  0.00000000000E+00  0.26037873290E+03  0.26037873290E+03  0.00000000000E+00 0. -1.
         -2   -1    0    0    0  501 -0.00000000000E+00 -0.00000000000E+00 -0.95843649958E+02  0.95843649958E+02  0.00000000000E+00 0.  1.
         25    2    1    2    0    0  0.93013863470E+02 -0.56860341076E+02  0.48815517634E+02  0.17296188155E+03  0.12509268772E+03 0.  0.
         23    2    1    2    0    0 -0.93013863470E+02  0.56860341076E+02  0.11571956530E+03  0.18326050131E+03  0.91152160483E+02 0.  0.
          5    1    3    3  502    0  0.96836101718E+02 -0.33544742234E+02  0.82483727435E+02  0.13161883611E+03  0.41800000000E+01 0.  1.
         -5    1    3    3    0  502 -0.38222382479E+01 -0.23315598842E+02 -0.33668209801E+02  0.41343045435E+02  0.41800000000E+01 0.  1.
        -11    1    4    4    0    0 -0.10912336696E+03  0.61600499830E+02  0.10229764829E+03  0.16176322092E+03  0.00000000000E+00 0.  1.
         11    1    4    4    0    0  0.16109503493E+02 -0.47401587537E+01  0.13421917017E+02  0.21497280391E+02  0.00000000000E+00 0. -1.
</event>
<event>
 8    1  0.6505836E-009  0.1109913E+03  0.7561462E-02  0.1258745E+00
          1   -1    0    0  501    0  0.00000000000E+00  0.00000000000E+00  0.10762847093E+04  0.10762847093E+04  0.00000000000E+00 0. -1.
         -1   -1    0    0    0  501 -0.00000000000E+00 -0.00000000000E+00 -0.14086016145E+02  0.14086016145E+02  0.00000000000E+00 0.  1.
         25    2    1    2    0    0  0.39130239195E+02 -0.28372097238E+02  0.72985190876E+03  0.74206932894E+03  0.12508768409E+03 0.  0.
         23    2    1    2    0    0 -0.39130239195E+02  0.28372097238E+02  0.33234678437E+03  0.34830139648E+03  0.92321861917E+02 0.  0.
          5    1    3    3  502    0  0.82923967634E+02 -0.20476999669E+02  0.55728237478E+03  0.56380564875E+03  0.41800000000E+01 0. -1.
         -5    1    3    3    0  502 -0.43793728439E+02 -0.78950975681E+01  0.17256953399E+03  0.17826368019E+03  0.41800000000E+01 0. -1.
        -11    1    4    4    0    0 -0.29720005651E+02  0.55554640812E+02  0.29218559510E+03  0.29890135302E+03  0.00000000000E+00 0. -1.
         11    1    4    4    0    0 -0.94102335433E+01 -0.27182543574E+02  0.40161189267E+02  0.49400043460E+02  0.00000000000E+00 0.  1.
</event>
<event>
 8    1  0.6505836E-009  0.1548125E+03  0.7561462E-02  0.1194681E+00
          2   -1    0    0  501    0  0.00000000000E+00  0.00000000000E+00  0.77078660396E+03  0.77078660396E+03  0.00000000000E+00 0. -1.
         -2   -1    0    0    0  501 -0.00000000000E+00 -0.00000000000E+00 -0.43085493684E+02  0.43085493684E+02  0.00000000000E+00 0.  1.
         25    2    1    2    0    0  0.24153794370E+02 -0.11911813223E+03  0.20042561455E+03  0.26569616126E+03  0.12510590686E+03 0.  0.
         23    2    1    2    0    0 -0.24153794370E+02  0.11911813223E+03  0.52727549573E+03  0.54817593639E+03  0.87777409586E+02 0.  0.
          5    1    3    3  502    0  0.39721086887E+02 -0.39772165883E+00  0.10559951638E+03  0.11290107699E+03  0.41800000000E+01 0.  1.
         -5    1    3    3    0  502 -0.15567292516E+02 -0.11872041057E+03  0.94826098176E+02  0.15279508427E+03  0.41800000000E+01 0.  1.
        -11    1    4    4    0    0  0.30339349738E+02  0.70864930593E+02  0.27839572488E+03  0.28887106840E+03  0.00000000000E+00 0.  1.
         11    1    4    4    0    0 -0.54493144108E+02  0.48253201635E+02  0.24887977085E+03  0.25930486798E+03  0.00000000000E+00 0. -1.
</event>
<event>
 8    1  0.6505836E-009  0.1432024E+03  0.7561462E-02  0.1209084E+00
         -1   -1    0    0    0  501 -0.00000000000E+00  0.00000000000E+00  0.28172030374E+03  0.28172030374E+03  0.00000000000E+00 0.  1.
          1   -1    0    0  501    0  0.00000000000E+00 -0.00000000000E+00 -0.76925223341E+02  0.76925223341E+02  0.00000000000E+00 0. -1.
         25    2    1    2    0    0  0.65244100445E+02 -0.74306474154E+02  0.11935176099E+03  0.19917414474E+03  0.12508897769E+03 0.  0.
         23    2    1    2    0    0 -0.65244100445E+02  0.74306474154E+02  0.85443319416E+02  0.15947138234E+03  0.91391007260E+02 0.  0.
          5    1    3    3  502    0 -0.22607200312E+02 -0.62771265756E+02  0.30010293567E+02  0.73276240560E+02  0.41800000000E+01 0.  1.
         -5    1    3    3    0  502  0.87851300757E+02 -0.11535208398E+02  0.89341467418E+02  0.12589790418E+03  0.41800000000E+01 0.  1.
        -11    1    4    4    0    0 -0.51430593343E+02  0.93791533159E+02  0.53540638878E+02  0.11961838335E+03  0.00000000000E+00 0. -1.
         11    1    4    4    0    0 -0.13813507102E+02 -0.19485059004E+02  0.31902680538E+02  0.39852998988E+02  0.00000000000E+00 0.  1.
</event>
<event>
 8    1  0.6505836E-009  0.1206688E+03  0.7561462E-02  0.1241998E+00
         -1   -1    0    0    0  501 -0.00000000000E+00  0.00000000000E+00  0.37461010206E+02  0.37461010206E+02  0.00000000000E+00 0.  1.
          1   -1    0    0  501    0  0.00000000000E+00 -0.00000000000E+00 -0.60604587418E+03  0.60604587418E+03  0.00000000000E+00 0. -1.
         25    2    1    2    0    0  0.69753771725E+02 -0.74442022062E+02 -0.36101174858E+03  0.39546619930E+03  0.12512725065E+03 0.  0.
         23    2    1    2    0    0 -0.69753771725E+02  0.74442022062E+02 -0.20757311539E+03  0.24804068509E+03  0.89612387012E+02 0.  0.
          5    1    3    3  502    0  0.73764885953E+02 -0.62267272200E+02 -0.11994137717E+03  0.15401908305E+03  0.41800000000E+01 0.  1.
         -5    1    3    3    0  502 -0.40111142284E+01 -0.12174749862E+02 -0.24107037141E+03  0.24144711625E+03  0.41800000000E+01 0.  1.
        -11    1    4    4    0    0 -0.30911516076E+02 -0.14526230619E+02 -0.85524383001E+02  0.92092091354E+02  0.00000000000E+00 0.  1.
         11    1    4    4    0    0 -0.38842255648E+02  0.88968252681E+02 -0.12204873239E+03  0.15594859373E+03  0.00000000000E+00 0. -1.
</event>
<event>
 8    1  0.6505836E-009  0.2434593E+03  0.7561462E-02  0.1117510E+00
          2   -1    0    0  501    0  0.00000000000E+00  0.00000000000E+00  0.73386148499E+03  0.73386148499E+03  0.00000000000E+00 0. -1.
         -2   -1    0    0    0  501 -0.00000000000E+00 -0.00000000000E+00 -0.11836350584E+03  0.11836350584E+03  0.00000000000E+00 0.  1.
         25    2    1    2    0    0 -0.23296811193E+03  0.65479644324E+02  0.49906605811E+03  0.56857313127E+03  0.12508697071E+03 0.  0.
         23    2    1    2    0    0  0.23296811193E+03 -0.65479644324E+02  0.11643192103E+03  0.28365185956E+03  0.91325025034E+02 0.  0.
          5    1    3    3  502    0 -0.30947940338E+02  0.18181782011E+02  0.20791555827E+03  0.21103247139E+03  0.41800000000E+01 0. -1.
         -5    1    3    3    0  502 -0.20202017159E+03  0.47297862313E+02  0.29115049984E+03  0.35754065988E+03  0.41800000000E+01 0. -1.
        -11    1    4    4    0    0  0.17179873853E+03 -0.59437831083E+02  0.41016109194E+02  0.18635982275E+03  0.00000000000E+00 0.  1.
         11    1    4    4    0    0  0.61169373401E+02 -0.60418132417E+01  0.75415811840E+02  0.97292036802E+02  0.00000000000E+00 0. -1.
</event>
<event>
 8    1  0.6505836E-009  0.1155174E+03  0.7561462E-02  0.1250681E+00
         -1   -1    0    0    0  501 -0.00000000000E+00  0.00000000000E+00  0.27003399230E+02  0.27003399230E+02  0.00000000000E+00 0.  1.
          1   -1    0    0  501    0  0.00000000000E+00 -0.00000000000E+00 -0.92829847309E+03  0.92829847309E+03  0.00000000000E+00 0. -1.
         25    2    1    2    0    0  0.91672685737E+02  0.10949368426E+02 -0.69397873282E+03  0.71118055774E+03  0.12509010397E+03 0.  0.
         23    2    1    2    0    0 -0.91672685737E+02 -0.10949368426E+02 -0.20731634104E+03  0.24412131459E+03  0.89952103894E+02 0.  0.
          5    1    3    3  502    0  0.10454523635E+03  0.29527177385E+02 -0.35142876464E+03  0.36786031271E+03  0.41800000000E+01 0. -1.
         -5    1    3    3    0  502 -0.12872550611E+02 -0.18577808959E+02 -0.34254996818E+03  0.34332024503E+03  0.41800000000E+01 0. -1.
        -11    1    4    4    0    0 -0.37032021306E+02  0.13575899659E+02 -0.14183081487E+02  0.41914621006E+02  0.00000000000E+00 0.  1.
         11    1    4    4    0    0 -0.54640664430E+02 -0.24525268085E+02 -0.19313325955E+03  0.20220669358E+03  0.00000000000E+00 0. -1.
</event>
<event>
 8    1  0.6505836E-009  0.1174077E+03  0.7561462E-02  0.1247436E+00
          1   -1    0    0  501    0  0.00000000000E+00  0.00000000000E+00  0.46920863225E+03  0.46920863225E+03  0.00000000000E+00 0. -1.
         -1   -1    0    0    0  501 -0.00000000000E+00 -0.00000000000E+00 -0.37860005069E+02  0.37860005069E+02  0.00000000000E+00 0.  1.
         25    2    1    2    0    0 -0.23189069737E+02 -0.51858805190E+02  0.34484854571E+03  0.37120634070E+03  0.12508620735E+03 0.  0.
         23    2    1    2    0    0  0.23189069737E+02  0.51858805190E+02  0.86500081472E+02  0.13586229661E+03  0.88029716095E+02 0.  0.
          5    1    3    3  502    0  0.89997106973E+01  0.37746673256E+02  0.67890697425E+02  0.78309803546E+02  0.41800000000E+01 0. -1.
         -5    1    3    3    0  502 -0.32188780434E+02 -0.89605478445E+02  0.27695784828E+03  0.29289653716E+03  0.41800000000E+01 0. -1.
        -11    1    4    4    0    0 -0.29687033708E+02  0.55633828987E+01  0.45149458113E+02  0.54320758164E+02  0.00000000000E+00 0. -1.
         11    1    4    4    0    0  0.52876103445E+02  0.46295422291E+02  0.41350623359E+02  0.81541538450E+02  0.00000000000E+00 0.  1.
</event>
<event>
 8    1  0.6505836E-009  0.9277404E+02  0.7561462E-02  0.1296270E+00
         -1   -1    0    0    0  501 -0.00000000000E+00  0.00000000000E+00  0.33847996633E+03  0.33847996633E+03  0.00000000000E+00 0.  1.
          1   -1    0    0  501    0  0.00000000000E+00 -0.00000000000E+00 -0.43245317653E+02  0.43245317653E+02  0.00000000000E+00 0. -1.
         25    2    1    2    0    0 -0.37413490610E+02  0.23533105263E+02  0.21184545669E+03  0.24996474858E+03  0.12510116582E+03 0.  0.
         23    2    1    2    0    0  0.37413490610E+02 -0.23533105263E+02  0.83389191983E+02  0.13176053540E+03  0.91942944410E+02 0.  0.
          5    1    3    3  502    0  0.45591204526E+02  0.56518728836E+00  0.85735912767E+02  0.97195660936E+02  0.41800000000E+01 0. -1.
         -5    1    3    3    0  502 -0.83004695136E+02  0.22967917975E+02  0.12610954393E+03  0.15276908765E+03  0.41800000000E+01 0. -1.
        -11    1    4    4    0    0  0.21487942798E+02 -0.29529329910E+02 -0.91670239651E+01  0.37652985791E+02  0.00000000000E+00 0. -1.
         11    1    4    4    0    0  0.15925547812E+02  0.59962246462E+01  0.92556215948E+02  0.94107549611E+02  0.00000000000E+00 0.  1.
</event>
<event>
 8    1  0.6505836E-009  0.7259505E+02  0.7561462E-02  0.1351484E+00
          2   -1    0    0  501    0  0.00000000000E+00  0.00000000000E+00  0.14740078641E+04  0.14740078641E+04  0.00000000000E+00 0. -1.
         -2   -1    0    0    0  501 -0.00000000000E+00 -0.00000000000E+00 -0.14779882767E+02  0.14779882767E+02  0.00000000000E+00 0.  1.
         25    2    1    2    0    0 -0.10702670925E+02 -0.30198667469E+02  0.12758960568E+04  0.12824133334E+04  0.12508678211E+03 0.  0.
         23    2    1    2    0    0  0.10702670925E+02  0.30198667469E+02  0.18333192454E+03  0.20637441354E+03  0.89181261085E+02 0.  0.
          5    1    3    3  502    0  0.24313595891E-02 -0.57237380058E+02  0.26739049922E+03  0.27347992459E+03  0.41800000000E+01 0. -1.
         -5    1    3    3    0  502 -0.10705102284E+02  0.27038712589E+02  0.10085055576E+04  0.10089334088E+04  0.41800000000E+01 0. -1.
        -11    1    4    4    0    0  0.27005954625E+02  0.32165340007E+02  0.18514892562E+03  0.18985272013E+03  0.00000000000E+00 0. -1.
         11    1    4    4    0    0 -0.16303283701E+02 -0.19666725381E+01 -0.18170010812E+01  0.16521693413E+02  0.00000000000E+00 0.  1.
</event>
<event>
 8    1  0.6505836E-009  0.6985818E+02  0.7561462E-02  0.1360576E+00
          4   -1    0    0  501    0  0.00000000000E+00  0.00000000000E+00  0.74444912103E+02  0.74444912103E+02  0.00000000000E+00 0. -1.
         -4   -1    0    0    0  501 -0.00000000000E+00 -0.00000000000E+00 -0.16034185902E+03  0.16034185902E+03  0.00000000000E+00 0.  1.
         25    2    1    2    0    0  0.59477219429E+01  0.75000427302E+01 -0.57337400669E+02  0.13793409296E+03  0.12508641192E+03 0.  0.
         23    2    1    2    0    0 -0.59477219429E+01 -0.75000427302E+01 -0.28559546249E+02  0.96852678166E+02  0.92049810150E+02 0.  0.
          5    1    3    3  502    0  0.25286149469E+02  0.33694255188E+02  0.25090065576E+02  0.49210527108E+02  0.41800000000E+01 0.  1.
         -5    1    3    3    0  502 -0.19338427526E+02 -0.26194212458E+02 -0.82427466245E+02  0.88723565850E+02  0.41800000000E+01 0.  1.
        -11    1    4    4    0    0  0.13000659263E+02 -0.31441499456E+02  0.20018915624E+02  0.39475840866E+02  0.00000000000E+00 0. -1.
         11    1    4    4    0    0 -0.18948381206E+02  0.23941456726E+02 -0.48578461873E+02  0.57376837299E+02  0.00000000000E+00 0.  1.
</event>
<event>
 8    1  0.6505836E-009  0.1305104E+03  0.7561462E-02  0.1226700E+00
          2   -1    0    0  501    0  0.00000000000E+00  0.00000000000E+00  0.55509780199E+03  0.55509780199E+03  0.00000000000E+00 0. -1.
         -2   -1    0    0    0  501 -0.00000000000E+00 -0.00000000000E+00 -0.37305577514E+02  0.37305577514E+02  0.00000000000E+00 0.  1.
         25    2    1    2    0    0  0.66998016266E+02 -0.66198415306E+02  0.30440403520E+03  0.34231604869E+03  0.12508995233E+03 0.  0.
         23    2    1    2    0    0 -0.66998016266E+02  0.66198415306E+02  0.21338818928E+03  0.25008733081E+03  0.90211913494E+02 0.  0.
          5    1    3    3  502    0  0.55593390205E+02 -0.10308562580E+03  0.21565951908E+03  0.24544606709E+03  0.41800000000E+01 0. -1.
         -5    1    3    3    0  502  0.11404626061E+02  0.36887210497E+02  0.88744516121E+02  0.96869981601E+02  0.41800000000E+01 0. -1.
        -11    1    4    4    0    0  0.18685695319E+01  0.24315664058E+02  0.27351258732E+01  0.24540252326E+02  0.00000000000E+00 0.  1.
         11    1    4    4    0    0 -0.68866585798E+02  0.41882751248E+02  0.21065306340E+03  0.22554707848E+03  0.00000000000E+00 0. -1.
</event>
<event>
 8    1  0.6505836E-009  0.1018083E+03  0.7561462E-02  0.1276539E+00
         -3   -1    0    0    0  501 -0.00000000000E+00  0.00000000000E+00  0.28814380044E+02  0.28814380044E+02  0.00000000000E+00 0.  1.
          3   -1    0    0  501    0  0.00000000000E+00 -0.00000000000E+00 -0.48389709217E+03  0.48389709217E+03  0.00000000000E+00 0. -1.
         25    2    1    2    0    0  0.26334356536E+02  0.33314432019E+02 -0.29904127584E+03  0.32692343255E+03  0.12509954589E+03 0.  0.
         23    2    1    2    0    0 -0.26334356536E+02 -0.33314432019E+02 -0.15604143628E+03  0.18578803966E+03  0.91459915414E+02 0.  0.
          5    1    3    3  502    0  0.53540043065E+02  0.47675596626E+02 -0.28301726802E+03  0.29198586459E+03  0.41800000000E+01 0.  1.
         -5    1    3    3    0  502 -0.27205686529E+02 -0.14361164607E+02 -0.16024007821E+02  0.34937567961E+02  0.41800000000E+01 0.  1.
        -11    1    4    4    0    0  0.86203902553E+01 -0.57570314258E+02 -0.93774387044E+02  0.11037340204E+03  0.00000000000E+00 0.  1.
         11    1    4    4    0    0 -0.34954746791E+02  0.24255882239E+02 -0.62267049239E+02  0.75414637620E+02  0.00000000000E+00 0. -1.
</event>
<event>
 8    1  0.6505836E-009  0.1855054E+03  0.7561462E-02  0.1162579E+00
          2   -1    0    0  501    0  0.00000000000E+00  0.00000000000E+00  0.81818948131E+03  0.81818948131E+03  0.00000000000E+00 0. -1.
         -2   -1    0    0    0  501 -0.00000000000E+00 -0.00000000000E+00 -0.85535811210E+02  0.85535811210E+02  0.00000000000E+00 0.  1.
         25    2    1    2    0    0  0.65456069356E+02  0.16756814987E+03  0.64898597427E+03  0.68497881587E+03  0.12509836743E+03 0.  0.
         23    2    1    2    0    0 -0.65456069356E+02 -0.16756814987E+03  0.83667695834E+02  0.21874647665E+03  0.92120333541E+02 0.  0.
          5    1    3    3  502    0  0.33568632462E+02  0.90906194503E+02  0.53598782176E+03  0.54469368158E+03  0.41800000000E+01 0.  1.
         -5    1    3    3    0  502  0.31887436894E+02  0.76661955369E+02  0.11299815251E+03  0.14028513429E+03  0.41800000000E+01 0.  1.
        -11    1    4    4    0    0 -0.76820083155E+01 -0.10663685399E+03  0.10597096329E+02  0.10743709942E+03  0.00000000000E+00 0.  1.
         11    1    4    4    0    0 -0.57774061041E+02 -0.60931295884E+02  0.73070599506E+02  0.11130937723E+03  0.00000000000E+00 0. -1.
</event>
<event>
 8    1  0.6505836E-009  0.1127455E+03  0.7561462E-02  0.1255569E+00
          1   -1    0    0  501    0  0.00000000000E+00  0.00000000000E+00  0.91468964497E+02  0.91468964497E+02  0.00000000000E+00 0. -1.
         -1   -1    0    0    0  501 -0.00000000000E+00 -0.00000000000E+00 -0.14572206321E+03  0.14572206321E+03  0.00000000000E+00 0.  1.
         25    2    1    2    0    0  0.15547918623E+02 -0.29358993605E+02 -0.57608741429E+01  0.12954693603E+03  0.12508210378E+03 0.  0.
         23    2    1    2    0    0 -0.15547918623E+02  0.29358993605E+02 -0.48492224575E+02  0.10764409168E+03  0.90177970427E+02 0.  0.
          5    1    3    3  502    0  0.17397700121E+02 -0.78272270411E+02 -0.33223865787E+01  0.80360058097E+02  0.41800000000E+01 0. -1.
         -5    1    3    3    0  502 -0.18497814982E+01  0.48913276806E+02 -0.24384875642E+01  0.49186877936E+02  0.41800000000E+01 0. -1.
        -11    1    4    4    0    0  0.31944526859E+02  0.35987723410E+02 -0.22951307239E+02  0.53313521141E+02  0.00000000000E+00 0. -1.
         11    1    4    4    0    0 -0.47492445482E+02 -0.66287298050E+01 -0.25540917336E+02  0.54330570538E+02  0.00000000000E+00 0.  1.
</event>
<event>
 8    1  0.6505836E-009  0.7893040E+02  0.7561462E-02  0.1332114E+00
          2   -1    0    0  501    0  0.00000000000E+00  0.00000000000E+00  0.52879403073E+03  0.52879403073E+03  0.00000000000E+00 0. -1.
         -2   -1    0    0    0  501 -0.00000000000E+00 -0.00000000000E+00 -0.28014553156E+02  0.28014553156E+02  0.00000000000E+00 0.  1.
         25    2    1    2    0    0  0.46397715194E+02  0.19051797590E+02  0.33646884639E+03  0.36245561012E+03  0.12508823186E+03 0.  0.
         23    2    1    2    0    0 -0.46397715194E+02 -0.19051797590E+02  0.16431063118E+03  0.19435297377E+03  0.90881108738E+02 0.  0.
          5    1    3    3  502    0  0.12094006600E+02  0.14381149433E+02  0.32525662721E+03  0.32582576387E+03  0.41800000000E+01 0. -1.
         -5    1    3    3    0  502  0.34303708594E+02  0.46706481568E+01  0.11212219179E+02  0.36629846252E+02  0.41800000000E+01 0. -1.
        -11    1    4    4    0    0  0.29108886264E+01  0.32367621288E+02  0.48350616667E+02  0.58257345566E+02  0.00000000000E+00 0.  1.
         11    1    4    4    0    0 -0.49308603821E+02 -0.51419418878E+02  0.11596001452E+03  0.13609562820E+03  0.00000000000E+00 0. -1.
</event>
<event>
 8    1  0.6505836E-009  0.1729184E+03  0.7561462E-02  0.1174838E+00
          2   -1    0    0  501    0  0.00000000000E+00  0.00000000000E+00  0.12158063401E+03  0.12158063401E+03  0.00000000000E+00 0. -1.
         -2   -1    0    0    0  501 -0.00000000000E+00 -0.00000000000E+00 -0.26401938876E+03  0.26401938876E+03  0.00000000000E+00 0.  1.
         25    2    1    2    0    0  0.56538425902E+02 -0.12953495961E+03 -0.63454481940E+02  0.19912019803E+03  0.12508590096E+03 0.  0.
         23    2    1    2    0    0 -0.56538425902E+02  0.12953495961E+03 -0.78984272815E+02  0.18647982474E+03  0.92521945069E+02 0.  0.
          5    1    3    3  502    0  0.34725278984E+02  0.10112659396E+02 -0.42842030916E+02  0.56222974784E+02  0.41800000000E+01 0.  1.
         -5    1    3    3    0  502  0.21813146918E+02 -0.13964761901E+03 -0.20612451024E+02  0.14289722324E+03  0.41800000000E+01 0.  1.
        -11    1    4    4    0    0  0.18797646656E+02  0.68605549443E+02 -0.23996929496E+02  0.75072801729E+02  0.00000000000E+00 0. -1.
         11    1    4    4    0    0 -0.75336072558E+02  0.60929410170E+02 -0.54987343319E+02  0.11140702302E+03  0.00000000000E+00 0.  1.
</event>
<event>
 8    1  0.6505836E-009  0.1141921E+03  0.7561462E-02  0.1252998E+00
          2   -1    0    0  501    0  0.00000000000E+00  0.00000000000E+00  0.85568576174E+03  0.85568576174E+03  0.00000000000E+00 0. -1.
         -2   -1    0    0    0  501 -0.00000000000E+00 -0.00000000000E+00 -0.22279940516E+02  0.22279940516E+02  0.00000000000E+00 0.  1.
         25    2    1    2    0    0 -0.28843681760E+02 -0.46627683492E+02  0.66498971677E+03  0.67887041135E+03  0.12509041990E+03 0.  0.
         23    2    1    2    0    0  0.28843681760E+02  0.46627683492E+02  0.16841610445E+03  0.19909529090E+03  0.90933227022E+02 0.  0.
          5    1    3    3  502    0 -0.20824180737E+02 -0.89898101217E+02  0.44929555336E+03  0.45869301474E+03  0.41800000000E+01 0.  1.
         -5    1    3    3    0  502 -0.80195010233E+01  0.43270417725E+02  0.21569416342E+03  0.22017739661E+03  0.41800000000E+01 0.  1.
        -11    1    4    4    0    0  0.51826891993E+02  0.17498139274E+02  0.46945213704E+02  0.72083733958E+02  0.00000000000E+00 0.  1.
         11    1    4    4    0    0 -0.22983210233E+02  0.29129544218E+02  0.12147089075E+03  0.12701155695E+03  0.00000000000E+00 0. -1.
</event>
<event>
 8    1  0.6505836E-009  0.6863944E+02  0.7561462E-02  0.1364782E+00
         -1   -1    0    0    0  501 -0.00000000000E+00  0.00000000000E+00  0.81072748980E+02  0.81072748980E+02  0.00000000000E+00 0.  1.
          1   -1    0    0  501    0  0.00000000000E+00 -0.00000000000E+00 -0.20308556708E+03  0.20308556708E+03  0.00000000000E+00 0. -1.
         25    2    1    2    0    0  0.82467844260E+01 -0.27786734036E+01 -0.14231783684E+03  0.18967736156E+03  0.12508958520E+03 0.  0.
         23    2    1    2    0    0 -0.82467844260E+01  0.27786734036E+01  0.20305018742E+02  0.94480954499E+02  0.91861997026E+02 0.  0.
          5    1    3    3  502    0  0.35784820638E+02 -0.39118549961E+01 -0.15490727133E+03  0.15908988374E+03  0.41800000000E+01 0.  1.
         -5    1    3    3    0  502 -0.27538036212E+02  0.11331815925E+01  0.12589434486E+02  0.30587477823E+02  0.41800000000E+01 0.  1.
        -11    1    4    4    0    0 -0.29806610031E+02  0.27364201014E+02 -0.17854920584E+02  0.44227047016E+02  0.00000000000E+00 0. -1.
         11    1    4    4    0    0  0.21559825605E+02 -0.24585527610E+02  0.38159939326E+02  0.50253907483E+02  0.00000000000E+00 0.  1.
</event>
<event>
 8    1  0.6505836E-009  0.1268359E+03  0.7561462E-02  0.1232228E+00
          2   -1    0    0  501    0  0.00000000000E+00  0.00000000000E+00  0.19891215749E+04  0.19891215749E+04  0.00000000000E+00 0.  1.
         -2   -1    0    0    0  501 -0.00000000000E+00 -0.00000000000E+00 -0.15111840935E+02  0.15111840935E+02  0.00000000000E+00 0. -1.
         25    2    1    2    0    0  0.42292301227E+02 -0.79133154001E+02  0.16159952008E+04  0.16233109287E+04  0.12508871814E+03 0.  0.
         23    2    1    2    0    0 -0.42292301227E+02  0.79133154001E+02  0.35801453320E+03  0.38092248717E+03  0.94216985980E+02 0.  0.
          5    1    3    3  502    0  0.68374865723E+02 -0.58834976952E+02  0.59880994596E+03  0.60558030066E+03  0.41800000000E+01 0. -1.
         -5    1    3    3    0  502 -0.26082564496E+02 -0.20298177049E+02  0.10171852548E+04  0.10177306280E+04  0.41800000000E+01 0. -1.
        -11    1    4    4    0    0 -0.66544940866E+02  0.25621699494E+02  0.19113330273E+03  0.20400156875E+03  0.00000000000E+00 0.  1.
         11    1    4    4    0    0  0.24252639639E+02  0.53511454507E+02  0.16688123047E+03  0.17692091842E+03  0.00000000000E+00 0. -1.
</event>
<event>
 8    1  0.6505836E-009  0.1441336E+03  0.7561462E-02  0.1207873E+00
         -2   -1    0    0    0  501 -0.00000000000E+00  0.00000000000E+00  0.10849192507E+03  0.10849192507E+03  0.00000000000E+00 0.  1.
          2   -1    0    0  501    0  0.00000000000E+00 -0.00000000000E+00 -0.26632127599E+03  0.26632127599E+03  0.00000000000E+00 0. -1.
         25    2    1    2    0    0  0.36546442435E+02  0.11093307164E+03 -0.14743117844E+03  0.22588842520E+03  0.12509132435E+03 0.  0.
         23    2    1    2    0    0 -0.36546442435E+02 -0.11093307164E+03 -0.10398172474E+02  0.14892477586E+03  0.91807832104E+02 0.  0.
          5    1    3    3  502    0 -0.15519638531E+02 -0.21514291541E+02 -0.36935514766E+02  0.45666492877E+02  0.41800000000E+01 0. -1.
         -5    1    3    3    0  502  0.52066080966E+02  0.13244736318E+03 -0.11049566367E+03  0.18022193233E+03  0.41800000000E+01 0. -1.
        -11    1    4    4    0    0 -0.16514868266E+02 -0.83216784258E+02  0.35263963391E+02  0.91876662816E+02  0.00000000000E+00 0.  1.
         11    1    4    4    0    0 -0.20031574169E+02 -0.27716287381E+02 -0.45662135866E+02  0.57048113042E+02  0.00000000000E+00 0. -1.
</event>
<event>
 8    1  0.6505836E-009  0.1335109E+03  0.7561462E-02  0.1222337E+00
         -2   -1    0    0    0  501 -0.00000000000E+00  0.00000000000E+00  0.65852818091E+02  0.65852818091E+02  0.00000000000E+00 0.  1.
          2   -1    0    0  501    0  0.00000000000E+00 -0.00000000000E+00 -0.55315214590E+03  0.55315214590E+03  0.00000000000E+00 0. -1.
         25    2    1    2    0    0 -0.77486055228E+02 -0.72600726452E+02 -0.69674339493E+02  0.17827326316E+03  0.12510750792E+03 0.  0.
         23    2    1    2    0    0  0.77486055228E+02  0.72600726452E+02 -0.41762498832E+03  0.44073170083E+03  0.92514036842E+02 0.  0.
          5    1    3    3  502    0 -0.17222873892E+02 -0.62513421122E+02 -0.92390742912E+02  0.11295165772E+03  0.41800000000E+01 0. -1.
         -5    1    3    3    0  502 -0.60263181336E+02 -0.10087305330E+02  0.22716403419E+02  0.65321605444E+02  0.41800000000E+01 0. -1.
        -11    1    4    4    0    0  0.61162435389E+02 -0.51269458272E+01 -0.18674496033E+03  0.19657265650E+03  0.00000000000E+00 0.  1.
         11    1    4    4    0    0  0.16323619838E+02  0.77727672279E+02 -0.23088002799E+03  0.24415904433E+03  0.00000000000E+00 0. -1.
</event>
<event>
 8    1  0.6505836E-009  0.9082759E+02  0.7561462E-02  0.1300860E+00
          2   -1    0    0  501    0  0.00000000000E+00  0.00000000000E+00  0.63671095080E+03  0.63671095080E+03  0.00000000000E+00 0. -1.
         -2   -1    0    0    0  501 -0.00000000000E+00 -0.00000000000E+00 -0.23504317237E+02  0.23504317237E+02  0.00000000000E+00 0.  1.
         25    2    1    2    0    0 -0.55212016677E+02  0.12731026871E+02  0.35079498003E+03  0.37671980005E+03  0.12510093488E+03 0.  0.
         23    2    1    2    0    0  0.55212016677E+02 -0.12731026871E+02  0.26241165353E+03  0.28349546798E+03  0.91100815727E+02 0.  0.
          5    1    3    3  502    0 -0.21382810115E+02 -0.18990136556E+02  0.31906986533E+03  0.32037618703E+03  0.41800000000E+01 0. -1.
         -5    1    3    3    0  502 -0.33829206562E+02  0.31721163427E+02  0.31725114700E+02  0.56343613024E+02  0.41800000000E+01 0. -1.
        -11    1    4    4    0    0 -0.19311781346E+02 -0.24015313402E+02  0.58905592339E+02  0.66479688517E+02  0.00000000000E+00 0.  1.
         11    1    4    4    0    0  0.74523798023E+02  0.11284286530E+02  0.20350606120E+03  0.21701577947E+03  0.00000000000E+00 0. -1.
</event>
<event>
 8    1  0.6505836E-009  0.1037948E+03  0.7561462E-02  0.1272512E+00
         -2   -1    0    0    0  501 -0.00000000000E+00  0.00000000000E+00  0.73521698331E+02  0.73521698331E+02  0.00000000000E+00 0.  1.
          2   -1    0    0  501    0  0.00000000000E+00 -0.00000000000E+00 -0.51501303069E+03  0.51501303069E+03  0.00000000000E+00 0. -1.
         25    2    1    2    0    0 -0.73129171451E+02 -0.53122895354E+02 -0.30617554531E+02  0.15733633427E+03  0.12508944683E+03 0.  0.
         23    2    1    2    0    0  0.73129171451E+02  0.53122895354E+02 -0.41087377783E+03  0.43119839475E+03  0.94577357768E+02 0.  0.
          5    1    3    3  502    0 -0.13575768049E+02  0.42163655952E+01  0.43668907394E+02  0.46114261242E+02  0.41800000000E+01 0.  1.
         -5    1    3    3    0  502 -0.59553403402E+02 -0.57339260949E+02 -0.74286461925E+02  0.11122207303E+03  0.41800000000E+01 0.  1.
        -11    1    4    4    0    0  0.49619497040E+02 -0.24244987588E+01 -0.75062517413E+02  0.90013077945E+02  0.00000000000E+00 0.  1.
         11    1    4    4    0    0  0.23509674411E+02  0.55547394113E+02 -0.33581126042E+03  0.34118531681E+03  0.00000000000E+00 0. -1.
</event>
<event>
 8    1  0.6505836E-009  0.1409672E+03  0.7561462E-02  0.1212033E+00
         -2   -1    0    0    0  501 -0.00000000000E+00  0.00000000000E+00  0.58693313702E+02  0.58693313702E+02  0.00000000000E+00 0.  1.
          2   -1    0    0  501    0  0.00000000000E+00 -0.00000000000E+00 -0.39046041795E+03  0.39046041795E+03  0.00000000000E+00 0. -1.
         25    2    1    2    0    0 -0.83154474462E+02  0.59484594618E+02 -0.14301520408E+03  0.21577614255E+03  0.12511159609E+03 0.  0.
         23    2    1    2    0    0  0.83154474462E+02 -0.59484594618E+02 -0.18875190017E+03  0.23337758910E+03  0.91568202219E+02 0.  0.
          5    1    3    3  502    0 -0.77240752016E+02 -0.82616509814E+01 -0.12160442739E+03  0.14435892009E+03  0.41800000000E+01 0. -1.
         -5    1    3    3    0  502 -0.59137224457E+01  0.67746245599E+02 -0.21410776693E+02  0.71417222464E+02  0.41800000000E+01 0. -1.
        -11    1    4    4    0    0  0.54785954536E+02 -0.82802717639E+02 -0.15095016940E+03  0.18067579944E+03  0.00000000000E+00 0. -1.
         11    1    4    4    0    0  0.28368519926E+02  0.23318123021E+02 -0.37801730773E+02  0.52701789661E+02  0.00000000000E+00 0.  1.
</event>
<event>
 8    1  0.6505836E-009  0.4568669E+03  0.7561462E-02  0.1025694E+00
          1   -1    0    0  501    0  0.00000000000E+00  0.00000000000E+00  0.73469971395E+03  0.73469971395E+03  0.00000000000E+00 0. -1.
         -1   -1    0    0    0  501 -0.00000000000E+00 -0.00000000000E+00 -0.32142767305E+03  0.32142767305E+03  0.00000000000E+00 0.  1.
         25    2    1    2    0    0 -0.37695165665E+03 -0.25442674634E+03  0.35153283016E+03  0.58825881707E+03  0.12509030526E+03 0.  0.
         23    2    1    2    0    0  0.37695165665E+03  0.25442674634E+03  0.61739210732E+02  0.46786856993E+03  0.90905158683E+02 0.  0.
          5    1    3    3  502    0 -0.70957842144E+02 -0.70905135156E+02  0.14374403478E+03  0.17533503212E+03  0.41800000000E+01 0.  1.
         -5    1    3    3    0  502 -0.30599381451E+03 -0.18352161118E+03  0.20778879538E+03  0.41292378495E+03  0.41800000000E+01 0.  1.
        -11    1    4    4    0    0  0.32588751782E+03  0.23537041140E+03  0.26301547729E+02  0.40285689300E+03  0.00000000000E+00 0. -1.
         11    1    4    4    0    0  0.51064138840E+02  0.19056334941E+02  0.35437663003E+02  0.65011676920E+02  0.00000000000E+00 0.  1.
</event>
<event>
 7    1  0.6505836E-009  0.9255801E+02  0.7561462E-02  0.1296773E+00
          2   -1    0    0  501    0  0.00000000000E+00  0.00000000000E+00  0.38165863555E+03  0.38165863555E+03  0.00000000000E+00 0.  1.
         -2   -1    0    0    0  501 -0.00000000000E+00 -0.00000000000E+00 -0.54312861155E+02  0.54312861155E+02  0.00000000000E+00 0. -1.
         23    2    1    2    0    0  0.66639229560E+02 -0.22054702295E+02  0.24618624994E+03  0.27122017365E+03  0.89585245038E+02 0.  0.
          5    1    1    2  502    0 -0.99519574847E+01  0.28093044867E+02  0.10010609213E+03  0.10453211330E+03  0.41800000000E+01 0. -1.
         -5    1    1    2    0  502 -0.56687272075E+02 -0.60383425718E+01 -0.18946567680E+02  0.60219209752E+02  0.41800000000E+01 0. -1.
        -11    1    3    3    0    0  0.68826318170E+01 -0.35872033397E+02  0.16759343979E+03  0.17152764926E+03  0.00000000000E+00 0.  1.
         11    1    3    3    0    0  0.59756597743E+02  0.13817331102E+02  0.78592810148E+02  0.99692524391E+02  0.00000000000E+00 0. -1.
</event>
<event>
 8    1  0.6505836E-009  0.1241864E+03  0.7561462E-02  0.1236346E+00
          2   -1    0    0  501    0  0.00000000000E+00  0.00000000000E+00  0.93976993901E+03  0.93976993901E+03  0.00000000000E+00 0. -1.
         -2   -1    0    0    0  501 -0.00000000000E+00 -0.00000000000E+00 -0.20182979036E+02  0.20182979036E+02  0.00000000000E+00 0.  1.
         25    2    1    2    0    0 -0.46304641274E+02  0.69280630669E+02  0.55734880689E+03  0.57726333149E+03  0.12510529865E+03 0.  0.
         23    2    1    2    0    0  0.46304641274E+02 -0.69280630669E+02  0.36223815308E+03  0.38268958656E+03  0.91054459096E+02 0.  0.
          5    1    3    3  502    0  0.26581868692E+02  0.36719997505E+01  0.28441158500E+02  0.39324944020E+02  0.41800000000E+01 0. -1.
         -5    1    3    3    0  502 -0.72886509966E+02  0.65608630919E+02  0.52890764839E+03  0.53793838747E+03  0.41800000000E+01 0. -1.
        -11    1    4    4    0    0  0.61153702619E+02 -0.10022489323E+02  0.16760793240E+03  0.17869707507E+03  0.00000000000E+00 0. -1.
         11    1    4    4    0    0 -0.14849061345E+02 -0.59258141346E+02  0.19463022069E+03  0.20399251149E+03  0.00000000000E+00 0.  1.
</event>
<event>
 8    1  0.6505836E-009  0.1046043E+03  0.7561462E-02  0.1270901E+00
          4   -1    0    0  501    0  0.00000000000E+00  0.00000000000E+00  0.27161365920E+03  0.27161365920E+03  0.00000000000E+00 0. -1.
         -4   -1    0    0    0  501 -0.00000000000E+00 -0.00000000000E+00 -0.48785454093E+02  0.48785454093E+02  0.00000000000E+00 0.  1.
         25    2    1    2    0    0 -0.29565814705E+02  0.69465752232E+01  0.95754460421E+02  0.16043185285E+03  0.12508825050E+03 0.  0.
         23    2    1    2    0    0  0.29565814705E+02 -0.69465752232E+01  0.12707374469E+03  0.15996726044E+03  0.92300571597E+02 0.  0.
          5    1    3    3  502    0 -0.45811963337E+02  0.54798783066E+02  0.80013928837E+02  0.10733752288E+03  0.41800000000E+01 0. -1.
         -5    1    3    3    0  502  0.16246148632E+02 -0.47852207843E+02  0.15740531584E+02  0.53094329974E+02  0.41800000000E+01 0. -1.
        -11    1    4    4    0    0  0.26620280756E+02  0.35518008273E+02  0.28908713461E+02  0.52970576485E+02  0.00000000000E+00 0.  1.
         11    1    4    4    0    0  0.29455339494E+01 -0.42464583496E+02  0.98165031225E+02  0.10699668395E+03  0.00000000000E+00 0. -1.
</event>
<event>
 8    1  0.6505836E-009  0.1130148E+03  0.7561462E-02  0.1255087E+00
         -1   -1    0    0    0  501 -0.00000000000E+00  0.00000000000E+00  0.11125077315E+03  0.11125077315E+03  0.00000000000E+00 0.  1.
          1   -1    0    0  501    0  0.00000000000E+00 -0.00000000000E+00 -0.19346512163E+03  0.19346512163E+03  0.00000000000E+00 0. -1.
         25    2    1    2    0    0 -0.42835776294E+02  0.70190970943E+02 -0.10144546897E+03  0.18082829855E+03  0.12508402876E+03 0.  0.
         23    2    1    2    0    0  0.42835776294E+02 -0.70190970943E+02  0.19231120490E+02  0.12388759623E+03  0.90645597634E+02 0.  0.
          5    1    3    3  502    0 -0.49766933345E+01  0.92382090887E+02 -0.30875533762E+02  0.97621663468E+02  0.41800000000E+01 0.  1.
         -5    1    3    3    0  502 -0.37859082960E+02 -0.22191119944E+02 -0.70569935206E+02  0.83206635083E+02  0.41800000000E+01 0.  1.
        -11    1    4    4    0    0  0.31853965778E+01 -0.38356390474E+02 -0.33214603635E+02  0.50838659859E+02  0.00000000000E+00 0. -1.
         11    1    4    4    0    0  0.39650379717E+02 -0.31834580469E+02  0.52445724125E+02  0.73048936367E+02  0.00000000000E+00 0.  1.
</event>
<event>
 8    1  0.6505836E-009  0.1227918E+03  0.7561462E-02  0.1238561E+00
         -1   -1    0    0    0  501 -0.00000000000E+00  0.00000000000E+00  0.59554072978E+02  0.59554072978E+02  0.00000000000E+00 0.  1.
          1   -1    0    0  501    0  0.00000000000E+00 -0.00000000000E+00 -0.32130373042E+03  0.32130373042E+03  0.00000000000E+00 0. -1.
         25    2    1    2    0    0  0.59600947169E+02  0.48657080080E+02 -0.18917323194E+03  0.23948682786E+03  0.12509054596E+03 0.  0.
         23    2    1    2    0    0 -0.59600947169E+02 -0.48657080080E+02 -0.72576425502E+02  0.14137097554E+03  0.93801017273E+02 0.  0.
          5    1    3    3  502    0 -0.31918522159E+02 -0.14360718698E+02 -0.38123209022E+02  0.51921804326E+02  0.41800000000E+01 0.  1.
         -5    1    3    3    0  502  0.91519469328E+02  0.63017798778E+02 -0.15105002292E+03  0.18756502353E+03  0.41800000000E+01 0.  1.
        -11    1    4    4    0    0  0.27256832124E+01  0.11917703414E+02 -0.50139384061E+02  0.51608321399E+02  0.00000000000E+00 0.  1.
         11    1    4    4    0    0 -0.62326630381E+02 -0.60574783494E+02 -0.22437041441E+02  0.89762654142E+02  0.00000000000E+00 0. -1.
</event>
<event>
 8    1  0.6505836E-009  0.2907404E+03  0.7561462E-02  0.1089963E+00
         -2   -1    0    0    0  501 -0.00000000000E+00  0.00000000000E+00  0.61919670656E+02  0.61919670656E+02  0.00000000000E+00 0.  1.
          2   -1    0    0  501    0  0.00000000000E+00 -0.00000000000E+00 -0.15462903378E+04  0.15462903378E+04  0.00000000000E+00 0. -1.
         25    2    1    2    0    0 -0.28740662745E+03  0.20137829395E+02 -0.84705254772E+03  0.90341385140E+03  0.12510182507E+03 0.  0.
         23    2    1    2    0    0  0.28740662745E+03 -0.20137829395E+02 -0.63731811939E+03  0.70479615702E+03  0.86920285163E+02 0.  0.
          5    1    3    3  502    0 -0.15162271691E+03 -0.61108788711E+01 -0.26747831350E+03  0.30755310390E+03  0.41800000000E+01 0. -1.
         -5    1    3    3    0  502 -0.13578391054E+03  0.26248708266E+02 -0.57957423422E+03  0.59586074750E+03  0.41800000000E+01 0. -1.
        -11    1    4    4    0    0  0.17066754934E+03  0.93074611055E+01 -0.45758783941E+03  0.48846767755E+03  0.00000000000E+00 0. -1.
         11    1    4    4    0    0  0.11673907811E+03 -0.29445290501E+02 -0.17973027998E+03  0.21632847948E+03  0.00000000000E+00 0.  1.
</event>
<event>
 8    1  0.6505836E-009  0.1064164E+03  0.7561462E-02  0.1267354E+00
          1   -1    0    0  501    0  0.00000000000E+00  0.00000000000E+00  0.34922095564E+03  0.34922095564E+03  0.00000000000E+00 0. -1.
         -1   -1    0    0    0  501 -0.00000000000E+00 -0.00000000000E+00 -0.50940925255E+02  0.50940925255E+02  0.00000000000E+00 0.  1.
         25    2    1    2    0    0 -0.26077885602E+02 -0.56044459419E+02  0.96354382280E+02  0.16956743079E+03  0.12509160264E+03 0.  0.
         23    2    1    2    0    0  0.26077885602E+02  0.56044459419E+02  0.20192564810E+03  0.23059445011E+03  0.92621787438E+02 0.  0.
          5    1    3    3  502    0  0.27083290028E+02 -0.52069105877E+02 -0.60155064618E+00  0.58843271907E+02  0.41800000000E+01 0. -1.
         -5    1    3    3    0  502 -0.53161175630E+02 -0.39753535422E+01  0.96955932927E+02  0.11072415888E+03  0.41800000000E+01 0. -1.
        -11    1    4    4    0    0 -0.23355494197E+02  0.43728488120E+02  0.14944799694E+03  0.15745590993E+03  0.00000000000E+00 0. -1.
         11    1    4    4    0    0  0.49433379800E+02  0.12315971299E+02  0.52477651167E+02  0.73138540179E+02  0.00000000000E+00 0.  1.
</event>
<event>
 8    1  0.6505836E-009  0.9148305E+02  0.7561462E-02  0.1299300E+00
          2   -1    0    0  501    0  0.00000000000E+00  0.00000000000E+00  0.38916398735E+03  0.38916398735E+03  0.00000000000E+00 0.  1.
         -2   -1    0    0    0  501 -0.00000000000E+00 -0.00000000000E+00 -0.35439407864E+02  0.35439407864E+02  0.00000000000E+00 0. -1.
         25    2    1    2    0    0 -0.33285763850E+02  0.27462263433E+02  0.17729532551E+03  0.22123211106E+03  0.12509155259E+03 0.  0.
         23    2    1    2    0    0  0.33285763850E+02 -0.27462263433E+02  0.17642925398E+03  0.20337128415E+03  0.91490325015E+02 0.  0.
          5    1    3    3  502    0  0.11445086079E+02 -0.19145682484E+02  0.14876991181E+03  0.15049088415E+03  0.41800000000E+01 0.  1.
         -5    1    3    3    0  502 -0.44730849929E+02  0.46607945917E+02  0.28525413702E+02  0.70741226911E+02  0.41800000000E+01 0.  1.
        -11    1    4    4    0    0 -0.24278473874E+02 -0.29164686327E+02  0.10482080963E+03  0.11147836272E+03  0.00000000000E+00 0.  1.
         11    1    4    4    0    0  0.57564237724E+02  0.17024228938E+01  0.71608444342E+02  0.91892921434E+02  0.00000000000E+00 0. -1.
</event>
<event>
 8    1  0.6505836E-009  0.1144099E+03  0.7561462E-02  0.1252615E+00
          1   -1    0    0  501    0  0.00000000000E+00  0.00000000000E+00  0.10017995612E+03  0.10017995612E+03  0.00000000000E+00 0. -1.
         -1   -1    0    0    0  501 -0.00000000000E+00 -0.00000000000E+00 -0.21360708719E+03  0.21360708719E+03  0.00000000000E+00 0.  1.
         25    2    1    2    0    0  0.52837183917E+02 -0.75677863906E+02 -0.89845415547E+02  0.17954806817E+03  0.12508558269E+03 0.  0.
         23    2    1    2    0    0 -0.52837183917E+02  0.75677863906E+02 -0.23581715519E+02  0.13423897514E+03  0.94578528489E+02 0.  0.
          5    1    3    3  502    0  0.70503636476E+02 -0.57243729464E+02 -0.11285882695E+03  0.14492133914E+03  0.41800000000E+01 0. -1.
         -5    1    3    3    0  502 -0.17666452559E+02 -0.18434134442E+02  0.23013411399E+02  0.34626729023E+02  0.41800000000E+01 0. -1.
        -11    1    4    4    0    0 -0.57846997161E+02  0.28310510114E+02  0.22249954582E+02  0.68138245812E+02  0.00000000000E+00 0. -1.
         11    1    4    4    0    0  0.50098132440E+01  0.47367353792E+02 -0.45831670100E+02  0.66100729332E+02  0.00000000000E+00 0.  1.
</event>
<event>
 8    1  0.6505836E-009  0.2246796E+03  0.7561462E-02  0.1130442E+00
         -2   -1    0    0    0  501 -0.00000000000E+00  0.00000000000E+00  0.55551946187E+02  0.55551946187E+02  0.00000000000E+00 0.  1.
          2   -1    0    0  501    0  0.00000000000E+00 -0.00000000000E+00 -0.10749628641E+04  0.10749628641E+04  0.00000000000E+00 0. -1.
         25    2    1    2    0    0 -0.21266301512E+03  0.20752709713E+02 -0.63321683091E+03  0.67990213098E+03  0.12508844788E+03 0.  0.
         23    2    1    2    0    0  0.21266301512E+03 -0.20752709713E+02 -0.38619408704E+03  0.45061267935E+03  0.90827754367E+02 0.  0.
          5    1    3    3  502    0 -0.22302905385E+03  0.23112906299E+02 -0.52246214589E+03  0.56855987511E+03  0.41800000000E+01 0.  1.
         -5    1    3    3    0  502  0.10366038723E+02 -0.23601965869E+01 -0.11075468503E+03  0.11134225587E+03  0.41800000000E+01 0.  1.
        -11    1    4    4    0    0  0.15521668188E+03 -0.15224350506E+02 -0.18843828274E+03  0.24460781996E+03  0.00000000000E+00 0.  1.
         11    1    4    4    0    0  0.57446333244E+02 -0.55283592066E+01 -0.19775580430E+03  0.20600485939E+03  0.00000000000E+00 0. -1.
</event>
<event>
 8    1  0.6505836E-009  0.1142405E+03  0.7561462E-02  0.1252913E+00
         -1   -1    0    0    0  501 -0.00000000000E+00  0.00000000000E+00  0.41744278071E+02  0.41744278071E+02  0.00000000000E+00 0.  1.
          1   -1    0    0  501    0  0.00000000000E+00 -0.00000000000E+00 -0.43522381826E+03  0.43522381826E+03  0.00000000000E+00 0. -1.
         25    2    1    2    0    0  0.78115299979E+02  0.21978025638E+02 -0.21861953358E+03  0.26462635796E+03  0.12509026806E+03 0.  0.
         23    2    1    2    0    0 -0.78115299979E+02 -0.21978025638E+02 -0.17486000661E+03  0.21234173837E+03  0.89039082665E+02 0.  0.
          5    1    3    3  502    0  0.61561722745E+02  0.71104003553E+02 -0.11444989907E+03  0.14819540083E+03  0.41800000000E+01 0.  1.
         -5    1    3    3    0  502  0.16553577234E+02 -0.49125977915E+02 -0.10416963451E+03  0.11643095713E+03  0.41800000000E+01 0.  1.
        -11    1    4    4    0    0 -0.27789923813E+02 -0.10050269348E+01  0.13988405347E+01  0.27843252315E+02  0.00000000000E+00 0.  1.
         11    1    4    4    0    0 -0.50325376166E+02 -0.20972998703E+02 -0.17625884714E+03  0.18449848606E+03  0.00000000000E+00 0. -1.
</event>
<event>
 8    1  0.6505836E-009  0.1414250E+03  0.7561462E-02  0.1211424E+00
          1   -1    0    0  501    0  0.00000000000E+00  0.00000000000E+00  0.19906570355E+03  0.19906570355E+03  0.00000000000E+00 0. -1.
         -1   -1    0    0    0  501 -0.00000000000E+00 -0.00000000000E+00 -0.10735878998E+03  0.10735878998E+03  0.00000000000E+00 0.  1.
         25    2    1    2    0    0  0.10102177359E+02  0.91605982558E+02  0.80146223528E+02  0.17482947480E+03  0.12509283787E+03 0.  0.
         23    2    1    2    0    0 -0.10102177359E+02 -0.91605982558E+02  0.11560690042E+02  0.13159501872E+03  0.93219576115E+02 0.  0.
          5    1    3    3  502    0 -0.55245073106E+02  0.35819363707E+02  0.17031092528E+02  0.68136447160E+02  0.41800000000E+01 0.  1.
         -5    1    3    3    0  502  0.65347250465E+02  0.55786618851E+02  0.63115131000E+02  0.10669302764E+03  0.41800000000E+01 0.  1.
        -11    1    4    4    0    0  0.36737126125E+02 -0.70460824743E+02  0.10840992187E+02  0.80198948690E+02  0.00000000000E+00 0.  1.
         11    1    4    4    0    0 -0.46839303484E+02 -0.21145157815E+02  0.71969785455E+00  0.51396070034E+02  0.00000000000E+00 0. -1.
</event>
<event>
 8    1  0.6505836E-009  0.1449178E+03  0.7561462E-02  0.1206861E+00
         -1   -1    0    0    0  501 -0.00000000000E+00  0.00000000000E+00  0.63956893758E+02  0.63956893758E+02  0.00000000000E+00 0.  1.
          1   -1    0    0  501    0  0.00000000000E+00 -0.00000000000E+00 -0.48116019586E+03  0.48116019586E+03  0.00000000000E+00 0. -1.
         25    2    1    2    0    0 -0.12205746110E+03  0.53088929636E+02 -0.27613448239E+03  0.33108719213E+03  0.12510802601E+03 0.  0.
         23    2    1    2    0    0  0.12205746110E+03 -0.53088929636E+02 -0.14106881971E+03  0.21402989748E+03  0.90509263956E+02 0.  0.
          5    1    3    3  502    0 -0.40580626892E+02  0.55327750458E+01 -0.20822616850E+01  0.41221439717E+02  0.41800000000E+01 0.  1.
         -5    1    3    3    0  502 -0.81476834205E+02  0.47556154590E+02 -0.27405222070E+03  0.28986575242E+03  0.41800000000E+01 0.  1.
        -11    1    4    4    0    0 -0.79755721451E+01 -0.17788622936E+02 -0.77168280964E+00  0.19510006442E+02  0.00000000000E+00 0. -1.
         11    1    4    4    0    0  0.13003303324E+03 -0.35300306699E+02 -0.14029713690E+03  0.19451989104E+03  0.00000000000E+00 0.  1.
</event>
<event>
 8    1  0.6505836E-009  0.1001333E+03  0.7561462E-02  0.1280016E+00
         -2   -1    0    0    0  501 -0.00000000000E+00  0.00000000000E+00  0.87564155026E+02  0.87564155026E+02  0.00000000000E+00 0.  1.
          2   -1    0    0  501    0  0.00000000000E+00 -0.00000000000E+00 -0.18530617881E+03  0.18530617881E+03  0.00000000000E+00 0. -1.
         25    2    1    2    0    0 -0.60942837838E+02 -0.11667025249E+02 -0.36032796931E+02  0.14420159627E+03  0.12508232869E+03 0.  0.
         23    2    1    2    0    0  0.60942837838E+02  0.11667025249E+02 -0.61709226857E+02  0.12866873757E+03  0.94326382236E+02 0.  0.
          5    1    3    3  502    0  0.55311911477E+01  0.28442603100E+02 -0.56647573094E+02  0.63765160425E+02  0.41800000000E+01 0. -1.
         -5    1    3    3    0  502 -0.66474028985E+02 -0.40109628348E+02  0.20614776163E+02  0.80436435849E+02  0.41800000000E+01 0. -1.
        -11    1    4    4    0    0  0.43073935807E+02 -0.26866796560E+02  0.34551493572E+01  0.50883462543E+02  0.00000000000E+00 0.  1.
         11    1    4    4    0    0  0.17868902031E+02  0.38533821809E+02 -0.65164376215E+02  0.77785275023E+02  0.00000000000E+00 0. -1.
</event>
<event>
 8    1  0.6505836E-009  0.1498524E+03  0.7561462E-02  0.1200655E+00
         -2   -1    0    0    0  501 -0.00000000000E+00  0.00000000000E+00  0.82891767770E+02  0.82891767770E+02  0.00000000000E+00 0. -1.
          2   -1    0    0  501    0  0.00000000000E+00 -0.00000000000E+00 -0.38422284784E+03  0.38422284784E+03  0.00000000000E+00 0.  1.
         25    2    1    2    0    0  0.83928133485E+02  0.10678033125E+03 -0.11090749967E+03  0.21539226751E+03  0.12508950671E+03 0.  0.
         23    2    1    2    0    0 -0.83928133485E+02 -0.10678033125E+03 -0.19042358040E+03  0.25172234810E+03  0.93043161097E+02 0.  0.
          5    1    3    3  502    0  0.98602530277E+02  0.83578519542E+02 -0.34140075300E+02  0.13375666356E+03  0.41800000000E+01 0.  1.
         -5    1    3    3    0  502 -0.14674396792E+02  0.23201811710E+02 -0.76767424367E+02  0.81635603947E+02  0.41800000000E+01 0.  1.
        -11    1    4    4    0    0 -0.21697574755E+02 -0.62700331771E+02 -0.27476418689E+02  0.71812742173E+02  0.00000000000E+00 0. -1.
         11    1    4    4    0    0 -0.62230558729E+02 -0.44079999482E+02 -0.16294716172E+03  0.17990960593E+03  0.00000000000E+00 0.  1.
</event>
<event>
 8    1  0.6505836E-009  0.6468499E+02  0.7561462E-02  0.1379160E+00
          1   -1    0    0  501    0  0.00000000000E+00  0.00000000000E+00  0.12425646952E+04  0.12425646952E+04  0.00000000000E+00 0. -1.
         -1   -1    0    0    0  501 -0.00000000000E+00 -0.00000000000E+00 -0.21082215460E+02  0.21082215460E+02  0.00000000000E+00 0.  1.
         25    2    1    2    0    0  0.28362758460E+02 -0.12443565128E+02  0.11069761731E+04  0.11144518393E+04  0.12508943205E+03 0.  0.
         23    2    1    2    0    0 -0.28362758460E+02  0.12443565128E+02  0.11450630667E+03  0.14919507135E+03  0.90488599658E+02 0.  0.
          5    1    3    3  502    0  0.24600013891E+02 -0.14010122695E+01  0.38478825052E+02  0.45882631749E+02  0.41800000000E+01 0.  1.
         -5    1    3    3    0  502  0.37627445684E+01 -0.11042552858E+02  0.10684973480E+04  0.10685692076E+04  0.41800000000E+01 0.  1.
        -11    1    4    4    0    0 -0.50471576073E+02 -0.18672579376E+02  0.86414613039E+02  0.10180142709E+03  0.00000000000E+00 0. -1.
         11    1    4    4    0    0  0.22108817613E+02  0.31116144504E+02  0.28091693634E+02  0.47393644260E+02  0.00000000000E+00 0.  1.
</event>
<event>
 8    1  0.6505836E-009  0.1380404E+03  0.7561462E-02  0.1215990E+00
         -1   -1    0    0    0  501 -0.00000000000E+00  0.00000000000E+00  0.63999833840E+03  0.63999833840E+03  0.00000000000E+00 0.  1.
          1   -1    0    0  501    0  0.00000000000E+00 -0.00000000000E+00 -0.33137492393E+02  0.33137492393E+02  0.00000000000E+00 0. -1.
         25    2    1    2    0    0  0.74799283571E+02 -0.13747532051E+02  0.41324069856E+03  0.43840528856E+03  0.12508954644E+03 0.  0.
         23    2    1    2    0    0 -0.74799283571E+02  0.13747532051E+02  0.19362014745E+03  0.23473054224E+03  0.10874621143E+03 0.  0.
          5    1    3    3  502    0  0.70813047063E+02  0.45838614946E+02  0.20461999053E+03  0.22136503604E+03  0.41800000000E+01 0.  1.
         -5    1    3    3    0  502  0.39862365078E+01 -0.59586146997E+02  0.20862070803E+03  0.21704025252E+03  0.41800000000E+01 0.  1.
        -11    1    4    4    0    0 -0.93840616770E+02  0.37724425662E+02  0.15972892654E+03  0.18905693222E+03  0.00000000000E+00 0. -1.
         11    1    4    4    0    0  0.19041333199E+02 -0.23976893611E+02  0.33891220907E+02  0.45673610015E+02  0.00000000000E+00 0.  1.
</event>
<event>
 8    1  0.6505836E-009  0.1520995E+03  0.7561462E-02  0.1197917E+00
         -1   -1    0    0    0  501 -0.00000000000E+00  0.00000000000E+00  0.17808537437E+02  0.17808537437E+02  0.00000000000E+00 0.  1.
          1   -1    0    0  501    0  0.00000000000E+00 -0.00000000000E+00 -0.15044637816E+04  0.15044637816E+04  0.00000000000E+00 0. -1.
         25    2    1    2    0    0 -0.73653253866E+02 -0.95039740081E+02 -0.93261236469E+03  0.94861528926E+03  0.12509112780E+03 0.  0.
         23    2    1    2    0    0  0.73653253866E+02  0.95039740081E+02 -0.55404287948E+03  0.57365702978E+03  0.87530117746E+02 0.  0.
          5    1    3    3  502    0 -0.18237351648E+01 -0.89709881652E+02 -0.67982018389E+03  0.68572891415E+03  0.41800000000E+01 0. -1.
         -5    1    3    3    0  502 -0.71829518701E+02 -0.53298584287E+01 -0.25279218080E+03  0.26288637512E+03  0.41800000000E+01 0. -1.
        -11    1    4    4    0    0  0.69451123708E+01  0.70967301720E+02 -0.19384779923E+03  0.20654675443E+03  0.00000000000E+00 0.  1.
         11    1    4    4    0    0  0.66708141495E+02  0.24072438361E+02 -0.36019508025E+03  0.36711027535E+03  0.00000000000E+00 0. -1.
</event>
<event>
 8    1  0.6505836E-009  0.1210515E+03  0.7561462E-02  0.1241372E+00
          4   -1    0    0  501    0  0.00000000000E+00  0.00000000000E+00  0.31748953118E+03  0.31748953118E+03  0.00000000000E+00 0. -1.
         -4   -1    0    0    0  501 -0.00000000000E+00 -0.00000000000E+00 -0.56441743494E+02  0.56441743494E+02  0.00000000000E+00 0.  1.
         25    2    1    2    0    0  0.50099771838E+02 -0.53875901128E+02  0.10535506440E+03  0.17933181330E+03  0.12509040653E+03 0.  0.
         23    2    1    2    0    0 -0.50099771838E+02  0.53875901128E+02  0.15569272328E+03  0.19459946137E+03  0.90642850915E+02 0.  0.
          5    1    3    3  502    0  0.40180286398E+02 -0.87558260658E+02  0.10686471832E+03  0.14393903170E+03  0.41800000000E+01 0.  1.
         -5    1    3    3    0  502  0.99194854404E+01  0.33682359530E+02 -0.15096539151E+01  0.35392781607E+02  0.41800000000E+01 0.  1.
        -11    1    4    4    0    0  0.17857981899E+02  0.35779357001E+02  0.89477149384E+02  0.98006276161E+02  0.00000000000E+00 0. -1.
         11    1    4    4    0    0 -0.67957753737E+02  0.18096544127E+02  0.66215573896E+02  0.96593185208E+02  0.00000000000E+00 0.  1.
</event>
<event>
 7    1  0.6505836E-009  0.2462991E+03  0.7561462E-02  0.1115666E+00
          2   -1    0    0  501    0  0.00000000000E+00  0.00000000000E+00  0.10384550578E+04  0.10384550578E+04  0.00000000000E+00 0. -1.
         -2   -1    0    0    0  501 -0.00000000000E+00 -0.00000000000E+00 -0.64908354749E+02  0.64908354749E+02  0.00000000000E+00 0.  1.
         23    2    1    2    0    0  0.44450766769E+02 -0.22576522163E+03  0.58189036823E+03  0.63212948171E+03  0.89696572093E+02 0.  0.
          5    1    1    2  502    0 -0.46604132075E+02  0.12807948991E+02  0.61574777295E+02  0.78389503652E+02  0.41800000000E+01 0. -1.
         -5    1    1    2    0  502  0.21533653065E+01  0.21295727264E+03  0.33008155752E+03  0.39284442718E+03  0.41800000000E+01 0. -1.
        -11    1    3    3    0    0  0.42380979803E+02 -0.16763080478E+03  0.51618250679E+03  0.54437176128E+03  0.00000000000E+00 0.  1.
         11    1    3    3    0    0  0.20697869657E+01 -0.58134416848E+02  0.65707861434E+02  0.87757720427E+02  0.00000000000E+00 0. -1.
</event>
<event>
 8    1  0.6505836E-009  0.1235726E+03  0.7561462E-02  0.1237317E+00
          1   -1    0    0  501    0  0.00000000000E+00  0.00000000000E+00  0.36112837100E+03  0.36112837100E+03  0.00000000000E+00 0. -1.
         -1   -1    0    0    0  501 -0.00000000000E+00 -0.00000000000E+00 -0.59190015294E+02  0.59190015294E+02  0.00000000000E+00 0.  1.
         25    2    1    2    0    0  0.37134403895E+02 -0.88765050059E+02  0.18369478058E+03  0.24217752763E+03  0.12509190385E+03 0.  0.
         23    2    1    2    0    0 -0.37134403895E+02  0.88765050059E+02  0.11824357512E+03  0.17814085867E+03  0.92165201703E+02 0.  0.
          5    1    3    3  502    0  0.18499979284E+02  0.10823996086E+02  0.12100671050E+03  0.12296139439E+03  0.41800000000E+01 0.  1.
         -5    1    3    3    0  502  0.18634424611E+02 -0.99589046144E+02  0.62688070083E+02  0.11921613323E+03  0.41800000000E+01 0.  1.
        -11    1    4    4    0    0  0.10893631026E+02  0.72324018797E+02  0.10064234374E+03  0.12441188144E+03  0.00000000000E+00 0. -1.
         11    1    4    4    0    0 -0.48028034921E+02  0.16441031262E+02  0.17601231389E+02  0.53728977226E+02  0.00000000000E+00 0.  1.
</event>
<event>
 8    1  0.6505836E-009  0.2470600E+03  0.7561462E-02  0.1115177E+00
         -1   -1    0    0    0  501 -0.00000000000E+00  0.00000000000E+00  0.28559677606E+03  0.28559677606E+03  0.00000000000E+00 0.  1.
          1   -1    0    0  501    0  0.00000000000E+00 -0.00000000000E+00 -0.25117199371E+03  0.25117199371E+03  0.00000000000E+00 0. -1.
         25    2    1    2    0    0 -0.15525492307E+03  0.18753769223E+03  0.42317205194E+02  0.27697027579E+03  0.12508921086E+03 0.  0.
         23    2    1    2    0    0  0.15525492307E+03 -0.18753769223E+03 -0.78924228530E+01  0.25979849398E+03  0.90324359909E+02 0.  0.
          5    1    3    3  502    0 -0.14251903565E+03  0.18884195236E+03  0.69513290463E+02  0.24662223835E+03  0.41800000000E+01 0.  1.
         -5    1    3    3    0  502 -0.12735887417E+02 -0.13042601357E+01 -0.27196085269E+02  0.30348037445E+02  0.41800000000E+01 0.  1.
        -11    1    4    4    0    0  0.15106090318E+03 -0.17706172460E+03 -0.30300871514E+02  0.23470916812E+03  0.00000000000E+00 0. -1.
         11    1    4    4    0    0  0.41940198935E+01 -0.10475967629E+02  0.22408448661E+02  0.25089325858E+02  0.00000000000E+00 0.  1.
</event>
<event>
 8    1  0.6505836E-009  0.9252339E+02  0.7561462E-02  0.1296853E+00
          2   -1    0    0  501    0  0.00000000000E+00  0.00000000000E+00  0.59368994809E+03  0.59368994809E+03  0.00000000000E+00 0. -1.
         -2   -1    0    0    0  501 -0.00000000000E+00 -0.00000000000E+00 -0.27650657840E+02  0.27650657840E+02  0.00000000000E+00 0.  1.
         25    2    1    2    0    0 -0.50309621943E+02 -0.13399603290E+02  0.42276378221E+03  0.44394196957E+03  0.12507857280E+03 0.  0.
         23    2    1    2    0    0  0.50309621943E+02  0.13399603290E+02  0.14327550804E+03  0.17739863636E+03  0.90729254091E+02 0.  0.
          5    1    3    3  502    0 -0.74360792911E+02 -0.13874790774E+02  0.40891057841E+03  0.41586941565E+03  0.41800000000E+01 0.  1.
         -5    1    3    3    0  502  0.24051170967E+02  0.47518748431E+00  0.13853203799E+02  0.28072553919E+02  0.41800000000E+01 0.  1.
        -11    1    4    4    0    0  0.29305540171E+02  0.40869854322E+02  0.13163043597E+03  0.14091036637E+03  0.00000000000E+00 0. -1.
         11    1    4    4    0    0  0.21004081772E+02 -0.27470251032E+02  0.11645072069E+02  0.36488269983E+02  0.00000000000E+00 0.  1.
</event>
<event>
 8    1  0.6505836E-009  0.1292626E+03  0.7561462E-02  0.1228554E+00
         -2   -1    0    0    0  501 -0.00000000000E+00  0.00000000000E+00  0.44570132860E+03  0.44570132860E+03  0.00000000000E+00 0. -1.
          2   -1    0    0  501    0  0.00000000000E+00 -0.00000000000E+00 -0.69040513101E+02  0.69040513101E+02  0.00000000000E+00 0.  1.
         25    2    1    2    0    0  0.77446066879E+02 -0.92891340490E+01  0.36640060363E+03  0.39494486149E+03  0.12509140653E+03 0.  0.
         23    2    1    2    0    0 -0.77446066879E+02  0.92891340490E+01  0.10260211873E+02  0.11979698022E+03  0.90343030918E+02 0.  0.
          5    1    3    3  502    0 -0.26823303114E+02 -0.28505479527E+02  0.72834845347E+02  0.82791539723E+02  0.41800000000E+01 0.  1.
         -5    1    3    3    0  502  0.10426936999E+03  0.19216345478E+02  0.29356575828E+03  0.31215332176E+03  0.41800000000E+01 0.  1.
        -11    1    4    4    0    0 -0.94120509578E+02  0.32267683902E+00 -0.67265107740E+01  0.94361116943E+02  0.00000000000E+00 0.  1.
         11    1    4    4    0    0  0.16674442700E+02  0.89664572100E+01  0.16986722647E+02  0.25435863275E+02  0.00000000000E+00 0. -1.
</event>
<event>
 8    1  0.6505836E-009  0.2922834E+03  0.7561462E-02  0.1089163E+00
          2   -1    0    0  501    0  0.00000000000E+00  0.00000000000E+00  0.18464718918E+04  0.18464718918E+04  0.00000000000E+00 0. -1.
         -2   -1    0    0    0  501 -0.00000000000E+00 -0.00000000000E+00 -0.50929630193E+02  0.50929630193E+02  0.00000000000E+00 0.  1.
         25    2    1    2    0    0  0.28136642005E+03 -0.92732585218E+01  0.10833182068E+04  0.11262676316E+04  0.12508950864E+03 0.  0.
         23    2    1    2    0    0 -0.28136642005E+03  0.92732585218E+01  0.71222405485E+03  0.77113389042E+03  0.90173815466E+02 0.  0.
          5    1    3    3  502    0  0.72394635992E+02 -0.51678440561E+02  0.22827521186E+03  0.24502793573E+03  0.41800000000E+01 0. -1.
         -5    1    3    3    0  502  0.20897178406E+03  0.42405182039E+02  0.85504299492E+03  0.88123969586E+03  0.41800000000E+01 0. -1.
        -11    1    4    4    0    0 -0.20193360309E+03  0.15787488914E+02  0.60165315398E+03  0.63483300368E+03  0.00000000000E+00 0. -1.
         11    1    4    4    0    0 -0.79432816967E+02 -0.65142303924E+01  0.11057090086E+03  0.13630088674E+03  0.00000000000E+00 0.  1.
</event>
<event>
 8    1  0.6505836E-009  0.1118605E+03  0.7561462E-02  0.1257163E+00
         -1   -1    0    0    0  501 -0.00000000000E+00  0.00000000000E+00  0.23690401849E+02  0.23690401849E+02  0.00000000000E+00 0.  1.
          1   -1    0    0  501    0  0.00000000000E+00 -0.00000000000E+00 -0.71152544135E+03  0.71152544135E+03  0.00000000000E+00 0. -1.
         25    2    1    2    0    0 -0.50291595332E-01  0.61070496726E+02 -0.27936367145E+03  0.31212343907E+03  0.12508945675E+03 0.  0.
         23    2    1    2    0    0  0.50291595332E-01 -0.61070496726E+02 -0.40847136805E+03  0.42309240413E+03  0.91808037860E+02 0.  0.
          5    1    3    3  502    0 -0.27117779748E+02  0.88253301215E+02 -0.23916708497E+03  0.25640278096E+03  0.41800000000E+01 0.  1.
         -5    1    3    3    0  502  0.27067488153E+02 -0.27182804489E+02 -0.40196586482E+02  0.55720658104E+02  0.41800000000E+01 0.  1.
        -11    1    4    4    0    0  0.28010419056E+02 -0.58220193607E+02 -0.36914095418E+03  0.37475220956E+03  0.00000000000E+00 0.  1.
         11    1    4    4    0    0 -0.27960127461E+02 -0.28503031190E+01 -0.39330413867E+02  0.48340194564E+02  0.00000000000E+00 0. -1.
</event>
<event>
 8    1  0.6505836E-009  0.1202395E+03  0.7561462E-02  0.1242703E+00
         -2   -1    0    0    0  501 -0.00000000000E+00  0.00000000000E+00  0.39055862896E+02  0.39055862896E+02  0.00000000000E+00 0.  1.
          2   -1    0    0  501    0  0.00000000000E+00 -0.00000000000E+00 -0.52117952006E+03  0.52117952006E+03  0.00000000000E+00 0. -1.
         25    2    1    2    0    0  0.82817712237E+02 -0.34084828901E+02 -0.21742105985E+03  0.26634397341E+03  0.12508655357E+03 0.  0.
         23    2    1    2    0    0 -0.82817712237E+02  0.34084828901E+02 -0.26470259731E+03  0.29389140954E+03  0.91017287141E+02 0.  0.
          5    1    3    3  502    0  0.89367755435E+02  0.15470801573E+02 -0.83556903439E+02  0.12339031536E+03  0.41800000000E+01 0. -1.
         -5    1    3    3    0  502 -0.65500431974E+01 -0.49555630474E+02 -0.13386415642E+03  0.14295365805E+03  0.41800000000E+01 0. -1.
        -11    1    4    4    0    0 -0.45072050035E+02  0.41257112686E+02 -0.60079125368E+02  0.85692125347E+02  0.00000000000E+00 0.  1.
         11    1    4    4    0    0 -0.37745662202E+02 -0.71722837845E+01 -0.20462347194E+03  0.20819928419E+03  0.00000000000E+00 0. -1.
</event>
<event>
 8    1  0.6505836E-009  0.1959585E+03  0.7561462E-02  0.1153194E+00
          1   -1    0    0  501    0  0.00000000000E+00  0.00000000000E+00  0.12231240109E+03  0.12231240109E+03  0.00000000000E+00 0. -1.
         -1   -1    0    0    0  501 -0.00000000000E+00 -0.00000000000E+00 -0.33556510870E+03  0.33556510870E+03  0.00000000000E+00 0.  1.
         25    2    1    2    0    0  0.16497757777E+03  0.39997887399E+02 -0.10145134188E+03  0.23401879989E+03  0.12511990956E+03 0.  0.
         23    2    1    2    0    0 -0.16497757777E+03 -0.39997887399E+02 -0.11180136573E+03  0.22385870990E+03  0.93785630312E+02 0.  0.
          5    1    3    3  502    0  0.12936047775E+03  0.80055123253E+02 -0.96101503564E+02  0.17998868673E+03  0.41800000000E+01 0.  1.
         -5    1    3    3    0  502  0.35617100025E+02 -0.40057235854E+02 -0.53498383166E+01  0.54030113163E+02  0.41800000000E+01 0.  1.
        -11    1    4    4    0    0 -0.91660652772E+02  0.16845086838E+02 -0.24252288685E+02  0.96299562427E+02  0.00000000000E+00 0. -1.
         11    1    4    4    0    0 -0.73316925002E+02 -0.56842974238E+02 -0.87549077042E+02  0.12755914747E+03  0.00000000000E+00 0.  1.
</event>
<event>
 8    1  0.6505836E-009  0.1123465E+03  0.7561462E-02  0.1256285E+00
         -1   -1    0    0    0  501 -0.00000000000E+00  0.00000000000E+00  0.22454871511E+03  0.22454871511E+03  0.00000000000E+00 0.  1.
          1   -1    0    0  501    0  0.00000000000E+00 -0.00000000000E+00 -0.68786511813E+02  0.68786511813E+02  0.00000000000E+00 0. -1.
         25    2    1    2    0    0  0.14375107585E+02 -0.32134303734E+02  0.29701780475E+02  0.13328993854E+03  0.12507899408E+03 0.  0.
         23    2    1    2    0    0 -0.14375107585E+02  0.32134303734E+02  0.12606042282E+03  0.16004528838E+03  0.92108669168E+02 0.  0.
          5    1    3    3  502    0 -0.19274844818E+02 -0.73462787484E+02  0.22670424881E+02  0.79370783995E+02  0.41800000000E+01 0. -1.
         -5    1    3    3    0  502  0.33649952402E+02  0.41328483750E+02  0.70313555937E+01  0.53919154548E+02  0.41800000000E+01 0. -1.
        -11    1    4    4    0    0 -0.20446728091E+02  0.61693588457E+02  0.64916735804E+02  0.91860492780E+02  0.00000000000E+00 0. -1.
         11    1    4    4    0    0  0.60716205064E+01 -0.29559284723E+02  0.61143687016E+02  0.68184795598E+02  0.00000000000E+00 0.  1.
</event>
<event>
 8    1  0.6505836E-009  0.1044256E+03  0.7561462E-02  0.1271256E+00
          4   -1    0    0  501    0  0.00000000000E+00  0.00000000000E+00  0.53775216647E+02  0.53775216647E+02  0.00000000000E+00 0. -1.
         -4   -1    0    0    0  501 -0.00000000000E+00 -0.00000000000E+00 -0.29994988758E+03  0.29994988758E+03  0.00000000000E+00 0.  1.
         25    2    1    2    0    0 -0.42619615182E+02 -0.49876948378E+02 -0.16225861418E+03  0.21512834576E+03  0.12509278835E+03 0.  0.
         23    2    1    2    0    0  0.42619615182E+02  0.49876948378E+02 -0.83916056753E+02  0.13859675847E+03  0.88673644892E+02 0.  0.
          5    1    3    3  502    0 -0.60718367864E+02  0.64513878421E+01 -0.25955033695E+02  0.66479145417E+02  0.41800000000E+01 0. -1.
         -5    1    3    3    0  502  0.18098752683E+02 -0.56328336220E+02 -0.13630358048E+03  0.14864920034E+03  0.41800000000E+01 0. -1.
        -11    1    4    4    0    0  0.91289492340E+00  0.46482411971E+02 -0.19086446332E+01  0.46530537544E+02  0.00000000000E+00 0. -1.
         11    1    4    4    0    0  0.41706720258E+02  0.33945364064E+01 -0.82007412120E+02  0.92066220922E+02  0.00000000000E+00 0.  1.
</event>
<event>
 8    1  0.6505836E-009  0.1167946E+03  0.7561462E-02  0.1248481E+00
         -2   -1    0    0    0  501 -0.00000000000E+00  0.00000000000E+00  0.57895485928E+03  0.57895485928E+03  0.00000000000E+00 0.  1.
          2   -1    0    0  501    0  0.00000000000E+00 -0.00000000000E+00 -0.34230252917E+02  0.34230252917E+02  0.00000000000E+00 0. -1.
         25    2    1    2    0    0  0.40843139669E+01 -0.53586860972E+02  0.14030221540E+03  0.19550285405E+03  0.12509364895E+03 0.  0.
         23    2    1    2    0    0 -0.40843139669E+01  0.53586860972E+02  0.40442239096E+03  0.41768225814E+03  0.89514050089E+02 0.  0.
          5    1    3    3  502    0  0.63876311551E+02 -0.23946781843E+02  0.59455888237E+02  0.90587563076E+02  0.41800000000E+01 0. -1.
         -5    1    3    3    0  502 -0.59791997584E+02 -0.29640079129E+02  0.80846327159E+02  0.10491529098E+03  0.41800000000E+01 0. -1.
        -11    1    4    4    0    0  0.38464633264E+02  0.34781049008E+02  0.14209741346E+03  0.15126441847E+03  0.00000000000E+00 0.  1.
         11    1    4    4    0    0 -0.42548947231E+02  0.18805811964E+02  0.26232497750E+03  0.26641783967E+03  0.00000000000E+00 0. -1.
</event>
<event>
 8    1  0.6505836E-009  0.2003704E+03  0.7561462E-02  0.1149427E+00
         -2   -1    0    0    0  501 -0.00000000000E+00  0.00000000000E+00  0.40839428318E+02  0.40839428318E+02  0.00000000000E+00 0.  1.
          2   -1    0    0  501    0  0.00000000000E+00 -0.00000000000E+00 -0.11466979144E+04  0.11466979144E+04  0.00000000000E+00 0. -1.
         25    2    1    2    0    0 -0.10330201869E+03  0.15472840743E+03 -0.53759301881E+03  0.58246544228E+03  0.12509016927E+03 0.  0.
         23    2    1    2    0    0  0.10330201869E+03 -0.15472840743E+03 -0.56826546726E+03  0.60507190042E+03  0.92596848064E+02 0.  0.
          5    1    3    3  502    0 -0.45711360372E+02  0.68936033723E+01 -0.24730647516E+03  0.25162475094E+03  0.41800000000E+01 0. -1.
         -5    1    3    3    0  502 -0.57590658314E+02  0.14783480406E+03 -0.29028654365E+03  0.33084069133E+03  0.41800000000E+01 0. -1.
        -11    1    4    4    0    0  0.32322702219E+02 -0.10253533917E+03 -0.41079759606E+03  0.42463268573E+03  0.00000000000E+00 0. -1.
         11    1    4    4    0    0  0.70979316467E+02 -0.52193068267E+02 -0.15746787120E+03  0.18043921470E+03  0.00000000000E+00 0.  1.
</event>
<event>
 8    1  0.6505836E-009  0.9335674E+02  0.7561462E-02  0.1294921E+00
          1   -1    0    0  501    0  0.00000000000E+00  0.00000000000E+00  0.31956753447E+02  0.31956753447E+02  0.00000000000E+00 0. -1.
         -1   -1    0    0    0  501 -0.00000000000E+00 -0.00000000000E+00 -0.38018614649E+03  0.38018614649E+03  0.00000000000E+00 0.  1.
         25    2    1    2    0    0 -0.75593307467E+01 -0.15501206098E+01 -0.17781423864E+03  0.21754297662E+03  0.12508995506E+03 0.  0.
         23    2    1    2    0    0  0.75593307467E+01  0.15501206098E+01 -0.17041515440E+03  0.19459992332E+03  0.93638982006E+02 0.  0.
          5    1    3    3  502    0  0.66259952781E+01  0.44448042457E+02 -0.15967869613E+03  0.16593459762E+03  0.41800000000E+01 0. -1.
         -5    1    3    3    0  502 -0.14185326025E+02 -0.45998163067E+02 -0.18135542514E+02  0.51608378992E+02  0.41800000000E+01 0. -1.
        -11    1    4    4    0    0  0.12851754636E+02 -0.44802610009E+02 -0.96963882631E+02  0.10758455277E+03  0.00000000000E+00 0. -1.
         11    1    4    4    0    0 -0.52924238890E+01  0.46352730619E+02 -0.73451271766E+02  0.87015370541E+02  0.00000000000E+00 0.  1.
</event>
<event>
 8    1  0.6505836E-009  0.1303505E+03  0.7561462E-02  0.1226937E+00
         -1   -1    0    0    0  501 -0.00000000000E+00  0.00000000000E+00  0.97988954913E+02  0.97988954913E+02  0.00000000000E+00 0.  1.
          1   -1    0    0  501    0  0.00000000000E+00 -0.00000000000E+00 -0.29252582902E+03  0.29252582902E+03  0.00000000000E+00 0. -1.
         25    2    1    2    0    0 -0.94176412947E+02 -0.38666529211E+02 -0.18432107497E+03  0.24492065785E+03  0.12509025832E+03 0.  0.
         23    2    1    2    0    0  0.94176412947E+02  0.38666529211E+02 -0.10215799135E+02  0.14559412608E+03  0.10358083684E+03 0.  0.
          5    1    3    3  502    0  0.20489131191E+01  0.21276870985E+02 -0.10315427894E+03  0.10542855850E+03  0.41800000000E+01 0.  1.
         -5    1    3    3    0  502 -0.96225326066E+02 -0.59943400196E+02 -0.81166796032E+02  0.13949209935E+03  0.41800000000E+01 0.  1.
        -11    1    4    4    0    0  0.10565007729E+03  0.41740164055E+02  0.17968638355E+02  0.11500892179E+03  0.00000000000E+00 0.  1.
         11    1    4    4    0    0 -0.11473664347E+02 -0.30736348433E+01 -0.28184437490E+02  0.30585204288E+02  0.00000000000E+00 0. -1.
</event>
<event>
 8    1  0.6505836E-009  0.1251815E+03  0.7561462E-02  0.1234786E+00
          2   -1    0    0  501    0  0.00000000000E+00  0.00000000000E+00  0.89934112504E+02  0.89934112504E+02  0.00000000000E+00 0. -1.
         -2   -1    0    0    0  501 -0.00000000000E+00 -0.00000000000E+00 -0.40361402416E+03  0.40361402416E+03  0.00000000000E+00 0.  1.
         25    2    1    2    0    0 -0.97224580503E+02  0.18246275355E+02 -0.78404648498E+01  0.15967355828E+03  0.12509447113E+03 0.  0.
         23    2    1    2    0    0  0.97224580503E+02 -0.18246275355E+02 -0.30583944681E+03  0.33387457838E+03  0.90271375571E+02 0.  0.
          5    1    3    3  502    0 -0.59901338739E+02 -0.43388429490E+02  0.27864191461E+02  0.79149300452E+02  0.41800000000E+01 0.  1.
         -5    1    3    3    0  502 -0.37323241764E+02  0.61634704845E+02 -0.35704656311E+02  0.80524257832E+02  0.41800000000E+01 0.  1.
        -11    1    4    4    0    0  0.15565607321E+02  0.90490605280E+01 -0.20519111937E+01  0.18121367699E+02  0.00000000000E+00 0. -1.
         11    1    4    4    0    0  0.81658973182E+02 -0.27295335883E+02 -0.30378753561E+03  0.31575321068E+03  0.00000000000E+00 0.  1.
</event>
<event>
 8    1  0.6505836E-009  0.1117538E+03  0.7561462E-02  0.1257356E+00
         -1   -1    0    0    0  501 -0.00000000000E+00  0.00000000000E+00  0.84269263270E+01  0.84269263270E+01  0.00000000000E+00 0.  1.
          1   -1    0    0  501    0  0.00000000000E+00 -0.00000000000E+00 -0.19417708480E+04  0.19417708480E+04  0.00000000000E+00 0. -1.
         25    2    1    2    0    0  0.23960838614E+01  0.43551473800E+02 -0.14468499626E+04  0.14529021916E+04  0.12508993506E+03 0.  0.
         23    2    1    2    0    0 -0.23960838614E+01 -0.43551473800E+02 -0.48649395902E+03  0.49729558272E+03  0.93402635635E+02 0.  0.
          5    1    3    3  502    0 -0.33381543425E+02  0.70833164500E+02 -0.11457747096E+04  0.11484549718E+04  0.41800000000E+01 0.  1.
         -5    1    3    3    0  502  0.35777627286E+02 -0.27281690700E+02 -0.30107525304E+03  0.30444721982E+03  0.41800000000E+01 0.  1.
        -11    1    4    4    0    0  0.18361859095E+02 -0.66483916266E+02 -0.38720026019E+03  0.39329544935E+03  0.00000000000E+00 0. -1.
         11    1    4    4    0    0 -0.20757942956E+02  0.22932442466E+02 -0.99293698838E+02  0.10400013338E+03  0.00000000000E+00 0.  1.
</event>
<event>
 8    1  0.6505836E-009  0.1561396E+03  0.7561462E-02  0.1193125E+00
         -2   -1    0    0    0  501 -0.00000000000E+00  0.00000000000E+00  0.59402449324E+02  0.59402449324E+02  0.00000000000E+00 0.  1.
          2   -1    0    0  501    0  0.00000000000E+00 -0.00000000000E+00 -0.77054830702E+03  0.77054830702E+03  0.00000000000E+00 0. -1.
         25    2    1    2    0    0 -0.51657429593E+01  0.13222948207E+03 -0.61933767612E+03  0.64555193233E+03  0.12508724736E+03 0.  0.
         23    2    1    2    0    0  0.51657429593E+01 -0.13222948207E+03 -0.91808181582E+02  0.18439882401E+03  0.89793447776E+02 0.  0.
          5    1    3    3  502    0  0.19605134414E+02  0.14497515146E+03 -0.43223473332E+03  0.45634032577E+03  0.41800000000E+01 0.  1.
         -5    1    3    3    0  502 -0.24770877374E+02 -0.12745669396E+02 -0.18710294280E+03  0.18921160657E+03  0.41800000000E+01 0.  1.
        -11    1    4    4    0    0  0.17467615099E+02 -0.11642134079E+03 -0.10713582288E+03  0.15917641381E+03  0.00000000000E+00 0. -1.
         11    1    4    4    0    0 -0.12301872140E+02 -0.15808141278E+02  0.15327641297E+02  0.25222410205E+02  0.00000000000E+00 0.  1.
</event>
<event>
 8    1  0.6505836E-009  0.2645514E+03  0.7561462E-02  0.1104439E+00
         -2   -1    0    0    0  501 -0.00000000000E+00  0.00000000000E+00  0.73414742656E+02  0.73414742656E+02  0.00000000000E+00 0.  1.
          2   -1    0    0  501    0  0.00000000000E+00 -0.00000000000E+00 -0.11772686588E+04  0.11772686588E+04  0.00000000000E+00 0. -1.
         25    2    1    2    0    0 -0.12811663243E+03  0.21284416884E+03 -0.32100221186E+03  0.42474140001E+03  0.12508527152E+03 0.  0.
         23    2    1    2    0    0  0.12811663243E+03 -0.21284416884E+03 -0.78285170426E+03  0.82594200142E+03  0.87217470354E+02 0.  0.
          5    1    3    3  502    0 -0.10595690760E+03  0.56453925885E+02 -0.13761076189E+03  0.18266939044E+03  0.41800000000E+01 0. -1.
         -5    1    3    3    0  502 -0.22159724827E+02  0.15639024295E+03 -0.18339144997E+03  0.24207200957E+03  0.41800000000E+01 0. -1.
        -11    1    4    4    0    0  0.44865877831E+01 -0.29455409339E+02 -0.34465774112E+02  0.45559194400E+02  0.00000000000E+00 0.  1.
         11    1    4    4    0    0  0.12363004464E+03 -0.18338875950E+03 -0.74838593015E+03  0.78038280702E+03  0.00000000000E+00 0. -1.
</event>
<event>
 8    1  0.6505836E-009  0.9504053E+02  0.7561462E-02  0.1291085E+00
          1   -1    0    0  501    0  0.00000000000E+00  0.00000000000E+00  0.10825382569E+04  0.10825382569E+04  0.00000000000E+00 0. -1.
         -1   -1    0    0    0  501 -0.00000000000E+00 -0.00000000000E+00 -0.16416955407E+02  0.16416955407E+02  0.00000000000E+00 0.  1.
         25    2    1    2    0    0 -0.26150347565E+02  0.33258555187E+02  0.85701562937E+03  0.86712875789E+03  0.12508605681E+03 0.  0.
         23    2    1    2    0    0  0.26150347565E+02 -0.33258555187E+02  0.20910567215E+03  0.23182645445E+03  0.90710256771E+02 0.  0.
          5    1    3    3  502    0 -0.25005546865E+02 -0.24640662189E+02  0.67824673534E+03  0.67916753899E+03  0.41800000000E+01 0.  1.
         -5    1    3    3    0  502 -0.11448006998E+01  0.57899217376E+02  0.17876889402E+03  0.18796121890E+03  0.41800000000E+01 0.  1.
        -11    1    4    4    0    0  0.92855189206E+01 -0.62350938151E+02  0.10548448109E+03  0.12288545927E+03  0.00000000000E+00 0.  1.
         11    1    4    4    0    0  0.16864828644E+02  0.29092382964E+02  0.10362119107E+03  0.10894099518E+03  0.00000000000E+00 0. -1.
</event>
<event>
 8    1  0.6505836E-009  0.8894671E+02  0.7561462E-02  0.1305423E+00
          1   -1    0    0  501    0  0.00000000000E+00  0.00000000000E+00  0.23249716582E+03  0.23249716582E+03  0.00000000000E+00 0. -1.
         -1   -1    0    0    0  501 -0.00000000000E+00 -0.00000000000E+00 -0.56466118087E+02  0.56466118087E+02  0.00000000000E+00 0.  1.
         25    2    1    2    0    0  0.32755823155E+02  0.84748058028E+01  0.78906891321E+02  0.15171811586E+03  0.12508925972E+03 0.  0.
         23    2    1    2    0    0 -0.32755823155E+02 -0.84748058028E+01  0.97124156408E+02  0.13724516805E+03  0.90875563877E+02 0.  0.
          5    1    3    3  502    0  0.23193213437E+02  0.41684401425E+02 -0.16112191754E+02  0.50523158995E+02  0.41800000000E+01 0. -1.
         -5    1    3    3    0  502  0.95626097185E+01 -0.33209595623E+02  0.95019083075E+02  0.10119495686E+03  0.41800000000E+01 0. -1.
        -11    1    4    4    0    0 -0.62001589878E+02  0.64989782361E+01  0.75499734127E+02  0.97911407501E+02  0.00000000000E+00 0. -1.
         11    1    4    4    0    0  0.29245766723E+02 -0.14973784039E+02  0.21624422281E+02  0.39333760545E+02  0.00000000000E+00 0.  1.
</event>
<event>
 7    1  0.6505836E-009  0.2582922E+03  0.7561462E-02  0.1108174E+00
         -1   -1    0    0    0  501 -0.00000000000E+00  0.00000000000E+00  0.20604859395E+03  0.20604859395E+03  0.00000000000E+00 0.  1.
          1   -1    0    0  501    0  0.00000000000E+00 -0.00000000000E+00 -0.35523350879E+03  0.35523350879E+03  0.00000000000E+00 0. -1.
         25    2    1    2    0    0 -0.23637055365E+03  0.86304752556E+01 -0.10638658947E+03  0.28794245762E+03  0.12508888338E+03 0.  0.
          5    1    3    3  502    0 -0.13118103999E+03 -0.34625099589E+02 -0.54957009047E+01  0.13584932058E+03  0.41800000000E+01 0.  1.
         -5    1    3    3    0  502 -0.10518951366E+03  0.43255574845E+02 -0.10089088856E+03  0.15209313704E+03  0.41800000000E+01 0.  1.
        -11    1    1    2    0    0  0.14565869680E+03 -0.65776768938E+02 -0.45235663137E+02  0.16610028448E+03  0.00000000000E+00 0. -1.
         11    1    1    2    0    0  0.90711856844E+02  0.57146293682E+02  0.24373377637E+01  0.10723936063E+03  0.00000000000E+00 0.  1.
</event>
<event>
 8    1  0.6505836E-009  0.1379604E+03  0.7561462E-02  0.1216100E+00
          2   -1    0    0  501    0  0.00000000000E+00  0.00000000000E+00  0.12041556247E+04  0.12041556247E+04  0.00000000000E+00 0. -1.
         -2   -1    0    0    0  501 -0.00000000000E+00 -0.00000000000E+00 -0.26813065440E+02  0.26813065440E+02  0.00000000000E+00 0.  1.
         25    2    1    2    0    0  0.74472878547E+02 -0.99000257599E+02  0.87140541451E+03  0.88901253329E+03  0.12509447337E+03 0.  0.
         23    2    1    2    0    0 -0.74472878547E+02  0.99000257599E+02  0.30593714476E+03  0.34195615686E+03  0.89382414522E+02 0.  0.
          5    1    3    3  502    0  0.16332505533E+02 -0.87501222333E+01  0.11049775106E+02  0.21974651442E+02  0.41800000000E+01 0. -1.
         -5    1    3    3    0  502  0.58140373014E+02 -0.90250135366E+02  0.86035563941E+03  0.86703788185E+03  0.41800000000E+01 0. -1.
        -11    1    4    4    0    0  0.17985435108E+02  0.26345484825E+02  0.98150787419E+02  0.10320434835E+03  0.00000000000E+00 0. -1.
         11    1    4    4    0    0 -0.92458313654E+02  0.72654772774E+02  0.20778635734E+03  0.23875180851E+03  0.00000000000E+00 0.  1.
</event>
<event>
 8    1  0.6505836E-009  0.1219571E+03  0.7561462E-02  0.1239903E+00
         -2   -1    0    0    0  501 -0.00000000000E+00  0.00000000000E+00  0.13509227746E+04  0.13509227746E+04  0.00000000000E+00 0.  1.
          2   -1    0    0  501    0  0.00000000000E+00 -0.00000000000E+00 -0.12240029915E+02  0.12240029915E+02  0.00000000000E+00 0. -1.
         25    2    1    2    0    0  0.55747411846E+02  0.35667670518E+02  0.88808973868E+03  0.89929513619E+03  0.12509357050E+03 0.  0.
         23    2    1    2    0    0 -0.55747411846E+02 -0.35667670518E+02  0.45059300605E+03  0.46386766837E+03  0.88086321353E+02 0.  0.
          5    1    3    3  502    0 -0.36702441073E+02  0.83205020220E+01  0.39785735745E+03  0.39965516287E+03  0.41800000000E+01 0. -1.
         -5    1    3    3    0  502  0.92449852919E+02  0.27347168496E+02  0.49023238123E+03  0.49963997332E+03  0.41800000000E+01 0. -1.
        -11    1    4    4    0    0 -0.10055456323E+02  0.28814687402E+02  0.14888676041E+03  0.15198245240E+03  0.00000000000E+00 0. -1.
         11    1    4    4    0    0 -0.45691955523E+02 -0.64482357920E+02  0.30170624564E+03  0.31188521597E+03  0.00000000000E+00 0.  1.
</event>
<event>
 8    1  0.6505836E-009  0.1446400E+03  0.7561462E-02  0.1207218E+00
          1   -1    0    0  501    0  0.00000000000E+00  0.00000000000E+00  0.46150572396E+02  0.46150572396E+02  0.00000000000E+00 0. -1.
         -1   -1    0    0    0  501 -0.00000000000E+00 -0.00000000000E+00 -0.73863150740E+03  0.73863150740E+03  0.00000000000E+00 0.  1.
         25    2    1    2    0    0 -0.13320313144E+03  0.44601439531E+02 -0.47155395447E+03  0.50768251379E+03  0.12508413244E+03 0.  0.
         23    2    1    2    0    0  0.13320313144E+03 -0.44601439531E+02 -0.22092698053E+03  0.27709956601E+03  0.90791387932E+02 0.  0.
          5    1    3    3  502    0 -0.23903861672E+02  0.40353522807E+01 -0.29505369350E+01  0.24776132448E+02  0.41800000000E+01 0. -1.
         -5    1    3    3    0  502 -0.10929926977E+03  0.40566087251E+02 -0.46860341754E+03  0.48290638134E+03  0.41800000000E+01 0. -1.
        -11    1    4    4    0    0  0.20491493099E+02  0.99757747616E+01  0.40659977707E+00  0.22794356646E+02  0.00000000000E+00 0. -1.
         11    1    4    4    0    0  0.11271163834E+03 -0.54577214293E+02 -0.22133358031E+03  0.25430520937E+03  0.00000000000E+00 0.  1.
</event>
<event>
 8    1  0.6505836E-009  0.9859217E+02  0.7561462E-02  0.1283285E+00
         -1   -1    0    0    0  501 -0.00000000000E+00  0.00000000000E+00  0.15716553963E+03  0.15716553963E+03  0.00000000000E+00 0.  1.
          1   -1    0    0  501    0  0.00000000000E+00 -0.00000000000E+00 -0.10544286335E+03  0.10544286335E+03  0.00000000000E+00 0. -1.
         25    2    1    2    0    0 -0.12600995742E+02 -0.61225435401E+02 -0.33013591256E+01  0.13987889343E+03  0.12509143384E+03 0.  0.
         23    2    1    2    0    0  0.12600995742E+02  0.61225435401E+02  0.55024035397E+02  0.12272950956E+03  0.90152920146E+02 0.  0.
          5    1    3    3  502    0 -0.45073774626E+02 -0.46639736449E+02 -0.49290720569E+02  0.81571794814E+02  0.41800000000E+01 0.  1.
         -5    1    3    3    0  502  0.32472778884E+02 -0.14585698953E+02  0.45989361444E+02  0.58307098611E+02  0.41800000000E+01 0.  1.
        -11    1    4    4    0    0  0.20101524898E+02 -0.11551355606E+02 -0.96190048051E+01  0.25100405834E+02  0.00000000000E+00 0. -1.
         11    1    4    4    0    0 -0.75005291567E+01  0.72776791008E+02  0.64643040202E+02  0.97629103722E+02  0.00000000000E+00 0.  1.
</event>
<event>
 8    1  0.6505836E-009  0.1575756E+03  0.7561462E-02  0.1191461E+00
         -2   -1    0    0    0  501 -0.00000000000E+00  0.00000000000E+00  0.41699548030E+02  0.41699548030E+02  0.00000000000E+00 0. -1.
          2   -1    0    0  501    0  0.00000000000E+00 -0.00000000000E+00 -0.86783234255E+03  0.86783234255E+03  0.00000000000E+00 0.  1.
         25    2    1    2    0    0 -0.11094683555E+03 -0.82375544905E+02 -0.60104166154E+03  0.62927986974E+03  0.12508854800E+03 0.  0.
         23    2    1    2    0    0  0.11094683555E+03  0.82375544905E+02 -0.22509113298E+03  0.28025202083E+03  0.93702968566E+02 0.  0.
          5    1    3    3  502    0 -0.82023666217E+02  0.70283774814E+01 -0.38376442607E+03  0.39251737162E+03  0.41800000000E+01 0. -1.
         -5    1    3    3    0  502 -0.28923169337E+02 -0.89403922386E+02 -0.21727723547E+03  0.23676249812E+03  0.41800000000E+01 0. -1.
        -11    1    4    4    0    0  0.95228288936E+02  0.65379104565E+02 -0.22927235747E+03  0.25672683581E+03  0.00000000000E+00 0.  1.
         11    1    4    4    0    0  0.15718546619E+02  0.16996440339E+02  0.41812244906E+01  0.23525185021E+02  0.00000000000E+00 0. -1.
</event>
<event>
 8    1  0.6505836E-009  0.1246796E+03  0.7561462E-02  0.1235571E+00
         -2   -1    0    0    0  501 -0.00000000000E+00  0.00000000000E+00  0.12174513387E+03  0.12174513387E+03  0.00000000000E+00 0.  1.
          2   -1    0    0  501    0  0.00000000000E+00 -0.00000000000E+00 -0.25254219808E+03  0.25254219808E+03  0.00000000000E+00 0. -1.
         25    2    1    2    0    0 -0.17227742672E+02 -0.10033687132E+03 -0.16614371680E+03  0.23154952174E+03  0.12508862267E+03 0.  0.
         23    2    1    2    0    0  0.17227742672E+02  0.10033687132E+03  0.35346652591E+02  0.14273781021E+03  0.93597081949E+02 0.  0.
          5    1    3    3  502    0  0.11505307568E+02 -0.10077401460E+03 -0.52563830218E+02  0.11431624017E+03  0.41800000000E+01 0.  1.
         -5    1    3    3    0  502 -0.28733050240E+02  0.43714327564E+00 -0.11357988658E+03  0.11723328157E+03  0.41800000000E+01 0.  1.
        -11    1    4    4    0    0 -0.64570003998E+01  0.94089587661E+02  0.56869774130E+02  0.11013044343E+03  0.00000000000E+00 0. -1.
         11    1    4    4    0    0  0.23684743072E+02  0.62472836625E+01 -0.21523121538E+02  0.32607366780E+02  0.00000000000E+00 0.  1.
</event>
<event>
 8    1  0.6505836E-009  0.1978003E+03  0.7561462E-02  0.1151608E+00
         -1   -1    0    0    0  501 -0.00000000000E+00  0.00000000000E+00  0.60917847790E+02  0.60917847790E+02  0.00000000000E+00 0.  1.
          1   -1    0    0  501    0  0.00000000000E+00 -0.00000000000E+00 -0.87547244759E+03  0.87547244759E+03  0.00000000000E+00 0. -1.
         25    2    1    2    0    0 -0.12748636763E+03 -0.13234747906E+03 -0.24475729469E+03  0.33064091674E+03  0.12509457771E+03 0.  0.
         23    2    1    2    0    0  0.12748636763E+03  0.13234747906E+03 -0.56979730512E+03  0.60574937865E+03  0.92166760096E+02 0.  0.
          5    1    3    3  502    0 -0.90275602931E+02 -0.54030198774E+02 -0.48264900907E+02  0.11582711221E+03  0.41800000000E+01 0. -1.
         -5    1    3    3    0  502 -0.37210764703E+02 -0.78317280282E+02 -0.19649239378E+03  0.21481380452E+03  0.41800000000E+01 0. -1.
        -11    1    4    4    0    0  0.57865700462E+02  0.11940366365E+03 -0.32878888868E+03  0.35455296854E+03  0.00000000000E+00 0.  1.
         11    1    4    4    0    0  0.69620667173E+02  0.12943815402E+02 -0.24100841644E+03  0.25119641011E+03  0.00000000000E+00 0. -1.
</event>
<event>
 8    1  0.6505836E-009  0.1008505E+03  0.7561462E-02  0.1278517E+00
          2   -1    0    0  501    0  0.00000000000E+00  0.00000000000E+00  0.15918419841E+03  0.15918419841E+03  0.00000000000E+00 0. -1.
         -2   -1    0    0    0  501 -0.00000000000E+00 -0.00000000000E+00 -0.10951536351E+03  0.10951536351E+03  0.00000000000E+00 0.  1.
         25    2    1    2    0    0 -0.56794432924E+02 -0.42540671319E+02 -0.98245666054E+01  0.14414696780E+03  0.12508600997E+03 0.  0.
         23    2    1    2    0    0  0.56794432924E+02  0.42540671319E+02  0.59493401501E+02  0.12455259412E+03  0.83298064513E+02 0.  0.
          5    1    3    3  502    0  0.31015150904E+02  0.71049933862E+00  0.25112076451E+02  0.40131448748E+02  0.41800000000E+01 0.  1.
         -5    1    3    3    0  502 -0.87809583828E+02 -0.43251170658E+02 -0.34936643056E+02  0.10401551905E+03  0.41800000000E+01 0.  1.
        -11    1    4    4    0    0  0.23855237493E+02  0.92309869925E+01  0.71713877323E+02  0.76139107412E+02  0.00000000000E+00 0. -1.
         11    1    4    4    0    0  0.32939195431E+02  0.33309684327E+02 -0.12220475822E+02  0.48413486705E+02  0.00000000000E+00 0.  1.
</event>
<event>
 8    1  0.6505836E-009  0.1080674E+03  0.7561462E-02  0.1264191E+00
         -3   -1    0    0    0  501 -0.00000000000E+00  0.00000000000E+00  0.12034493761E+03  0.12034493761E+03  0.00000000000E+00 0.  1.
          3   -1    0    0  501    0  0.00000000000E+00 -0.00000000000E+00 -0.12492375740E+03  0.12492375740E+03  0.00000000000E+00 0. -1.
         25    2    1    2    0    0 -0.50018428276E+02  0.15714778419E+02 -0.22374569328E+02  0.13746506275E+03  0.12508886719E+03 0.  0.
         23    2    1    2    0    0  0.50018428276E+02 -0.15714778419E+02  0.17795749544E+02  0.10780363227E+03  0.92499389189E+02 0.  0.
          5    1    3    3  502    0  0.22123028222E+02 -0.27758857236E+02  0.22203039428E+02  0.42076476713E+02  0.41800000000E+01 0. -1.
         -5    1    3    3    0  502 -0.72141456498E+02  0.43473635655E+02 -0.44577608756E+02  0.95388586032E+02  0.41800000000E+01 0. -1.
        -11    1    4    4    0    0 -0.13986895977E+02 -0.27619005460E+02 -0.15564496475E+02  0.34651064517E+02  0.00000000000E+00 0. -1.
         11    1    4    4    0    0  0.64005324253E+02  0.11904227041E+02  0.33360246019E+02  0.73152567751E+02  0.00000000000E+00 0.  1.
</event>
<event>
 8    1  0.6505836E-009  0.7976727E+02  0.7561462E-02  0.1329713E+00
         -1   -1    0    0    0  501 -0.00000000000E+00  0.00000000000E+00  0.10638727877E+03  0.10638727877E+03  0.00000000000E+00 0.  1.
          1   -1    0    0  501    0  0.00000000000E+00 -0.00000000000E+00 -0.11509037931E+03  0.11509037931E+03  0.00000000000E+00 0. -1.
         25    2    1    2    0    0  0.18074940055E+02  0.23093622047E+02 -0.65217063974E+01  0.12864704996E+03  0.12509001548E+03 0.  0.
         23    2    1    2    0    0 -0.18074940055E+02 -0.23093622047E+02 -0.21813941381E+01  0.92830608116E+02  0.88049670559E+02 0.  0.
          5    1    3    3  502    0 -0.32776793587E+02  0.43961716404E+02 -0.36395172948E+02  0.65947188879E+02  0.41800000000E+01 0. -1.
         -5    1    3    3    0  502  0.50851733642E+02 -0.20868094358E+02  0.29873466551E+02  0.62699861086E+02  0.41800000000E+01 0. -1.
        -11    1    4    4    0    0 -0.27178577546E+01  0.11366465760E+02  0.36782679303E+02  0.38594673096E+02  0.00000000000E+00 0.  1.
         11    1    4    4    0    0 -0.15357082300E+02 -0.34460087806E+02 -0.38964073441E+02  0.54235935020E+02  0.00000000000E+00 0. -1.
</event>
<event>
 8    1  0.6505836E-009  0.2485431E+03  0.7561462E-02  0.1114229E+00
         -1   -1    0    0    0  501 -0.00000000000E+00  0.00000000000E+00  0.99612976507E+02  0.99612976507E+02  0.00000000000E+00 0.  1.
          1   -1    0    0  501    0  0.00000000000E+00 -0.00000000000E+00 -0.80049145558E+03  0.80049145558E+03  0.00000000000E+00 0. -1.
         25    2    1    2    0    0  0.51235200753E+02  0.23701765070E+03 -0.50876663206E+03  0.57731967697E+03  0.12510839692E+03 0.  0.
         23    2    1    2    0    0 -0.51235200753E+02 -0.23701765070E+03 -0.19211184702E+03  0.32278475512E+03  0.92090302606E+02 0.  0.
          5    1    3    3  502    0 -0.92835202927E+01  0.23581571803E+02 -0.40781970213E+01  0.26007275303E+02  0.41800000000E+01 0. -1.
         -5    1    3    3    0  502  0.60518721046E+02  0.21343607890E+03 -0.50468843504E+03  0.55131240167E+03  0.41800000000E+01 0. -1.
        -11    1    4    4    0    0 -0.52759971496E+02 -0.10523921643E+03 -0.46995374098E+02  0.12675753411E+03  0.00000000000E+00 0.  1.
         11    1    4    4    0    0  0.15247707427E+01 -0.13177843427E+03 -0.14511647292E+03  0.19602722101E+03  0.00000000000E+00 0. -1.
</event>
<event>
 8    1  0.6505836E-009  0.1808998E+03  0.7561462E-02  0.1166935E+00
          1   -1    0    0  501    0  0.00000000000E+00  0.00000000000E+00  0.87646211603E+03  0.87646211603E+03  0.00000000000E+00 0. -1.
         -1   -1    0    0    0  501 -0.00000000000E+00 -0.00000000000E+00 -0.42499643333E+02  0.42499643333E+02  0.00000000000E+00 0.  1.
         25    2    1    2    0    0 -0.14866087204E+03 -0.16318243880E+01  0.56730389167E+03  0.59965284252E+03  0.12508840199E+03 0.  0.
         23    2    1    2    0    0  0.14866087204E+03  0.16318243880E+01  0.26665858102E+03  0.31930891684E+03  0.93534313569E+02 0.  0.
          5    1    3    3  502    0 -0.16240296502E+03 -0.24216731582E+02  0.51972498310E+03  0.54506210985E+03  0.41800000000E+01 0. -1.
         -5    1    3    3    0  502  0.13742092989E+02  0.22584907194E+02  0.47578908579E+02  0.54590732677E+02  0.41800000000E+01 0. -1.
        -11    1    4    4    0    0  0.15969691818E+03  0.60040121511E+00  0.22312879796E+03  0.27439009938E+03  0.00000000000E+00 0.  1.
         11    1    4    4    0    0 -0.11036046149E+02  0.10314231729E+01  0.43529783062E+02  0.44918817458E+02  0.00000000000E+00 0. -1.
</event>
<event>
 8    1  0.6505836E-009  0.1674226E+03  0.7561462E-02  0.1180563E+00
         -3   -1    0    0    0  501 -0.00000000000E+00  0.00000000000E+00  0.77367340956E+03  0.77367340956E+03  0.00000000000E+00 0.  1.
          3   -1    0    0  501    0  0.00000000000E+00 -0.00000000000E+00 -0.37561567093E+02  0.37561567093E+02  0.00000000000E+00 0. -1.
         25    2    1    2    0    0  0.13156854285E+03  0.16072151830E+01  0.44080597770E+03  0.47673160220E+03  0.12510094303E+03 0.  0.
         23    2    1    2    0    0 -0.13156854285E+03 -0.16072151830E+01  0.29530586477E+03  0.33450337446E+03  0.85872516850E+02 0.  0.
          5    1    3    3  502    0  0.12878610736E+03 -0.40771235371E+02  0.28897842888E+03  0.31902062604E+03  0.41800000000E+01 0.  1.
         -5    1    3    3    0  502  0.27824354925E+01  0.42378450554E+02  0.15182754883E+03  0.15771097616E+03  0.41800000000E+01 0.  1.
        -11    1    4    4    0    0 -0.16564185946E+02 -0.33760685127E+02  0.75940624498E+02  0.84741575188E+02  0.00000000000E+00 0.  1.
         11    1    4    4    0    0 -0.11500435690E+03  0.32153469944E+02  0.21936524027E+03  0.24976179927E+03  0.00000000000E+00 0. -1.
</event>
<event>
 8    1  0.6505836E-009  0.1973395E+03  0.7561462E-02  0.1152003E+00
         -1   -1    0    0    0  501 -0.00000000000E+00  0.00000000000E+00  0.25402730763E+03  0.25402730763E+03  0.00000000000E+00 0.  1.
          1   -1    0    0  501    0  0.00000000000E+00 -0.00000000000E+00 -0.18601590190E+03  0.18601590190E+03  0.00000000000E+00 0. -1.
         25    2    1    2    0    0  0.96235668990E+02  0.14416751478E+03 -0.38427764997E+02  0.21718603614E+03  0.12508998708E+03 0.  0.
         23    2    1    2    0    0 -0.96235668990E+02 -0.14416751478E+03  0.10643917074E+03  0.22285717339E+03  0.91051888270E+02 0.  0.
          5    1    3    3  502    0  0.41457448519E+02 -0.13733843376E+02  0.57872486598E+01  0.44252718997E+02  0.41800000000E+01 0. -1.
         -5    1    3    3    0  502  0.54778220472E+02  0.15790135816E+03 -0.44215013657E+02  0.17293331715E+03  0.41800000000E+01 0. -1.
        -11    1    4    4    0    0 -0.32346653805E+02 -0.10216084872E+03  0.99246207273E+02  0.14605805244E+03  0.00000000000E+00 0.  1.
         11    1    4    4    0    0 -0.63889015185E+02 -0.42006666066E+02  0.71929634622E+01  0.76799120950E+02  0.00000000000E+00 0. -1.
</event>
<event>
 8    1  0.6505836E-009  0.2003696E+03  0.7561462E-02  0.1149428E+00
          2   -1    0    0  501    0  0.00000000000E+00  0.00000000000E+00  0.36993666887E+03  0.36993666887E+03  0.00000000000E+00 0. -1.
         -2   -1    0    0    0  501 -0.00000000000E+00 -0.00000000000E+00 -0.21016100766E+03  0.21016100766E+03  0.00000000000E+00 0.  1.
         25    2    1    2    0    0 -0.19557699106E+03 -0.12921097587E+02 -0.90388207708E+02  0.24947002525E+03  0.12509177116E+03 0.  0.
         23    2    1    2    0    0  0.19557699106E+03  0.12921097587E+02  0.25016386892E+03  0.33062765128E+03  0.91188641208E+02 0.  0.
          5    1    3    3  502    0 -0.18899846541E+03 -0.19763913708E+02 -0.35189007695E+02  0.19330486511E+03  0.41800000000E+01 0. -1.
         -5    1    3    3    0  502 -0.65785256541E+01  0.68428161206E+01 -0.55199200012E+02  0.56165160146E+02  0.41800000000E+01 0. -1.
        -11    1    4    4    0    0  0.63548202737E+02 -0.15112063754E+02  0.28860062968E+02  0.71411846192E+02  0.00000000000E+00 0. -1.
         11    1    4    4    0    0  0.13202878833E+03  0.28033161341E+02  0.22130380595E+03  0.25921580509E+03  0.00000000000E+00 0.  1.
</event>
<event>
 8    1  0.6505836E-009  0.1414593E+03  0.7561462E-02  0.1211379E+00
          1   -1    0    0  501    0  0.00000000000E+00  0.00000000000E+00  0.45825687592E+03  0.45825687592E+03  0.00000000000E+00 0. -1.
         -1   -1    0    0    0  501 -0.00000000000E+00 -0.00000000000E+00 -0.61585833618E+02  0.61585833618E+02  0.00000000000E+00 0.  1.
         25    2    1    2    0    0 -0.40290927225E+02  0.89233950854E+02  0.81558385631E+02  0.17856195040E+03  0.12508614256E+03 0.  0.
         23    2    1    2    0    0  0.40290927225E+02 -0.89233950854E+02  0.31511265667E+03  0.34128075914E+03  0.87123552300E+02 0.  0.
          5    1    3    3  502    0 -0.61113500354E+02 -0.18871122061E+00  0.99725296716E+01  0.62063026719E+02  0.41800000000E+01 0. -1.
         -5    1    3    3    0  502  0.20822573130E+02  0.89422662075E+02  0.71585855959E+02  0.11649892368E+03  0.41800000000E+01 0. -1.
        -11    1    4    4    0    0 -0.25835170962E+02 -0.13287900024E+02  0.92414653155E+02  0.96873590124E+02  0.00000000000E+00 0. -1.
         11    1    4    4    0    0  0.66126098187E+02 -0.75946050830E+02  0.22269800352E+03  0.24440716902E+03  0.00000000000E+00 0.  1.
</event>
<event>
 8    1  0.6505836E-009  0.6487429E+02  0.7561462E-02  0.1378445E+00
          1   -1    0    0  501    0  0.00000000000E+00  0.00000000000E+00  0.23201051602E+02  0.23201051602E+02  0.00000000000E+00 0.  1.
         -1   -1    0    0    0  501 -0.00000000000E+00 -0.00000000000E+00 -0.67352544506E+03  0.67352544506E+03  0.00000000000E+00 0. -1.
         25    2    1    2    0    0 -0.10442283107E+02  0.20647111749E+02 -0.52673968241E+03  0.54188349380E+03  0.12509070040E+03 0.  0.
         23    2    1    2    0    0  0.10442283107E+02 -0.20647111749E+02 -0.12358471105E+03  0.15484300286E+03  0.90376048989E+02 0.  0.
          5    1    3    3  502    0 -0.34233161402E+02  0.26552878434E+02 -0.51012145225E+03  0.51197493409E+03  0.41800000000E+01 0. -1.
         -5    1    3    3    0  502  0.23790878295E+02 -0.59057666847E+01 -0.16618230161E+02  0.29908559709E+02  0.41800000000E+01 0. -1.
        -11    1    4    4    0    0  0.33222083021E+02 -0.47074548755E+01 -0.12250739790E+03  0.12701940588E+03  0.00000000000E+00 0. -1.
         11    1    4    4    0    0 -0.22779799913E+02 -0.15939656874E+02 -0.10773131533E+01  0.27823596981E+02  0.00000000000E+00 0.  1.
</event>
<event>
 8    1  0.6505836E-009  0.8489747E+02  0.7561462E-02  0.1315701E+00
          2   -1    0    0  501    0  0.00000000000E+00  0.00000000000E+00  0.14149292558E+04  0.14149292558E+04  0.00000000000E+00 0. -1.
         -2   -1    0    0    0  501 -0.00000000000E+00 -0.00000000000E+00 -0.25659335763E+02  0.25659335763E+02  0.00000000000E+00 0.  1.
         25    2    1    2    0    0 -0.10462606757E+02  0.61765806461E+02  0.12607309201E+04  0.12684696270E+04  0.12509300876E+03 0.  0.
         23    2    1    2    0    0  0.10462606757E+02 -0.61765806461E+02  0.12853899998E+03  0.17211896457E+03  0.95802831164E+02 0.  0.
          5    1    3    3  502    0 -0.29489912702E+01  0.20638994102E+02  0.28680824781E+02  0.35703315493E+02  0.41800000000E+01 0.  1.
         -5    1    3    3    0  502 -0.75136154869E+01  0.41126812359E+02  0.12320500953E+04  0.12327663115E+04  0.41800000000E+01 0.  1.
        -11    1    4    4    0    0 -0.37684330507E+02 -0.19409379509E+02  0.21970783517E+02  0.47744613382E+02  0.00000000000E+00 0.  1.
         11    1    4    4    0    0  0.48146937264E+02 -0.42356426952E+02  0.10656821646E+03  0.12437435118E+03  0.00000000000E+00 0. -1.
</event>
<event>
 8    1  0.6505836E-009  0.7034868E+02  0.7561462E-02  0.1358911E+00
          1   -1    0    0  501    0  0.00000000000E+00  0.00000000000E+00  0.64241295739E+02  0.64241295739E+02  0.00000000000E+00 0. -1.
         -1   -1    0    0    0  501 -0.00000000000E+00 -0.00000000000E+00 -0.26665106541E+03  0.26665106541E+03  0.00000000000E+00 0.  1.
         25    2    1    2    0    0 -0.21474700426E+02  0.54395269316E+02 -0.16984215979E+03  0.21889381471E+03  0.12509250495E+03 0.  0.
         23    2    1    2    0    0  0.21474700426E+02 -0.54395269316E+02 -0.32567609879E+02  0.11199854643E+03  0.89794304426E+02 0.  0.
          5    1    3    3  502    0 -0.17975895843E+02  0.85237341167E+01  0.16953906652E+02  0.26470629487E+02  0.41800000000E+01 0. -1.
         -5    1    3    3    0  502 -0.34988045824E+01  0.45871535199E+02 -0.18679606644E+03  0.19242318523E+03  0.41800000000E+01 0. -1.
        -11    1    4    4    0    0  0.19048744012E+02  0.66525193419E+00 -0.50550884415E+02  0.54024893556E+02  0.00000000000E+00 0.  1.
         11    1    4    4    0    0  0.24259564135E+01 -0.55060521250E+02  0.17983274535E+02  0.57973652877E+02  0.00000000000E+00 0. -1.
</event>
<event>
 8    1  0.6505836E-009  0.1657871E+03  0.7561462E-02  0.1182314E+00
         -2   -1    0    0    0  501 -0.00000000000E+00  0.00000000000E+00  0.74982729182E+02  0.74982729182E+02  0.00000000000E+00 0.  1.
          2   -1    0    0  501    0  0.00000000000E+00 -0.00000000000E+00 -0.40395654272E+03  0.40395654272E+03  0.00000000000E+00 0. -1.
         25    2    1    2    0    0  0.10719686296E+03  0.69761193283E+02 -0.11256006734E+03  0.21135729914E+03  0.12507736656E+03 0.  0.
         23    2    1    2    0    0 -0.10719686296E+03 -0.69761193283E+02 -0.21641374621E+03  0.26758197277E+03  0.91691935776E+02 0.  0.
          5    1    3    3  502    0  0.22234835711E+02  0.86058265453E+02 -0.36818087492E+02  0.96298789912E+02  0.41800000000E+01 0. -1.
         -5    1    3    3    0  502  0.84962027247E+02 -0.16297072170E+02 -0.75741979843E+02  0.11505850923E+03  0.41800000000E+01 0. -1.
        -11    1    4    4    0    0 -0.14193451463E+02  0.21445834909E+02 -0.50217135140E+02  0.56419310179E+02  0.00000000000E+00 0.  1.
         11    1    4    4    0    0 -0.93003411495E+02 -0.91207028192E+02 -0.16619661107E+03  0.21116266259E+03  0.00000000000E+00 0. -1.
</event>
<event>
 8    1  0.6505836E-009  0.7348711E+02  0.7561462E-02  0.1348621E+00
         -2   -1    0    0    0  501 -0.00000000000E+00  0.00000000000E+00  0.34590512587E+02  0.34590512587E+02  0.00000000000E+00 0.  1.
          2   -1    0    0  501    0  0.00000000000E+00 -0.00000000000E+00 -0.45426397739E+03  0.45426397739E+03  0.00000000000E+00 0. -1.
         25    2    1    2    0    0  0.10180790823E+02  0.18872515962E+02 -0.34825224456E+03  0.37065716620E+03  0.12508912284E+03 0.  0.
         23    2    1    2    0    0 -0.10180790823E+02 -0.18872515962E+02 -0.71421220247E+02  0.11819732378E+03  0.91704941453E+02 0.  0.
          5    1    3    3  502    0  0.29891212328E+01  0.34624788874E+02 -0.35090543512E+03  0.35264700147E+03  0.41800000000E+01 0. -1.
         -5    1    3    3    0  502  0.71916695902E+01 -0.15752272912E+02  0.26531905595E+01  0.18010164728E+02  0.41800000000E+01 0. -1.
        -11    1    4    4    0    0  0.38983542235E+02 -0.22232288257E+02 -0.32762350057E+02  0.55564042218E+02  0.00000000000E+00 0.  1.
         11    1    4    4    0    0 -0.49164333058E+02  0.33597722950E+01 -0.38658870190E+02  0.62633281563E+02  0.00000000000E+00 0. -1.
</event>
<event>
 8    1  0.6505836E-009  0.9618459E+02  0.7561462E-02  0.1288530E+00
         -2   -1    0    0    0  501 -0.00000000000E+00  0.00000000000E+00  0.46163753939E+02  0.46163753939E+02  0.00000000000E+00 0.  1.
          2   -1    0    0  501    0  0.00000000000E+00 -0.00000000000E+00 -0.35352373521E+03  0.35352373521E+03  0.00000000000E+00 0. -1.
         25    2    1    2    0    0  0.24140728353E+02  0.62316408949E+02 -0.18952277249E+03  0.23671272756E+03  0.12509166443E+03 0.  0.
         23    2    1    2    0    0 -0.24140728353E+02 -0.62316408949E+02 -0.11783720878E+03  0.16297476158E+03  0.90603838496E+02 0.  0.
          5    1    3    3  502    0  0.37276787285E+02  0.56789799482E+02 -0.26534565210E+02  0.73049269308E+02  0.41800000000E+01 0. -1.
         -5    1    3    3    0  502 -0.13136058933E+02  0.55266094672E+01 -0.16298820728E+03  0.16366345825E+03  0.41800000000E+01 0. -1.
        -11    1    4    4    0    0  0.24395188142E+02  0.65008784598E+01 -0.45162136050E+02  0.51739783125E+02  0.00000000000E+00 0.  1.
         11    1    4    4    0    0 -0.48535916494E+02 -0.68817287409E+02 -0.72675072732E+02  0.11123497846E+03  0.00000000000E+00 0. -1.
</event>
<event>
 8    1  0.6505836E-009  0.6030955E+02  0.7561462E-02  0.1396537E+00
          1   -1    0    0  501    0  0.00000000000E+00  0.00000000000E+00  0.38846716958E+02  0.38846716958E+02  0.00000000000E+00 0. -1.
         -1   -1    0    0    0  501 -0.00000000000E+00 -0.00000000000E+00 -0.31938824248E+03  0.31938824248E+03  0.00000000000E+00 0.  1.
         25    2    1    2    0    0  0.14189077655E+02 -0.25993892332E+02 -0.16974507258E+03  0.21292891691E+03  0.12509325172E+03 0.  0.
         23    2    1    2    0    0 -0.14189077655E+02  0.25993892332E+02 -0.11079645294E+03  0.14530604253E+03  0.89224322069E+02 0.  0.
          5    1    3    3  502    0  0.29973184773E+02 -0.14276620109E+02 -0.18480822558E+03  0.18781311543E+03  0.41800000000E+01 0.  1.
         -5    1    3    3    0  502 -0.15784107117E+02 -0.11717272224E+02  0.15063152992E+02  0.25115801478E+02  0.41800000000E+01 0.  1.
        -11    1    4    4    0    0 -0.27271556444E+02  0.39666311840E+02 -0.11607496196E+03  0.12566045870E+03  0.00000000000E+00 0.  1.
         11    1    4    4    0    0  0.13082478788E+02 -0.13672419507E+02  0.52785090269E+01  0.19645583829E+02  0.00000000000E+00 0. -1.
</event>
<event>
 8    1  0.6505836E-009  0.1214657E+03  0.7561462E-02  0.1240698E+00
          2   -1    0    0  501    0  0.00000000000E+00  0.00000000000E+00  0.50951867514E+03  0.50951867514E+03  0.00000000000E+00 0. -1.
         -2   -1    0    0    0  501 -0.00000000000E+00 -0.00000000000E+00 -0.38641658378E+02  0.38641658378E+02  0.00000000000E+00 0.  1.
         25    2    1    2    0    0 -0.87953654306E+02  0.11971904348E+02  0.24438800278E+03  0.28853419507E+03  0.12508922425E+03 0.  0.
         23    2    1    2    0    0  0.87953654306E+02 -0.11971904348E+02  0.22648901398E+03  0.25962613845E+03  0.90715414958E+02 0.  0.
          5    1    3    3  502    0 -0.30271734919E+02  0.41399321533E+02  0.20772532777E+03  0.21400365874E+03  0.41800000000E+01 0.  1.
         -5    1    3    3    0  502 -0.57681919388E+02 -0.29427417185E+02  0.36662675012E+02  0.74530536329E+02  0.41800000000E+01 0.  1.
        -11    1    4    4    0    0  0.45725315826E+02  0.39207932218E+02  0.98405674622E+02  0.11537652818E+03  0.00000000000E+00 0. -1.
         11    1    4    4    0    0  0.42228338480E+02 -0.51179836566E+02  0.12808333936E+03  0.14424961027E+03  0.00000000000E+00 0.  1.
</event>
<event>
 8    1  0.6505836E-009  0.1053145E+03  0.7561462E-02  0.1269501E+00
         -2   -1    0    0    0  501 -0.00000000000E+00  0.00000000000E+00  0.22034741791E+03  0.22034741791E+03  0.00000000000E+00 0. -1.
          2   -1    0    0  501    0  0.00000000000E+00 -0.00000000000E+00 -0.67821947305E+02  0.67821947305E+02  0.00000000000E+00 0.  1.
         25    2    1    2    0    0 -0.35068140334E+02 -0.35352069999E+02  0.11650750162E+03  0.17804767188E+03  0.12508969666E+03 0.  0.
         23    2    1    2    0    0  0.35068140334E+02  0.35352069999E+02  0.36017968990E+02  0.11012169333E+03  0.91378060456E+02 0.  0.
          5    1    3    3  502    0  0.34821164669E+02 -0.43047670247E+02  0.20972788483E+02  0.59354407413E+02  0.41800000000E+01 0.  1.
         -5    1    3    3    0  502 -0.69889305004E+02  0.76956002479E+01  0.95534713134E+02  0.11869326447E+03  0.41800000000E+01 0.  1.
        -11    1    4    4    0    0  0.23371641184E+01 -0.20122024042E+02  0.40781364700E+02  0.45535457551E+02  0.00000000000E+00 0. -1.
         11    1    4    4    0    0  0.32730976216E+02  0.55474094041E+02 -0.47633957096E+01  0.64586235782E+02  0.00000000000E+00 0.  1.
</event>
<event>
 8    1  0.6505836E-009  0.2224325E+03  0.7561462E-02  0.1132082E+00
         -2   -1    0    0    0  501 -0.00000000000E+00  0.00000000000E+00  0.32310546352E+03  0.32310546352E+03  0.00000000000E+00 0.  1.
          2   -1    0    0  501    0  0.00000000000E+00 -0.00000000000E+00 -0.18579187605E+03  0.18579187605E+03  0.00000000000E+00 0. -1.
         25    2    1    2    0    0  0.10495338445E+03 -0.18743572514E+03  0.40377833278E+02  0.25183573860E+03  0.12507400150E+03 0.  0.
         23    2    1    2    0    0 -0.10495338445E+03  0.18743572514E+03  0.96935754188E+02  0.25706160097E+03  0.10264873252E+03 0.  0.
          5    1    3    3  502    0  0.94501050069E+01 -0.20552228578E+02  0.54337233271E+02  0.59005981931E+02  0.41800000000E+01 0.  1.
         -5    1    3    3    0  502  0.95503279441E+02 -0.16688349656E+03 -0.13959399993E+02  0.19282975667E+03  0.41800000000E+01 0.  1.
        -11    1    4    4    0    0  0.53859470431E+00  0.76317027780E+02  0.10751588792E+01  0.76326501165E+02  0.00000000000E+00 0.  1.
         11    1    4    4    0    0 -0.10549197915E+03  0.11111869736E+03  0.95860595309E+02  0.18073509980E+03  0.00000000000E+00 0. -1.
</event>
<event>
 8    1  0.6505836E-009  0.6576798E+02  0.7561462E-02  0.1375106E+00
         -2   -1    0    0    0  501 -0.00000000000E+00  0.00000000000E+00  0.13068813715E+03  0.13068813715E+03  0.00000000000E+00 0.  1.
          2   -1    0    0  501    0  0.00000000000E+00 -0.00000000000E+00 -0.94233216821E+02  0.94233216821E+02  0.00000000000E+00 0. -1.
         25    2    1    2    0    0  0.58155727992E+01  0.64400012911E+01 -0.18138570341E+01  0.12539743050E+03  0.12508369596E+03 0.  0.
         23    2    1    2    0    0 -0.58155727992E+01 -0.64400012911E+01  0.38268777365E+02  0.99523923472E+02  0.91461563067E+02 0.  0.
          5    1    3    3  502    0  0.27307834216E+02 -0.27525660471E+02 -0.49418958164E+02  0.62953042976E+02  0.41800000000E+01 0. -1.
         -5    1    3    3    0  502 -0.21492261417E+02  0.33965661762E+02  0.47605101130E+02  0.62444387525E+02  0.41800000000E+01 0. -1.
        -11    1    4    4    0    0  0.28125352176E+01 -0.28396702294E+02 -0.21198614031E+02  0.35548056098E+02  0.00000000000E+00 0. -1.
         11    1    4    4    0    0 -0.86281080168E+01  0.21956701003E+02  0.59467391395E+02  0.63975867374E+02  0.00000000000E+00 0.  1.
</event>
<event>
 8    1  0.6505836E-009  0.1123005E+03  0.7561462E-02  0.1256368E+00
         -1   -1    0    0    0  501 -0.00000000000E+00  0.00000000000E+00  0.33680378730E+03  0.33680378730E+03  0.00000000000E+00 0.  1.
          1   -1    0    0  501    0  0.00000000000E+00 -0.00000000000E+00 -0.49545411546E+02  0.49545411546E+02  0.00000000000E+00 0. -1.
         25    2    1    2    0    0 -0.24411029740E+02  0.55792834357E+02  0.18648473041E+03  0.23266131254E+03  0.12508394357E+03 0.  0.
         23    2    1    2    0    0  0.24411029740E+02 -0.55792834357E+02  0.10077364534E+03  0.15368788630E+03  0.98771959894E+02 0.  0.
          5    1    3    3  502    0  0.36631816170E+02  0.29320332175E+02  0.14880425022E+03  0.15608250741E+03  0.41800000000E+01 0.  1.
         -5    1    3    3    0  502 -0.61042845910E+02  0.26472502181E+02  0.37680480184E+02  0.76578805132E+02  0.41800000000E+01 0.  1.
        -11    1    4    4    0    0  0.54849252842E+02 -0.58594186894E+02  0.91570422351E+02  0.12176560074E+03  0.00000000000E+00 0.  1.
         11    1    4    4    0    0 -0.30438223102E+02  0.28013525371E+01  0.92032229906E+01  0.31922285555E+02  0.00000000000E+00 0. -1.
</event>
<event>
 8    1  0.6505836E-009  0.2035561E+03  0.7561462E-02  0.1146773E+00
         -2   -1    0    0    0  501 -0.00000000000E+00  0.00000000000E+00  0.14762952476E+03  0.14762952476E+03  0.00000000000E+00 0.  1.
          2   -1    0    0  501    0  0.00000000000E+00 -0.00000000000E+00 -0.32047765788E+03  0.32047765788E+03  0.00000000000E+00 0. -1.
         25    2    1    2    0    0 -0.18646529625E+03 -0.18921193961E+02 -0.10279245451E+03  0.24767295405E+03  0.12509310605E+03 0.  0.
         23    2    1    2    0    0  0.18646529625E+03  0.18921193961E+02 -0.70055678611E+02  0.22043422858E+03  0.92499366161E+02 0.  0.
          5    1    3    3  502    0 -0.13928224652E+02 -0.26256285723E+02 -0.63910781323E+02  0.70607707449E+02  0.41800000000E+01 0.  1.
         -5    1    3    3    0  502 -0.17253707159E+03  0.73350917621E+01 -0.38881673191E+02  0.17706524661E+03  0.41800000000E+01 0.  1.
        -11    1    4    4    0    0  0.16569906469E+03 -0.13070539358E+02 -0.74287655426E+02  0.18205953638E+03  0.00000000000E+00 0. -1.
         11    1    4    4    0    0  0.20766231552E+02  0.31991733319E+02  0.42319768146E+01  0.38374692199E+02  0.00000000000E+00 0.  1.
</event>
<event>
 8    1  0.6505836E-009  0.1177297E+03  0.7561462E-02  0.1246890E+00
         -2   -1    0    0    0  501 -0.00000000000E+00  0.00000000000E+00  0.12529680446E+03  0.12529680446E+03  0.00000000000E+00 0.  1.
          2   -1    0    0  501    0  0.00000000000E+00 -0.00000000000E+00 -0.20235026509E+03  0.20235026509E+03  0.00000000000E+00 0. -1.
         25    2    1    2    0    0  0.92681352151E+02  0.22417279780E+01  0.31112777762E+02  0.15877882994E+03  0.12509138067E+03 0.  0.
         23    2    1    2    0    0 -0.92681352151E+02 -0.22417279780E+01 -0.10816623840E+03  0.16886823961E+03  0.90673528875E+02 0.  0.
          5    1    3    3  502    0  0.11226367937E+03 -0.18155049611E+02  0.50230702837E+02  0.12439186243E+03  0.41800000000E+01 0.  1.
         -5    1    3    3    0  502 -0.19582327220E+02  0.20396777589E+02 -0.19117925075E+02  0.34386967510E+02  0.41800000000E+01 0.  1.
        -11    1    4    4    0    0 -0.57659070024E+02 -0.54112101342E+01 -0.11877166325E+03  0.13213840298E+03  0.00000000000E+00 0. -1.
         11    1    4    4    0    0 -0.35022282127E+02  0.31694821562E+01  0.10605424851E+02  0.36729836629E+02  0.00000000000E+00 0.  1.
</event>
<event>
 8    1  0.6505836E-009  0.1181782E+03  0.7561462E-02  0.1246133E+00
         -2   -1    0    0    0  501 -0.00000000000E+00  0.00000000000E+00  0.39937499830E+02  0.39937499830E+02  0.00000000000E+00 0.  1.
          2   -1    0    0  501    0  0.00000000000E+00 -0.00000000000E+00 -0.40846542433E+03  0.40846542433E+03  0.00000000000E+00 0. -1.
         25    2    1    2    0    0  0.44989379865E+02  0.39952821323E+02 -0.25823841339E+03  0.29317824994E+03  0.12508451484E+03 0.  0.
         23    2    1    2    0    0 -0.44989379865E+02 -0.39952821323E+02 -0.11028951111E+03  0.15522467422E+03  0.91162771977E+02 0.  0.
          5    1    3    3  502    0 -0.83003523985E+01  0.68484634447E+02 -0.18862996988E+03  0.20089245616E+03  0.41800000000E+01 0. -1.
         -5    1    3    3    0  502  0.53289732264E+02 -0.28531813125E+02 -0.69608443510E+02  0.92285793776E+02  0.41800000000E+01 0. -1.
        -11    1    4    4    0    0 -0.69910813795E+02 -0.15234029223E+02 -0.88908964304E+02  0.11412449985E+03  0.00000000000E+00 0.  1.
         11    1    4    4    0    0  0.24921433929E+02 -0.24718792100E+02 -0.21380546802E+02  0.41100174373E+02  0.00000000000E+00 0. -1.
</event>
<event>
 8    1  0.6505836E-009  0.1458308E+03  0.7561462E-02  0.1205692E+00
         -2   -1    0    0    0  501 -0.00000000000E+00  0.00000000000E+00  0.32063642536E+02  0.32063642536E+02  0.00000000000E+00 0.  1.
          2   -1    0    0  501    0  0.00000000000E+00 -0.00000000000E+00 -0.86105353204E+03  0.86105353204E+03  0.00000000000E+00 0. -1.
         25    2    1    2    0    0 -0.53876417374E+02  0.86672286429E+02 -0.24527332874E+03  0.29363432505E+03  0.12508939791E+03 0.  0.
         23    2    1    2    0    0  0.53876417374E+02 -0.86672286429E+02 -0.58371656076E+03  0.59948284953E+03  0.90773949933E+02 0.  0.
          5    1    3    3  502    0 -0.85489641247E+02  0.95418940077E+02 -0.18906779929E+03  0.22842363717E+03  0.41800000000E+01 0. -1.
         -5    1    3    3    0  502  0.31613223873E+02 -0.87466536475E+01 -0.56205529448E+02  0.65210687884E+02  0.41800000000E+01 0. -1.
        -11    1    4    4    0    0  0.44938556768E+02 -0.10267766439E+03 -0.54791175440E+03  0.55925796129E+03  0.00000000000E+00 0. -1.
         11    1    4    4    0    0  0.89378606057E+01  0.16005377956E+02 -0.35804806359E+02  0.40224888243E+02  0.00000000000E+00 0.  1.
</event>
<event>
 8    1  0.6505836E-009  0.8217146E+02  0.7561462E-02  0.1323000E+00
         -1   -1    0    0    0  501 -0.00000000000E+00  0.00000000000E+00  0.28167958290E+02  0.28167958290E+02  0.00000000000E+00 0.  1.
          1   -1    0    0  501    0  0.00000000000E+00 -0.00000000000E+00 -0.44178287833E+03  0.44178287833E+03  0.00000000000E+00 0. -1.
         25    2    1    2    0    0 -0.19442222619E+02 -0.40057021715E+02 -0.25226456012E+03  0.28507905671E+03  0.12510034083E+03 0.  0.
         23    2    1    2    0    0  0.19442222619E+02  0.40057021715E+02 -0.16135035993E+03  0.18487177991E+03  0.78492492321E+02 0.  0.
          5    1    3    3  502    0 -0.51787856610E+02 -0.92955766555E+01 -0.22814323091E+03  0.23416916118E+03  0.41800000000E+01 0.  1.
         -5    1    3    3    0  502  0.32345633991E+02 -0.30761445060E+02 -0.24121329212E+02  0.50909895535E+02  0.41800000000E+01 0.  1.
        -11    1    4    4    0    0 -0.16925757422E+02  0.11100202181E+02 -0.37852207306E+01  0.20591834516E+02  0.00000000000E+00 0.  1.
         11    1    4    4    0    0  0.36367980041E+02  0.28956819534E+02 -0.15756513920E+03  0.16427994540E+03  0.00000000000E+00 0. -1.
</event>
<event>
 8    1  0.6505836E-009  0.1199260E+03  0.7561462E-02  0.1243219E+00
          2   -1    0    0  501    0  0.00000000000E+00  0.00000000000E+00  0.66322334697E+03  0.66322334697E+03  0.00000000000E+00 0. -1.
         -2   -1    0    0    0  501 -0.00000000000E+00 -0.00000000000E+00 -0.28944397775E+02  0.28944397775E+02  0.00000000000E+00 0.  1.
         25    2    1    2    0    0 -0.70298505447E+02  0.15609354351E+02  0.45776714074E+03  0.47998325273E+03  0.12509051103E+03 0.  0.
         23    2    1    2    0    0  0.70298505447E+02 -0.15609354351E+02  0.17651180845E+03  0.21218449201E+03  0.93168172219E+02 0.  0.
          5    1    3    3  502    0 -0.86992590742E+02 -0.20581231726E+02  0.19985933265E+03  0.21898064570E+03  0.41800000000E+01 0. -1.
         -5    1    3    3    0  502  0.16694085295E+02  0.36190586077E+02  0.25790780809E+03  0.26100260703E+03  0.41800000000E+01 0. -1.
        -11    1    4    4    0    0 -0.18833661848E+02 -0.90993470975E+01  0.70454992980E+02  0.73494292105E+02  0.00000000000E+00 0. -1.
         11    1    4    4    0    0  0.89132167295E+02 -0.65100072538E+01  0.10605681547E+03  0.13869019990E+03  0.00000000000E+00 0.  1.
</event>
<event>
 8    1  0.6505836E-009  0.1044516E+03  0.7561462E-02  0.1271204E+00
          2   -1    0    0  501    0  0.00000000000E+00  0.00000000000E+00  0.37461873093E+03  0.37461873093E+03  0.00000000000E+00 0. -1.
         -2   -1    0    0    0  501 -0.00000000000E+00 -0.00000000000E+00 -0.46437025546E+02  0.46437025546E+02  0.00000000000E+00 0.  1.
         25    2    1    2    0    0  0.29446872822E+02  0.90493837693E+01  0.69160953716E+02  0.14622444111E+03  0.12509732209E+03 0.  0.
         23    2    1    2    0    0 -0.29446872822E+02 -0.90493837693E+01  0.25902075166E+03  0.27483131536E+03  0.86553408054E+02 0.  0.
          5    1    3    3  502    0  0.42367793850E+02  0.54799449512E+02  0.69899310109E+02  0.98495662728E+02  0.41800000000E+01 0.  1.
         -5    1    3    3    0  502 -0.12920921028E+02 -0.45750065742E+02 -0.73835639227E+00  0.47728778382E+02  0.41800000000E+01 0.  1.
        -11    1    4    4    0    0 -0.55220046351E+02  0.14264985307E+02  0.15512976833E+03  0.16528154267E+03  0.00000000000E+00 0.  1.
         11    1    4    4    0    0  0.25773173529E+02 -0.23314369076E+02  0.10389098333E+03  0.10954977269E+03  0.00000000000E+00 0. -1.
</event>
<event>
 8    1  0.6505836E-009  0.1934971E+03  0.7561462E-02  0.1155344E+00
          2   -1    0    0  501    0  0.00000000000E+00  0.00000000000E+00  0.89845954583E+03  0.89845954583E+03  0.00000000000E+00 0.  1.
         -2   -1    0    0    0  501 -0.00000000000E+00 -0.00000000000E+00 -0.52400562533E+02  0.52400562533E+02  0.00000000000E+00 0. -1.
         25    2    1    2    0    0 -0.67845833702E+02 -0.14670490037E+03  0.23484233269E+03  0.31132588088E+03  0.12508995938E+03 0.  0.
         23    2    1    2    0    0  0.67845833702E+02  0.14670490037E+03  0.61121665061E+03  0.63953422749E+03  0.96399425334E+02 0.  0.
          5    1    3    3  502    0 -0.25246378213E+02 -0.15704636246E+03  0.19723649305E+03  0.25341792787E+03  0.41800000000E+01 0. -1.
         -5    1    3    3    0  502 -0.42599455490E+02  0.10341462095E+02  0.37605839639E+02  0.57907953005E+02  0.41800000000E+01 0. -1.
        -11    1    4    4    0    0  0.57858815293E+02  0.27224270923E+02  0.28215951707E+03  0.28931435586E+03  0.00000000000E+00 0. -1.
         11    1    4    4    0    0  0.99870184087E+01  0.11948062944E+03  0.32905713353E+03  0.35021987162E+03  0.00000000000E+00 0.  1.
</event>
<event>
 8    1  0.6505836E-009  0.1078438E+03  0.7561462E-02  0.1264616E+00
         -1   -1    0    0    0  501 -0.00000000000E+00  0.00000000000E+00  0.77680806741E+03  0.77680806741E+03  0.00000000000E+00 0.  1.
          1   -1    0    0  501    0  0.00000000000E+00 -0.00000000000E+00 -0.21844171642E+02  0.21844171642E+02  0.00000000000E+00 0. -1.
         25    2    1    2    0    0  0.33519650879E+02  0.39505895083E+02  0.61031324803E+03  0.62516229265E+03  0.12514531028E+03 0.  0.
         23    2    1    2    0    0 -0.33519650879E+02 -0.39505895083E+02  0.14465064774E+03  0.17348994640E+03  0.80564687495E+02 0.  0.
          5    1    3    3  502    0 -0.31551626554E+02 -0.23121446440E+02  0.27801678949E+03  0.28078624265E+03  0.41800000000E+01 0. -1.
         -5    1    3    3    0  502  0.65071277433E+02  0.62627341523E+02  0.33229645853E+03  0.34437604999E+03  0.41800000000E+01 0. -1.
        -11    1    4    4    0    0 -0.10948491970E+02 -0.56584686271E+02  0.12866421856E+03  0.14098289731E+03  0.00000000000E+00 0.  1.
         11    1    4    4    0    0 -0.22571158910E+02  0.17078791188E+02  0.15986429180E+02  0.32507049095E+02  0.00000000000E+00 0. -1.
</event>
<event>
 8    1  0.6505836E-009  0.1346637E+03  0.7561462E-02  0.1220695E+00
          1   -1    0    0  501    0  0.00000000000E+00  0.00000000000E+00  0.11928654057E+04  0.11928654057E+04  0.00000000000E+00 0. -1.
         -1   -1    0    0    0  501 -0.00000000000E+00 -0.00000000000E+00 -0.27484793003E+02  0.27484793003E+02  0.00000000000E+00 0.  1.
         25    2    1    2    0    0  0.70762914397E+02 -0.63880995078E+02  0.98063989103E+03  0.99317230043E+03  0.12509376835E+03 0.  0.
         23    2    1    2    0    0 -0.70762914397E+02  0.63880995078E+02  0.18474072165E+03  0.22717789825E+03  0.91610543242E+02 0.  0.
          5    1    3    3  502    0  0.39114888377E+01  0.29401574284E+02  0.83459220576E+02  0.88671676507E+02  0.41800000000E+01 0.  1.
         -5    1    3    3    0  502  0.66851425559E+02 -0.93282569363E+02  0.89718067045E+03  0.90450062392E+03  0.41800000000E+01 0.  1.
        -11    1    4    4    0    0 -0.16711835038E+02  0.68288024729E+02  0.14081588891E+03  0.15739013413E+03  0.00000000000E+00 0.  1.
         11    1    4    4    0    0 -0.54051079359E+02 -0.44070296503E+01  0.43924832737E+02  0.69787764122E+02  0.00000000000E+00 0. -1.
</event>
<event>
 8    1  0.6505836E-009  0.1190509E+03  0.7561462E-02  0.1244671E+00
          2   -1    0    0  501    0  0.00000000000E+00  0.00000000000E+00  0.15135685150E+03  0.15135685150E+03  0.00000000000E+00 0. -1.
         -2   -1    0    0    0  501 -0.00000000000E+00 -0.00000000000E+00 -0.12631579511E+03  0.12631579511E+03  0.00000000000E+00 0.  1.
         25    2    1    2    0    0 -0.64905713777E+02  0.52044248276E+02  0.35886483217E+02  0.15444136503E+03  0.12507173979E+03 0.  0.
         23    2    1    2    0    0  0.64905713777E+02 -0.52044248276E+02 -0.10845426829E+02  0.12323128159E+03  0.90260567360E+02 0.  0.
          5    1    3    3  502    0 -0.93606765457E+02  0.12017027115E+02  0.44233758798E+02  0.10431075351E+03  0.41800000000E+01 0.  1.
         -5    1    3    3    0  502  0.28701051680E+02  0.40027221162E+02 -0.83472755806E+01  0.50130611517E+02  0.41800000000E+01 0.  1.
        -11    1    4    4    0    0  0.21531454455E+02 -0.45501287419E+02 -0.45091535573E+02  0.67581190194E+02  0.00000000000E+00 0.  1.
         11    1    4    4    0    0  0.43374259322E+02 -0.65429608572E+01  0.34246108744E+02  0.55650091398E+02  0.00000000000E+00 0. -1.
</event>
<event>
 8    1  0.6505836E-009  0.1013340E+03  0.7561462E-02  0.1277515E+00
          2   -1    0    0  501    0  0.00000000000E+00  0.00000000000E+00  0.26201472797E+03  0.26201472797E+03  0.00000000000E+00 0. -1.
         -2   -1    0    0    0  501 -0.00000000000E+00 -0.00000000000E+00 -0.69993272273E+02  0.69993272273E+02  0.00000000000E+00 0.  1.
         25    2    1    2    0    0 -0.17969759148E+02 -0.66027302666E+02  0.15989186671E+03  0.21423766932E+03  0.12509937240E+03 0.  0.
         23    2    1    2    0    0  0.17969759148E+02  0.66027302666E+02  0.32129588986E+02  0.11777033092E+03  0.90305168267E+02 0.  0.
          5    1    3    3  502    0 -0.10926900343E+02  0.32782660764E+02  0.78817759006E+02  0.86161543234E+02  0.41800000000E+01 0. -1.
         -5    1    3    3    0  502 -0.70428588056E+01 -0.98809963430E+02  0.81074107705E+02  0.12807612609E+03  0.41800000000E+01 0. -1.
        -11    1    4    4    0    0  0.87124521524E+01  0.43363356707E+02 -0.28341698394E+02  0.52531318233E+02  0.00000000000E+00 0.  1.
         11    1    4    4    0    0  0.92573069958E+01  0.22663945959E+02  0.60471287380E+02  0.65239012689E+02  0.00000000000E+00 0. -1.
</event>
<event>
 8    1  0.6505836E-009  0.1386442E+03  0.7561462E-02  0.1215165E+00
          3   -1    0    0  501    0  0.00000000000E+00  0.00000000000E+00  0.40691216295E+02  0.40691216295E+02  0.00000000000E+00 0. -1.
         -3   -1    0    0    0  501 -0.00000000000E+00 -0.00000000000E+00 -0.64677703202E+03  0.64677703202E+03  0.00000000000E+00 0.  1.
         25    2    1    2    0    0 -0.10668208883E+03 -0.66178135878E+02 -0.31385552959E+03  0.36043446559E+03  0.12508835591E+03 0.  0.
         23    2    1    2    0    0  0.10668208883E+03  0.66178135878E+02 -0.29223028613E+03  0.32703378272E+03  0.76104803816E+02 0.  0.
          5    1    3    3  502    0 -0.59627913966E+02 -0.33715673592E+01 -0.25583860469E+03  0.26275029903E+03  0.41800000000E+01 0.  1.
         -5    1    3    3    0  502 -0.47054174866E+02 -0.62806568519E+02 -0.58016924902E+02  0.97684166561E+02  0.41800000000E+01 0.  1.
        -11    1    4    4    0    0  0.12310841609E+01  0.25930026553E+02 -0.21463276677E+02  0.33683142534E+02  0.00000000000E+00 0. -1.
         11    1    4    4    0    0  0.10545100467E+03  0.40248109325E+02 -0.27076700945E+03  0.29335064019E+03  0.00000000000E+00 0.  1.
</event>
<event>
 8    1  0.6505836E-009  0.1785089E+03  0.7561462E-02  0.1169254E+00
          2   -1    0    0  501    0  0.00000000000E+00  0.00000000000E+00  0.32060049594E+03  0.32060049594E+03  0.00000000000E+00 0. -1.
         -2   -1    0    0    0  501 -0.00000000000E+00 -0.00000000000E+00 -0.13818019026E+03  0.13818019026E+03  0.00000000000E+00 0.  1.
         25    2    1    2    0    0  0.15612685147E+03  0.12816338182E+02 -0.16094812116E+01  0.20047574795E+03  0.12509229718E+03 0.  0.
         23    2    1    2    0    0 -0.15612685147E+03 -0.12816338182E+02  0.18402978689E+03  0.25830493825E+03  0.91184573188E+02 0.  0.
          5    1    3    3  502    0  0.14013841652E+03  0.53370825823E+02 -0.22948985173E+02  0.15176082879E+03  0.41800000000E+01 0. -1.
         -5    1    3    3    0  502  0.15988434946E+02 -0.40554487641E+02  0.21339503962E+02  0.48714919164E+02  0.41800000000E+01 0. -1.
        -11    1    4    4    0    0 -0.75667075552E+02  0.16733553732E+02  0.32133629087E+02  0.83893314759E+02  0.00000000000E+00 0.  1.
         11    1    4    4    0    0 -0.80459775916E+02 -0.29549891914E+02  0.15189615781E+03  0.17441162349E+03  0.00000000000E+00 0. -1.
</event>
<event>
 8    1  0.6505836E-009  0.1325775E+03  0.7561462E-02  0.1223681E+00
          3   -1    0    0  501    0  0.00000000000E+00  0.00000000000E+00  0.35513255933E+03  0.35513255933E+03  0.00000000000E+00 0. -1.
         -3   -1    0    0    0  501 -0.00000000000E+00 -0.00000000000E+00 -0.56094495702E+02  0.56094495702E+02  0.00000000000E+00 0.  1.
         25    2    1    2    0    0  0.39911387398E+02 -0.80058519088E+02  0.18142724957E+03  0.23783467661E+03  0.12508877322E+03 0.  0.
         23    2    1    2    0    0 -0.39911387398E+02  0.80058519088E+02  0.11761081406E+03  0.17339237843E+03  0.90721155149E+02 0.  0.
          5    1    3    3  502    0  0.71343734116E+02 -0.17960560278E+02  0.13580834336E+03  0.15451177512E+03  0.41800000000E+01 0.  1.
         -5    1    3    3    0  502 -0.31432346718E+02 -0.62097958810E+02  0.45618906214E+02  0.83322901490E+02  0.41800000000E+01 0.  1.
        -11    1    4    4    0    0 -0.64885255166E+02  0.46127969355E+02  0.50900083877E+02  0.94491822046E+02  0.00000000000E+00 0.  1.
         11    1    4    4    0    0  0.24973867768E+02  0.33930549732E+02  0.66710730181E+02  0.78900556384E+02  0.00000000000E+00 0. -1.
</event>
<event>
 8    1  0.6505836E-009  0.1025144E+03  0.7561462E-02  0.1275096E+00
          2   -1    0    0  501    0  0.00000000000E+00  0.00000000000E+00  0.38008489039E+02  0.38008489039E+02  0.00000000000E+00 0. -1.
         -2   -1    0    0    0  501 -0.00000000000E+00 -0.00000000000E+00 -0.32331698135E+03  0.32331698135E+03  0.00000000000E+00 0.  1.
         25    2    1    2    0    0  0.15771733691E+02  0.36205082235E+01 -0.14215847201E+03  0.19004572839E+03  0.12508593866E+03 0.  0.
         23    2    1    2    0    0 -0.15771733691E+02 -0.36205082235E+01 -0.14315002029E+03  0.17127974199E+03  0.92644298497E+02 0.  0.
          5    1    3    3  502    0  0.52386806013E+02 -0.36872174445E+02 -0.10760962082E+03  0.12530457927E+03  0.41800000000E+01 0. -1.
         -5    1    3    3    0  502 -0.36615072323E+02  0.40492682668E+02 -0.34548851190E+02  0.64741149120E+02  0.41800000000E+01 0. -1.
        -11    1    4    4    0    0 -0.17133263732E+02 -0.43201118844E+02 -0.41954352487E+02  0.62610327328E+02  0.00000000000E+00 0. -1.
         11    1    4    4    0    0  0.13615300415E+01  0.39580610620E+02 -0.10119566781E+03  0.10866941467E+03  0.00000000000E+00 0.  1.
</event>
<event>
 8    1  0.6505836E-009  0.1025588E+03  0.7561462E-02  0.1275005E+00
          2   -1    0    0  501    0  0.00000000000E+00  0.00000000000E+00  0.19829423943E+03  0.19829423943E+03  0.00000000000E+00 0. -1.
         -2   -1    0    0    0  501 -0.00000000000E+00 -0.00000000000E+00 -0.72084152348E+02  0.72084152348E+02  0.00000000000E+00 0.  1.
         25    2    1    2    0    0  0.17902043007E+02 -0.44136826299E+02  0.50140180124E+02  0.14293306991E+03  0.12508909718E+03 0.  0.
         23    2    1    2    0    0 -0.17902043007E+02  0.44136826299E+02  0.76069906954E+02  0.12744532186E+03  0.90482798036E+02 0.  0.
          5    1    3    3  502    0 -0.52757552547E+02 -0.70342844831E+01  0.13812737639E+02  0.55146211384E+02  0.41800000000E+01 0. -1.
         -5    1    3    3    0  502  0.70659595554E+02 -0.37102541816E+02  0.36327442485E+02  0.87786858530E+02  0.41800000000E+01 0. -1.
        -11    1    4    4    0    0  0.19372181228E+02  0.15138897088E+02 -0.12116833793E+02  0.27409583575E+02  0.00000000000E+00 0.  1.
         11    1    4    4    0    0 -0.37274224234E+02  0.28997929211E+02  0.88186740747E+02  0.10003573829E+03  0.00000000000E+00 0. -1.
</event>
<event>
 8    1  0.6505836E-009  0.1518571E+03  0.7561462E-02  0.1198209E+00
          1   -1    0    0  501    0  0.00000000000E+00  0.00000000000E+00  0.49899274674E+03  0.49899274674E+03  0.00000000000E+00 0. -1.
         -1   -1    0    0    0  501 -0.00000000000E+00 -0.00000000000E+00 -0.56947930651E+02  0.56947930651E+02  0.00000000000E+00 0.  1.
         25    2    1    2    0    0 -0.11164253932E+03 -0.38388078541E+02  0.14765552284E+03  0.22668812859E+03  0.12509057942E+03 0.  0.
         23    2    1    2    0    0  0.11164253932E+03  0.38388078541E+02  0.29438929325E+03  0.32925254881E+03  0.88342989273E+02 0.  0.
          5    1    3    3  502    0 -0.32588182734E+02 -0.66513131034E+02  0.25528406024E+02  0.78454816092E+02  0.41800000000E+01 0. -1.
         -5    1    3    3    0  502 -0.79054356581E+02  0.28125052494E+02  0.12212711681E+03  0.14823331249E+03  0.41800000000E+01 0. -1.
        -11    1    4    4    0    0  0.51655098062E+02 -0.25732959935E+02  0.14357332675E+03  0.15473763129E+03  0.00000000000E+00 0. -1.
         11    1    4    4    0    0  0.59987441253E+02  0.64121038476E+02  0.15081596650E+03  0.17451491751E+03  0.00000000000E+00 0.  1.
</event>
<event>
 8    1  0.6505836E-009  0.9455769E+02  0.7561462E-02  0.1292175E+00
          1   -1    0    0  501    0  0.00000000000E+00  0.00000000000E+00  0.28715162722E+02  0.28715162722E+02  0.00000000000E+00 0. -1.
         -1   -1    0    0    0  501 -0.00000000000E+00 -0.00000000000E+00 -0.65493294923E+03  0.65493294923E+03  0.00000000000E+00 0.  1.
         25    2    1    2    0    0  0.26269726991E+02 -0.81111914288E+02 -0.29418480469E+03  0.33084662667E+03  0.12508217247E+03 0.  0.
         23    2    1    2    0    0 -0.26269726991E+02  0.81111914288E+02 -0.33203298182E+03  0.35280148529E+03  0.83389122857E+02 0.  0.
          5    1    3    3  502    0  0.98217149961E+01 -0.84383301189E+02 -0.30060720226E+03  0.31240865874E+03  0.41800000000E+01 0.  1.
         -5    1    3    3    0  502  0.16448011995E+02  0.32713869005E+01  0.64223975661E+01  0.18437967929E+02  0.41800000000E+01 0.  1.
        -11    1    4    4    0    0 -0.31271687291E+00  0.24448857333E+02 -0.12911016544E+02  0.27650294120E+02  0.00000000000E+00 0. -1.
         11    1    4    4    0    0 -0.25957010118E+02  0.56663056956E+02 -0.31912196527E+03  0.32515119117E+03  0.00000000000E+00 0.  1.
</event>
<event>
 8    1  0.6505836E-009  0.1207187E+03  0.7561462E-02  0.1241916E+00
          1   -1    0    0  501    0  0.00000000000E+00  0.00000000000E+00  0.25721620912E+03  0.25721620912E+03  0.00000000000E+00 0. -1.
         -1   -1    0    0    0  501 -0.00000000000E+00 -0.00000000000E+00 -0.79662135415E+02  0.79662135415E+02  0.00000000000E+00 0.  1.
         25    2    1    2    0    0 -0.40165781547E+02 -0.54814321017E+02  0.21500008661E+02  0.14397346271E+03  0.12509279674E+03 0.  0.
         23    2    1    2    0    0  0.40165781547E+02  0.54814321017E+02  0.15605406504E+03  0.19290488182E+03  0.90782831088E+02 0.  0.
          5    1    3    3  502    0  0.27753741536E+02 -0.62029233524E+02 -0.96924902837E+01  0.68769998900E+02  0.41800000000E+01 0. -1.
         -5    1    3    3    0  502 -0.67919523082E+02  0.72149125068E+01  0.31192498945E+02  0.75203463807E+02  0.41800000000E+01 0. -1.
        -11    1    4    4    0    0 -0.39758876445E+01  0.60310952249E+02  0.12440993042E+03  0.13831503689E+03  0.00000000000E+00 0. -1.
         11    1    4    4    0    0  0.44141669191E+02 -0.54966312321E+01  0.31644134625E+02  0.54589844935E+02  0.00000000000E+00 0.  1.
</event>
<event>
 8    1  0.6505836E-009  0.1201905E+03  0.7561462E-02  0.1242783E+00
         -4   -1    0    0    0  501 -0.00000000000E+00  0.00000000000E+00  0.91260850700E+02  0.91260850700E+02  0.00000000000E+00 0.  1.
          4   -1    0    0  501    0  0.00000000000E+00 -0.00000000000E+00 -0.17700021173E+03  0.17700021173E+03  0.00000000000E+00 0. -1.
         25    2    1    2    0    0  0.32708085025E+01 -0.57459660062E+02 -0.24309922769E+02  0.13982474770E+03  0.12509067512E+03 0.  0.
         23    2    1    2    0    0 -0.32708085025E+01  0.57459660062E+02 -0.61429438258E+02  0.12843631473E+03  0.97005156218E+02 0.  0.
          5    1    3    3  502    0 -0.51469118088E+02 -0.53982443271E+02 -0.37009189187E+02  0.83368619891E+02  0.41800000000E+01 0. -1.
         -5    1    3    3    0  502  0.54739926590E+02 -0.34772167910E+01  0.12699266418E+02  0.56456127810E+02  0.41800000000E+01 0. -1.
        -11    1    4    4    0    0  0.43312591225E+02  0.10594176922E+02 -0.12793373735E+02  0.46388442039E+02  0.00000000000E+00 0. -1.
         11    1    4    4    0    0 -0.46583399727E+02  0.46865483140E+02 -0.48636064523E+02  0.82047872687E+02  0.00000000000E+00 0.  1.
</event>
<event>
 8    1  0.6505836E-009  0.8258621E+02  0.7561462E-02  0.1321868E+00
         -1   -1    0    0    0  501 -0.00000000000E+00  0.00000000000E+00  0.54345131520E+02  0.54345131520E+02  0.00000000000E+00 0.  1.
          1   -1    0    0  501    0  0.00000000000E+00 -0.00000000000E+00 -0.22040280289E+03  0.22040280289E+03  0.00000000000E+00 0. -1.
         25    2    1    2    0    0  0.17276084150E+01  0.69863385735E+01 -0.11639569222E+03  0.17101954125E+03  0.12509169743E+03 0.  0.
         23    2    1    2    0    0 -0.17276084150E+01 -0.69863385735E+01 -0.49661979151E+02  0.10372839315E+03  0.90782563387E+02 0.  0.
          5    1    3    3  502    0 -0.15438517815E+02 -0.38758697823E+02  0.29087692936E+01  0.42029963455E+02  0.41800000000E+01 0. -1.
         -5    1    3    3    0  502  0.17166126230E+02  0.45745036396E+02 -0.11930446151E+03  0.12898957780E+03  0.41800000000E+01 0. -1.
        -11    1    4    4    0    0  0.10700869791E+02 -0.38695070993E+02 -0.56182041611E+02  0.69052436112E+02  0.00000000000E+00 0. -1.
         11    1    4    4    0    0 -0.12428478206E+02  0.31708732419E+02  0.65200624603E+01  0.34675957040E+02  0.00000000000E+00 0.  1.
</event>
<event>
 8    1  0.6505836E-009  0.9208232E+02  0.7561462E-02  0.1297886E+00
          2   -1    0    0  501    0  0.00000000000E+00  0.00000000000E+00  0.96280453596E+02  0.96280453596E+02  0.00000000000E+00 0. -1.
         -2   -1    0    0    0  501 -0.00000000000E+00 -0.00000000000E+00 -0.13236879113E+03  0.13236879113E+03  0.00000000000E+00 0.  1.
         25    2    1    2    0    0  0.16048715080E+02  0.10962190772E+02  0.84272085761E+01  0.12683354648E+03  0.12505198833E+03 0.  0.
         23    2    1    2    0    0 -0.16048715080E+02 -0.10962190772E+02 -0.44515546115E+02  0.10181569826E+03  0.89482242278E+02 0.  0.
          5    1    3    3  502    0 -0.48612583781E+02 -0.19460011479E+02 -0.86631699672E+01  0.53239067070E+02  0.41800000000E+01 0.  1.
         -5    1    3    3    0  502  0.64661298861E+02  0.30422202251E+02  0.17090378543E+02  0.73594479405E+02  0.41800000000E+01 0.  1.
        -11    1    4    4    0    0  0.96492576078E+01  0.18556362309E+02  0.18309591015E+02  0.27797263852E+02  0.00000000000E+00 0. -1.
         11    1    4    4    0    0 -0.25697972688E+02 -0.29518553081E+02 -0.62825137129E+02  0.74018434404E+02  0.00000000000E+00 0.  1.
</event>
<event>
 8    1  0.6505836E-009  0.1279936E+03  0.7561462E-02  0.1230464E+00
          1   -1    0    0  501    0  0.00000000000E+00  0.00000000000E+00  0.10453099948E+04  0.10453099948E+04  0.00000000000E+00 0. -1.
         -1   -1    0    0    0  501 -0.00000000000E+00 -0.00000000000E+00 -0.22719988647E+02  0.22719988647E+02  0.00000000000E+00 0.  1.
         25    2    1    2    0    0  0.33986394259E+02  0.95467543910E+02  0.61608725716E+03  0.63677089186E+03  0.12507810897E+03 0.  0.
         23    2    1    2    0    0 -0.33986394259E+02 -0.95467543910E+02  0.40650274898E+03  0.43125909158E+03  0.10232688897E+03 0.  0.
          5    1    3    3  502    0  0.76275989003E+02  0.64797088597E+02  0.49160104745E+03  0.50170285174E+03  0.41800000000E+01 0.  1.
         -5    1    3    3    0  502 -0.42289594745E+02  0.30670455313E+02  0.12448620971E+03  0.13506804012E+03  0.41800000000E+01 0.  1.
        -11    1    4    4    0    0 -0.37236427480E+01 -0.40419561113E+02  0.32447717683E+02  0.51965958268E+02  0.00000000000E+00 0.  1.
         11    1    4    4    0    0 -0.30262751511E+02 -0.55047982797E+02  0.37405503130E+03  0.37929313332E+03  0.00000000000E+00 0. -1.
</event>
<event>
 8    1  0.6505836E-009  0.1246347E+03  0.7561462E-02  0.1235641E+00
          1   -1    0    0  501    0  0.00000000000E+00  0.00000000000E+00  0.57310603102E+02  0.57310603102E+02  0.00000000000E+00 0. -1.
         -1   -1    0    0    0  501 -0.00000000000E+00 -0.00000000000E+00 -0.28014939500E+03  0.28014939500E+03  0.00000000000E+00 0.  1.
         25    2    1    2    0    0 -0.54776647490E+02  0.35508347278E+02 -0.10647105513E+03  0.17676015133E+03  0.12508693650E+03 0.  0.
         23    2    1    2    0    0  0.54776647490E+02 -0.35508347278E+02 -0.11636773677E+03  0.16069984677E+03  0.89563758041E+02 0.  0.
          5    1    3    3  502    0 -0.95085317450E+02  0.19949001839E+02 -0.67026981796E+02  0.11810702332E+03  0.41800000000E+01 0. -1.
         -5    1    3    3    0  502  0.40308669960E+02  0.15559345439E+02 -0.39444073334E+02  0.58653128012E+02  0.41800000000E+01 0. -1.
        -11    1    4    4    0    0  0.37964802097E+02 -0.64649184658E+02 -0.94274758574E+02  0.12045153955E+03  0.00000000000E+00 0.  1.
         11    1    4    4    0    0  0.16811845393E+02  0.29140837380E+02 -0.22092978192E+02  0.40248307220E+02  0.00000000000E+00 0. -1.
</event>
<event>
 8    1  0.6505836E-009  0.1195215E+03  0.7561462E-02  0.1243889E+00
          2   -1    0    0  501    0  0.00000000000E+00  0.00000000000E+00  0.25350696431E+02  0.25350696431E+02  0.00000000000E+00 0. -1.
         -2   -1    0    0    0  501 -0.00000000000E+00 -0.00000000000E+00 -0.94378099868E+03  0.94378099868E+03  0.00000000000E+00 0.  1.
         25    2    1    2    0    0 -0.45388555396E+02  0.78083184004E+02 -0.69076621148E+03  0.70778692559E+03  0.12508904240E+03 0.  0.
         23    2    1    2    0    0  0.45388555396E+02 -0.78083184004E+02 -0.22766409076E+03  0.26134476952E+03  0.91175905510E+02 0.  0.
          5    1    3    3  502    0  0.65891647614E+01  0.66366434898E+02 -0.58956458814E+03  0.59333952908E+03  0.41800000000E+01 0. -1.
         -5    1    3    3    0  502 -0.51977720158E+02  0.11716749106E+02 -0.10120162334E+03  0.11444739651E+03  0.41800000000E+01 0. -1.
        -11    1    4    4    0    0 -0.21151676964E+02 -0.29877507214E+02 -0.12270348357E+03  0.12804766205E+03  0.00000000000E+00 0. -1.
         11    1    4    4    0    0  0.66540232360E+02 -0.48205676790E+02 -0.10496060720E+03  0.13329710747E+03  0.00000000000E+00 0.  1.
</event>
<event>
 8    1  0.6505836E-009  0.9734623E+02  0.7561462E-02  0.1285978E+00
          2   -1    0    0  501    0  0.00000000000E+00  0.00000000000E+00  0.30572059268E+03  0.30572059268E+03  0.00000000000E+00 0. -1.
         -2   -1    0    0    0  501 -0.00000000000E+00 -0.00000000000E+00 -0.72609925368E+02  0.72609925368E+02  0.00000000000E+00 0.  1.
         25    2    1    2    0    0 -0.75169858271E+02  0.47815461088E+02  0.19818789478E+03  0.25071626218E+03  0.12507348468E+03 0.  0.
         23    2    1    2    0    0  0.75169858271E+02 -0.47815461088E+02  0.34922772534E+02  0.12761425587E+03  0.84433241967E+02 0.  0.
          5    1    3    3  502    0 -0.43199534633E+02  0.16587520189E+02 -0.10598553958E+01  0.46475168768E+02  0.41800000000E+01 0. -1.
         -5    1    3    3    0  502 -0.31970323638E+02  0.31227940899E+02  0.19924775018E+03  0.20424109341E+03  0.41800000000E+01 0. -1.
        -11    1    4    4    0    0 -0.43785429620E+01 -0.17783670868E+02 -0.19427492166E+02  0.26699401489E+02  0.00000000000E+00 0.  1.
         11    1    4    4    0    0  0.79548401233E+02 -0.30031790219E+02  0.54350264699E+02  0.10091485438E+03  0.00000000000E+00 0. -1.
</event>
<event>
 8    1  0.6505836E-009  0.1395636E+03  0.7561462E-02  0.1213917E+00
          2   -1    0    0  501    0  0.00000000000E+00  0.00000000000E+00  0.40039046571E+03  0.40039046571E+03  0.00000000000E+00 0. -1.
         -2   -1    0    0    0  501 -0.00000000000E+00 -0.00000000000E+00 -0.57709722742E+02  0.57709722742E+02  0.00000000000E+00 0.  1.
         25    2    1    2    0    0  0.10646214397E+03  0.37799221386E+02  0.16176210242E+03  0.23361752144E+03  0.12508876572E+03 0.  0.
         23    2    1    2    0    0 -0.10646214397E+03 -0.37799221386E+02  0.18091864055E+03  0.22448266701E+03  0.69985313118E+02 0.  0.
          5    1    3    3  502    0  0.62356927026E+01 -0.28763405495E+02 -0.26461208298E+01  0.29844458692E+02  0.41800000000E+01 0. -1.
         -5    1    3    3    0  502  0.10022645127E+03  0.66562626881E+02  0.16440822325E+03  0.20377306275E+03  0.41800000000E+01 0. -1.
        -11    1    4    4    0    0 -0.68922647915E+02  0.84570274185E+01  0.70121421077E+02  0.98685695024E+02  0.00000000000E+00 0.  1.
         11    1    4    4    0    0 -0.37539496058E+02 -0.46256248805E+02  0.11079721948E+03  0.12579697199E+03  0.00000000000E+00 0. -1.
</event>
<event>
 8    1  0.6505836E-009  0.1048696E+03  0.7561462E-02  0.1270377E+00
         -1   -1    0    0    0  501 -0.00000000000E+00  0.00000000000E+00  0.86714544818E+02  0.86714544818E+02  0.00000000000E+00 0.  1.
          1   -1    0    0  501    0  0.00000000000E+00 -0.00000000000E+00 -0.18073487524E+03  0.18073487524E+03  0.00000000000E+00 0. -1.
         25    2    1    2    0    0  0.20176751628E+02  0.33137128785E+02 -0.21964441602E+00  0.13096683502E+03  0.12508834087E+03 0.  0.
         23    2    1    2    0    0 -0.20176751628E+02 -0.33137128785E+02 -0.93800686002E+02  0.13648258503E+03  0.91234624521E+02 0.  0.
          5    1    3    3  502    0  0.61690735584E+02  0.30527168361E+02 -0.34312213786E+02  0.77022433614E+02  0.41800000000E+01 0.  1.
         -5    1    3    3    0  502 -0.41513983955E+02  0.26099604237E+01  0.34092569370E+02  0.53944401410E+02  0.41800000000E+01 0.  1.
        -11    1    4    4    0    0 -0.84395917591E+01  0.31844173936E+02 -0.34978060653E+02  0.48049379286E+02  0.00000000000E+00 0. -1.
         11    1    4    4    0    0 -0.11737159869E+02 -0.64981302721E+02 -0.58822625350E+02  0.88433205744E+02  0.00000000000E+00 0.  1.
</event>
<event>
 8    1  0.6505836E-009  0.1111788E+03  0.7561462E-02  0.1258402E+00
          1   -1    0    0  501    0  0.00000000000E+00  0.00000000000E+00  0.15550227681E+03  0.15550227681E+03  0.00000000000E+00 0. -1.
         -1   -1    0    0    0  501 -0.00000000000E+00 -0.00000000000E+00 -0.86981850711E+02  0.86981850711E+02  0.00000000000E+00 0.  1.
         25    2    1    2    0    0 -0.16892971468E+01  0.34984553516E+02  0.18748610863E+02  0.13124318686E+03  0.12508593437E+03 0.  0.
         23    2    1    2    0    0  0.16892971468E+01 -0.34984553516E+02  0.49771815240E+02  0.11124094067E+03  0.93115737548E+02 0.  0.
          5    1    3    3  502    0 -0.22837822204E+01  0.78771788992E+02 -0.86967794839E+01  0.79393430305E+02  0.41800000000E+01 0.  1.
         -5    1    3    3    0  502  0.59448507359E+00 -0.43787235476E+02  0.27445390347E+02  0.51849756551E+02  0.41800000000E+01 0.  1.
        -11    1    4    4    0    0 -0.30989440937E+02 -0.53547821896E+02  0.29558256028E+02  0.68566793558E+02  0.00000000000E+00 0.  1.
         11    1    4    4    0    0  0.32678738083E+02  0.18563268380E+02  0.20213559212E+02  0.42674147111E+02  0.00000000000E+00 0. -1.
</event>
<event>
 8    1  0.6505836E-009  0.8371374E+02  0.7561462E-02  0.1318831E+00
         -1   -1    0    0    0  501 -0.00000000000E+00  0.00000000000E+00  0.23395811678E+02  0.23395811678E+02  0.00000000000E+00 0.  1.
          1   -1    0    0  501    0  0.00000000000E+00 -0.00000000000E+00 -0.73663622669E+03  0.73663622669E+03  0.00000000000E+00 0. -1.
         25    2    1    2    0    0 -0.54918622988E+02  0.17649322462E+02 -0.25821466024E+03  0.29266027326E+03  0.12509065132E+03 0.  0.
         23    2    1    2    0    0  0.54918622988E+02 -0.17649322462E+02 -0.45502575477E+03  0.46737176510E+03  0.89779594458E+02 0.  0.
          5    1    3    3  502    0 -0.37268401713E+02  0.22801587734E+01 -0.45064946595E+01  0.37840636681E+02  0.41800000000E+01 0.  1.
         -5    1    3    3    0  502 -0.17650221275E+02  0.15369163688E+02 -0.25370816558E+03  0.25481963658E+03  0.41800000000E+01 0.  1.
        -11    1    4    4    0    0 -0.18134889651E+02 -0.26903157588E+02 -0.11677828108E+03  0.12120157195E+03  0.00000000000E+00 0.  1.
         11    1    4    4    0    0  0.73053512640E+02  0.92538351260E+01 -0.33824747369E+03  0.34617019315E+03  0.00000000000E+00 0. -1.
</event>
<event>
 8    1  0.6505836E-009  0.8309229E+02  0.7561462E-02  0.1320498E+00
          2   -1    0    0  501    0  0.00000000000E+00  0.00000000000E+00  0.16382205874E+03  0.16382205874E+03  0.00000000000E+00 0.  1.
         -2   -1    0    0    0  501 -0.00000000000E+00 -0.00000000000E+00 -0.10014612250E+03  0.10014612250E+03  0.00000000000E+00 0. -1.
         25    2    1    2    0    0 -0.26405841077E+02  0.94353845564E+01  0.10004154685E+03  0.16261226106E+03  0.12509253146E+03 0.  0.
         23    2    1    2    0    0  0.26405841077E+02 -0.94353845564E+01 -0.36365610603E+02  0.10135592018E+03  0.90356350055E+02 0.  0.
          5    1    3    3  502    0 -0.23428619147E+01  0.35699336815E+02  0.11737564486E+03  0.12277803573E+03  0.41800000000E+01 0. -1.
         -5    1    3    3    0  502 -0.24062979162E+02 -0.26263952259E+02 -0.17334098011E+02  0.39834225338E+02  0.41800000000E+01 0. -1.
        -11    1    4    4    0    0  0.54110857947E+02 -0.28023827995E+02 -0.27369091956E+02  0.66801100872E+02  0.00000000000E+00 0.  1.
         11    1    4    4    0    0 -0.27705016871E+02  0.18588443438E+02 -0.89965186478E+01  0.34554819303E+02  0.00000000000E+00 0. -1.
</event>
<event>
 8    1  0.6505836E-009  0.1413179E+03  0.7561462E-02  0.1211567E+00
          1   -1    0    0  501    0  0.00000000000E+00  0.00000000000E+00  0.26931937312E+03  0.26931937312E+03  0.00000000000E+00 0. -1.
         -1   -1    0    0    0  501 -0.00000000000E+00 -0.00000000000E+00 -0.16406144255E+03  0.16406144255E+03  0.00000000000E+00 0.  1.
         25    2    1    2    0    0  0.63557305332E+02 -0.11316166379E+03 -0.74137207204E+02  0.19491199037E+03  0.12509702349E+03 0.  0.
         23    2    1    2    0    0 -0.63557305332E+02  0.11316166379E+03  0.17939513777E+03  0.23846882530E+03  0.88541922101E+02 0.  0.
          5    1    3    3  502    0  0.38180607292E+02 -0.15134152098E+02  0.28895014477E+02  0.50390431578E+02  0.41800000000E+01 0.  1.
         -5    1    3    3    0  502  0.25376698039E+02 -0.98027511694E+02 -0.10303222168E+03  0.14452155880E+03  0.41800000000E+01 0.  1.
        -11    1    4    4    0    0 -0.62416533286E+02  0.59174182972E+02  0.15895134693E+03  0.18072890817E+03  0.00000000000E+00 0. -1.
         11    1    4    4    0    0 -0.11407720453E+01  0.53987480820E+02  0.20443790848E+02  0.57739917132E+02  0.00000000000E+00 0.  1.
</event>
<event>
 8    1  0.6505836E-009  0.1389973E+03  0.7561462E-02  0.1214685E+00
          2   -1    0    0  501    0  0.00000000000E+00  0.00000000000E+00  0.86148609644E+03  0.86148609644E+03  0.00000000000E+00 0. -1.
         -2   -1    0    0    0  501 -0.00000000000E+00 -0.00000000000E+00 -0.30523842496E+02  0.30523842496E+02  0.00000000000E+00 0.  1.
         25    2    1    2    0    0 -0.66436602292E+02 -0.93468610259E+02  0.54101821483E+03  0.56700835546E+03  0.12509022008E+03 0.  0.
         23    2    1    2    0    0  0.66436602292E+02  0.93468610259E+02  0.28994403911E+03  0.32500158347E+03  0.91696675049E+02 0.  0.
          5    1    3    3  502    0 -0.79145022445E+02 -0.60269560177E+02  0.19314814829E+03  0.21730171203E+03  0.41800000000E+01 0.  1.
         -5    1    3    3    0  502  0.12708420153E+02 -0.33199050082E+02  0.34787006653E+03  0.34970664343E+03  0.41800000000E+01 0.  1.
        -11    1    4    4    0    0  0.41661535041E+02 -0.41987582200E+01  0.53161753863E+02  0.67671893326E+02  0.00000000000E+00 0.  1.
         11    1    4    4    0    0  0.24775067251E+02  0.97667368479E+02  0.23678228525E+03  0.25732969015E+03  0.00000000000E+00 0. -1.
</event>
<event>
 8    1  0.6505836E-009  0.1341778E+03  0.7561462E-02  0.1221385E+00
          1   -1    0    0  501    0  0.00000000000E+00  0.00000000000E+00  0.43195745061E+02  0.43195745061E+02  0.00000000000E+00 0. -1.
         -1   -1    0    0    0  501 -0.00000000000E+00 -0.00000000000E+00 -0.57211053342E+03  0.57211053342E+03  0.00000000000E+00 0.  1.
         25    2    1    2    0    0 -0.54967112162E+02  0.86717314180E+02 -0.36795472110E+03  0.40196965782E+03  0.12509057929E+03 0.  0.
         23    2    1    2    0    0  0.54967112162E+02 -0.86717314180E+02 -0.16096006725E+03  0.21333662066E+03  0.95200286064E+02 0.  0.
          5    1    3    3  502    0 -0.28800734230E+02 -0.19240061029E+02 -0.18995640144E+03  0.19313355247E+03  0.41800000000E+01 0.  1.
         -5    1    3    3    0  502 -0.26166377932E+02  0.10595737521E+03 -0.17799831966E+03  0.20883610535E+03  0.41800000000E+01 0.  1.
        -11    1    4    4    0    0 -0.66874955193E+00 -0.64238854371E+02 -0.33486294759E+02  0.72445907914E+02  0.00000000000E+00 0. -1.
         11    1    4    4    0    0  0.55635861714E+02 -0.22478459809E+02 -0.12747377250E+03  0.14089071275E+03  0.00000000000E+00 0.  1.
</event>
<event>
 8    1  0.6505836E-009  0.1641795E+03  0.7561462E-02  0.1184057E+00
         -4   -1    0    0    0  501 -0.00000000000E+00  0.00000000000E+00  0.42990160323E+02  0.42990160323E+02  0.00000000000E+00 0.  1.
          4   -1    0    0  501    0  0.00000000000E+00 -0.00000000000E+00 -0.72978558086E+03  0.72978558086E+03  0.00000000000E+00 0. -1.
         25    2    1    2    0    0  0.80710875248E+02 -0.10832789914E+03 -0.43972111461E+03  0.47671010378E+03  0.12509470530E+03 0.  0.
         23    2    1    2    0    0 -0.80710875248E+02  0.10832789914E+03 -0.24707430593E+03  0.29606563740E+03  0.91432870927E+02 0.  0.
          5    1    3    3  502    0  0.70871044062E+02 -0.12597547042E+03 -0.27499137311E+03  0.31069317939E+03  0.41800000000E+01 0. -1.
         -5    1    3    3    0  502  0.98398311853E+01  0.17647571274E+02 -0.16472974150E+03  0.16601692439E+03  0.41800000000E+01 0. -1.
        -11    1    4    4    0    0 -0.63656362621E+02  0.11354407269E+02 -0.97666015145E+02  0.11713114693E+03  0.00000000000E+00 0.  1.
         11    1    4    4    0    0 -0.17054512627E+02  0.96973491874E+02 -0.14940829078E+03  0.17893449048E+03  0.00000000000E+00 0. -1.
</event>
<event>
 8    1  0.6505836E-009  0.3815717E+02  0.7561462E-02  0.1522228E+00
          2   -1    0    0  501    0  0.00000000000E+00  0.00000000000E+00  0.78737501291E+02  0.78737501291E+02  0.00000000000E+00 0. -1.
         -2   -1    0    0    0  501 -0.00000000000E+00 -0.00000000000E+00 -0.15268020334E+03  0.15268020334E+03  0.00000000000E+00 0.  1.
         25    2    1    2    0    0  0.37670760827E+01  0.32491503656E+01 -0.36486893018E+02  0.13039852742E+03  0.12509090595E+03 0.  0.
         23    2    1    2    0    0 -0.37670760827E+01 -0.32491503656E+01 -0.37455809034E+02  0.10101917722E+03  0.93686651635E+02 0.  0.
          5    1    3    3  502    0  0.22839369010E+02  0.13632457254E+01 -0.79655744410E+02  0.82981957275E+02  0.41800000000E+01 0.  1.
         -5    1    3    3    0  502 -0.19072292927E+02  0.18859046402E+01  0.43168851392E+02  0.47416570145E+02  0.41800000000E+01 0.  1.
        -11    1    4    4    0    0  0.75068192757E+01  0.12193947756E+02  0.28744074572E+02  0.32113338670E+02  0.00000000000E+00 0. -1.
         11    1    4    4    0    0 -0.11273895358E+02 -0.15443098121E+02 -0.66199883607E+02  0.68905838546E+02  0.00000000000E+00 0.  1.
</event>
<event>
 8    1  0.6505836E-009  0.1592069E+03  0.7561462E-02  0.1189595E+00
          2   -1    0    0  501    0  0.00000000000E+00  0.00000000000E+00  0.65513529151E+02  0.65513529151E+02  0.00000000000E+00 0. -1.
         -2   -1    0    0    0  501 -0.00000000000E+00 -0.00000000000E+00 -0.90459296579E+03  0.90459296579E+03  0.00000000000E+00 0.  1.
         25    2    1    2    0    0  0.81364222705E+02 -0.12809749314E+03 -0.74419542725E+03  0.76974483120E+03  0.12510462318E+03 0.  0.
         23    2    1    2    0    0 -0.81364222705E+02  0.12809749314E+03 -0.94884009393E+02  0.20036166374E+03  0.90070619917E+02 0.  0.
          5    1    3    3  502    0  0.54458171588E+02 -0.85391678613E+02 -0.68220618205E+03  0.68969571440E+03  0.41800000000E+01 0.  1.
         -5    1    3    3    0  502  0.26906051117E+02 -0.42705814530E+02 -0.61989245196E+02  0.80049116805E+02  0.41800000000E+01 0.  1.
        -11    1    4    4    0    0  0.10953032194E+02  0.38479295790E+01 -0.30643868438E+02  0.32769225641E+02  0.00000000000E+00 0.  1.
         11    1    4    4    0    0 -0.92317254899E+02  0.12424956356E+03 -0.64240140956E+02  0.16759243810E+03  0.00000000000E+00 0. -1.
</event>
<event>
 8    1  0.6505836E-009  0.1622993E+03  0.7561462E-02  0.1186125E+00
          1   -1    0    0  501    0  0.00000000000E+00  0.00000000000E+00  0.41239003656E+03  0.41239003656E+03  0.00000000000E+00 0. -1.
         -1   -1    0    0    0  501 -0.00000000000E+00 -0.00000000000E+00 -0.87453146376E+02  0.87453146376E+02  0.00000000000E+00 0.  1.
         25    2    1    2    0    0 -0.48304852583E+02 -0.13208872562E+03  0.25825599423E+03  0.31956914057E+03  0.12508991498E+03 0.  0.
         23    2    1    2    0    0  0.48304852583E+02  0.13208872562E+03  0.66680895959E+02  0.18027404237E+03  0.90948327339E+02 0.  0.
          5    1    3    3  502    0  0.11246258183E+02 -0.11845912591E+03  0.12347403538E+03  0.17152945126E+03  0.41800000000E+01 0. -1.
         -5    1    3    3    0  502 -0.59551110767E+02 -0.13629599711E+02  0.13478195884E+03  0.14803968931E+03  0.41800000000E+01 0. -1.
        -11    1    4    4    0    0  0.35160845983E+02  0.49763556571E+02 -0.15854981081E+02  0.62960917067E+02  0.00000000000E+00 0. -1.
         11    1    4    4    0    0  0.13144006601E+02  0.82325169053E+02  0.82535877040E+02  0.11731312530E+03  0.00000000000E+00 0.  1.
</event>
<event>
 8    1  0.6505836E-009  0.8980445E+02  0.7561462E-02  0.1303326E+00
          1   -1    0    0  501    0  0.00000000000E+00  0.00000000000E+00  0.86240261612E+03  0.86240261612E+03  0.00000000000E+00 0. -1.
         -1   -1    0    0    0  501 -0.00000000000E+00 -0.00000000000E+00 -0.19517740097E+02  0.19517740097E+02  0.00000000000E+00 0.  1.
         25    2    1    2    0    0 -0.17595606129E+02  0.36630294251E+02  0.66312562007E+03  0.67604361333E+03  0.12509194747E+03 0.  0.
         23    2    1    2    0    0  0.17595606129E+02 -0.36630294251E+02  0.17975925595E+03  0.20587674289E+03  0.91763060914E+02 0.  0.
          5    1    3    3  502    0 -0.34062279657E+02 -0.19692977927E+02  0.51712008080E+03  0.51863156734E+03  0.41800000000E+01 0. -1.
         -5    1    3    3    0  502  0.16466673528E+02  0.56323272178E+02  0.14600553926E+03  0.15741204599E+03  0.41800000000E+01 0. -1.
        -11    1    4    4    0    0  0.44958840510E+02 -0.20133395687E+02  0.42854295038E+02  0.65292737460E+02  0.00000000000E+00 0.  1.
         11    1    4    4    0    0 -0.27363234381E+02 -0.16496898564E+02  0.13690496092E+03  0.14058400543E+03  0.00000000000E+00 0. -1.
</event>
<event>
 8    1  0.6505836E-009  0.1182607E+03  0.7561462E-02  0.1245994E+00
         -2   -1    0    0    0  501 -0.00000000000E+00  0.00000000000E+00  0.51454282611E+02  0.51454282611E+02  0.00000000000E+00 0.  1.
          2   -1    0    0  501    0  0.00000000000E+00 -0.00000000000E+00 -0.32894144817E+03  0.32894144817E+03  0.00000000000E+00 0. -1.
         25    2    1    2    0    0 -0.16534504879E+00  0.58682321287E+02 -0.21381237032E+03  0.25457154887E+03  0.12508917468E+03 0.  0.
         23    2    1    2    0    0  0.16534504879E+00 -0.58682321287E+02 -0.63674795238E+02  0.12582418191E+03  0.91288570116E+02 0.  0.
          5    1    3    3  502    0  0.10749039213E+02 -0.38549231857E+02 -0.62708435820E+02  0.74507754253E+02  0.41800000000E+01 0.  1.
         -5    1    3    3    0  502 -0.10914384262E+02  0.97231553144E+02 -0.15110393450E+03  0.18006379461E+03  0.41800000000E+01 0.  1.
        -11    1    4    4    0    0 -0.18294993035E+02  0.14205961672E+02  0.53315547073E+01  0.23768500011E+02  0.00000000000E+00 0.  1.
         11    1    4    4    0    0  0.18460338084E+02 -0.72888282959E+02 -0.69006349945E+02  0.10205568190E+03  0.00000000000E+00 0. -1.
</event>
<event>
 8    1  0.6505836E-009  0.1398945E+03  0.7561462E-02  0.1213471E+00
         -2   -1    0    0    0  501 -0.00000000000E+00  0.00000000000E+00  0.27768844245E+02  0.27768844245E+02  0.00000000000E+00 0.  1.
          2   -1    0    0  501    0  0.00000000000E+00 -0.00000000000E+00 -0.10518425968E+04  0.10518425968E+04  0.00000000000E+00 0. -1.
         25    2    1    2    0    0 -0.10852284296E+03 -0.73473510390E+02 -0.50458427672E+03  0.53612117834E+03  0.12508021977E+03 0.  0.
         23    2    1    2    0    0  0.10852284296E+03  0.73473510390E+02 -0.51948947580E+03  0.54349026267E+03  0.91306001872E+02 0.  0.
          5    1    3    3  502    0 -0.78141959897E+02 -0.62285286769E+02 -0.15153110289E+03  0.18156202904E+03  0.41800000000E+01 0. -1.
         -5    1    3    3    0  502 -0.30380883066E+02 -0.11188223621E+02 -0.35305317383E+03  0.35455914930E+03  0.41800000000E+01 0. -1.
        -11    1    4    4    0    0  0.51679751813E+02 -0.30894109621E+01 -0.29621615531E+03  0.30070642140E+03  0.00000000000E+00 0.  1.
         11    1    4    4    0    0  0.56843091149E+02  0.76562921352E+02 -0.22327332049E+03  0.24278384127E+03  0.00000000000E+00 0. -1.
</event>
<event>
 8    1  0.6505836E-009  0.1435640E+03  0.7561462E-02  0.1208612E+00
          2   -1    0    0  501    0  0.00000000000E+00  0.00000000000E+00  0.14710695028E+04  0.14710695028E+04  0.00000000000E+00 0. -1.
         -2   -1    0    0    0  501 -0.00000000000E+00 -0.00000000000E+00 -0.14159594703E+02  0.14159594703E+02  0.00000000000E+00 0.  1.
         25    2    1    2    0    0 -0.89188742564E+02  0.32475582724E+02  0.78049309607E+03  0.79613136138E+03  0.12508547593E+03 0.  0.
         23    2    1    2    0    0  0.89188742564E+02 -0.32475582724E+02  0.67641681206E+03  0.68909773616E+03  0.91141050364E+02 0.  0.
          5    1    3    3  502    0 -0.82275365091E+02 -0.34675082480E+02  0.44736054228E+03  0.45620228434E+03  0.41800000000E+01 0.  1.
         -5    1    3    3    0  502 -0.69133774731E+01  0.67150665204E+02  0.33313255379E+03  0.33992907705E+03  0.41800000000E+01 0.  1.
        -11    1    4    4    0    0  0.53138331432E+02  0.27729449851E+02  0.26084759792E+03  0.26764542588E+03  0.00000000000E+00 0.  1.
         11    1    4    4    0    0  0.36050411132E+02 -0.60205032575E+02  0.41556921414E+03  0.42145231027E+03  0.00000000000E+00 0. -1.
</event>
<event>
 8    1  0.6505836E-009  0.6750449E+02  0.7561462E-02  0.1368791E+00
         -1   -1    0    0    0  501 -0.00000000000E+00  0.00000000000E+00  0.14424133277E+03  0.14424133277E+03  0.00000000000E+00 0.  1.
          1   -1    0    0  501    0  0.00000000000E+00 -0.00000000000E+00 -0.15198644306E+03  0.15198644306E+03  0.00000000000E+00 0. -1.
         25    2    1    2    0    0  0.74540497957E+01 -0.16728807445E+02 -0.10399329504E+03  0.16369544603E+03  0.12508468244E+03 0.  0.
         23    2    1    2    0    0 -0.74540497957E+01  0.16728807445E+02  0.96248184749E+02  0.13253232980E+03  0.89250711583E+02 0.  0.
          5    1    3    3  502    0  0.15408855366E+02 -0.26906654744E+02  0.21183954457E+02  0.37784033925E+02  0.41800000000E+01 0. -1.
         -5    1    3    3    0  502 -0.79548055705E+01  0.10177847300E+02 -0.12517724950E+03  0.12591141211E+03  0.41800000000E+01 0. -1.
        -11    1    4    4    0    0  0.39080871783E+01  0.52483203422E+02  0.65510281274E+02  0.84031879304E+02  0.00000000000E+00 0. -1.
         11    1    4    4    0    0 -0.11362136974E+02 -0.35754395977E+02  0.30737903476E+02  0.48500450497E+02  0.00000000000E+00 0.  1.
</event>
<event>
 8    1  0.6505836E-009  0.1069144E+03  0.7561462E-02  0.1266393E+00
          1   -1    0    0  501    0  0.00000000000E+00  0.00000000000E+00  0.79655481786E+03  0.79655481786E+03  0.00000000000E+00 0. -1.
         -1   -1    0    0    0  501 -0.00000000000E+00 -0.00000000000E+00 -0.18567082550E+02  0.18567082550E+02  0.00000000000E+00 0.  1.
         25    2    1    2    0    0 -0.29771916658E+02  0.45972109652E+02  0.40740828364E+03  0.42968441280E+03  0.12508950052E+03 0.  0.
         23    2    1    2    0    0  0.29771916658E+02 -0.45972109652E+02  0.37057945167E+03  0.38543748761E+03  0.90736569068E+02 0.  0.
          5    1    3    3  502    0 -0.29684874543E+02  0.78193213682E+02  0.16426255332E+03  0.18437740986E+03  0.41800000000E+01 0. -1.
         -5    1    3    3    0  502 -0.87042114850E-01 -0.32221104030E+02  0.24314573031E+03  0.24530700294E+03  0.41800000000E+01 0. -1.
        -11    1    4    4    0    0 -0.26624352836E+02 -0.27435381609E+02  0.22490993177E+03  0.22813599833E+03  0.00000000000E+00 0. -1.
         11    1    4    4    0    0  0.56396269494E+02 -0.18536728043E+02  0.14566951991E+03  0.15730148928E+03  0.00000000000E+00 0.  1.
</event>
<event>
 8    1  0.6505836E-009  0.1520215E+03  0.7561462E-02  0.1198011E+00
         -1   -1    0    0    0  501 -0.00000000000E+00  0.00000000000E+00  0.12719686584E+03  0.12719686584E+03  0.00000000000E+00 0.  1.
          1   -1    0    0  501    0  0.00000000000E+00 -0.00000000000E+00 -0.22973079997E+03  0.22973079997E+03  0.00000000000E+00 0. -1.
         25    2    1    2    0    0 -0.76231354744E+02  0.85751558391E+02 -0.12123686323E+03  0.20859177563E+03  0.12509037790E+03 0.  0.
         23    2    1    2    0    0  0.76231354744E+02 -0.85751558391E+02  0.18702929101E+02  0.14833589018E+03  0.92136787142E+02 0.  0.
          5    1    3    3  502    0 -0.64473830649E+02 -0.15554891656E+02 -0.35815163697E+02  0.75491905815E+02  0.41800000000E+01 0. -1.
         -5    1    3    3    0  502 -0.11757524095E+02  0.10130645005E+03 -0.85421699534E+02  0.13309986982E+03  0.41800000000E+01 0. -1.
        -11    1    4    4    0    0  0.41160928906E+02 -0.91168376639E+02  0.39106385808E+02  0.10740206878E+03  0.00000000000E+00 0.  1.
         11    1    4    4    0    0  0.35070425838E+02  0.54168182483E+01 -0.20403456708E+02  0.40933821395E+02  0.00000000000E+00 0. -1.
</event>
<event>
 8    1  0.6505836E-009  0.1463150E+03  0.7561462E-02  0.1205076E+00
          2   -1    0    0  501    0  0.00000000000E+00  0.00000000000E+00  0.12287907631E+03  0.12287907631E+03  0.00000000000E+00 0. -1.
         -2   -1    0    0    0  501 -0.00000000000E+00 -0.00000000000E+00 -0.42068537949E+03  0.42068537949E+03  0.00000000000E+00 0.  1.
         25    2    1    2    0    0  0.96285612560E+02  0.10298592819E+03  0.15043009676E+02  0.18908789311E+03  0.12510363140E+03 0.  0.
         23    2    1    2    0    0 -0.96285612560E+02 -0.10298592819E+03 -0.31284931285E+03  0.35447656270E+03  0.88892746373E+02 0.  0.
          5    1    3    3  502    0  0.54617134489E+02  0.69726244720E+02 -0.52415504009E+02  0.10300309725E+03  0.41800000000E+01 0.  1.
         -5    1    3    3    0  502  0.41668478071E+02  0.33259683467E+02  0.67458513686E+02  0.86084795857E+02  0.41800000000E+01 0. -1.
        -11    1    4    4    0    0 -0.28711715002E+02 -0.17493660667E+01 -0.14090505131E+03  0.14381118297E+03  0.00000000000E+00 0.  1.
         11    1    4    4    0    0 -0.67573897558E+02 -0.10123656212E+03 -0.17194426154E+03  0.21066537973E+03  0.00000000000E+00 0. -1.
</event>
<event>
 8    1  0.6505836E-009  0.1086571E+03  0.7561462E-02  0.1263077E+00
          1   -1    0    0  501    0  0.00000000000E+00  0.00000000000E+00  0.38949597701E+03  0.38949597701E+03  0.00000000000E+00 0. -1.
         -1   -1    0    0    0  501 -0.00000000000E+00 -0.00000000000E+00 -0.42601194679E+02  0.42601194679E+02  0.00000000000E+00 0.  1.
         25    2    1    2    0    0 -0.34872149476E+02  0.57099206370E+02  0.16584344681E+03  0.21823915529E+03  0.12509154198E+03 0.  0.
         23    2    1    2    0    0  0.34872149476E+02 -0.57099206370E+02  0.18105133552E+03  0.21385801640E+03  0.92083000102E+02 0.  0.
          5    1    3    3  502    0  0.25068503687E+02  0.51732673630E+02  0.14221525565E+03  0.15345146053E+03  0.41800000000E+01 0. -1.
         -5    1    3    3    0  502 -0.59940653162E+02  0.53665327392E+01  0.23628191162E+02  0.64787694763E+02  0.41800000000E+01 0. -1.
        -11    1    4    4    0    0 -0.22083803254E+02 -0.61303287857E+01  0.73238484335E+01  0.24060632849E+02  0.00000000000E+00 0.  1.
         11    1    4    4    0    0  0.56955952730E+02 -0.50968877584E+02  0.17372748709E+03  0.18979738355E+03  0.00000000000E+00 0. -1.
</event>
<event>
 8    1  0.6505836E-009  0.8224389E+02  0.7561462E-02  0.1322802E+00
          1   -1    0    0  501    0  0.00000000000E+00  0.00000000000E+00  0.12045029137E+03  0.12045029137E+03  0.00000000000E+00 0. -1.
         -1   -1    0    0    0  501 -0.00000000000E+00 -0.00000000000E+00 -0.96182268509E+02  0.96182268509E+02  0.00000000000E+00 0.  1.
         25    2    1    2    0    0  0.42911035353E+01  0.10784225729E+02  0.27852057206E+02  0.12867345502E+03  0.12508560206E+03 0.  0.
         23    2    1    2    0    0 -0.42911035353E+01 -0.10784225729E+02 -0.35840343461E+01  0.87959104858E+02  0.87116277073E+02 0.  0.
          5    1    3    3  502    0 -0.29483671778E+02  0.58408775138E+02  0.47119672665E+01  0.65730867560E+02  0.41800000000E+01 0. -1.
         -5    1    3    3    0  502  0.33774775313E+02 -0.47624549409E+02  0.23140089939E+02  0.62942587461E+02  0.41800000000E+01 0. -1.
        -11    1    4    4    0    0  0.98573968724E+01 -0.20826310083E+02 -0.40823024603E+02  0.46876676530E+02  0.00000000000E+00 0.  1.
         11    1    4    4    0    0 -0.14148500408E+02  0.10042084354E+02  0.37238990257E+02  0.41082428328E+02  0.00000000000E+00 0. -1.
</event>
<event>
 8    1  0.6505836E-009  0.1263819E+03  0.7561462E-02  0.1232925E+00
          1   -1    0    0  501    0  0.00000000000E+00  0.00000000000E+00  0.10640380684E+04  0.10640380684E+04  0.00000000000E+00 0. -1.
         -1   -1    0    0    0  501 -0.00000000000E+00 -0.00000000000E+00 -0.18858760573E+02  0.18858760573E+02  0.00000000000E+00 0.  1.
         25    2    1    2    0    0  0.87079870930E+02  0.85671670169E+01  0.66294005411E+03  0.68028763894E+03  0.12508179753E+03 0.  0.
         23    2    1    2    0    0 -0.87079870930E+02 -0.85671670169E+01  0.38223925368E+03  0.40260919000E+03  0.91274380562E+02 0.  0.
          5    1    3    3  502    0 -0.66302601217E+00 -0.32167395820E+02  0.37709275892E+03  0.37848593393E+03  0.41800000000E+01 0. -1.
         -5    1    3    3    0  502  0.87742896942E+02  0.40734562837E+02  0.28584729519E+03  0.30180170500E+03  0.41800000000E+01 0. -1.
        -11    1    4    4    0    0  0.18018782841E+02  0.28197588319E+00  0.30799767336E+02  0.35684474403E+02  0.00000000000E+00 0.  1.
         11    1    4    4    0    0 -0.10509865377E+03 -0.88491429001E+01  0.35143948634E+03  0.36692471559E+03  0.00000000000E+00 0. -1.
</event>
<event>
 8    1  0.6505836E-009  0.1380294E+03  0.7561462E-02  0.1216005E+00
          2   -1    0    0  501    0  0.00000000000E+00  0.00000000000E+00  0.53969713307E+03  0.53969713307E+03  0.00000000000E+00 0. -1.
         -2   -1    0    0    0  501 -0.00000000000E+00 -0.00000000000E+00 -0.77091202166E+02  0.77091202166E+02  0.00000000000E+00 0.  1.
         25    2    1    2    0    0  0.34124235339E+02  0.11578107552E+03  0.55651212984E+02  0.18252142759E+03  0.12508914076E+03 0.  0.
         23    2    1    2    0    0 -0.34124235339E+02 -0.11578107552E+03  0.40695471792E+03  0.43426690764E+03  0.91683606778E+02 0.  0.
          5    1    3    3  502    0  0.20273294720E+02 -0.13314060403E+02 -0.20422965194E+02  0.31981879096E+02  0.41800000000E+01 0. -1.
         -5    1    3    3    0  502  0.13850940619E+02  0.12909513592E+03  0.76074178178E+02  0.15053954849E+03  0.41800000000E+01 0. -1.
        -11    1    4    4    0    0 -0.76937943335E+01 -0.10633144515E+02  0.74410341745E-02  0.13124720526E+02  0.00000000000E+00 0.  1.
         11    1    4    4    0    0 -0.26430441006E+02 -0.10514793101E+03  0.40694727688E+03  0.42114218712E+03  0.00000000000E+00 0. -1.
</event>
<event>
 8    1  0.6505836E-009  0.1168730E+03  0.7561462E-02  0.1248347E+00
          2   -1    0    0  501    0  0.00000000000E+00  0.00000000000E+00  0.82242813432E+02  0.82242813432E+02  0.00000000000E+00 0. -1.
         -2   -1    0    0    0  501 -0.00000000000E+00 -0.00000000000E+00 -0.21867315985E+03  0.21867315985E+03  0.00000000000E+00 0.  1.
         25    2    1    2    0    0 -0.35479171170E+01  0.60068725851E+02 -0.13154195582E+03  0.19123851964E+03  0.12509214888E+03 0.  0.
         23    2    1    2    0    0  0.35479171170E+01 -0.60068725851E+02 -0.48883905924E+01  0.10967745364E+03  0.91566412687E+02 0.  0.
          5    1    3    3  502    0 -0.26587616066E+02  0.92112088389E+02 -0.73279063064E+02  0.12074283266E+03  0.41800000000E+01 0.  1.
         -5    1    3    3    0  502  0.23039698949E+02 -0.32043362538E+02 -0.58262892758E+02  0.70495686981E+02  0.41800000000E+01 0.  1.
        -11    1    4    4    0    0 -0.30328006828E+02 -0.14142282045E+01 -0.24662789998E+02  0.39115741716E+02  0.00000000000E+00 0.  1.
         11    1    4    4    0    0  0.33875923945E+02 -0.58654497647E+02  0.19774399405E+02  0.70561711920E+02  0.00000000000E+00 0. -1.
</event>
<event>
 8    1  0.6505836E-009  0.1892926E+03  0.7561462E-02  0.1159101E+00
          1   -1    0    0  501    0  0.00000000000E+00  0.00000000000E+00  0.34427318183E+02  0.34427318183E+02  0.00000000000E+00 0. -1.
         -1   -1    0    0    0  501 -0.00000000000E+00 -0.00000000000E+00 -0.11448058420E+04  0.11448058420E+04  0.00000000000E+00 0.  1.
         25    2    1    2    0    0 -0.15030355474E+03 -0.48263415004E+02 -0.73038093563E+03  0.75764364749E+03  0.12508824742E+03 0.  0.
         23    2    1    2    0    0  0.15030355474E+03  0.48263415004E+02 -0.37999758820E+03  0.42158951271E+03  0.91755296274E+02 0.  0.
          5    1    3    3  502    0 -0.41912598792E+02 -0.78254381688E+02 -0.32421079070E+03  0.33617037853E+03  0.41800000000E+01 0.  1.
         -5    1    3    3    0  502 -0.10839095595E+03  0.29990966683E+02 -0.40617014493E+03  0.42147326896E+03  0.41800000000E+01 0.  1.
        -11    1    4    4    0    0  0.16942910572E+02  0.40136335025E+02 -0.14342141615E+03  0.14989226204E+03  0.00000000000E+00 0.  1.
         11    1    4    4    0    0  0.13336064417E+03  0.81270799795E+01 -0.23657617205E+03  0.27169725067E+03  0.00000000000E+00 0. -1.
</event>
<event>
 8    1  0.6505836E-009  0.8657135E+02  0.7561462E-02  0.1311374E+00
         -1   -1    0    0    0  501 -0.00000000000E+00  0.00000000000E+00  0.76361061203E+03  0.76361061203E+03  0.00000000000E+00 0.  1.
          1   -1    0    0  501    0  0.00000000000E+00 -0.00000000000E+00 -0.45277241527E+02  0.45277241527E+02  0.00000000000E+00 0. -1.
         25    2    1    2    0    0 -0.47564082454E+02  0.28431799790E+02  0.67812447818E+03  0.69178847297E+03  0.12509106385E+03 0.  0.
         23    2    1    2    0    0  0.47564082454E+02 -0.28431799790E+02  0.40208892331E+02  0.11709938059E+03  0.94998951219E+02 0.  0.
          5    1    3    3  502    0 -0.40242067373E+02 -0.11854139491E+02  0.61492299008E+03  0.61636653116E+03  0.41800000000E+01 0. -1.
         -5    1    3    3    0  502 -0.73220150812E+01  0.40285939281E+02  0.63201488097E+02  0.75421941809E+02  0.41800000000E+01 0. -1.
        -11    1    4    4    0    0  0.17857140161E+02 -0.50013437424E+02  0.55957570352E+02  0.77145777962E+02  0.00000000000E+00 0.  1.
         11    1    4    4    0    0  0.29706942293E+02  0.21581637634E+02 -0.15748678021E+02  0.39953602626E+02  0.00000000000E+00 0. -1.
</event>
<event>
 8    1  0.6505836E-009  0.1037965E+03  0.7561462E-02  0.1272509E+00
          3   -1    0    0  501    0  0.00000000000E+00  0.00000000000E+00  0.38867291275E+03  0.38867291275E+03  0.00000000000E+00 0. -1.
         -3   -1    0    0    0  501 -0.00000000000E+00 -0.00000000000E+00 -0.49328148870E+02  0.49328148870E+02  0.00000000000E+00 0.  1.
         25    2    1    2    0    0  0.13791533666E+01 -0.61912105995E-01  0.31483895237E+03  0.33879750868E+03  0.12513304944E+03 0.  0.
         23    2    1    2    0    0 -0.13791533666E+01  0.61912105995E-01  0.24505811506E+02  0.99203552935E+02  0.96119218787E+02 0.  0.
          5    1    3    3  502    0  0.53948611770E+02  0.15896822210E+02  0.23579580501E+03  0.24244648013E+03  0.41800000000E+01 0.  1.
         -5    1    3    3    0  502 -0.52569458403E+02 -0.15958734316E+02  0.79043147359E+02  0.96351028548E+02  0.41800000000E+01 0.  1.
        -11    1    4    4    0    0 -0.48043963606E+02 -0.81105548026E+01  0.13671013368E+02  0.50605337116E+02  0.00000000000E+00 0.  1.
         11    1    4    4    0    0  0.46664810239E+02  0.81724669086E+01  0.10834798139E+02  0.48598215819E+02  0.00000000000E+00 0. -1.
</event>
<event>
 8    1  0.6505836E-009  0.1108441E+03  0.7561462E-02  0.1259015E+00
         -1   -1    0    0    0  501 -0.00000000000E+00  0.00000000000E+00  0.58279959239E+02  0.58279959239E+02  0.00000000000E+00 0.  1.
          1   -1    0    0  501    0  0.00000000000E+00 -0.00000000000E+00 -0.31572473758E+03  0.31572473758E+03  0.00000000000E+00 0. -1.
         25    2    1    2    0    0  0.14636894418E+02  0.76889627254E+02 -0.11063970570E+03  0.18441397066E+03  0.12506444196E+03 0.  0.
         23    2    1    2    0    0 -0.14636894418E+02 -0.76889627254E+02 -0.14680507264E+03  0.18959072615E+03  0.90921178127E+02 0.  0.
          5    1    3    3  502    0 -0.40725107271E+02  0.42847911358E+01 -0.33716309161E+00  0.41164060493E+02  0.41800000000E+01 0.  1.
         -5    1    3    3    0  502  0.55362001689E+02  0.72604836119E+02 -0.11030254261E+03  0.14324991017E+03  0.41800000000E+01 0.  1.
        -11    1    4    4    0    0 -0.25818234162E+02 -0.24625512833E+02 -0.25698856366E+01  0.35771516737E+02  0.00000000000E+00 0.  1.
         11    1    4    4    0    0  0.11181339743E+02 -0.52264114422E+02 -0.14423518700E+03  0.15381920941E+03  0.00000000000E+00 0. -1.
</event>
<event>
 7    1  0.6505836E-009  0.1121030E+03  0.7561462E-02  0.1256724E+00
          2   -1    0    0  501    0  0.00000000000E+00  0.00000000000E+00  0.76517491674E+03  0.76517491674E+03  0.00000000000E+00 0. -1.
         -2   -1    0    0    0  501 -0.00000000000E+00 -0.00000000000E+00 -0.20346527319E+02  0.20346527319E+02  0.00000000000E+00 0.  1.
         23    2    1    2    0    0  0.42218508130E+02 -0.41751895996E+02  0.28185032240E+03  0.30222142440E+03  0.91501704274E+02 0.  0.
          5    1    1    2  502    0  0.39275740122E+02  0.32584024862E+01  0.73458342204E+02  0.83467367206E+02  0.41800000000E+01 0.  1.
         -5    1    1    2    0  502 -0.81494248253E+02  0.38493493509E+02  0.38951972482E+03  0.39983265245E+03  0.41800000000E+01 0.  1.
        -11    1    3    3    0    0  0.59141613938E+02 -0.12338474832E+02  0.24408091045E+03  0.25144673254E+03  0.00000000000E+00 0. -1.
         11    1    3    3    0    0 -0.16923105808E+02 -0.29413421163E+02  0.37769411949E+02  0.50774691862E+02  0.00000000000E+00 0.  1.
</event>
<event>
 8    1  0.6505836E-009  0.1988149E+03  0.7561462E-02  0.1150743E+00
          4   -1    0    0  501    0  0.00000000000E+00  0.00000000000E+00  0.10971138946E+03  0.10971138946E+03  0.00000000000E+00 0. -1.
         -4   -1    0    0    0  501 -0.00000000000E+00 -0.00000000000E+00 -0.47402327648E+03  0.47402327648E+03  0.00000000000E+00 0.  1.
         25    2    1    2    0    0  0.16526052893E+03  0.66965064022E+02 -0.72126528177E+02  0.22944458843E+03  0.12508885192E+03 0.  0.
         23    2    1    2    0    0 -0.16526052893E+03 -0.66965064022E+02 -0.29218535884E+03  0.35429007751E+03  0.91399195185E+02 0.  0.
          5    1    3    3  502    0  0.39763998175E+02 -0.36957949491E+02 -0.12309791117E+02  0.55821760441E+02  0.41800000000E+01 0.  1.
         -5    1    3    3    0  502  0.12549653075E+03  0.10392301351E+03 -0.59816737060E+02  0.17362282799E+03  0.41800000000E+01 0.  1.
        -11    1    4    4    0    0 -0.22770110278E+02 -0.19565701608E+02 -0.53091617940E+01  0.30487403963E+02  0.00000000000E+00 0. -1.
         11    1    4    4    0    0 -0.14249041865E+03 -0.47399362414E+02 -0.28687619704E+03  0.32380267354E+03  0.00000000000E+00 0.  1.
</event>
<event>
 8    1  0.6505836E-009  0.1338457E+03  0.7561462E-02  0.1221858E+00
          2   -1    0    0  501    0  0.00000000000E+00  0.00000000000E+00  0.80271026637E+03  0.80271026637E+03  0.00000000000E+00 0. -1.
         -2   -1    0    0    0  501 -0.00000000000E+00 -0.00000000000E+00 -0.24423872920E+02  0.24423872920E+02  0.00000000000E+00 0.  1.
         25    2    1    2    0    0 -0.66872657360E+02 -0.45259646059E+02  0.52219284491E+03  0.54300383676E+03  0.12508961426E+03 0.  0.
         23    2    1    2    0    0  0.66872657360E+02  0.45259646059E+02  0.25609354854E+03  0.28413030253E+03  0.92874837005E+02 0.  0.
          5    1    3    3  502    0 -0.47268348328E+02 -0.87669771084E+02  0.39659817571E+03  0.40893504483E+03  0.41800000000E+01 0. -1.
         -5    1    3    3    0  502 -0.19604309032E+02  0.42410125026E+02  0.12559466920E+03  0.13406879193E+03  0.41800000000E+01 0. -1.
        -11    1    4    4    0    0 -0.23560748947E+01 -0.23443264407E+02  0.32058914208E+02  0.39785823042E+02  0.00000000000E+00 0.  1.
         11    1    4    4    0    0  0.69228732255E+02  0.68702910466E+02  0.22403463433E+03  0.24434447949E+03  0.00000000000E+00 0. -1.
</event>
<event>
 8    1  0.6505836E-009  0.1442374E+03  0.7561462E-02  0.1207738E+00
         -2   -1    0    0    0  501 -0.00000000000E+00  0.00000000000E+00  0.51248327098E+02  0.51248327098E+02  0.00000000000E+00 0.  1.
          2   -1    0    0  501    0  0.00000000000E+00 -0.00000000000E+00 -0.59447104139E+03  0.59447104139E+03  0.00000000000E+00 0. -1.
         25    2    1    2    0    0 -0.82478225892E+02  0.91748357518E+02 -0.17962416933E+03  0.25126253562E+03  0.12509037032E+03 0.  0.
         23    2    1    2    0    0  0.82478225892E+02 -0.91748357518E+02 -0.36359854496E+03  0.39445683286E+03  0.90398408408E+02 0.  0.
          5    1    3    3  502    0  0.37108348791E+01  0.51308548186E+02 -0.13788160855E+03  0.14722482056E+03  0.41800000000E+01 0.  1.
         -5    1    3    3    0  502 -0.86189060772E+02  0.40439809332E+02 -0.41742560787E+02  0.10403771507E+03  0.41800000000E+01 0.  1.
        -11    1    4    4    0    0  0.22160424383E+02 -0.76086987128E+02 -0.12623396322E+03  0.14904807107E+03  0.00000000000E+00 0.  1.
         11    1    4    4    0    0  0.60317801509E+02 -0.15661370390E+02 -0.23736458174E+03  0.24540876179E+03  0.00000000000E+00 0. -1.
</event>
<event>
 8    1  0.6505836E-009  0.8227294E+02  0.7561462E-02  0.1322722E+00
         -4   -1    0    0    0  501 -0.00000000000E+00  0.00000000000E+00  0.61172178915E+02  0.61172178915E+02  0.00000000000E+00 0.  1.
          4   -1    0    0  501    0  0.00000000000E+00 -0.00000000000E+00 -0.28153063542E+03  0.28153063542E+03  0.00000000000E+00 0. -1.
         25    2    1    2    0    0  0.67399150737E+02 -0.13995743315E+02 -0.14221950813E+03  0.20152590927E+03  0.12509107588E+03 0.  0.
         23    2    1    2    0    0 -0.67399150737E+02  0.13995743315E+02 -0.78138948375E+02  0.14117690506E+03  0.95324167552E+02 0.  0.
          5    1    3    3  502    0  0.92777920275E+01  0.18468739958E+02  0.18159394802E+02  0.27828183557E+02  0.41800000000E+01 0.  1.
         -5    1    3    3    0  502  0.58121358710E+02 -0.32464483273E+02 -0.16037890294E+03  0.17369772572E+03  0.41800000000E+01 0.  1.
        -11    1    4    4    0    0 -0.45169962789E+02 -0.75508663376E+01  0.10758306837E+02  0.47043408537E+02  0.00000000000E+00 0.  1.
         11    1    4    4    0    0 -0.22229187948E+02  0.21546609653E+02 -0.88897255211E+02  0.94133496528E+02  0.00000000000E+00 0. -1.
</event>
<event>
 8    1  0.6505836E-009  0.1151754E+03  0.7561462E-02  0.1251275E+00
          1   -1    0    0  501    0  0.00000000000E+00  0.00000000000E+00  0.82126489535E+03  0.82126489535E+03  0.00000000000E+00 0. -1.
         -1   -1    0    0    0  501 -0.00000000000E+00 -0.00000000000E+00 -0.28932364343E+02  0.28932364343E+02  0.00000000000E+00 0.  1.
         25    2    1    2    0    0 -0.71119031686E+02 -0.63396115248E+02  0.57216265330E+03  0.59337553655E+03  0.12508973356E+03 0.  0.
         23    2    1    2    0    0  0.71119031686E+02  0.63396115248E+02  0.22016987771E+03  0.25682172315E+03  0.91682268379E+02 0.  0.
          5    1    3    3  502    0 -0.73259352008E+02 -0.76251277206E+02  0.56973029906E+03  0.57947500033E+03  0.41800000000E+01 0. -1.
         -5    1    3    3    0  502  0.21403203217E+01  0.12855161959E+02  0.24323542384E+01  0.13900536220E+02  0.41800000000E+01 0. -1.
        -11    1    4    4    0    0  0.52969374197E+02  0.73089294485E+02  0.21822196978E+03  0.23615382204E+03  0.00000000000E+00 0. -1.
         11    1    4    4    0    0  0.18149657489E+02 -0.96931792378E+01  0.19479079242E+01  0.20667901102E+02  0.00000000000E+00 0.  1.
</event>
<event>
 8    1  0.6505836E-009  0.1625428E+03  0.7561462E-02  0.1185856E+00
         -2   -1    0    0    0  501 -0.00000000000E+00  0.00000000000E+00  0.91803001294E+02  0.91803001294E+02  0.00000000000E+00 0. -1.
          2   -1    0    0  501    0  0.00000000000E+00 -0.00000000000E+00 -0.30416991150E+03  0.30416991150E+03  0.00000000000E+00 0.  1.
         25    2    1    2    0    0 -0.49445161243E+02  0.11668609426E+03 -0.12285033721E+03  0.21633376637E+03  0.12509046548E+03 0.  0.
         23    2    1    2    0    0  0.49445161243E+02 -0.11668609426E+03 -0.89516572994E+02  0.17963914642E+03  0.90534731033E+02 0.  0.
          5    1    3    3  502    0 -0.64616839469E+01  0.12633097671E+03 -0.61568865557E+02  0.14074610702E+03  0.41800000000E+01 0.  1.
         -5    1    3    3    0  502 -0.42983477296E+02 -0.96448824457E+01 -0.61281471651E+02  0.75587659347E+02  0.41800000000E+01 0.  1.
        -11    1    4    4    0    0 -0.17813584933E+02 -0.70412499317E+02 -0.54511296728E+02  0.90811482419E+02  0.00000000000E+00 0.  1.
         11    1    4    4    0    0  0.67258746175E+02 -0.46273594943E+02 -0.35005276266E+02  0.88827664004E+02  0.00000000000E+00 0. -1.
</event>
<event>
 8    1  0.6505836E-009  0.1376402E+03  0.7561462E-02  0.1216540E+00
         -2   -1    0    0    0  501 -0.00000000000E+00  0.00000000000E+00  0.14163755872E+02  0.14163755872E+02  0.00000000000E+00 0.  1.
          2   -1    0    0  501    0  0.00000000000E+00 -0.00000000000E+00 -0.15000985650E+04  0.15000985650E+04  0.00000000000E+00 0. -1.
         25    2    1    2    0    0 -0.69509737967E+02 -0.55207107841E+02 -0.98128632301E+03  0.99320459573E+03  0.12511232084E+03 0.  0.
         23    2    1    2    0    0  0.69509737967E+02  0.55207107841E+02 -0.50464848610E+03  0.52105772512E+03  0.94613053848E+02 0.  0.
          5    1    3    3  502    0  0.32324653421E+02 -0.28252040647E+02 -0.18455319958E+03  0.18952682368E+03  0.41800000000E+01 0.  1.
         -5    1    3    3    0  502 -0.10183439139E+03 -0.26955067194E+02 -0.79673312343E+03  0.80367777205E+03  0.41800000000E+01 0.  1.
        -11    1    4    4    0    0  0.58036443400E+01  0.62347526507E+02 -0.19368362922E+03  0.20355403356E+03  0.00000000000E+00 0.  1.
         11    1    4    4    0    0  0.63706093627E+02 -0.71404186660E+01 -0.31096485688E+03  0.31750369156E+03  0.00000000000E+00 0. -1.
</event>
<event>
 8    1  0.6505836E-009  0.1011083E+03  0.7561462E-02  0.1277982E+00
         -1   -1    0    0    0  501 -0.00000000000E+00  0.00000000000E+00  0.98030471210E+03  0.98030471210E+03  0.00000000000E+00 0.  1.
          1   -1    0    0  501    0  0.00000000000E+00 -0.00000000000E+00 -0.18173846134E+02  0.18173846134E+02  0.00000000000E+00 0. -1.
         25    2    1    2    0    0  0.28894414671E+02  0.58254133117E+02  0.70060755939E+03  0.71465598967E+03  0.12511514721E+03 0.  0.
         23    2    1    2    0    0 -0.28894414671E+02 -0.58254133117E+02  0.26152330658E+03  0.28382256857E+03  0.89063905847E+02 0.  0.
          5    1    3    3  502    0  0.68342227980E+02  0.40484139692E+02  0.59734737036E+03  0.60262009506E+03  0.41800000000E+01 0.  1.
         -5    1    3    3    0  502 -0.39447813309E+02  0.17769993426E+02  0.10326018904E+03  0.11203589461E+03  0.41800000000E+01 0.  1.
        -11    1    4    4    0    0  0.12299261389E+02 -0.10809688882E+02  0.16454072685E+01  0.16456869979E+02  0.00000000000E+00 0. -1.
         11    1    4    4    0    0 -0.41193676060E+02 -0.47444444236E+02  0.25987789931E+03  0.26736569859E+03  0.00000000000E+00 0.  1.
</event>
<event>
 8    1  0.6505836E-009  0.1004234E+03  0.7561462E-02  0.1279408E+00
          1   -1    0    0  501    0  0.00000000000E+00  0.00000000000E+00  0.24213692427E+03  0.24213692427E+03  0.00000000000E+00 0. -1.
         -1   -1    0    0    0  501 -0.00000000000E+00 -0.00000000000E+00 -0.50955402672E+02  0.50955402672E+02  0.00000000000E+00 0.  1.
         25    2    1    2    0    0 -0.17257743597E+02  0.20040766841E+02  0.10524198007E+03  0.16562428244E+03  0.12512420435E+03 0.  0.
         23    2    1    2    0    0  0.17257743597E+02 -0.20040766841E+02  0.85939541527E+02  0.12746804450E+03  0.90349518654E+02 0.  0.
          5    1    3    3  502    0  0.51078539746E+02  0.12126653272E+02  0.20790571254E+02  0.56619724437E+02  0.41800000000E+01 0.  1.
         -5    1    3    3    0  502 -0.68336283343E+02  0.79141135690E+01  0.84451408812E+02  0.10900455800E+03  0.41800000000E+01 0.  1.
        -11    1    4    4    0    0  0.34758218713E+02  0.16703496020E+02  0.77704840885E+01  0.39338543064E+02  0.00000000000E+00 0.  1.
         11    1    4    4    0    0 -0.17500475116E+02 -0.36744262860E+02  0.78169057438E+02  0.88129501435E+02  0.00000000000E+00 0. -1.
</event>
<event>
 8    1  0.6505836E-009  0.1059007E+03  0.7561462E-02  0.1268355E+00
         -1   -1    0    0    0  501 -0.00000000000E+00  0.00000000000E+00  0.36430116899E+03  0.36430116899E+03  0.00000000000E+00 0.  1.
          1   -1    0    0  501    0  0.00000000000E+00 -0.00000000000E+00 -0.61512579204E+02  0.61512579204E+02  0.00000000000E+00 0. -1.
         25    2    1    2    0    0 -0.52322992771E+02  0.72735036148E+02  0.95530021859E+02  0.18111177275E+03  0.12508960027E+03 0.  0.
         23    2    1    2    0    0  0.52322992771E+02 -0.72735036148E+02  0.20725856793E+03  0.24470197545E+03  0.94312574736E+02 0.  0.
          5    1    3    3  502    0 -0.63430223563E+02  0.67212265305E+02  0.12109598964E+03  0.15238960914E+03  0.41800000000E+01 0. -1.
         -5    1    3    3    0  502  0.11107230792E+02  0.55227708429E+01 -0.25565967777E+02  0.28722163603E+02  0.41800000000E+01 0. -1.
        -11    1    4    4    0    0  0.31278032687E+02 -0.84096489148E+00  0.14183096642E+03  0.14524133567E+03  0.00000000000E+00 0.  1.
         11    1    4    4    0    0  0.21044960083E+02 -0.71894071256E+02  0.65427601505E+02  0.99460639780E+02  0.00000000000E+00 0. -1.
</event>
<event>
 7    1  0.6505836E-009  0.1789767E+03  0.7561462E-02  0.1168797E+00
         -2   -1    0    0    0  501 -0.00000000000E+00  0.00000000000E+00  0.12442644349E+03  0.12442644349E+03  0.00000000000E+00 0.  1.
          2   -1    0    0  501    0  0.00000000000E+00 -0.00000000000E+00 -0.35076625715E+03  0.35076625715E+03  0.00000000000E+00 0. -1.
         23    2    1    2    0    0 -0.13933692559E+03 -0.39994457750E+02 -0.22643331755E+03  0.28363158745E+03  0.90335456064E+02 0.  0.
          5    1    1    2  502    0  0.21060399501E+02  0.63064320975E+02 -0.19470898274E+02  0.69406320222E+02  0.41800000000E+01 0. -1.
         -5    1    1    2    0  502  0.11827652609E+03 -0.23069863225E+02  0.19564402165E+02  0.12215479297E+03  0.41800000000E+01 0. -1.
        -11    1    3    3    0    0 -0.13979532057E+03 -0.93492910792E+01 -0.18838830579E+03  0.23477711697E+03  0.00000000000E+00 0.  1.
         11    1    3    3    0    0  0.45839497707E+00 -0.30645166671E+02 -0.38045011759E+02  0.48854470481E+02  0.00000000000E+00 0. -1.
</event>
<event>
 8    1  0.6505836E-009  0.2445236E+03  0.7561462E-02  0.1116815E+00
         -2   -1    0    0    0  501 -0.00000000000E+00  0.00000000000E+00  0.48447800169E+02  0.48447800169E+02  0.00000000000E+00 0.  1.
          2   -1    0    0  501    0  0.00000000000E+00 -0.00000000000E+00 -0.14933842806E+04  0.14933842806E+04  0.00000000000E+00 0. -1.
         25    2    1    2    0    0  0.22595108626E+03  0.72465670598E+02 -0.56140976599E+03  0.62220095043E+03  0.12509168866E+03 0.  0.
         23    2    1    2    0    0 -0.22595108626E+03 -0.72465670598E+02 -0.88352671448E+03  0.91963113038E+03  0.93791225392E+02 0.  0.
          5    1    3    3  502    0  0.21256495952E+03  0.75474186632E+02 -0.56415993064E+03  0.60759700016E+03  0.41800000000E+01 0. -1.
         -5    1    3    3    0  502  0.13386126745E+02 -0.30085160345E+01  0.27501646510E+01  0.14603950273E+02  0.41800000000E+01 0. -1.
        -11    1    4    4    0    0 -0.13024940434E+03 -0.20184959972E+01 -0.56053405500E+03  0.57547146626E+03  0.00000000000E+00 0. -1.
         11    1    4    4    0    0 -0.95701681916E+02 -0.70447174601E+02 -0.32299265948E+03  0.34415966412E+03  0.00000000000E+00 0.  1.
</event>
<event>
 8    1  0.6505836E-009  0.1333420E+03  0.7561462E-02  0.1222579E+00
         -1   -1    0    0    0  501 -0.00000000000E+00  0.00000000000E+00  0.28881979833E+02  0.28881979833E+02  0.00000000000E+00 0.  1.
          1   -1    0    0  501    0  0.00000000000E+00 -0.00000000000E+00 -0.78166861438E+03  0.78166861438E+03  0.00000000000E+00 0. -1.
         25    2    1    2    0    0  0.91328313920E+02 -0.51628304651E+02 -0.40420331959E+03  0.43592785657E+03  0.12508568985E+03 0.  0.
         23    2    1    2    0    0 -0.91328313920E+02  0.51628304651E+02 -0.34858331496E+03  0.37462273764E+03  0.88461999328E+02 0.  0.
          5    1    3    3  502    0  0.33268540762E+02 -0.66407388822E+02 -0.33987943089E+03  0.34792561998E+03  0.41800000000E+01 0. -1.
         -5    1    3    3    0  502  0.58059773158E+02  0.14779084171E+02 -0.64323888691E+02  0.88002236588E+02  0.41800000000E+01 0. -1.
        -11    1    4    4    0    0 -0.38902873135E+02 -0.19784552154E+02 -0.16659649253E+03  0.17221862084E+03  0.00000000000E+00 0. -1.
         11    1    4    4    0    0 -0.52425440786E+02  0.71412856805E+02 -0.18198682244E+03  0.20240411680E+03  0.00000000000E+00 0.  1.
</event>
<event>
 8    1  0.6505836E-009  0.1224525E+03  0.7561462E-02  0.1239105E+00
          1   -1    0    0  501    0  0.00000000000E+00  0.00000000000E+00  0.15671826136E+03  0.15671826136E+03  0.00000000000E+00 0. -1.
         -1   -1    0    0    0  501 -0.00000000000E+00 -0.00000000000E+00 -0.10416214086E+03  0.10416214086E+03  0.00000000000E+00 0.  1.
         25    2    1    2    0    0  0.37035563670E+02 -0.58561933344E+02  0.34200559812E+02  0.14703045248E+03  0.12508853925E+03 0.  0.
         23    2    1    2    0    0 -0.37035563670E+02  0.58561933344E+02  0.18355560686E+02  0.11384994975E+03  0.88451972480E+02 0.  0.
          5    1    3    3  502    0 -0.38435552586E+02  0.11045614965E+02  0.81920822077E+01  0.41035105988E+02  0.41800000000E+01 0.  1.
         -5    1    3    3    0  502  0.75471116255E+02 -0.69607548310E+02  0.26008477605E+02  0.10599534649E+03  0.41800000000E+01 0.  1.
        -11    1    4    4    0    0  0.22767586942E+02  0.98389319797E+01 -0.15885122322E+02  0.29453432887E+02  0.00000000000E+00 0.  1.
         11    1    4    4    0    0 -0.59803150612E+02  0.48723001365E+02  0.34240683007E+02  0.84396516859E+02  0.00000000000E+00 0. -1.
</event>
<event>
 8    1  0.6505836E-009  0.9879430E+02  0.7561462E-02  0.1282852E+00
          1   -1    0    0  501    0  0.00000000000E+00  0.00000000000E+00  0.16796388502E+03  0.16796388502E+03  0.00000000000E+00 0. -1.
         -1   -1    0    0    0  501 -0.00000000000E+00 -0.00000000000E+00 -0.91670879996E+02  0.91670879996E+02  0.00000000000E+00 0.  1.
         25    2    1    2    0    0 -0.55409775176E+02  0.23777569705E+02  0.41647530810E+02  0.14497218053E+03  0.12508717080E+03 0.  0.
         23    2    1    2    0    0  0.55409775176E+02 -0.23777569705E+02  0.34645474215E+02  0.11466258449E+03  0.91167885744E+02 0.  0.
          5    1    3    3  502    0  0.20771963439E+02  0.67605194187E+01  0.60586428206E+02  0.64539652701E+02  0.41800000000E+01 0.  1.
         -5    1    3    3    0  502 -0.76181738615E+02  0.17017050286E+02 -0.18938897397E+02  0.80432527832E+02  0.41800000000E+01 0.  1.
        -11    1    4    4    0    0  0.39388133661E+01 -0.42293657991E+02  0.41681874559E+02  0.59511733496E+02  0.00000000000E+00 0. -1.
         11    1    4    4    0    0  0.51470961810E+02  0.18516088286E+02 -0.70364003435E+01  0.55150850989E+02  0.00000000000E+00 0.  1.
</event>
<event>
 8    1  0.6505836E-009  0.1103893E+03  0.7561462E-02  0.1259851E+00
          2   -1    0    0  501    0  0.00000000000E+00  0.00000000000E+00  0.39369134549E+03  0.39369134549E+03  0.00000000000E+00 0. -1.
         -2   -1    0    0    0  501 -0.00000000000E+00 -0.00000000000E+00 -0.14831412894E+03  0.14831412894E+03  0.00000000000E+00 0.  1.
         25    2    1    2    0    0 -0.63879322834E+01  0.81625470079E+02  0.35022531753E+03  0.38079991812E+03  0.12508909449E+03 0.  0.
         23    2    1    2    0    0  0.63879322834E+01 -0.81625470079E+02 -0.10484810097E+03  0.16120555631E+03  0.91052644453E+02 0.  0.
          5    1    3    3  502    0 -0.42800516755E+02  0.43478772263E+02  0.59577473670E+02  0.85377020567E+02  0.41800000000E+01 0. -1.
         -5    1    3    3    0  502  0.36412584471E+02  0.38146697816E+02  0.29064784385E+03  0.29542289755E+03  0.41800000000E+01 0. -1.
        -11    1    4    4    0    0  0.36000730422E+02 -0.60308592363E+02 -0.10300406368E+03  0.12467163286E+03  0.00000000000E+00 0.  1.
         11    1    4    4    0    0 -0.29612798138E+02 -0.21316877715E+02 -0.18440372888E+01  0.36533923450E+02  0.00000000000E+00 0. -1.
</event>
<event>
 8    1  0.6505836E-009  0.9489255E+02  0.7561462E-02  0.1291418E+00
         -3   -1    0    0    0  501 -0.00000000000E+00  0.00000000000E+00  0.31011041080E+02  0.31011041080E+02  0.00000000000E+00 0.  1.
          3   -1    0    0  501    0  0.00000000000E+00 -0.00000000000E+00 -0.49613377281E+03  0.49613377281E+03  0.00000000000E+00 0. -1.
         25    2    1    2    0    0 -0.23280927405E+02 -0.23383251185E+02 -0.39314864615E+03  0.41388556794E+03  0.12508647953E+03 0.  0.
         23    2    1    2    0    0  0.23280927405E+02  0.23383251185E+02 -0.71974085573E+02  0.11325924594E+03  0.80985244217E+02 0.  0.
          5    1    3    3  502    0  0.24500530350E+02  0.30220332538E+02 -0.51124275281E+02  0.64379409823E+02  0.41800000000E+01 0. -1.
         -5    1    3    3    0  502 -0.47781457755E+02 -0.53603583723E+02 -0.34202437087E+03  0.34950615812E+03  0.41800000000E+01 0. -1.
        -11    1    4    4    0    0  0.34845947788E+02  0.43370679648E+02 -0.70926500462E+02  0.90143354709E+02  0.00000000000E+00 0.  1.
         11    1    4    4    0    0 -0.11565020383E+02 -0.19987428463E+02 -0.10475851109E+01  0.23115891235E+02  0.00000000000E+00 0. -1.
</event>
<event>
 8    1  0.6505836E-009  0.7789535E+02  0.7561462E-02  0.1335132E+00
         -2   -1    0    0    0  501 -0.00000000000E+00  0.00000000000E+00  0.32525545762E+02  0.32525545762E+02  0.00000000000E+00 0.  1.
          2   -1    0    0  501    0  0.00000000000E+00 -0.00000000000E+00 -0.45819498715E+03  0.45819498715E+03  0.00000000000E+00 0. -1.
         25    2    1    2    0    0  0.48919563826E+02  0.14982428129E+02 -0.26102820936E+03  0.29393972466E+03  0.12508892346E+03 0.  0.
         23    2    1    2    0    0 -0.48919563826E+02 -0.14982428129E+02 -0.16464123203E+03  0.19678080826E+03  0.94859656000E+02 0.  0.
          5    1    3    3  502    0  0.67241317697E+02  0.27949191968E+02 -0.68496528493E+02  0.10005897737E+03  0.41800000000E+01 0.  1.
         -5    1    3    3    0  502 -0.18321753872E+02 -0.12966763839E+02 -0.19253168087E+03  0.19388074728E+03  0.41800000000E+01 0.  1.
        -11    1    4    4    0    0 -0.13071037413E+02  0.98876849772E+01  0.83347032222E+01  0.18387104478E+02  0.00000000000E+00 0.  1.
         11    1    4    4    0    0 -0.35848526412E+02 -0.24870113106E+02 -0.17297593525E+03  0.17839370378E+03  0.00000000000E+00 0. -1.
</event>
<event>
 8    1  0.6505836E-009  0.2880288E+03  0.7561462E-02  0.1091383E+00
         -1   -1    0    0    0  501 -0.00000000000E+00  0.00000000000E+00  0.25412291973E+03  0.25412291973E+03  0.00000000000E+00 0.  1.
          1   -1    0    0  501    0  0.00000000000E+00 -0.00000000000E+00 -0.33495917106E+03  0.33495917106E+03  0.00000000000E+00 0. -1.
         25    2    1    2    0    0 -0.17083937630E+03  0.20807882327E+03 -0.29840433963E+02  0.29836340757E+03  0.12508949713E+03 0.  0.
         23    2    1    2    0    0  0.17083937630E+03 -0.20807882327E+03 -0.50995817371E+02  0.29071868322E+03  0.97128215264E+02 0.  0.
          5    1    3    3  502    0 -0.17041787135E+03  0.12657986620E+03 -0.40211534693E+02  0.21609986887E+03  0.41800000000E+01 0. -1.
         -5    1    3    3    0  502 -0.42150494656E+00  0.81498957066E+02  0.10371100730E+02  0.82263538701E+02  0.41800000000E+01 0. -1.
        -11    1    4    4    0    0  0.27536738507E+02 -0.96941520700E+02 -0.41907727702E+02  0.10914297066E+03  0.00000000000E+00 0. -1.
         11    1    4    4    0    0  0.14330263779E+03 -0.11113730257E+03 -0.90880896687E+01  0.18157571256E+03  0.00000000000E+00 0.  1.
</event>
<event>
 8    1  0.6505836E-009  0.1064132E+03  0.7561462E-02  0.1267360E+00
         -1   -1    0    0    0  501 -0.00000000000E+00  0.00000000000E+00  0.30309044709E+02  0.30309044709E+02  0.00000000000E+00 0.  1.
          1   -1    0    0  501    0  0.00000000000E+00 -0.00000000000E+00 -0.62851961131E+03  0.62851961131E+03  0.00000000000E+00 0. -1.
         25    2    1    2    0    0 -0.48594809100E+02  0.62414753126E+02 -0.40561978120E+03  0.43177818936E+03  0.12509173043E+03 0.  0.
         23    2    1    2    0    0  0.48594809100E+02 -0.62414753126E+02 -0.19259078540E+03  0.22705046667E+03  0.90573985844E+02 0.  0.
          5    1    3    3  502    0 -0.38237735193E+02  0.92919549706E+02 -0.20271762963E+03  0.22629201681E+03  0.41800000000E+01 0.  1.
         -5    1    3    3    0  502 -0.10357073907E+02 -0.30504796580E+02 -0.20290215158E+03  0.20548617255E+03  0.41800000000E+01 0.  1.
        -11    1    4    4    0    0  0.38801776760E+02 -0.55770097352E+02 -0.20123546908E+03  0.21239490497E+03  0.00000000000E+00 0. -1.
         11    1    4    4    0    0  0.97930323398E+01 -0.66446557742E+01  0.86446836809E+01  0.14655561699E+02  0.00000000000E+00 0.  1.
</event>
<event>
 8    1  0.6505836E-009  0.1420647E+03  0.7561462E-02  0.1210578E+00
          2   -1    0    0  501    0  0.00000000000E+00  0.00000000000E+00  0.98946616506E+02  0.98946616506E+02  0.00000000000E+00 0.  1.
         -2   -1    0    0    0  501 -0.00000000000E+00 -0.00000000000E+00 -0.22813849016E+03  0.22813849016E+03  0.00000000000E+00 0. -1.
         25    2    1    2    0    0  0.44862593015E+02  0.90065346195E+02 -0.43081495800E+02  0.16619614641E+03  0.12506288404E+03 0.  0.
         23    2    1    2    0    0 -0.44862593015E+02 -0.90065346195E+02 -0.86110377859E+02  0.16088896026E+03  0.91355577399E+02 0.  0.
          5    1    3    3  502    0  0.51792709182E+02 -0.89534185145E+01  0.98306391757E+01  0.53635457434E+02  0.41800000000E+01 0.  1.
         -5    1    3    3    0  502 -0.69301161671E+01  0.99018764710E+02 -0.52912134976E+02  0.11256068897E+03  0.41800000000E+01 0. -1.
        -11    1    4    4    0    0 -0.14141268827E+02  0.16160689114E+02 -0.29985299083E+02  0.36881723356E+02  0.00000000000E+00 0.  1.
         11    1    4    4    0    0 -0.30721324189E+02 -0.10622603531E+03 -0.56125078776E+02  0.12400723691E+03  0.00000000000E+00 0. -1.
</event>
<event>
 8    1  0.6505836E-009  0.8883044E+02  0.7561462E-02  0.1305709E+00
         -2   -1    0    0    0  501 -0.00000000000E+00  0.00000000000E+00  0.70368367208E+02  0.70368367208E+02  0.00000000000E+00 0.  1.
          2   -1    0    0  501    0  0.00000000000E+00 -0.00000000000E+00 -0.21877354197E+03  0.21877354197E+03  0.00000000000E+00 0. -1.
         25    2    1    2    0    0  0.36947789243E+02 -0.39558333027E+02 -0.11081377460E+03  0.17565673279E+03  0.12508235005E+03 0.  0.
         23    2    1    2    0    0 -0.36947789243E+02  0.39558333027E+02 -0.37591400162E+02  0.11348517638E+03  0.92389236657E+02 0.  0.
          5    1    3    3  502    0  0.15105817774E+02  0.14124980223E+02  0.22125466646E+02  0.30573018680E+02  0.41800000000E+01 0. -1.
         -5    1    3    3    0  502  0.21841971468E+02 -0.53683313250E+02 -0.13293924124E+03  0.14508371411E+03  0.41800000000E+01 0. -1.
        -11    1    4    4    0    0 -0.58094871118E+02  0.54861912419E+01 -0.43724849742E+02  0.72917589301E+02  0.00000000000E+00 0. -1.
         11    1    4    4    0    0  0.21147081875E+02  0.34072141786E+02  0.61334495792E+01  0.40567587079E+02  0.00000000000E+00 0.  1.
</event>
<event>
 8    1  0.6505836E-009  0.1963370E+03  0.7561462E-02  0.1152867E+00
         -2   -1    0    0    0  501 -0.00000000000E+00  0.00000000000E+00  0.35853195052E+03  0.35853195052E+03  0.00000000000E+00 0.  1.
          2   -1    0    0  501    0  0.00000000000E+00 -0.00000000000E+00 -0.11482261711E+03  0.11482261711E+03  0.00000000000E+00 0. -1.
         25    2    1    2    0    0 -0.23199883544E+01  0.16961439130E+03  0.89901738882E+02  0.22914281435E+03  0.12509869156E+03 0.  0.
         23    2    1    2    0    0  0.23199883544E+01 -0.16961439130E+03  0.15380759453E+03  0.24421175328E+03  0.84901002479E+02 0.  0.
          5    1    3    3  502    0  0.16522920254E+02  0.18332769709E+03  0.91125449714E+02  0.20543459154E+03  0.41800000000E+01 0. -1.
         -5    1    3    3    0  502 -0.18842908609E+02 -0.13713305791E+02 -0.12237108322E+01  0.23708222809E+02  0.41800000000E+01 0. -1.
        -11    1    4    4    0    0  0.33983292169E+02 -0.45503263884E+02  0.74057520445E+02  0.93326992372E+02  0.00000000000E+00 0.  1.
         11    1    4    4    0    0 -0.31663303815E+02 -0.12411112742E+03  0.79750074083E+02  0.15088476091E+03  0.00000000000E+00 0. -1.
</event>
<event>
 8    1  0.6505836E-009  0.2025856E+03  0.7561462E-02  0.1147576E+00
         -2   -1    0    0    0  501 -0.00000000000E+00  0.00000000000E+00  0.36537719769E+02  0.36537719769E+02  0.00000000000E+00 0.  1.
          2   -1    0    0  501    0  0.00000000000E+00 -0.00000000000E+00 -0.11481780021E+04  0.11481780021E+04  0.00000000000E+00 0. -1.
         25    2    1    2    0    0 -0.11287269473E+03  0.12969332341E+03 -0.58108468214E+03  0.61876456089E+03  0.12509824395E+03 0.  0.
         23    2    1    2    0    0  0.11287269473E+03 -0.12969332341E+03 -0.53055560015E+03  0.56595116094E+03  0.96181434620E+02 0.  0.
          5    1    3    3  502    0 -0.12283234522E+02  0.10859260900E+03 -0.28049545751E+03  0.30106213090E+03  0.41800000000E+01 0.  1.
         -5    1    3    3    0  502 -0.10058946021E+03  0.21100714404E+02 -0.30058922463E+03  0.31770242998E+03  0.41800000000E+01 0.  1.
        -11    1    4    4    0    0  0.12530448825E+03 -0.12993099487E+03 -0.45709963706E+03  0.49145025832E+03  0.00000000000E+00 0. -1.
         11    1    4    4    0    0 -0.12431793516E+02  0.23767145769E+00 -0.73455963087E+02  0.74500902617E+02  0.00000000000E+00 0.  1.
</event>
<event>
 8    1  0.6505836E-009  0.9167394E+02  0.7561462E-02  0.1298848E+00
         -1   -1    0    0    0  501 -0.00000000000E+00  0.00000000000E+00  0.56075835955E+02  0.56075835955E+02  0.00000000000E+00 0.  1.
          1   -1    0    0  501    0  0.00000000000E+00 -0.00000000000E+00 -0.32617662853E+03  0.32617662853E+03  0.00000000000E+00 0. -1.
         25    2    1    2    0    0 -0.20116723724E+02 -0.62056006521E+02 -0.78739681831E+02  0.16156439717E+03  0.12508991334E+03 0.  0.
         23    2    1    2    0    0  0.20116723724E+02  0.62056006521E+02 -0.19136111074E+03  0.22068806731E+03  0.88478911794E+02 0.  0.
          5    1    3    3  502    0  0.29385092000E+02 -0.53065274880E+02  0.78757037698E+01  0.61309918772E+02  0.41800000000E+01 0. -1.
         -5    1    3    3    0  502 -0.49501815725E+02 -0.89907316403E+01 -0.86615385601E+02  0.10025447840E+03  0.41800000000E+01 0. -1.
        -11    1    4    4    0    0 -0.23489598766E+01  0.41634351024E+02 -0.18503486503E+03  0.18967561276E+03  0.00000000000E+00 0. -1.
         11    1    4    4    0    0  0.22465683601E+02  0.20421655496E+02 -0.63262457097E+01  0.31012454557E+02  0.00000000000E+00 0.  1.
</event>
<event>
 8    1  0.6505836E-009  0.1256220E+03  0.7561462E-02  0.1234100E+00
          1   -1    0    0  501    0  0.00000000000E+00  0.00000000000E+00  0.71498394281E+02  0.71498394281E+02  0.00000000000E+00 0. -1.
         -1   -1    0    0    0  501 -0.00000000000E+00 -0.00000000000E+00 -0.24365361233E+03  0.24365361233E+03  0.00000000000E+00 0.  1.
         25    2    1    2    0    0 -0.71686403247E+02  0.17576992572E+02 -0.80920760579E+02  0.16626255542E+03  0.12508867560E+03 0.  0.
         23    2    1    2    0    0  0.71686403247E+02 -0.17576992572E+02 -0.91234457466E+02  0.14888945119E+03  0.91632152479E+02 0.  0.
          5    1    3    3  502    0 -0.98455111458E+02 -0.46745411631E+01 -0.27590143419E+02  0.10243997619E+03  0.41800000000E+01 0. -1.
         -5    1    3    3    0  502  0.26768708212E+02  0.22251533736E+02 -0.53330617160E+02  0.63822579230E+02  0.41800000000E+01 0. -1.
        -11    1    4    4    0    0  0.91754337520E+02 -0.14186964642E+01 -0.68257028275E+02  0.11436736013E+03  0.00000000000E+00 0. -1.
         11    1    4    4    0    0 -0.20067934273E+02 -0.16158296108E+02 -0.22977429191E+02  0.34522091063E+02  0.00000000000E+00 0.  1.
</event>
<event>
 8    1  0.6505836E-009  0.1162965E+03  0.7561462E-02  0.1249335E+00
         -1   -1    0    0    0  501 -0.00000000000E+00  0.00000000000E+00  0.49930512429E+03  0.49930512429E+03  0.00000000000E+00 0.  1.
          1   -1    0    0  501    0  0.00000000000E+00 -0.00000000000E+00 -0.45228715558E+02  0.45228715558E+02  0.00000000000E+00 0. -1.
         25    2    1    2    0    0  0.97594233815E+02 -0.15650424007E+01  0.18469076957E+03  0.24348537284E+03  0.12508941839E+03 0.  0.
         23    2    1    2    0    0 -0.97594233815E+02  0.15650424007E+01  0.26938563917E+03  0.30104846701E+03  0.92382211854E+02 0.  0.
          5    1    3    3  502    0  0.45463447802E+02 -0.46865102429E+01 -0.54880342438E+01  0.46222065988E+02  0.41800000000E+01 0. -1.
         -5    1    3    3    0  502  0.52130786013E+02  0.31214678422E+01  0.19017880381E+03  0.19726330685E+03  0.41800000000E+01 0. -1.
        -11    1    4    4    0    0 -0.44173253513E+01 -0.34212854820E+02  0.64553019675E+02  0.73192380392E+02  0.00000000000E+00 0. -1.
         11    1    4    4    0    0 -0.93176908464E+02  0.35777897221E+02  0.20483261949E+03  0.22785608662E+03  0.00000000000E+00 0.  1.
</event>
<event>
 8    1  0.6505836E-009  0.1658708E+03  0.7561462E-02  0.1182224E+00
         -1   -1    0    0    0  501 -0.00000000000E+00  0.00000000000E+00  0.22749800264E+03  0.22749800264E+03  0.00000000000E+00 0.  1.
          1   -1    0    0  501    0  0.00000000000E+00 -0.00000000000E+00 -0.56964847535E+03  0.56964847535E+03  0.00000000000E+00 0. -1.
         25    2    1    2    0    0 -0.15943751258E+03 -0.97244547281E+01 -0.50947966121E+03  0.54839144453E+03  0.12509502713E+03 0.  0.
         23    2    1    2    0    0  0.15943751258E+03  0.97244547281E+01  0.16732918849E+03  0.24875503346E+03  0.91461051346E+02 0.  0.
          5    1    3    3  502    0 -0.88776031480E+02  0.16061513874E+02 -0.11220430217E+03  0.14403622398E+03  0.41800000000E+01 0. -1.
         -5    1    3    3    0  502 -0.70661481098E+02 -0.25785968602E+02 -0.39727535904E+03  0.40435522055E+03  0.41800000000E+01 0. -1.
        -11    1    4    4    0    0  0.11371302384E+03  0.27571792281E+02  0.61701225196E+02  0.13227961563E+03  0.00000000000E+00 0. -1.
         11    1    4    4    0    0  0.45724488735E+02 -0.17847337553E+02  0.10562796330E+03  0.11647541783E+03  0.00000000000E+00 0.  1.
</event>
<event>
 8    1  0.6505836E-009  0.1597922E+03  0.7561462E-02  0.1188932E+00
         -1   -1    0    0    0  501 -0.00000000000E+00  0.00000000000E+00  0.37029441037E+02  0.37029441037E+02  0.00000000000E+00 0.  1.
          1   -1    0    0  501    0  0.00000000000E+00 -0.00000000000E+00 -0.80107553998E+03  0.80107553998E+03  0.00000000000E+00 0. -1.
         25    2    1    2    0    0  0.12942393862E+03 -0.23468712303E+02 -0.45048988267E+03  0.48568505352E+03  0.12508996954E+03 0.  0.
         23    2    1    2    0    0 -0.12942393862E+03  0.23468712303E+02 -0.31355621628E+03  0.35241992751E+03  0.92633515475E+02 0.  0.
          5    1    3    3  502    0  0.13121124472E+03 -0.60259031996E+02 -0.35792740653E+03  0.38597544277E+03  0.41800000000E+01 0. -1.
         -5    1    3    3    0  502 -0.17873060979E+01  0.36790319693E+02 -0.92562476138E+02  0.99709610745E+02  0.41800000000E+01 0. -1.
        -11    1    4    4    0    0 -0.10452794127E+03  0.35532445435E+02 -0.14840002293E+03  0.18496273136E+03  0.00000000000E+00 0.  1.
         11    1    4    4    0    0 -0.24895997355E+02 -0.12063733132E+02 -0.16515619335E+03  0.16745719615E+03  0.00000000000E+00 0. -1.
</event>
<event>
 8    1  0.6505836E-009  0.1649349E+03  0.7561462E-02  0.1183235E+00
         -1   -1    0    0    0  501 -0.00000000000E+00  0.00000000000E+00  0.98053829923E+02  0.98053829923E+02  0.00000000000E+00 0.  1.
          1   -1    0    0  501    0  0.00000000000E+00 -0.00000000000E+00 -0.27816164893E+03  0.27816164893E+03  0.00000000000E+00 0. -1.
         25    2    1    2    0    0 -0.12426574211E+03 -0.10566978179E+02 -0.93611987552E+02  0.19987767338E+03  0.12503697219E+03 0.  0.
         23    2    1    2    0    0  0.12426574211E+03  0.10566978179E+02 -0.86495831454E+02  0.17633780547E+03  0.89776706828E+02 0.  0.
          5    1    3    3  502    0 -0.30759121307E+01 -0.48896980108E+02 -0.30965685475E+02  0.58109568713E+02  0.41800000000E+01 0.  1.
         -5    1    3    3    0  502 -0.12118982998E+03  0.38330001928E+02 -0.62646302078E+02  0.14176810467E+03  0.41800000000E+01 0.  1.
        -11    1    4    4    0    0  0.77960207983E+02  0.50071769254E+02 -0.55924014760E+02  0.10822417259E+03  0.00000000000E+00 0.  1.
         11    1    4    4    0    0  0.46305534126E+02 -0.39504791075E+02 -0.30571816693E+02  0.68113632883E+02  0.00000000000E+00 0. -1.
</event>
<event>
 8    1  0.6505836E-009  0.3242343E+03  0.7561462E-02  0.1073717E+00
          1   -1    0    0  501    0  0.00000000000E+00  0.00000000000E+00  0.17895829870E+03  0.17895829870E+03  0.00000000000E+00 0. -1.
         -1   -1    0    0    0  501 -0.00000000000E+00 -0.00000000000E+00 -0.81604904316E+03  0.81604904316E+03  0.00000000000E+00 0.  1.
         25    2    1    2    0    0 -0.45425854010E+02  0.31723573218E+03 -0.55382650787E+03  0.65197607123E+03  0.12508788374E+03 0.  0.
         23    2    1    2    0    0  0.45425854010E+02 -0.31723573218E+03 -0.83264236584E+02  0.34303127062E+03  0.89640959098E+02 0.  0.
          5    1    3    3  502    0 -0.66419148713E+01  0.21640596926E+03 -0.46160031459E+03  0.50987055356E+03  0.41800000000E+01 0.  1.
         -5    1    3    3    0  502 -0.38783939139E+02  0.10082976292E+03 -0.92226193285E+02  0.14210551767E+03  0.41800000000E+01 0.  1.
        -11    1    4    4    0    0 -0.63924875818E+01 -0.11022717194E+03 -0.66696520030E+02  0.12899348478E+03  0.00000000000E+00 0.  1.
         11    1    4    4    0    0  0.51818341592E+02 -0.20700856024E+03 -0.16567716555E+02  0.21403778584E+03  0.00000000000E+00 0. -1.
</event>
<event>
 8    1  0.6505836E-009  0.1826268E+03  0.7561462E-02  0.1165285E+00
          3   -1    0    0  501    0  0.00000000000E+00  0.00000000000E+00  0.44220266513E+03  0.44220266513E+03  0.00000000000E+00 0. -1.
         -3   -1    0    0    0  501 -0.00000000000E+00 -0.00000000000E+00 -0.21393397224E+03  0.21393397224E+03  0.00000000000E+00 0.  1.
         25    2    1    2    0    0 -0.14657848484E+03  0.65348896281E+02  0.37164632719E+03  0.42370323110E+03  0.12509078731E+03 0.  0.
         23    2    1    2    0    0  0.14657848484E+03 -0.65348896281E+02 -0.14337763429E+03  0.23243340627E+03  0.87820338586E+02 0.  0.
          5    1    3    3  502    0  0.19680112744E+02  0.52563011002E+01  0.79785077301E+02  0.82450388106E+02  0.41800000000E+01 0. -1.
         -5    1    3    3    0  502 -0.16625859759E+03  0.60092595180E+02  0.29186124988E+03  0.34125284299E+03  0.41800000000E+01 0. -1.
        -11    1    4    4    0    0  0.12201399558E+03 -0.31882790436E+02 -0.14334004225E+03  0.19091960391E+03  0.00000000000E+00 0.  1.
         11    1    4    4    0    0  0.24564489263E+02 -0.33466105845E+02 -0.37592041241E-01  0.41513802359E+02  0.00000000000E+00 0. -1.
</event>
<event>
 8    1  0.6505836E-009  0.9916702E+02  0.7561462E-02  0.1282057E+00
         -3   -1    0    0    0  501 -0.00000000000E+00  0.00000000000E+00  0.59647168386E+03  0.59647168386E+03  0.00000000000E+00 0.  1.
          3   -1    0    0  501    0  0.00000000000E+00 -0.00000000000E+00 -0.20966032185E+02  0.20966032185E+02  0.00000000000E+00 0. -1.
         25    2    1    2    0    0 -0.57006800252E+01 -0.11230778296E+02  0.26606267272E+03  0.29427254237E+03  0.12509338610E+03 0.  0.
         23    2    1    2    0    0  0.57006800252E+01  0.11230778296E+02  0.30944297895E+03  0.32316517367E+03  0.92315459789E+02 0.  0.
          5    1    3    3  502    0  0.50630647024E+02 -0.16549990297E+01  0.52163047393E+02  0.72833078702E+02  0.41800000000E+01 0. -1.
         -5    1    3    3    0  502 -0.56331327049E+02 -0.95757792666E+01  0.21389962533E+03  0.22143946367E+03  0.41800000000E+01 0. -1.
        -11    1    4    4    0    0  0.41576753325E+02 -0.16639213635E+02  0.19407651646E+03  0.19917626387E+03  0.00000000000E+00 0.  1.
         11    1    4    4    0    0 -0.35876073300E+02  0.27869991931E+02  0.11536646249E+03  0.12398890980E+03  0.00000000000E+00 0. -1.
</event>
<event>
 8    1  0.6505836E-009  0.1582388E+03  0.7561462E-02  0.1190700E+00
         -1   -1    0    0    0  501 -0.00000000000E+00  0.00000000000E+00  0.33858012704E+02  0.33858012704E+02  0.00000000000E+00 0.  1.
          1   -1    0    0  501    0  0.00000000000E+00 -0.00000000000E+00 -0.11145676619E+04  0.11145676619E+04  0.00000000000E+00 0. -1.
         25    2    1    2    0    0 -0.10033760345E+03  0.95610823346E+02 -0.81125512268E+03  0.83246143719E+03  0.12509239039E+03 0.  0.
         23    2    1    2    0    0  0.10033760345E+03 -0.95610823346E+02 -0.26945452654E+03  0.31596423743E+03  0.89546598242E+02 0.  0.
          5    1    3    3  502    0 -0.62782268052E+02  0.10909922221E+03 -0.74039838766E+03  0.75103361997E+03  0.41800000000E+01 0. -1.
         -5    1    3    3    0  502 -0.37555335401E+02 -0.13488398861E+02 -0.70856735014E+02  0.81427817224E+02  0.41800000000E+01 0. -1.
        -11    1    4    4    0    0  0.34098923155E+02 -0.15646305670E-02 -0.17212756306E+02  0.38197061961E+02  0.00000000000E+00 0.  1.
         11    1    4    4    0    0  0.66238680298E+02 -0.95609258715E+02 -0.25224177023E+03  0.27776717547E+03  0.00000000000E+00 0. -1.
</event>
<event>
 8    1  0.6505836E-009  0.1443696E+03  0.7561462E-02  0.1207567E+00
         -1   -1    0    0    0  501 -0.00000000000E+00  0.00000000000E+00  0.31380420455E+03  0.31380420455E+03  0.00000000000E+00 0.  1.
          1   -1    0    0  501    0  0.00000000000E+00 -0.00000000000E+00 -0.12927196727E+03  0.12927196727E+03  0.00000000000E+00 0. -1.
         25    2    1    2    0    0 -0.38705289115E+02  0.10762162727E+03  0.23400079618E+03  0.28893615217E+03  0.12508882187E+03 0.  0.
         23    2    1    2    0    0  0.38705289115E+02 -0.10762162727E+03 -0.49468558897E+02  0.15414001965E+03  0.90727577259E+02 0.  0.
          5    1    3    3  502    0 -0.67972734337E+02  0.35039878415E+02  0.17440127780E+03  0.19047667519E+03  0.41800000000E+01 0.  1.
         -5    1    3    3    0  502  0.29267445223E+02  0.72581748856E+02  0.59599518382E+02  0.98459476985E+02  0.41800000000E+01 0.  1.
        -11    1    4    4    0    0 -0.11429440714E+02 -0.70443517287E+02  0.46684913924E+01  0.71517243059E+02  0.00000000000E+00 0.  1.
         11    1    4    4    0    0  0.50134729829E+02 -0.37178109983E+02 -0.54137050290E+02  0.82622776587E+02  0.00000000000E+00 0. -1.
</event>
<event>
 8    1  0.6505836E-009  0.1186346E+03  0.7561462E-02  0.1245367E+00
          1   -1    0    0  501    0  0.00000000000E+00  0.00000000000E+00  0.63936867037E+02  0.63936867037E+02  0.00000000000E+00 0. -1.
         -1   -1    0    0    0  501 -0.00000000000E+00 -0.00000000000E+00 -0.25872376733E+03  0.25872376733E+03  0.00000000000E+00 0.  1.
         25    2    1    2    0    0  0.38743607146E+02 -0.46091643866E+02 -0.69880760761E+02  0.15542397906E+03  0.12509111006E+03 0.  0.
         23    2    1    2    0    0 -0.38743607146E+02  0.46091643866E+02 -0.12490613953E+03  0.16723665530E+03  0.93493574406E+02 0.  0.
          5    1    3    3  502    0 -0.36641061675E+02 -0.37729024929E+02 -0.58225084960E+02  0.78572766537E+02  0.41800000000E+01 0. -1.
         -5    1    3    3    0  502  0.75384668820E+02 -0.83626189373E+01 -0.11655675801E+02  0.76851212528E+02  0.41800000000E+01 0. -1.
        -11    1    4    4    0    0  0.20611738728E+02 -0.13340637664E+02 -0.14511072207E+02  0.28519950969E+02  0.00000000000E+00 0. -1.
         11    1    4    4    0    0 -0.59355345874E+02  0.59432281530E+02 -0.11039506733E+03  0.13871670434E+03  0.00000000000E+00 0.  1.
</event>
<event>
 8    1  0.6505836E-009  0.9252714E+02  0.7561462E-02  0.1296845E+00
          2   -1    0    0  501    0  0.00000000000E+00  0.00000000000E+00  0.79849904182E+02  0.79849904182E+02  0.00000000000E+00 0. -1.
         -2   -1    0    0    0  501 -0.00000000000E+00 -0.00000000000E+00 -0.22030490076E+03  0.22030490076E+03  0.00000000000E+00 0.  1.
         25    2    1    2    0    0 -0.32356161266E+01  0.72379057462E+02 -0.10702111849E+03  0.17986796911E+03  0.12509903811E+03 0.  0.
         23    2    1    2    0    0  0.32356161266E+01 -0.72379057462E+02 -0.33433878091E+02  0.12028683584E+03  0.90010563273E+02 0.  0.
          5    1    3    3  502    0 -0.33585683972E+01  0.60830434569E+01  0.28129337601E+02  0.29274825930E+02  0.41800000000E+01 0.  1.
         -5    1    3    3    0  502  0.12295227059E+00  0.66296014006E+02 -0.13515045609E+03  0.15059314318E+03  0.41800000000E+01 0.  1.
        -11    1    4    4    0    0  0.41177649568E+02 -0.19833464273E+02  0.32365990007E+01  0.45819654103E+02  0.00000000000E+00 0.  1.
         11    1    4    4    0    0 -0.37942033442E+02 -0.52545593189E+02 -0.36670477092E+02  0.74467181734E+02  0.00000000000E+00 0. -1.
</event>
<event>
 8    1  0.6505836E-009  0.1223687E+03  0.7561462E-02  0.1239240E+00
          4   -1    0    0  501    0  0.00000000000E+00  0.00000000000E+00  0.60794639756E+02  0.60794639756E+02  0.00000000000E+00 0.  1.
         -4   -1    0    0    0  501 -0.00000000000E+00 -0.00000000000E+00 -0.25634329128E+03  0.25634329128E+03  0.00000000000E+00 0. -1.
         25    2    1    2    0    0 -0.57526362492E+02 -0.16129498084E+02 -0.89029491845E+02  0.16475228235E+03  0.12509045139E+03 0.  0.
         23    2    1    2    0    0  0.57526362492E+02  0.16129498084E+02 -0.10651915968E+03  0.15238564870E+03  0.91135127469E+02 0.  0.
          5    1    3    3  502    0  0.36321728845E+02  0.14121840091E+02 -0.33187603206E+02  0.51357411933E+02  0.41800000000E+01 0.  1.
         -5    1    3    3    0  502 -0.93848091337E+02 -0.30251338175E+02 -0.55841888639E+02  0.11339487041E+03  0.41800000000E+01 0.  1.
        -11    1    4    4    0    0  0.77629628175E+01  0.47431173934E+02 -0.33231652092E+02  0.58432204761E+02  0.00000000000E+00 0. -1.
         11    1    4    4    0    0  0.49763399675E+02 -0.31301675851E+02 -0.73287507591E+02  0.93953443934E+02  0.00000000000E+00 0.  1.
</event>
<event>
 8    1  0.6505836E-009  0.2371893E+03  0.7561462E-02  0.1121679E+00
          1   -1    0    0  501    0  0.00000000000E+00  0.00000000000E+00  0.14586950304E+04  0.14586950304E+04  0.00000000000E+00 0. -1.
         -1   -1    0    0    0  501 -0.00000000000E+00 -0.00000000000E+00 -0.46803359115E+02  0.46803359115E+02  0.00000000000E+00 0.  1.
         25    2    1    2    0    0 -0.13027538052E+03  0.16651113825E+03  0.95584166238E+03  0.98690417940E+03  0.12509573074E+03 0.  0.
         23    2    1    2    0    0  0.13027538052E+03 -0.16651113825E+03  0.45605000892E+03  0.51859421013E+03  0.12751748983E+03 0.  0.
          5    1    3    3  502    0 -0.12866353078E+03  0.85516406053E+02  0.74788590504E+03  0.76368721295E+03  0.41800000000E+01 0. -1.
         -5    1    3    3    0  502 -0.16118497338E+01  0.80994732199E+02  0.20795575733E+03  0.22321696645E+03  0.41800000000E+01 0. -1.
        -11    1    4    4    0    0  0.12912909933E+03 -0.79385147989E+02  0.22165754928E+03  0.26853006381E+03  0.00000000000E+00 0.  1.
         11    1    4    4    0    0  0.11462811892E+01 -0.87125990264E+02  0.23439245964E+03  0.25006414632E+03  0.00000000000E+00 0. -1.
</event>
<event>
 8    1  0.6505836E-009  0.1416765E+03  0.7561462E-02  0.1211091E+00
          2   -1    0    0  501    0  0.00000000000E+00  0.00000000000E+00  0.31695408043E+03  0.31695408043E+03  0.00000000000E+00 0. -1.
         -2   -1    0    0    0  501 -0.00000000000E+00 -0.00000000000E+00 -0.66996874688E+02  0.66996874688E+02  0.00000000000E+00 0.  1.
         25    2    1    2    0    0 -0.72345183134E+02  0.63424643028E+02  0.12233974641E+03  0.19967746108E+03  0.12509022363E+03 0.  0.
         23    2    1    2    0    0  0.72345183134E+02 -0.63424643028E+02  0.12761745933E+03  0.18427349403E+03  0.91727824619E+02 0.  0.
          5    1    3    3  502    0 -0.10319450324E+03  0.70912674188E+02  0.90728254430E+02  0.15468290601E+03  0.41800000000E+01 0. -1.
         -5    1    3    3    0  502  0.30849320104E+02 -0.74880311602E+01  0.31611491975E+02  0.44994555076E+02  0.41800000000E+01 0. -1.
        -11    1    4    4    0    0  0.81778801659E+02 -0.23584481984E+02  0.56324980142E+02  0.10206127365E+03  0.00000000000E+00 0.  1.
         11    1    4    4    0    0 -0.94336185247E+01 -0.39840161044E+02  0.71292479190E+02  0.82212220379E+02  0.00000000000E+00 0. -1.
</event>
<event>
 8    1  0.6505836E-009  0.1620620E+03  0.7561462E-02  0.1186388E+00
          2   -1    0    0  501    0  0.00000000000E+00  0.00000000000E+00  0.10551083549E+04  0.10551083549E+04  0.00000000000E+00 0. -1.
         -2   -1    0    0    0  501 -0.00000000000E+00 -0.00000000000E+00 -0.34062969152E+02  0.34062969152E+02  0.00000000000E+00 0.  1.
         25    2    1    2    0    0 -0.11440365741E+03 -0.60959374993E+02  0.78856491715E+03  0.80888040837E+03  0.12509454127E+03 0.  0.
         23    2    1    2    0    0  0.11440365741E+03  0.60959374993E+02  0.23248046863E+03  0.28029091571E+03  0.87815641599E+02 0.  0.
          5    1    3    3  502    0 -0.11282918893E+03  0.22280189789E+01  0.58066440705E+03  0.59154375659E+03  0.41800000000E+01 0. -1.
         -5    1    3    3    0  502 -0.15744684781E+01 -0.63187393972E+02  0.20790051009E+03  0.21733665177E+03  0.41800000000E+01 0. -1.
        -11    1    4    4    0    0  0.12418459445E+03  0.52160806118E+02  0.23052369572E+03  0.26699014492E+03  0.00000000000E+00 0. -1.
         11    1    4    4    0    0 -0.97809370384E+01  0.87985688743E+01  0.19567729067E+01  0.13300770797E+02  0.00000000000E+00 0.  1.
</event>
<event>
 8    1  0.6505836E-009  0.1248930E+03  0.7561462E-02  0.1235237E+00
          1   -1    0    0  501    0  0.00000000000E+00  0.00000000000E+00  0.28222483560E+03  0.28222483560E+03  0.00000000000E+00 0. -1.
         -1   -1    0    0    0  501 -0.00000000000E+00 -0.00000000000E+00 -0.57212189004E+02  0.57212189004E+02  0.00000000000E+00 0.  1.
         25    2    1    2    0    0  0.22866977859E+01 -0.66355484834E+02  0.12366106941E+03  0.18800913363E+03  0.12508834833E+03 0.  0.
         23    2    1    2    0    0 -0.22866977859E+01  0.66355484834E+02  0.10135157719E+03  0.15142789097E+03  0.90829425909E+02 0.  0.
          5    1    3    3  502    0 -0.17353066005E+02  0.33178971081E+02  0.49807182600E+02  0.62451588132E+02  0.41800000000E+01 0. -1.
         -5    1    3    3    0  502  0.19639763790E+02 -0.99534455915E+02  0.73853886806E+02  0.12555754550E+03  0.41800000000E+01 0. -1.
        -11    1    4    4    0    0  0.35383209142E+02  0.13132202743E+01  0.46167856778E+02  0.58182188307E+02  0.00000000000E+00 0.  1.
         11    1    4    4    0    0 -0.37669906928E+02  0.65042264560E+02  0.55183720415E+02  0.93245702667E+02  0.00000000000E+00 0. -1.
</event>
<event>
 8    1  0.6505836E-009  0.1489482E+03  0.7561462E-02  0.1201771E+00
         -1   -1    0    0    0  501 -0.00000000000E+00  0.00000000000E+00  0.15498105349E+03  0.15498105349E+03  0.00000000000E+00 0.  1.
          1   -1    0    0  501    0  0.00000000000E+00 -0.00000000000E+00 -0.21978962126E+03  0.21978962126E+03  0.00000000000E+00 0. -1.
         25    2    1    2    0    0 -0.13908925314E+03  0.15813714526E+02  0.18527484837E+02  0.18864522118E+03  0.12509139807E+03 0.  0.
         23    2    1    2    0    0  0.13908925314E+03 -0.15813714526E+02 -0.83336052609E+02  0.18612545357E+03  0.90010515473E+02 0.  0.
          5    1    3    3  502    0 -0.59809645482E+02  0.76804723725E+01 -0.53815679144E+02  0.80930730074E+02  0.41800000000E+01 0. -1.
         -5    1    3    3    0  502 -0.79279607658E+02  0.81332421535E+01  0.72343163981E+02  0.10771449110E+03  0.41800000000E+01 0. -1.
        -11    1    4    4    0    0  0.48281343912E+02  0.29063313641E+02 -0.59731827996E+02  0.82119764037E+02  0.00000000000E+00 0. -1.
         11    1    4    4    0    0  0.90807909229E+02 -0.44877028167E+02 -0.23604224613E+02  0.10400568953E+03  0.00000000000E+00 0.  1.
</event>
<event>
 8    1  0.6505836E-009  0.6662275E+02  0.7561462E-02  0.1371969E+00
         -2   -1    0    0    0  501 -0.00000000000E+00  0.00000000000E+00  0.10701805416E+03  0.10701805416E+03  0.00000000000E+00 0.  1.
          2   -1    0    0  501    0  0.00000000000E+00 -0.00000000000E+00 -0.20562503123E+03  0.20562503123E+03  0.00000000000E+00 0. -1.
         25    2    1    2    0    0 -0.45870158984E+01 -0.25237737930E+02 -0.15316321675E+03  0.19940849636E+03  0.12508714293E+03 0.  0.
         23    2    1    2    0    0  0.45870158984E+01  0.25237737930E+02  0.54556239676E+02  0.11323458903E+03  0.95852515542E+02 0.  0.
          5    1    3    3  502    0  0.72875957158E+01  0.20323339485E+02 -0.15046464986E+03  0.15206324486E+03  0.41800000000E+01 0. -1.
         -5    1    3    3    0  502 -0.11874611614E+02 -0.45561077415E+02 -0.26985668828E+01  0.47345251498E+02  0.41800000000E+01 0. -1.
        -11    1    4    4    0    0 -0.24301872700E+02  0.25322074540E+02  0.71566813186E+02  0.79709455056E+02  0.00000000000E+00 0.  1.
         11    1    4    4    0    0  0.28888888599E+02 -0.84336610573E-01 -0.17010573511E+02  0.33525133979E+02  0.00000000000E+00 0. -1.
</event>
<event>
 8    1  0.6505836E-009  0.7072210E+02  0.7561462E-02  0.1357655E+00
          2   -1    0    0  501    0  0.00000000000E+00  0.00000000000E+00  0.12330711377E+02  0.12330711377E+02  0.00000000000E+00 0. -1.
         -2   -1    0    0    0  501 -0.00000000000E+00 -0.00000000000E+00 -0.13610709621E+04  0.13610709621E+04  0.00000000000E+00 0.  1.
         25    2    1    2    0    0 -0.60966632325E+01  0.85534890759E+01 -0.11138949501E+04  0.11209458797E+04  0.12508946333E+03 0.  0.
         23    2    1    2    0    0  0.60966632325E+01 -0.85534890759E+01 -0.23484530067E+03  0.25245579384E+03  0.92039562801E+02 0.  0.
          5    1    3    3  502    0  0.19284200705E+02 -0.48733991843E+01 -0.27665963320E+02  0.34329409300E+02  0.41800000000E+01 0. -1.
         -5    1    3    3    0  502 -0.25380863937E+02  0.13426888260E+02 -0.10862289868E+04  0.10866164704E+04  0.41800000000E+01 0. -1.
        -11    1    4    4    0    0 -0.14533100646E+02  0.38269886943E+02 -0.91079525542E+02  0.99856272882E+02  0.00000000000E+00 0.  1.
         11    1    4    4    0    0  0.20629763879E+02 -0.46823376019E+02 -0.14376577512E+03  0.15259952096E+03  0.00000000000E+00 0. -1.
</event>
<event>
 8    1  0.6505836E-009  0.9035754E+02  0.7561462E-02  0.1301988E+00
         -1   -1    0    0    0  501 -0.00000000000E+00  0.00000000000E+00  0.12080053802E+03  0.12080053802E+03  0.00000000000E+00 0.  1.
          1   -1    0    0  501    0  0.00000000000E+00 -0.00000000000E+00 -0.10809734646E+03  0.10809734646E+03  0.00000000000E+00 0. -1.
         25    2    1    2    0    0  0.31594385619E+02  0.35369380799E+01  0.20276592864E+02  0.13065290487E+03  0.12509327000E+03 0.  0.
         23    2    1    2    0    0 -0.31594385619E+02 -0.35369380799E+01 -0.75734013084E+01  0.98244979602E+02  0.92649902731E+02 0.  0.
          5    1    3    3  502    0  0.65449813013E+02  0.23722485955E+02  0.45866863073E+02  0.83472605634E+02  0.41800000000E+01 0.  1.
         -5    1    3    3    0  502 -0.33855427394E+02 -0.20185547875E+02 -0.25590270208E+02  0.47180299240E+02  0.41800000000E+01 0.  1.
        -11    1    4    4    0    0 -0.50435481352E+02 -0.99998899928E+01  0.27201656795E+02  0.58169284949E+02  0.00000000000E+00 0.  1.
         11    1    4    4    0    0  0.18841095733E+02  0.64629519128E+01 -0.34775058103E+02  0.40075694653E+02  0.00000000000E+00 0. -1.
</event>
<event>
 8    1  0.6505836E-009  0.6334289E+02  0.7561462E-02  0.1384316E+00
          2   -1    0    0  501    0  0.00000000000E+00  0.00000000000E+00  0.60934669432E+03  0.60934669432E+03  0.00000000000E+00 0. -1.
         -2   -1    0    0    0  501 -0.00000000000E+00 -0.00000000000E+00 -0.24449998561E+02  0.24449998561E+02  0.00000000000E+00 0.  1.
         25    2    1    2    0    0 -0.88128739349E+00 -0.54538522078E+02  0.37513512630E+03  0.39918445836E+03  0.12508653708E+03 0.  0.
         23    2    1    2    0    0  0.88128739349E+00  0.54538522078E+02  0.20976156947E+03  0.23461223452E+03  0.89820696413E+02 0.  0.
          5    1    3    3  502    0 -0.87066607998E+01 -0.29952294585E+01 -0.77522158924E+01  0.12741530247E+02  0.41800000000E+01 0.  1.
         -5    1    3    3    0  502  0.78253734063E+01 -0.51543292620E+02  0.38288734219E+03  0.38644292812E+03  0.41800000000E+01 0.  1.
        -11    1    4    4    0    0 -0.10700206028E+02  0.51075816764E+02  0.21514225149E+03  0.22138071696E+03  0.00000000000E+00 0. -1.
         11    1    4    4    0    0  0.11581493422E+02  0.34627053142E+01 -0.53806820201E+01  0.13231517561E+02  0.00000000000E+00 0.  1.
</event>
<event>
 8    1  0.6505836E-009  0.2977264E+03  0.7561462E-02  0.1086383E+00
         -2   -1    0    0    0  501 -0.00000000000E+00  0.00000000000E+00  0.57860169877E+03  0.57860169877E+03  0.00000000000E+00 0.  1.
          2   -1    0    0  501    0  0.00000000000E+00 -0.00000000000E+00 -0.19953013448E+03  0.19953013448E+03  0.00000000000E+00 0. -1.
         25    2    1    2    0    0  0.27943618934E+03 -0.99358639540E+02  0.49825142601E+02  0.32570839258E+03  0.12508672590E+03 0.  0.
         23    2    1    2    0    0 -0.27943618934E+03  0.99358639540E+02  0.32924642169E+03  0.45242344067E+03  0.91252618089E+02 0.  0.
          5    1    3    3  502    0  0.21376946813E+02 -0.14476056942E+02 -0.32593775278E+02  0.41789432474E+02  0.41800000000E+01 0.  1.
         -5    1    3    3    0  502  0.25805924253E+03 -0.84882582598E+02  0.82418917879E+02  0.28391896010E+03  0.41800000000E+01 0.  1.
        -11    1    4    4    0    0 -0.13043932421E+03  0.59507702310E+02  0.22308728687E+03  0.26518582447E+03  0.00000000000E+00 0.  1.
         11    1    4    4    0    0 -0.14899686513E+03  0.39850937230E+02  0.10615913482E+03  0.18723761620E+03  0.00000000000E+00 0. -1.
</event>
<event>
 8    1  0.6505836E-009  0.1013964E+03  0.7561462E-02  0.1277387E+00
          1   -1    0    0  501    0  0.00000000000E+00  0.00000000000E+00  0.13774053211E+03  0.13774053211E+03  0.00000000000E+00 0. -1.
         -1   -1    0    0    0  501 -0.00000000000E+00 -0.00000000000E+00 -0.12284722968E+03  0.12284722968E+03  0.00000000000E+00 0.  1.
         25    2    1    2    0    0 -0.33356423307E+02 -0.62042204940E+02  0.14664709268E+02  0.14430743060E+03  0.12509074569E+03 0.  0.
         23    2    1    2    0    0  0.33356423307E+02  0.62042204940E+02  0.22859316107E+00  0.11628033120E+03  0.92515820262E+02 0.  0.
          5    1    3    3  502    0  0.14381674983E+02 -0.24829589472E+01  0.55570510826E+02  0.57606872280E+02  0.41800000000E+01 0.  1.
         -5    1    3    3    0  502 -0.47738098289E+02 -0.59559245992E+02 -0.40905801558E+02  0.86700558317E+02  0.41800000000E+01 0.  1.
        -11    1    4    4    0    0 -0.15603618424E+02 -0.13842764514E+02 -0.13626304426E+02  0.24915280645E+02  0.00000000000E+00 0. -1.
         11    1    4    4    0    0  0.48960041730E+02  0.75884969454E+02  0.13854897587E+02  0.91365050552E+02  0.00000000000E+00 0.  1.
</event>
<event>
 8    1  0.6505836E-009  0.1559177E+03  0.7561462E-02  0.1193384E+00
         -2   -1    0    0    0  501 -0.00000000000E+00  0.00000000000E+00  0.52750372886E+02  0.52750372886E+02  0.00000000000E+00 0.  1.
          2   -1    0    0  501    0  0.00000000000E+00 -0.00000000000E+00 -0.92973710668E+03  0.92973710668E+03  0.00000000000E+00 0. -1.
         25    2    1    2    0    0 -0.69809465970E+02 -0.10003136495E+03 -0.78610508330E+03  0.80528643095E+03  0.12508156690E+03 0.  0.
         23    2    1    2    0    0  0.69809465970E+02  0.10003136495E+03 -0.90881650489E+02  0.17720104861E+03  0.90890603032E+02 0.  0.
          5    1    3    3  502    0 -0.96687298669E+02 -0.10923146503E+03 -0.66469501955E+03  0.68052691945E+03  0.41800000000E+01 0.  1.
         -5    1    3    3    0  502  0.26877832699E+02  0.92001000816E+01 -0.12141006375E+03  0.12475951151E+03  0.41800000000E+01 0.  1.
        -11    1    4    4    0    0  0.61456545007E+02  0.33234368367E+02 -0.84409068924E+02  0.10957335936E+03  0.00000000000E+00 0. -1.
         11    1    4    4    0    0  0.83529209628E+01  0.66796996579E+02 -0.64725815652E+01  0.67627689246E+02  0.00000000000E+00 0.  1.
</event>
<event>
 8    1  0.6505836E-009  0.1578760E+03  0.7561462E-02  0.1191116E+00
         -2   -1    0    0    0  501 -0.00000000000E+00  0.00000000000E+00  0.48721340502E+02  0.48721340502E+02  0.00000000000E+00 0.  1.
          2   -1    0    0  501    0  0.00000000000E+00 -0.00000000000E+00 -0.63129274376E+03  0.63129274376E+03  0.00000000000E+00 0. -1.
         25    2    1    2    0    0 -0.44473004441E+02  0.12653674223E+03 -0.24631984732E+03  0.30710221356E+03  0.12509559198E+03 0.  0.
         23    2    1    2    0    0  0.44473004441E+02 -0.12653674223E+03 -0.33625155594E+03  0.37291187070E+03  0.89491670995E+02 0.  0.
          5    1    3    3  502    0 -0.12586714760E+02  0.13681235223E+03 -0.23357057950E+03  0.27101426737E+03  0.41800000000E+01 0. -1.
         -5    1    3    3    0  502 -0.31886289680E+02 -0.10275609993E+02 -0.12749267816E+02  0.36087946189E+02  0.41800000000E+01 0. -1.
        -11    1    4    4    0    0 -0.21342500397E+00 -0.80069327934E+02 -0.10045629994E+03  0.12846248878E+03  0.00000000000E+00 0.  1.
         11    1    4    4    0    0  0.44686429445E+02 -0.46467414300E+02 -0.23579525600E+03  0.24444938192E+03  0.00000000000E+00 0. -1.
</event>
<event>
 8    1  0.6505836E-009  0.1009615E+03  0.7561462E-02  0.1278287E+00
          2   -1    0    0  501    0  0.00000000000E+00  0.00000000000E+00  0.79750113619E+03  0.79750113619E+03  0.00000000000E+00 0. -1.
         -2   -1    0    0    0  501 -0.00000000000E+00 -0.00000000000E+00 -0.19392689620E+02  0.19392689620E+02  0.00000000000E+00 0.  1.
         25    2    1    2    0    0 -0.34291907295E+02  0.39069227062E+02  0.53920867542E+03  0.55596407606E+03  0.12509084226E+03 0.  0.
         23    2    1    2    0    0  0.34291907295E+02 -0.39069227062E+02  0.23889977115E+03  0.26092974975E+03  0.91153136192E+02 0.  0.
          5    1    3    3  502    0  0.26111818650E+02  0.23228720807E+01  0.38889280710E+03  0.38979778171E+03  0.41800000000E+01 0.  1.
         -5    1    3    3    0  502 -0.60403725944E+02  0.36746354981E+02  0.15031586831E+03  0.16616629435E+03  0.41800000000E+01 0.  1.
        -11    1    4    4    0    0  0.59999415607E+02 -0.48517834939E+02  0.18571631251E+03  0.20110807769E+03  0.00000000000E+00 0.  1.
         11    1    4    4    0    0 -0.25707508313E+02  0.94486078774E+01  0.53183458644E+02  0.59821672058E+02  0.00000000000E+00 0. -1.
</event>
<event>
 8    1  0.6505836E-009  0.1314652E+03  0.7561462E-02  0.1225298E+00
         -2   -1    0    0    0  501 -0.00000000000E+00  0.00000000000E+00  0.14722701422E+03  0.14722701422E+03  0.00000000000E+00 0.  1.
          2   -1    0    0  501    0  0.00000000000E+00 -0.00000000000E+00 -0.18869264860E+03  0.18869264860E+03  0.00000000000E+00 0. -1.
         25    2    1    2    0    0  0.23094349079E+02 -0.12361280327E+03 -0.18732334090E+02  0.17835567384E+03  0.12508545862E+03 0.  0.
         23    2    1    2    0    0 -0.23094349079E+02  0.12361280327E+03 -0.22733300289E+02  0.15756398898E+03  0.92174473639E+02 0.  0.
          5    1    3    3  502    0  0.20411636321E+02 -0.53166976443E+02  0.52845300477E+02  0.77803987455E+02  0.41800000000E+01 0. -1.
         -5    1    3    3    0  502  0.26827127580E+01 -0.70445826822E+02 -0.71577634567E+02  0.10055168638E+03  0.41800000000E+01 0. -1.
        -11    1    4    4    0    0 -0.30192509521E+02  0.34643065248E+02  0.29061096354E+02  0.54371655504E+02  0.00000000000E+00 0.  1.
         11    1    4    4    0    0  0.70981604423E+01  0.88969738017E+02 -0.51794396642E+02  0.10319233347E+03  0.00000000000E+00 0. -1.
</event>
<event>
 8    1  0.6505836E-009  0.1223810E+03  0.7561462E-02  0.1239220E+00
          1   -1    0    0  501    0  0.00000000000E+00  0.00000000000E+00  0.47252874767E+03  0.47252874767E+03  0.00000000000E+00 0. -1.
         -1   -1    0    0    0  501 -0.00000000000E+00 -0.00000000000E+00 -0.43284948536E+02  0.43284948536E+02  0.00000000000E+00 0.  1.
         25    2    1    2    0    0  0.80479949235E+02 -0.24241474284E+02  0.30895799262E+03  0.34375546807E+03  0.12509240312E+03 0.  0.
         23    2    1    2    0    0 -0.80479949235E+02  0.24241474284E+02  0.12028580651E+03  0.17205822814E+03  0.89837004162E+02 0.  0.
          5    1    3    3  502    0  0.67726854946E+02  0.29618496920E+02  0.83643184897E+02  0.11170423904E+03  0.41800000000E+01 0.  1.
         -5    1    3    3    0  502  0.12753094290E+02 -0.53859971204E+02  0.22531480772E+03  0.23205122902E+03  0.41800000000E+01 0.  1.
        -11    1    4    4    0    0 -0.57968209893E+02  0.53102696763E+02  0.51028739965E+02  0.93723754002E+02  0.00000000000E+00 0. -1.
         11    1    4    4    0    0 -0.22511739342E+02 -0.28861222479E+02  0.69257066549E+02  0.78334474136E+02  0.00000000000E+00 0.  1.
</event>
<event>
 8    1  0.6505836E-009  0.1078038E+03  0.7561462E-02  0.1264692E+00
         -1   -1    0    0    0  501 -0.00000000000E+00  0.00000000000E+00  0.32069497440E+02  0.32069497440E+02  0.00000000000E+00 0.  1.
          1   -1    0    0  501    0  0.00000000000E+00 -0.00000000000E+00 -0.44313932576E+03  0.44313932576E+03  0.00000000000E+00 0. -1.
         25    2    1    2    0    0 -0.48537608277E+01  0.51729730734E+02 -0.18340129609E+03  0.22800453688E+03  0.12510199597E+03 0.  0.
         23    2    1    2    0    0  0.48537608277E+01 -0.51729730734E+02 -0.22766853223E+03  0.24720428632E+03  0.81101631123E+02 0.  0.
          5    1    3    3  502    0 -0.62460012821E+02  0.12341037806E+02 -0.69386399819E+02  0.94262926411E+02  0.41800000000E+01 0.  1.
         -5    1    3    3    0  502  0.57606251993E+02  0.39388692928E+02 -0.11401489627E+03  0.13374161047E+03  0.41800000000E+01 0.  1.
        -11    1    4    4    0    0 -0.29113180581E+02 -0.28509203004E+02 -0.48371552821E+02  0.63246810685E+02  0.00000000000E+00 0.  1.
         11    1    4    4    0    0  0.33966941409E+02 -0.23220527730E+02 -0.17929697941E+03  0.18395747563E+03  0.00000000000E+00 0. -1.
</event>
<event>
 8    1  0.6505836E-009  0.1187731E+03  0.7561462E-02  0.1245135E+00
          1   -1    0    0  501    0  0.00000000000E+00  0.00000000000E+00  0.81361603007E+03  0.81361603007E+03  0.00000000000E+00 0. -1.
         -1   -1    0    0    0  501 -0.00000000000E+00 -0.00000000000E+00 -0.20046693221E+02  0.20046693221E+02  0.00000000000E+00 0.  1.
         25    2    1    2    0    0  0.61736690325E+02  0.30945504711E+01  0.51996824894E+03  0.53836946086E+03  0.12511475257E+03 0.  0.
         23    2    1    2    0    0 -0.61736690325E+02 -0.30945504711E+01  0.27360108792E+03  0.29529326243E+03  0.92301464533E+02 0.  0.
          5    1    3    3  502    0  0.94029680892E+02  0.24783940296E+02  0.31476629726E+03  0.32947096819E+03  0.41800000000E+01 0. -1.
         -5    1    3    3    0  502 -0.32292990567E+02 -0.21689389825E+02  0.20520195167E+03  0.20889849267E+03  0.41800000000E+01 0. -1.
        -11    1    4    4    0    0 -0.11351013327E+02 -0.38089177672E+02  0.52547615225E+02  0.65885376413E+02  0.00000000000E+00 0.  1.
         11    1    4    4    0    0 -0.50385676998E+02  0.34994627201E+02  0.22105347269E+03  0.22940788602E+03  0.00000000000E+00 0. -1.
</event>
<event>
 8    1  0.6505836E-009  0.6833470E+02  0.7561462E-02  0.1365849E+00
         -1   -1    0    0    0  501 -0.00000000000E+00  0.00000000000E+00  0.14499408742E+03  0.14499408742E+03  0.00000000000E+00 0.  1.
          1   -1    0    0  501    0  0.00000000000E+00 -0.00000000000E+00 -0.14990564792E+03  0.14990564792E+03  0.00000000000E+00 0. -1.
         25    2    1    2    0    0  0.44034235082E+02 -0.27319379297E+02 -0.89259996148E+02  0.16217200086E+03  0.12508816334E+03 0.  0.
         23    2    1    2    0    0 -0.44034235082E+02  0.27319379297E+02  0.84348435649E+02  0.13272773447E+03  0.88411710519E+02 0.  0.
          5    1    3    3  502    0 -0.24622795923E+01 -0.19206293196E+02 -0.10904046238E+03  0.11082526497E+03  0.41800000000E+01 0. -1.
         -5    1    3    3    0  502  0.46496514674E+02 -0.81130861003E+01  0.19780466231E+02  0.51346735897E+02  0.41800000000E+01 0. -1.
        -11    1    4    4    0    0 -0.41916663163E+02 -0.15830520627E+00 -0.21231352682E+01  0.41970697094E+02  0.00000000000E+00 0. -1.
         11    1    4    4    0    0 -0.21175719196E+01  0.27477684503E+02  0.86471570917E+02  0.90757037376E+02  0.00000000000E+00 0.  1.
</event>
<event>
 8    1  0.6505836E-009  0.1146704E+03  0.7561462E-02  0.1252157E+00
         -1   -1    0    0    0  501 -0.00000000000E+00  0.00000000000E+00  0.31533048582E+02  0.31533048582E+02  0.00000000000E+00 0.  1.
          1   -1    0    0  501    0  0.00000000000E+00 -0.00000000000E+00 -0.53126538857E+03  0.53126538857E+03  0.00000000000E+00 0. -1.
         25    2    1    2    0    0 -0.69425209890E+02  0.82391195687E+01 -0.30321634533E+03  0.33537326329E+03  0.12508929128E+03 0.  0.
         23    2    1    2    0    0  0.69425209890E+02 -0.82391195687E+01 -0.19651599466E+03  0.22742517387E+03  0.90641771230E+02 0.  0.
          5    1    3    3  502    0 -0.93179728909E+02  0.28049983818E+01 -0.12790540717E+03  0.15832749439E+03  0.41800000000E+01 0. -1.
         -5    1    3    3    0  502  0.23754519019E+02  0.54341211869E+01 -0.17531093816E+03  0.17704576890E+03  0.41800000000E+01 0. -1.
        -11    1    4    4    0    0 -0.20724282696E+02  0.48991896335E+00 -0.18913037112E+02  0.28061341498E+02  0.00000000000E+00 0.  1.
         11    1    4    4    0    0  0.90149492586E+02 -0.87290385321E+01 -0.17760295755E+03  0.19936383237E+03  0.00000000000E+00 0. -1.
</event>
<event>
 8    1  0.6505836E-009  0.1332746E+03  0.7561462E-02  0.1222676E+00
          1   -1    0    0  501    0  0.00000000000E+00  0.00000000000E+00  0.65163490572E+03  0.65163490572E+03  0.00000000000E+00 0. -1.
         -1   -1    0    0    0  501 -0.00000000000E+00 -0.00000000000E+00 -0.30474043084E+02  0.30474043084E+02  0.00000000000E+00 0.  1.
         25    2    1    2    0    0 -0.88233632297E+02  0.14413796369E+02  0.31453469866E+03  0.35010292527E+03  0.12508816981E+03 0.  0.
         23    2    1    2    0    0  0.88233632297E+02 -0.14413796369E+02  0.30662616398E+03  0.33200602354E+03  0.90639195909E+02 0.  0.
          5    1    3    3  502    0 -0.11313006098E+03  0.61545689005E+01  0.29794366051E+03  0.31878548690E+03  0.41800000000E+01 0. -1.
         -5    1    3    3    0  502  0.24896428682E+02  0.82592274689E+01  0.16591038149E+02  0.31317438375E+02  0.41800000000E+01 0. -1.
        -11    1    4    4    0    0  0.92781506205E+02 -0.39702080309E+02  0.22938789938E+03  0.25060620794E+03  0.00000000000E+00 0. -1.
         11    1    4    4    0    0 -0.45478739080E+01  0.25288283939E+02  0.77238264592E+02  0.81399815595E+02  0.00000000000E+00 0.  1.
</event>
<event>
 8    1  0.6505836E-009  0.1082977E+03  0.7561462E-02  0.1263755E+00
         -2   -1    0    0    0  501 -0.00000000000E+00  0.00000000000E+00  0.25317689671E+02  0.25317689671E+02  0.00000000000E+00 0.  1.
          2   -1    0    0  501    0  0.00000000000E+00 -0.00000000000E+00 -0.71133964211E+03  0.71133964211E+03  0.00000000000E+00 0. -1.
         25    2    1    2    0    0  0.45182795989E+02  0.14754126097E+02 -0.54877378724E+03  0.56485314959E+03  0.12508893535E+03 0.  0.
         23    2    1    2    0    0 -0.45182795989E+02 -0.14754126097E+02 -0.13724816520E+03  0.17180418219E+03  0.91763003863E+02 0.  0.
          5    1    3    3  502    0  0.32505550375E+02  0.68089288463E+02 -0.25426503447E+03  0.26525637063E+03  0.41800000000E+01 0. -1.
         -5    1    3    3    0  502  0.12677245614E+02 -0.53335162366E+02 -0.29450875277E+03  0.29959677896E+03  0.41800000000E+01 0. -1.
        -11    1    4    4    0    0  0.19321475334E+02  0.19427078315E+01 -0.84836374040E+02  0.87030476749E+02  0.00000000000E+00 0. -1.
         11    1    4    4    0    0 -0.64504271323E+02 -0.16696833929E+02 -0.52411791156E+02  0.84773705442E+02  0.00000000000E+00 0.  1.
</event>
<event>
 8    1  0.6505836E-009  0.2187507E+03  0.7561462E-02  0.1134818E+00
          1   -1    0    0  501    0  0.00000000000E+00  0.00000000000E+00  0.45373573207E+03  0.45373573207E+03  0.00000000000E+00 0. -1.
         -1   -1    0    0    0  501 -0.00000000000E+00 -0.00000000000E+00 -0.11400248032E+03  0.11400248032E+03  0.00000000000E+00 0.  1.
         25    2    1    2    0    0 -0.13002936252E+03 -0.13944965962E+03  0.24911696355E+03  0.33773364223E+03  0.12510359260E+03 0.  0.
         23    2    1    2    0    0  0.13002936252E+03  0.13944965962E+03  0.90616288200E+02  0.23000457016E+03  0.91306888689E+02 0.  0.
          5    1    3    3  502    0 -0.14100591067E+02 -0.10531324679E+03  0.13061401230E+03  0.16842564895E+03  0.41800000000E+01 0.  1.
         -5    1    3    3    0  502 -0.11592877145E+03 -0.34136412829E+02  0.11850295125E+03  0.16930799328E+03  0.41800000000E+01 0.  1.
        -11    1    4    4    0    0  0.91541113412E+02  0.14487736245E+03  0.64183652674E+02  0.18299936302E+03  0.00000000000E+00 0.  1.
         11    1    4    4    0    0  0.38488249109E+02 -0.54277028305E+01  0.26432635526E+02  0.47005207141E+02  0.00000000000E+00 0. -1.
</event>
<event>
 8    1  0.6505836E-009  0.2574529E+03  0.7561462E-02  0.1108683E+00
          1   -1    0    0  501    0  0.00000000000E+00  0.00000000000E+00  0.12198154969E+03  0.12198154969E+03  0.00000000000E+00 0. -1.
         -1   -1    0    0    0  501 -0.00000000000E+00 -0.00000000000E+00 -0.65234642008E+03  0.65234642008E+03  0.00000000000E+00 0.  1.
         25    2    1    2    0    0 -0.13722355205E+03  0.21184998048E+03 -0.35228193339E+03  0.45106650364E+03  0.12509081758E+03 0.  0.
         23    2    1    2    0    0  0.13722355205E+03 -0.21184998048E+03 -0.17808293700E+03  0.32326146613E+03  0.95256105150E+02 0.  0.
          5    1    3    3  502    0 -0.97989006731E+02  0.17192496129E+03 -0.34028878936E+03  0.39366733459E+03  0.41800000000E+01 0. -1.
         -5    1    3    3    0  502 -0.39234545322E+02  0.39925019193E+02 -0.11993144028E+02  0.57399169052E+02  0.41800000000E+01 0. -1.
        -11    1    4    4    0    0  0.78569630343E+02 -0.62534246490E+02 -0.29651511161E+02  0.10470401573E+03  0.00000000000E+00 0.  1.
         11    1    4    4    0    0  0.58653921709E+02 -0.14931573399E+03 -0.14843142584E+03  0.21855745040E+03  0.00000000000E+00 0. -1.
</event>
<event>
 8    1  0.6505836E-009  0.9426573E+02  0.7561462E-02  0.1292838E+00
         -1   -1    0    0    0  501 -0.00000000000E+00  0.00000000000E+00  0.11755992829E+03  0.11755992829E+03  0.00000000000E+00 0.  1.
          1   -1    0    0  501    0  0.00000000000E+00 -0.00000000000E+00 -0.15531573191E+03  0.15531573191E+03  0.00000000000E+00 0. -1.
         25    2    1    2    0    0 -0.24365789104E+02 -0.49672403630E+02 -0.69345373647E+02  0.15335219325E+03  0.12508826870E+03 0.  0.
         23    2    1    2    0    0  0.24365789104E+02  0.49672403630E+02  0.31589570024E+02  0.11952346695E+03  0.10112822977E+03 0.  0.
          5    1    3    3  502    0 -0.49781608527E+02 -0.14557163745E+02  0.18564350430E+02  0.55246964357E+02  0.41800000000E+01 0.  1.
         -5    1    3    3    0  502  0.25415819423E+02 -0.35115239885E+02 -0.87909724076E+02  0.98105228894E+02  0.41800000000E+01 0.  1.
        -11    1    4    4    0    0  0.19231006329E+02 -0.17246906592E+02  0.44236286527E+02  0.51226325626E+02  0.00000000000E+00 0.  1.
         11    1    4    4    0    0  0.51347827750E+01  0.66919310221E+02 -0.12646716503E+02  0.68297141324E+02  0.00000000000E+00 0. -1.
</event>
<event>
 8    1  0.6505836E-009  0.1328698E+03  0.7561462E-02  0.1223259E+00
         -2   -1    0    0    0  501 -0.00000000000E+00  0.00000000000E+00  0.14717607496E+03  0.14717607496E+03  0.00000000000E+00 0.  1.
          2   -1    0    0  501    0  0.00000000000E+00 -0.00000000000E+00 -0.19792044478E+03  0.19792044478E+03  0.00000000000E+00 0. -1.
         25    2    1    2    0    0 -0.12592394338E+03  0.20786152030E+02 -0.47112082733E+02  0.18481306277E+03  0.12508963266E+03 0.  0.
         23    2    1    2    0    0  0.12592394338E+03 -0.20786152030E+02 -0.36322870906E+01  0.16028345697E+03  0.96895249815E+02 0.  0.
          5    1    3    3  502    0 -0.94976515283E+02  0.88968792042E+01  0.30562567992E+02  0.10025585208E+03  0.41800000000E+01 0. -1.
         -5    1    3    3    0  502 -0.30947428095E+02  0.11889272826E+02 -0.77674650725E+02  0.84557210688E+02  0.41800000000E+01 0. -1.
        -11    1    4    4    0    0  0.46003627618E+02 -0.32138705069E+02  0.39628252191E+02  0.68699552322E+02  0.00000000000E+00 0.  1.
         11    1    4    4    0    0  0.79920315760E+02  0.11352553039E+02 -0.43260539281E+02  0.91583904648E+02  0.00000000000E+00 0. -1.
</event>
<event>
 8    1  0.6505836E-009  0.1330892E+03  0.7561462E-02  0.1222943E+00
         -1   -1    0    0    0  501 -0.00000000000E+00  0.00000000000E+00  0.21066704937E+03  0.21066704937E+03  0.00000000000E+00 0.  1.
          1   -1    0    0  501    0  0.00000000000E+00 -0.00000000000E+00 -0.12299492033E+03  0.12299492033E+03  0.00000000000E+00 0. -1.
         25    2    1    2    0    0  0.71803039447E+02  0.34885480015E+02 -0.44388990777E+02  0.15488845918E+03  0.12508948436E+03 0.  0.
         23    2    1    2    0    0 -0.71803039447E+02 -0.34885480015E+02  0.13206111982E+03  0.17877351052E+03  0.90261594868E+02 0.  0.
          5    1    3    3  502    0  0.48109208895E+02 -0.44157911552E+02 -0.14491521079E+02  0.67021591418E+02  0.41800000000E+01 0. -1.
         -5    1    3    3    0  502  0.23693830553E+02  0.79043391567E+02 -0.29897469698E+02  0.87866867766E+02  0.41800000000E+01 0. -1.
        -11    1    4    4    0    0 -0.15587071369E+01  0.25462854573E+02  0.15305093669E+02  0.29749494503E+02  0.00000000000E+00 0.  1.
         11    1    4    4    0    0 -0.70244332310E+02 -0.60348334589E+02  0.11675602615E+03  0.14902401602E+03  0.00000000000E+00 0. -1.
</event>
<event>
 8    1  0.6505836E-009  0.1501109E+03  0.7561462E-02  0.1200337E+00
          2   -1    0    0  501    0  0.00000000000E+00  0.00000000000E+00  0.31315526096E+02  0.31315526096E+02  0.00000000000E+00 0. -1.
         -2   -1    0    0    0  501 -0.00000000000E+00 -0.00000000000E+00 -0.93833666723E+03  0.93833666723E+03  0.00000000000E+00 0.  1.
         25    2    1    2    0    0  0.33985652538E+02 -0.12730350372E+03 -0.47967673783E+03  0.51293130975E+03  0.12509016377E+03 0.  0.
         23    2    1    2    0    0 -0.33985652538E+02  0.12730350372E+03 -0.42734440330E+03  0.45672088357E+03  0.92787498182E+02 0.  0.
          5    1    3    3  502    0  0.47472408304E+02 -0.55431060457E+02 -0.39166176306E+03  0.39842520134E+03  0.41800000000E+01 0.  1.
         -5    1    3    3    0  502 -0.13486755765E+02 -0.71872443263E+02 -0.88014974765E+02  0.11450610842E+03  0.41800000000E+01 0.  1.
        -11    1    4    4    0    0 -0.54167814091E+02  0.49100081221E+02 -0.27176068904E+03  0.28142288849E+03  0.00000000000E+00 0.  1.
         11    1    4    4    0    0  0.20182161553E+02  0.78203422499E+02 -0.15558371426E+03  0.17529799508E+03  0.00000000000E+00 0. -1.
</event>
<event>
 8    1  0.6505836E-009  0.9328365E+02  0.7561462E-02  0.1295089E+00
          4   -1    0    0  501    0  0.00000000000E+00  0.00000000000E+00  0.81064635406E+02  0.81064635406E+02  0.00000000000E+00 0. -1.
         -4   -1    0    0    0  501 -0.00000000000E+00 -0.00000000000E+00 -0.23180723672E+03  0.23180723672E+03  0.00000000000E+00 0.  1.
         25    2    1    2    0    0 -0.73428670931E+02  0.26771380377E+02 -0.48387931467E+02  0.15523442251E+03  0.12509139658E+03 0.  0.
         23    2    1    2    0    0  0.73428670931E+02 -0.26771380377E+02 -0.10235466985E+03  0.15763744962E+03  0.90909903530E+02 0.  0.
          5    1    3    3  502    0 -0.33910569388E+02  0.21983573901E+02  0.40737036759E+02  0.57534188111E+02  0.41800000000E+01 0.  1.
         -5    1    3    3    0  502 -0.39518101543E+02  0.47878064757E+01 -0.89124968227E+02  0.97700234400E+02  0.41800000000E+01 0.  1.
        -11    1    4    4    0    0  0.50048948828E+02  0.19783448134E+02 -0.14899187121E+02  0.55841453023E+02  0.00000000000E+00 0. -1.
         11    1    4    4    0    0  0.23379722104E+02 -0.46554828511E+02 -0.87455482729E+02  0.10179599659E+03  0.00000000000E+00 0.  1.
</event>
<event>
 8    1  0.6505836E-009  0.1633277E+03  0.7561462E-02  0.1184990E+00
          1   -1    0    0  501    0  0.00000000000E+00  0.00000000000E+00  0.61038065328E+03  0.61038065328E+03  0.00000000000E+00 0. -1.
         -1   -1    0    0    0  501 -0.00000000000E+00 -0.00000000000E+00 -0.54098603554E+02  0.54098603554E+02  0.00000000000E+00 0.  1.
         25    2    1    2    0    0 -0.93944509325E+02 -0.10694795973E+03  0.23093675756E+03  0.29873078472E+03  0.12507941008E+03 0.  0.
         23    2    1    2    0    0  0.93944509325E+02  0.10694795973E+03  0.32534529217E+03  0.36574847212E+03  0.87515420337E+02 0.  0.
          5    1    3    3  502    0 -0.10458943643E+03 -0.10642038345E+03  0.24100336571E+03  0.28348605417E+03  0.41800000000E+01 0.  1.
         -5    1    3    3    0  502  0.10644927104E+02 -0.52757627509E+00 -0.10066608151E+02  0.15244730547E+02  0.41800000000E+01 0.  1.
        -11    1    4    4    0    0  0.76931458422E+02  0.23020401081E+02  0.13598535174E+03  0.15792531161E+03  0.00000000000E+00 0.  1.
         11    1    4    4    0    0  0.17013050903E+02  0.83927558648E+02  0.18935994043E+03  0.20782316050E+03  0.00000000000E+00 0. -1.
</event>
<event>
 8    1  0.6505836E-009  0.9486750E+02  0.7561462E-02  0.1291475E+00
         -2   -1    0    0    0  501 -0.00000000000E+00  0.00000000000E+00  0.62496974951E+02  0.62496974951E+02  0.00000000000E+00 0.  1.
          2   -1    0    0  501    0  0.00000000000E+00 -0.00000000000E+00 -0.27260781047E+03  0.27260781047E+03  0.00000000000E+00 0. -1.
         25    2    1    2    0    0 -0.41342027227E+01 -0.40240516706E+02 -0.19268712142E+03  0.23326560147E+03  0.12509245881E+03 0.  0.
         23    2    1    2    0    0  0.41342027227E+01  0.40240516706E+02 -0.17423714101E+02  0.10183918395E+03  0.91821798924E+02 0.  0.
          5    1    3    3  502    0  0.47232124951E+02 -0.32511431514E+02 -0.35274095559E+02  0.67450730344E+02  0.41800000000E+01 0.  1.
         -5    1    3    3    0  502 -0.51366327674E+02 -0.77290851919E+01 -0.15741302586E+03  0.16581487113E+03  0.41800000000E+01 0.  1.
        -11    1    4    4    0    0  0.34862571387E+02  0.34154814955E+02 -0.40101297709E+02  0.63166956126E+02  0.00000000000E+00 0. -1.
         11    1    4    4    0    0 -0.30728368664E+02  0.60857017510E+01  0.22677583608E+02  0.38672227824E+02  0.00000000000E+00 0.  1.
</event>
<event>
 8    1  0.6505836E-009  0.1269839E+03  0.7561462E-02  0.1232001E+00
          2   -1    0    0  501    0  0.00000000000E+00  0.00000000000E+00  0.11860378292E+04  0.11860378292E+04  0.00000000000E+00 0. -1.
         -2   -1    0    0    0  501 -0.00000000000E+00 -0.00000000000E+00 -0.23188071220E+02  0.23188071220E+02  0.00000000000E+00 0.  1.
         25    2    1    2    0    0  0.10906933994E+03  0.61145360773E+02  0.64656539297E+03  0.67032171017E+03  0.12509800833E+03 0.  0.
         23    2    1    2    0    0 -0.10906933994E+03 -0.61145360773E+02  0.51628436499E+03  0.53890419022E+03  0.90737559187E+02 0.  0.
          5    1    3    3  502    0  0.10667256803E+02  0.27484265800E+01  0.38027618765E+03  0.38045866466E+03  0.41800000000E+01 0.  1.
         -5    1    3    3    0  502  0.98402083140E+02  0.58396934193E+02  0.26628920532E+03  0.28986304552E+03  0.41800000000E+01 0.  1.
        -11    1    4    4    0    0 -0.14035502822E+02  0.11020308568E+01  0.46769884975E+01  0.14835229452E+02  0.00000000000E+00 0.  1.
         11    1    4    4    0    0 -0.95033837121E+02 -0.62247391630E+02  0.51160737649E+03  0.52406896077E+03  0.00000000000E+00 0. -1.
</event>
<event>
 8    1  0.6505836E-009  0.9035865E+02  0.7561462E-02  0.1301985E+00
          2   -1    0    0  501    0  0.00000000000E+00  0.00000000000E+00  0.49294204890E+03  0.49294204890E+03  0.00000000000E+00 0. -1.
         -2   -1    0    0    0  501 -0.00000000000E+00 -0.00000000000E+00 -0.30497791526E+02  0.30497791526E+02  0.00000000000E+00 0.  1.
         25    2    1    2    0    0  0.46605662442E+02 -0.50712704984E+01  0.32882912740E+03  0.35492420104E+03  0.12507912656E+03 0.  0.
         23    2    1    2    0    0 -0.46605662442E+02  0.50712704984E+01  0.13361512998E+03  0.16851563939E+03  0.91360342622E+02 0.  0.
          5    1    3    3  502    0  0.40122203634E+02  0.29053089757E+02  0.39519701372E+02  0.63507105472E+02  0.41800000000E+01 0.  1.
         -5    1    3    3    0  502  0.64834588081E+01 -0.34124360256E+02  0.28930942603E+03  0.29141709557E+03  0.41800000000E+01 0.  1.
        -11    1    4    4    0    0 -0.66820716554E+02  0.21259598703E+02  0.66756533768E+02  0.96816390650E+02  0.00000000000E+00 0.  1.
         11    1    4    4    0    0  0.20215054111E+02 -0.16188328205E+02  0.66858596211E+02  0.71699248741E+02  0.00000000000E+00 0. -1.
</event>
<event>
 8    1  0.6505836E-009  0.1131680E+03  0.7561462E-02  0.1254813E+00
          2   -1    0    0  501    0  0.00000000000E+00  0.00000000000E+00  0.12702556912E+03  0.12702556912E+03  0.00000000000E+00 0. -1.
         -2   -1    0    0    0  501 -0.00000000000E+00 -0.00000000000E+00 -0.14421512256E+03  0.14421512256E+03  0.00000000000E+00 0.  1.
         25    2    1    2    0    0 -0.27722671470E+02 -0.32148533375E+02  0.59789725690E+02  0.14500621951E+03  0.12509963104E+03 0.  0.
         23    2    1    2    0    0  0.27722671470E+02  0.32148533375E+02 -0.76979279126E+02  0.12623447217E+03  0.90593917226E+02 0.  0.
          5    1    3    3  502    0 -0.33288862759E+02 -0.75996265968E+02  0.20134122767E+02  0.85477693725E+02  0.41800000000E+01 0.  1.
         -5    1    3    3    0  502  0.55661912890E+01  0.43847732593E+02  0.39655602923E+02  0.59528525786E+02  0.41800000000E+01 0.  1.
        -11    1    4    4    0    0 -0.12036342152E+01 -0.30153203704E+02 -0.32768673975E+02  0.44547170763E+02  0.00000000000E+00 0. -1.
         11    1    4    4    0    0  0.28926305685E+02  0.62301737079E+02 -0.44210605151E+02  0.81687301409E+02  0.00000000000E+00 0.  1.
</event>
<event>
 8    1  0.6505836E-009  0.1152954E+03  0.7561462E-02  0.1251066E+00
         -2   -1    0    0    0  501 -0.00000000000E+00  0.00000000000E+00  0.53060942204E+02  0.53060942204E+02  0.00000000000E+00 0.  1.
          2   -1    0    0  501    0  0.00000000000E+00 -0.00000000000E+00 -0.43402181537E+03  0.43402181537E+03  0.00000000000E+00 0. -1.
         25    2    1    2    0    0  0.44373957924E+02 -0.10869649569E+02 -0.35119597103E+03  0.37559957739E+03  0.12509690262E+03 0.  0.
         23    2    1    2    0    0 -0.44373957924E+02  0.10869649569E+02 -0.29764902134E+02  0.11148318018E+03  0.97238637592E+02 0.  0.
          5    1    3    3  502    0 -0.13091969598E+02 -0.57220210496E+02 -0.14159458404E+03  0.15333639746E+03  0.41800000000E+01 0.  1.
         -5    1    3    3    0  502  0.57465927521E+02  0.46350560927E+02 -0.20960138700E+03  0.22226317994E+03  0.41800000000E+01 0.  1.
        -11    1    4    4    0    0 -0.28772863942E+02 -0.37331591113E+02  0.86278487888E+01  0.47916230749E+02  0.00000000000E+00 0.  1.
         11    1    4    4    0    0 -0.15601093982E+02  0.48201240682E+02 -0.38392750923E+02  0.63566949432E+02  0.00000000000E+00 0. -1.
</event>
<event>
 8    1  0.6505836E-009  0.9374098E+02  0.7561462E-02  0.1294037E+00
          4   -1    0    0  501    0  0.00000000000E+00  0.00000000000E+00  0.31841175546E+02  0.31841175546E+02  0.00000000000E+00 0. -1.
         -4   -1    0    0    0  501 -0.00000000000E+00 -0.00000000000E+00 -0.45940194052E+03  0.45940194052E+03  0.00000000000E+00 0.  1.
         25    2    1    2    0    0  0.54139367659E+02  0.22516901698E+02 -0.24605314146E+03  0.28218243887E+03  0.12508676344E+03 0.  0.
         23    2    1    2    0    0 -0.54139367659E+02 -0.22516901698E+02 -0.18150762351E+03  0.20906067720E+03  0.85576091085E+02 0.  0.
          5    1    3    3  502    0  0.70636483330E+02  0.34332912900E+02 -0.71151172795E+02  0.10605764223E+03  0.41800000000E+01 0.  1.
         -5    1    3    3    0  502 -0.16497115672E+02 -0.11816011202E+02 -0.17490196867E+03  0.17612479664E+03  0.41800000000E+01 0.  1.
        -11    1    4    4    0    0 -0.49107429299E+02  0.14148675033E+02 -0.15588228122E+03  0.16404575647E+03  0.00000000000E+00 0.  1.
         11    1    4    4    0    0 -0.50319383600E+01 -0.36665576731E+02 -0.25625342292E+02  0.45014920729E+02  0.00000000000E+00 0. -1.
</event>
<event>
 8    1  0.6505836E-009  0.1490536E+03  0.7561462E-02  0.1201641E+00
          1   -1    0    0  501    0  0.00000000000E+00  0.00000000000E+00  0.21736090189E+03  0.21736090189E+03  0.00000000000E+00 0. -1.
         -1   -1    0    0    0  501 -0.00000000000E+00 -0.00000000000E+00 -0.15143601523E+03  0.15143601523E+03  0.00000000000E+00 0.  1.
         25    2    1    2    0    0  0.13116942307E+03 -0.47042829069E+02  0.58527647583E+02  0.19619042832E+03  0.12508698301E+03 0.  0.
         23    2    1    2    0    0 -0.13116942307E+03  0.47042829069E+02  0.73972390742E+01  0.17260648880E+03  0.10158659122E+03 0.  0.
          5    1    3    3  502    0  0.63587973283E+02 -0.46950329203E+02  0.91410235280E+02  0.12091760530E+03  0.41800000000E+01 0.  1.
         -5    1    3    3    0  502  0.67581449786E+02 -0.92499865255E-01 -0.32882587697E+02  0.75272823018E+02  0.41800000000E+01 0.  1.
        -11    1    4    4    0    0 -0.49304506327E+02  0.48783747712E+02  0.44815543888E+02  0.82578576877E+02  0.00000000000E+00 0. -1.
         11    1    4    4    0    0 -0.81864916742E+02 -0.17409186432E+01 -0.37418304814E+02  0.90027911928E+02  0.00000000000E+00 0.  1.
</event>
<event>
 8    1  0.6505836E-009  0.1221333E+03  0.7561462E-02  0.1239619E+00
          1   -1    0    0  501    0  0.00000000000E+00  0.00000000000E+00  0.58966809147E+02  0.58966809147E+02  0.00000000000E+00 0. -1.
         -1   -1    0    0    0  501 -0.00000000000E+00 -0.00000000000E+00 -0.30307617509E+03  0.30307617509E+03  0.00000000000E+00 0.  1.
         25    2    1    2    0    0 -0.49830576142E+02 -0.56502288119E+02 -0.10658691219E+03  0.18078280536E+03  0.12508420357E+03 0.  0.
         23    2    1    2    0    0  0.49830576142E+02  0.56502288119E+02 -0.13752245375E+03  0.18126017887E+03  0.90924321706E+02 0.  0.
          5    1    3    3  502    0 -0.36421418498E+02  0.26279014645E+02 -0.81502148085E+02  0.93151376150E+02  0.41800000000E+01 0.  1.
         -5    1    3    3    0  502 -0.13409157644E+02 -0.82781302764E+02 -0.25084764107E+02  0.87631429215E+02  0.41800000000E+01 0.  1.
        -11    1    4    4    0    0  0.75034999511E+02  0.39542938650E+02 -0.82021745806E+02  0.11798924499E+03  0.00000000000E+00 0. -1.
         11    1    4    4    0    0 -0.25204423368E+02  0.16959349469E+02 -0.55500707942E+02  0.63270933878E+02  0.00000000000E+00 0.  1.
</event>
<event>
 8    1  0.6505836E-009  0.7233058E+02  0.7561462E-02  0.1352342E+00
          2   -1    0    0  501    0  0.00000000000E+00  0.00000000000E+00  0.29527674671E+03  0.29527674671E+03  0.00000000000E+00 0. -1.
         -2   -1    0    0    0  501 -0.00000000000E+00 -0.00000000000E+00 -0.48449773316E+02  0.48449773316E+02  0.00000000000E+00 0.  1.
         25    2    1    2    0    0 -0.46820380447E+02  0.17221202893E+02  0.16766546014E+03  0.21505695219E+03  0.12509623618E+03 0.  0.
         23    2    1    2    0    0  0.46820380447E+02 -0.17221202893E+02  0.79161513255E+02  0.12866956784E+03  0.88320975159E+02 0.  0.
          5    1    3    3  502    0 -0.21584934206E+02  0.96352266428E+01  0.18280907673E+03  0.18437835532E+03  0.41800000000E+01 0.  1.
         -5    1    3    3    0  502 -0.25235446241E+02  0.75859762506E+01 -0.15143616583E+02  0.30678596869E+02  0.41800000000E+01 0.  1.
        -11    1    4    4    0    0  0.68738710376E+02 -0.50956549013E+01  0.33609999223E+02  0.76685122747E+02  0.00000000000E+00 0.  1.
         11    1    4    4    0    0 -0.21918329929E+02 -0.12125547992E+02  0.45551514032E+02  0.51984445093E+02  0.00000000000E+00 0. -1.
</event>
<event>
 8    1  0.6505836E-009  0.4623954E+03  0.7561462E-02  0.1024089E+00
         -1   -1    0    0    0  501 -0.00000000000E+00  0.00000000000E+00  0.20689447709E+03  0.20689447709E+03  0.00000000000E+00 0.  1.
          1   -1    0    0  501    0  0.00000000000E+00 -0.00000000000E+00 -0.11218820034E+04  0.11218820034E+04  0.00000000000E+00 0. -1.
         25    2    1    2    0    0  0.43725986278E+03  0.12985745443E+03 -0.61390999650E+03  0.77497894383E+03  0.12509090096E+03 0.  0.
         23    2    1    2    0    0 -0.43725986278E+03 -0.12985745443E+03 -0.30107752979E+03  0.55379753665E+03  0.89358192571E+02 0.  0.
          5    1    3    3  502    0  0.40370483522E+03  0.90292073911E+02 -0.58157239606E+03  0.71370454450E+03  0.41800000000E+01 0. -1.
         -5    1    3    3    0  502  0.33555027566E+02  0.39565380514E+02 -0.32337600443E+02  0.61274399325E+02  0.41800000000E+01 0. -1.
        -11    1    4    4    0    0 -0.26878985379E+03 -0.10581190831E+03 -0.14648270987E+03  0.32388474761E+03  0.00000000000E+00 0.  1.
         11    1    4    4    0    0 -0.16847000899E+03 -0.24045546119E+02 -0.15459481992E+03  0.22991278904E+03  0.00000000000E+00 0. -1.
</event>
<event>
 8    1  0.6505836E-009  0.1081240E+03  0.7561462E-02  0.1264084E+00
         -2   -1    0    0    0  501 -0.00000000000E+00  0.00000000000E+00  0.82430153979E+02  0.82430153979E+02  0.00000000000E+00 0.  1.
          2   -1    0    0  501    0  0.00000000000E+00 -0.00000000000E+00 -0.25610624308E+03  0.25610624308E+03  0.00000000000E+00 0. -1.
         25    2    1    2    0    0  0.30358007809E+02  0.31793968983E+02  0.50067255242E+01  0.13268411897E+03  0.12509013960E+03 0.  0.
         23    2    1    2    0    0 -0.30358007809E+02 -0.31793968983E+02 -0.17868281463E+03  0.20585227809E+03  0.92277554424E+02 0.  0.
          5    1    3    3  502    0  0.39390698437E+02 -0.39867914002E+02 -0.13921042032E+02  0.57899443015E+02  0.41800000000E+01 0. -1.
         -5    1    3    3    0  502 -0.90326906280E+01  0.71661882985E+02  0.18927767556E+02  0.74784675954E+02  0.41800000000E+01 0. -1.
        -11    1    4    4    0    0 -0.13049669906E+02 -0.56245573928E+02 -0.59295014574E+02  0.82763260113E+02  0.00000000000E+00 0.  1.
         11    1    4    4    0    0 -0.17308337903E+02  0.24451604945E+02 -0.11938780005E+03  0.12308901798E+03  0.00000000000E+00 0. -1.
</event>
<event>
 8    1  0.6505836E-009  0.5457570E+02  0.7561462E-02  0.1422116E+00
         -1   -1    0    0    0  501 -0.00000000000E+00  0.00000000000E+00  0.67511674475E+02  0.67511674475E+02  0.00000000000E+00 0.  1.
          1   -1    0    0  501    0  0.00000000000E+00 -0.00000000000E+00 -0.19349314968E+03  0.19349314968E+03  0.00000000000E+00 0. -1.
         25    2    1    2    0    0  0.10565617766E+02 -0.25656476647E+02 -0.49593647641E+02  0.13739573067E+03  0.12509264506E+03 0.  0.
         23    2    1    2    0    0 -0.10565617766E+02  0.25656476647E+02 -0.76387827564E+02  0.12360909348E+03  0.93135496555E+02 0.  0.
          5    1    3    3  502    0 -0.81128810881E+01 -0.14141217995E+02  0.40878068171E+02  0.44207258944E+02  0.41800000000E+01 0. -1.
         -5    1    3    3    0  502  0.18678498854E+02 -0.11515258652E+02 -0.90471715812E+02  0.93188471729E+02  0.41800000000E+01 0. -1.
        -11    1    4    4    0    0 -0.18416067699E+02 -0.17925742350E+02  0.91563934833E+01  0.27282289675E+02  0.00000000000E+00 0.  1.
         11    1    4    4    0    0  0.78504499330E+01  0.43582218997E+02 -0.85544221047E+02  0.96326803806E+02  0.00000000000E+00 0. -1.
</event>
<event>
 8    1  0.6505836E-009  0.1002306E+03  0.7561462E-02  0.1279812E+00
         -2   -1    0    0    0  501 -0.00000000000E+00  0.00000000000E+00  0.50763943330E+02  0.50763943330E+02  0.00000000000E+00 0.  1.
          2   -1    0    0  501    0  0.00000000000E+00 -0.00000000000E+00 -0.25915129070E+03  0.25915129070E+03  0.00000000000E+00 0. -1.
         25    2    1    2    0    0  0.29744088127E+02  0.25247758200E+02 -0.12353316333E+03  0.18008038684E+03  0.12508534370E+03 0.  0.
         23    2    1    2    0    0 -0.29744088127E+02 -0.25247758200E+02 -0.84854184034E+02  0.12983484719E+03  0.90192543617E+02 0.  0.
          5    1    3    3  502    0  0.78907085955E+02  0.12556923195E+02 -0.72527592761E+02  0.10798948396E+03  0.41800000000E+01 0.  1.
         -5    1    3    3    0  502 -0.49162997828E+02  0.12690835006E+02 -0.51005570573E+02  0.72090902880E+02  0.41800000000E+01 0.  1.
        -11    1    4    4    0    0 -0.87919174634E+01 -0.41855964863E+02 -0.20468876413E+01  0.42818329677E+02  0.00000000000E+00 0.  1.
         11    1    4    4    0    0 -0.20952170664E+02  0.16608206663E+02 -0.82807296393E+02  0.87016517513E+02  0.00000000000E+00 0. -1.
</event>
<event>
 8    1  0.6505836E-009  0.9387686E+02  0.7561462E-02  0.1293726E+00
          2   -1    0    0  501    0  0.00000000000E+00  0.00000000000E+00  0.51662832953E+03  0.51662832953E+03  0.00000000000E+00 0. -1.
         -2   -1    0    0    0  501 -0.00000000000E+00 -0.00000000000E+00 -0.27464016785E+02  0.27464016785E+02  0.00000000000E+00 0.  1.
         25    2    1    2    0    0 -0.22636891810E+02  0.18663522887E+02  0.36995326120E+03  0.39163164917E+03  0.12509667143E+03 0.  0.
         23    2    1    2    0    0  0.22636891810E+02 -0.18663522887E+02  0.11921105155E+03  0.15246069715E+03  0.90400406008E+02 0.  0.
          5    1    3    3  502    0  0.46289296157E+02 -0.44005076329E+00  0.22722477637E+03  0.23192986867E+03  0.41800000000E+01 0.  1.
         -5    1    3    3    0  502 -0.68926187968E+02  0.19103573651E+02  0.14272848482E+03  0.15970178049E+03  0.41800000000E+01 0.  1.
        -11    1    4    4    0    0 -0.33699343208E+01  0.21509047505E+02 -0.22737454543E+01  0.21889849252E+02  0.00000000000E+00 0.  1.
         11    1    4    4    0    0  0.26006826131E+02 -0.40172570392E+02  0.12148479701E+03  0.13057084790E+03  0.00000000000E+00 0. -1.
</event>
<event>
 8    1  0.6505836E-009  0.1002317E+03  0.7561462E-02  0.1279809E+00
         -2   -1    0    0    0  501 -0.00000000000E+00  0.00000000000E+00  0.86927032018E+02  0.86927032018E+02  0.00000000000E+00 0.  1.
          2   -1    0    0  501    0  0.00000000000E+00 -0.00000000000E+00 -0.33444234500E+03  0.33444234500E+03  0.00000000000E+00 0. -1.
         25    2    1    2    0    0  0.17736923917E+02 -0.89092307596E+02 -0.25416248204E+03  0.29748305790E+03  0.12508223181E+03 0.  0.
         23    2    1    2    0    0 -0.17736923917E+02  0.89092307596E+02  0.66471690626E+01  0.12388631912E+03  0.83973790350E+02 0.  0.
          5    1    3    3  502    0  0.52783713406E+01 -0.59655238563E+02 -0.23325926097E+02  0.64406365526E+02  0.41800000000E+01 0.  1.
         -5    1    3    3    0  502  0.12458552576E+02 -0.29437069032E+02 -0.23083655595E+03  0.23307669237E+03  0.41800000000E+01 0.  1.
        -11    1    4    4    0    0 -0.34253184645E+02  0.84302537041E+02  0.29162930472E+02  0.95554565163E+02  0.00000000000E+00 0.  1.
         11    1    4    4    0    0  0.16516260728E+02  0.47897705548E+01 -0.22515761409E+02  0.28331753957E+02  0.00000000000E+00 0. -1.
</event>
<event>
 8    1  0.6505836E-009  0.3510838E+03  0.7561462E-02  0.1062171E+00
         -2   -1    0    0    0  501 -0.00000000000E+00  0.00000000000E+00  0.54925570468E+02  0.54925570468E+02  0.00000000000E+00 0. -1.
          2   -1    0    0  501    0  0.00000000000E+00 -0.00000000000E+00 -0.23595429597E+04  0.23595429597E+04  0.00000000000E+00 0.  1.
         25    2    1    2    0    0  0.95754083673E+02  0.32311713206E+03 -0.13893775806E+04  0.14351275720E+04  0.12509021079E+03 0.  0.
         23    2    1    2    0    0 -0.95754083673E+02 -0.32311713206E+03 -0.91523980858E+03  0.97934095813E+03  0.88720231565E+02 0.  0.
          5    1    3    3  502    0 -0.30020028366E+02  0.46286417151E+02 -0.20502130405E+03  0.21235546151E+03  0.41800000000E+01 0. -1.
         -5    1    3    3    0  502  0.12577411204E+03  0.27683071491E+03 -0.11843562766E+04  0.12227721105E+04  0.41800000000E+01 0. -1.
        -11    1    4    4    0    0 -0.30051989629E+02 -0.20834340395E+03 -0.47242835319E+03  0.51720271165E+03  0.00000000000E+00 0. -1.
         11    1    4    4    0    0 -0.65702094043E+02 -0.11477372812E+03 -0.44281145540E+03  0.46213824648E+03  0.00000000000E+00 0.  1.
</event>
<event>
 8    1  0.6505836E-009  0.1149114E+03  0.7561462E-02  0.1251736E+00
          1   -1    0    0  501    0  0.00000000000E+00  0.00000000000E+00  0.37528253810E+03  0.37528253810E+03  0.00000000000E+00 0.  1.
         -1   -1    0    0    0  501 -0.00000000000E+00 -0.00000000000E+00 -0.83059443083E+02  0.83059443083E+02  0.00000000000E+00 0. -1.
         25    2    1    2    0    0  0.16767856072E+02  0.70659357982E+02  0.21895877023E+01  0.14466502413E+03  0.12509703851E+03 0.  0.
         23    2    1    2    0    0 -0.16767856072E+02 -0.70659357982E+02  0.29003350731E+03  0.31367695705E+03  0.94867761410E+02 0.  0.
          5    1    3    3  502    0 -0.21076398312E+02 -0.24445374097E+02  0.23354308933E+02  0.40058544985E+02  0.41800000000E+01 0. -1.
         -5    1    3    3    0  502  0.37844254385E+02  0.95104732079E+02 -0.21164721231E+02  0.10460647914E+03  0.41800000000E+01 0. -1.
        -11    1    4    4    0    0  0.14063828798E+02  0.35236446042E+01  0.19826419227E+01  0.14633462364E+02  0.00000000000E+00 0. -1.
         11    1    4    4    0    0 -0.30831684870E+02 -0.74183002587E+02  0.28805086539E+03  0.29904349469E+03  0.00000000000E+00 0.  1.
</event>
<event>
 8    1  0.6505836E-009  0.1109357E+03  0.7561462E-02  0.1258847E+00
          2   -1    0    0  501    0  0.00000000000E+00  0.00000000000E+00  0.55113648436E+03  0.55113648436E+03  0.00000000000E+00 0. -1.
         -2   -1    0    0    0  501 -0.00000000000E+00 -0.00000000000E+00 -0.24152059809E+02  0.24152059809E+02  0.00000000000E+00 0.  1.
         25    2    1    2    0    0 -0.28145232341E+02 -0.19992676655E+02  0.24633423067E+03  0.27842524056E+03  0.12509276621E+03 0.  0.
         23    2    1    2    0    0  0.28145232341E+02  0.19992676655E+02  0.28065019388E+03  0.29686330361E+03  0.90395953886E+02 0.  0.
          5    1    3    3  502    0  0.40659933430E+02  0.20074004650E+02  0.12690211477E+03  0.13482512742E+03  0.41800000000E+01 0.  1.
         -5    1    3    3    0  502 -0.68805165771E+02 -0.40066681306E+02  0.11943211590E+03  0.14360011314E+03  0.41800000000E+01 0.  1.
        -11    1    4    4    0    0 -0.72878766041E+01 -0.32479985150E+02  0.10498149613E+03  0.11013254338E+03  0.00000000000E+00 0. -1.
         11    1    4    4    0    0  0.35433108945E+02  0.52472661806E+02  0.17566869775E+03  0.18673076023E+03  0.00000000000E+00 0.  1.
</event>
<event>
 8    1  0.6505836E-009  0.1220316E+03  0.7561462E-02  0.1239783E+00
         -1   -1    0    0    0  501 -0.00000000000E+00  0.00000000000E+00  0.25502327968E+03  0.25502327968E+03  0.00000000000E+00 0. -1.
          1   -1    0    0  501    0  0.00000000000E+00 -0.00000000000E+00 -0.63472510100E+02  0.63472510100E+02  0.00000000000E+00 0.  1.
         25    2    1    2    0    0  0.36229538458E+02  0.42430320540E+02  0.13313921678E+03  0.19101366362E+03  0.12508899666E+03 0.  0.
         23    2    1    2    0    0 -0.36229538458E+02 -0.42430320540E+02  0.58411552798E+02  0.12748212616E+03  0.98624902701E+02 0.  0.
          5    1    3    3  502    0  0.37555995095E+02  0.82342706956E+02  0.63529953400E+02  0.11065397207E+03  0.41800000000E+01 0. -1.
         -5    1    3    3    0  502 -0.13264566369E+01 -0.39912386416E+02  0.69609263382E+02  0.80359691545E+02  0.41800000000E+01 0. -1.
        -11    1    4    4    0    0  0.25553994386E+02 -0.44697041667E+02  0.26860333638E+02  0.58071591041E+02  0.00000000000E+00 0.  1.
         11    1    4    4    0    0 -0.61783532844E+02  0.22667211278E+01  0.31551219160E+02  0.69410535122E+02  0.00000000000E+00 0. -1.
</event>
<event>
 8    1  0.6505836E-009  0.1054937E+03  0.7561462E-02  0.1269150E+00
         -1   -1    0    0    0  501 -0.00000000000E+00  0.00000000000E+00  0.35716482793E+02  0.35716482793E+02  0.00000000000E+00 0.  1.
          1   -1    0    0  501    0  0.00000000000E+00 -0.00000000000E+00 -0.39219723094E+03  0.39219723094E+03  0.00000000000E+00 0. -1.
         25    2    1    2    0    0  0.11454814792E+02  0.31092579043E+02 -0.25324296600E+03  0.28438984934E+03  0.12509046855E+03 0.  0.
         23    2    1    2    0    0 -0.11454814792E+02 -0.31092579043E+02 -0.10323778215E+03  0.14352386440E+03  0.94037751653E+02 0.  0.
          5    1    3    3  502    0  0.30134556106E+02 -0.32837981008E+02 -0.36978334944E+02  0.58062846327E+02  0.41800000000E+01 0.  1.
         -5    1    3    3    0  502 -0.18679741314E+02  0.63930560051E+02 -0.21626463106E+03  0.22632700301E+03  0.41800000000E+01 0.  1.
        -11    1    4    4    0    0  0.40567943725E+02 -0.23586312873E+02 -0.53433519829E+02  0.71114086187E+02  0.00000000000E+00 0. -1.
         11    1    4    4    0    0 -0.52022758517E+02 -0.75062661707E+01 -0.49804262318E+02  0.72409778211E+02  0.00000000000E+00 0.  1.
</event>
<event>
 8    1  0.6505836E-009  0.9817436E+02  0.7561462E-02  0.1284183E+00
         -2   -1    0    0    0  501 -0.00000000000E+00  0.00000000000E+00  0.42864370199E+02  0.42864370199E+02  0.00000000000E+00 0.  1.
          2   -1    0    0  501    0  0.00000000000E+00 -0.00000000000E+00 -0.25936322964E+03  0.25936322964E+03  0.00000000000E+00 0. -1.
         25    2    1    2    0    0 -0.21113662139E+02  0.24478446053E+01 -0.12374366122E+03  0.17723323325E+03  0.12508935448E+03 0.  0.
         23    2    1    2    0    0  0.21113662139E+02 -0.24478446053E+01 -0.92755198218E+02  0.12499436658E+03  0.81044964119E+02 0.  0.
          5    1    3    3  502    0 -0.30630251518E+02 -0.57313093311E+02 -0.52364089768E+02  0.83561194762E+02  0.41800000000E+01 0.  1.
         -5    1    3    3    0  502  0.95165893786E+01  0.59760937916E+02 -0.71379571451E+02  0.93672038488E+02  0.41800000000E+01 0.  1.
        -11    1    4    4    0    0 -0.36483169031E+01  0.29739003319E+02 -0.79985918074E+01  0.31011223863E+02  0.00000000000E+00 0.  1.
         11    1    4    4    0    0  0.24761979042E+02 -0.32186847924E+02 -0.84756606411E+02  0.93983142721E+02  0.00000000000E+00 0. -1.
</event>
<event>
 8    1  0.6505836E-009  0.1087003E+03  0.7561462E-02  0.1262996E+00
          1   -1    0    0  501    0  0.00000000000E+00  0.00000000000E+00  0.66587525210E+03  0.66587525210E+03  0.00000000000E+00 0. -1.
         -1   -1    0    0    0  501 -0.00000000000E+00 -0.00000000000E+00 -0.20810209687E+02  0.20810209687E+02  0.00000000000E+00 0.  1.
         25    2    1    2    0    0  0.25997733077E+02 -0.44714018129E+01  0.25311033045E+03  0.28356318957E+03  0.12508943817E+03 0.  0.
         23    2    1    2    0    0 -0.25997733077E+02  0.44714018129E+01  0.39195471196E+03  0.40312227221E+03  0.90461011298E+02 0.  0.
          5    1    3    3  502    0  0.60706479817E+02 -0.40806128733E+02  0.11316781828E+03  0.13481411027E+03  0.41800000000E+01 0.  1.
         -5    1    3    3    0  502 -0.34708746740E+02  0.36334726920E+02  0.13994251217E+03  0.14874907930E+03  0.41800000000E+01 0.  1.
        -11    1    4    4    0    0 -0.56690688100E+02 -0.13322244530E+02  0.22260640810E+03  0.23009765154E+03  0.00000000000E+00 0.  1.
         11    1    4    4    0    0  0.30692955023E+02  0.17793646343E+02  0.16934830385E+03  0.17302462067E+03  0.00000000000E+00 0. -1.
</event>
<event>
 8    1  0.6505836E-009  0.1513226E+03  0.7561462E-02  0.1198857E+00
          1   -1    0    0  501    0  0.00000000000E+00  0.00000000000E+00  0.10788559028E+04  0.10788559028E+04  0.00000000000E+00 0.  1.
         -1   -1    0    0    0  501 -0.00000000000E+00 -0.00000000000E+00 -0.27767142771E+02  0.27767142771E+02  0.00000000000E+00 0. -1.
         25    2    1    2    0    0  0.10991108604E+03  0.69054655277E+02  0.49311541621E+03  0.52503173841E+03  0.12508605194E+03 0.  0.
         23    2    1    2    0    0 -0.10991108604E+03 -0.69054655277E+02  0.55797334385E+03  0.58159130719E+03  0.10032548978E+03 0.  0.
          5    1    3    3  502    0  0.80795898391E+02  0.79312064761E+02  0.47638595717E+03  0.48967278197E+03  0.41800000000E+01 0.  1.
         -5    1    3    3    0  502  0.29115187645E+02 -0.10257409484E+02  0.16729459036E+02  0.35358956441E+02  0.41800000000E+01 0.  1.
        -11    1    4    4    0    0 -0.31912487030E+02 -0.73443192056E+02  0.35919215923E+03  0.36800994081E+03  0.00000000000E+00 0.  1.
         11    1    4    4    0    0 -0.77998599007E+02  0.43885367788E+01  0.19878118462E+03  0.21358136637E+03  0.00000000000E+00 0. -1.
</event>
<event>
 8    1  0.6505836E-009  0.1343468E+03  0.7561462E-02  0.1221145E+00
          2   -1    0    0  501    0  0.00000000000E+00  0.00000000000E+00  0.81148142001E+02  0.81148142001E+02  0.00000000000E+00 0.  1.
         -2   -1    0    0    0  501 -0.00000000000E+00 -0.00000000000E+00 -0.22576010543E+03  0.22576010543E+03  0.00000000000E+00 0. -1.
         25    2    1    2    0    0 -0.81381974315E+02 -0.67137040333E+01 -0.70143541783E+02  0.16503184746E+03  0.12508914683E+03 0.  0.
         23    2    1    2    0    0  0.81381974315E+02  0.67137040333E+01 -0.74468421646E+02  0.14187639997E+03  0.88967789013E+02 0.  0.
          5    1    3    3  502    0 -0.98429850633E+02  0.33642784240E+02 -0.39229719307E+02  0.11125068856E+03  0.41800000000E+01 0.  1.
         -5    1    3    3    0  502  0.17047876318E+02 -0.40356488274E+02 -0.30913822476E+02  0.53781158902E+02  0.41800000000E+01 0.  1.
        -11    1    4    4    0    0  0.41554479081E+02 -0.41035851476E+02 -0.39952843707E+02  0.70759773589E+02  0.00000000000E+00 0.  1.
         11    1    4    4    0    0  0.39827495234E+02  0.47749555509E+02 -0.34515577939E+02  0.71116626385E+02  0.00000000000E+00 0. -1.
</event>
<event>
 8    1  0.6505836E-009  0.1400629E+03  0.7561462E-02  0.1213244E+00
          1   -1    0    0  501    0  0.00000000000E+00  0.00000000000E+00  0.49247729914E+03  0.49247729914E+03  0.00000000000E+00 0. -1.
         -1   -1    0    0    0  501 -0.00000000000E+00 -0.00000000000E+00 -0.53004225333E+02  0.53004225333E+02  0.00000000000E+00 0.  1.
         25    2    1    2    0    0 -0.11237907896E+03 -0.11818446329E+02  0.29780396271E+03  0.34220453901E+03  0.12509201911E+03 0.  0.
         23    2    1    2    0    0  0.11237907896E+03  0.11818446329E+02  0.14166911109E+03  0.20327698547E+03  0.92101371981E+02 0.  0.
          5    1    3    3  502    0 -0.28685766573E+02 -0.60925011675E+02  0.15969256661E+03  0.17336066013E+03  0.41800000000E+01 0. -1.
         -5    1    3    3    0  502 -0.83693312391E+02  0.49106565345E+02  0.13811139610E+03  0.16884387887E+03  0.41800000000E+01 0. -1.
        -11    1    4    4    0    0  0.50315930886E+02 -0.67058278528E+01  0.12714005458E+03  0.13689870162E+03  0.00000000000E+00 0. -1.
         11    1    4    4    0    0  0.62063148078E+02  0.18524274182E+02  0.14529056519E+02  0.66378283848E+02  0.00000000000E+00 0.  1.
</event>
<event>
 7    1  0.6505836E-009  0.1348298E+03  0.7561462E-02  0.1220460E+00
          1   -1    0    0  501    0  0.00000000000E+00  0.00000000000E+00  0.46871388947E+03  0.46871388947E+03  0.00000000000E+00 0. -1.
         -1   -1    0    0    0  501 -0.00000000000E+00 -0.00000000000E+00 -0.50450720429E+02  0.50450720429E+02  0.00000000000E+00 0.  1.
         25    2    1    2    0    0 -0.60414381590E+02 -0.22497596663E+01  0.24724356573E+03  0.28360052301E+03  0.12507964236E+03 0.  0.
          5    1    3    3  502    0 -0.16360683185E+02  0.59321988489E+02  0.13129072839E+03  0.14505687862E+03  0.41800000000E+01 0.  1.
         -5    1    3    3    0  502 -0.44053698405E+02 -0.61571748155E+02  0.11595283734E+03  0.13854364439E+03  0.41800000000E+01 0.  1.
        -11    1    1    2    0    0  0.11127756858E+02  0.57240169944E+02  0.14662364762E+03  0.15779340312E+03  0.00000000000E+00 0. -1.
         11    1    1    2    0    0  0.49286624731E+02 -0.54990410278E+02  0.24395955692E+02  0.77770683770E+02  0.00000000000E+00 0.  1.
</event>
<event>
 8    1  0.6505836E-009  0.1195557E+03  0.7561462E-02  0.1243832E+00
         -2   -1    0    0    0  501 -0.00000000000E+00  0.00000000000E+00  0.17148328164E+02  0.17148328164E+02  0.00000000000E+00 0. -1.
          2   -1    0    0  501    0  0.00000000000E+00 -0.00000000000E+00 -0.90033803720E+03  0.90033803720E+03  0.00000000000E+00 0.  1.
         25    2    1    2    0    0  0.57545787766E+02 -0.17507717076E+02 -0.59412952523E+03  0.61012684642E+03  0.12508732197E+03 0.  0.
         23    2    1    2    0    0 -0.57545787766E+02  0.17507717076E+02 -0.28906018381E+03  0.30735951895E+03  0.85416896336E+02 0.  0.
          5    1    3    3  502    0  0.20144805473E+02 -0.69834038338E+02 -0.26946601670E+03  0.27912723381E+03  0.41800000000E+01 0. -1.
         -5    1    3    3    0  502  0.37400982293E+02  0.52326321263E+02 -0.32466350853E+03  0.33099961261E+03  0.41800000000E+01 0. -1.
        -11    1    4    4    0    0 -0.61251937246E+02 -0.19793539210E+02 -0.14777656468E+03  0.16118776963E+03  0.00000000000E+00 0.  1.
         11    1    4    4    0    0  0.37061494803E+01  0.37301256286E+02 -0.14128361913E+03  0.14617174931E+03  0.00000000000E+00 0. -1.
</event>
<event>
 8    1  0.6505836E-009  0.1959027E+03  0.7561462E-02  0.1153243E+00
          1   -1    0    0  501    0  0.00000000000E+00  0.00000000000E+00  0.11351878808E+04  0.11351878808E+04  0.00000000000E+00 0. -1.
         -1   -1    0    0    0  501 -0.00000000000E+00 -0.00000000000E+00 -0.39064134424E+02  0.39064134424E+02  0.00000000000E+00 0.  1.
         25    2    1    2    0    0 -0.17230936607E+03  0.38842886966E+02  0.47190281379E+03  0.51917173136E+03  0.12509090085E+03 0.  0.
         23    2    1    2    0    0  0.17230936607E+03 -0.38842886966E+02  0.62422093261E+03  0.65508028389E+03  0.90989659486E+02 0.  0.
          5    1    3    3  502    0 -0.80605385724E+02  0.58813769369E+02  0.12622384125E+03  0.16095408717E+03  0.41800000000E+01 0. -1.
         -5    1    3    3    0  502 -0.91703980341E+02 -0.19970882403E+02  0.34567897254E+03  0.35821764419E+03  0.41800000000E+01 0. -1.
        -11    1    4    4    0    0  0.18020047289E+03 -0.47419975257E+02  0.59863914015E+03  0.62696864723E+03  0.00000000000E+00 0. -1.
         11    1    4    4    0    0 -0.78911068297E+01  0.85770882910E+01  0.25581792460E+02  0.28111636666E+02  0.00000000000E+00 0.  1.
</event>
<event>
 8    1  0.6505836E-009  0.9887682E+02  0.7561462E-02  0.1282676E+00
         -2   -1    0    0    0  501 -0.00000000000E+00  0.00000000000E+00  0.24780904006E+03  0.24780904006E+03  0.00000000000E+00 0.  1.
          2   -1    0    0  501    0  0.00000000000E+00 -0.00000000000E+00 -0.94258821904E+02  0.94258821904E+02  0.00000000000E+00 0. -1.
         25    2    1    2    0    0  0.53523198974E+01 -0.46113380372E+02 -0.26160667833E+02  0.13596563999E+03  0.12508870269E+03 0.  0.
         23    2    1    2    0    0 -0.53523198974E+01  0.46113380372E+02  0.17971088599E+03  0.20610222198E+03  0.89593706147E+02 0.  0.
          5    1    3    3  502    0 -0.43444933082E+02 -0.31891076213E+02  0.28583179172E+02  0.61147146165E+02  0.41800000000E+01 0.  1.
         -5    1    3    3    0  502  0.48797252979E+02 -0.14222304160E+02 -0.54743847005E+02  0.74818493829E+02  0.41800000000E+01 0.  1.
        -11    1    4    4    0    0  0.37529742297E+02  0.21066475654E+02  0.12505912952E+03  0.13225756625E+03  0.00000000000E+00 0.  1.
         11    1    4    4    0    0 -0.42882062194E+02  0.25046904718E+02  0.54651756471E+02  0.73844655727E+02  0.00000000000E+00 0. -1.
</event>
<event>
 8    1  0.6505836E-009  0.1082440E+03  0.7561462E-02  0.1263857E+00
          1   -1    0    0  501    0  0.00000000000E+00  0.00000000000E+00  0.32285541542E+02  0.32285541542E+02  0.00000000000E+00 0.  1.
         -1   -1    0    0    0  501 -0.00000000000E+00 -0.00000000000E+00 -0.50333589747E+03  0.50333589747E+03  0.00000000000E+00 0. -1.
         25    2    1    2    0    0  0.29726643161E+02 -0.57237056234E+02 -0.30333334156E+03  0.33439270786E+03  0.12509041949E+03 0.  0.
         23    2    1    2    0    0 -0.29726643161E+02  0.57237056234E+02 -0.16771701437E+03  0.20122873115E+03  0.90577322839E+02 0.  0.
          5    1    3    3  502    0 -0.18770114481E+02  0.25639029646E+02 -0.15030805439E+03  0.15368689161E+03  0.41800000000E+01 0.  1.
         -5    1    3    3    0  502  0.48496757642E+02 -0.82876085880E+02 -0.15302528717E+03  0.18070581625E+03  0.41800000000E+01 0.  1.
        -11    1    4    4    0    0 -0.44609939516E+02  0.21312548064E+02 -0.15102613299E+03  0.15891244211E+03  0.00000000000E+00 0. -1.
         11    1    4    4    0    0  0.14883296354E+02  0.35924508170E+02 -0.16690881372E+02  0.42316289046E+02  0.00000000000E+00 0.  1.
</event>
<event>
 8    1  0.6505836E-009  0.1022240E+03  0.7561462E-02  0.1275688E+00
         -2   -1    0    0    0  501 -0.00000000000E+00  0.00000000000E+00  0.13552537051E+02  0.13552537051E+02  0.00000000000E+00 0.  1.
          2   -1    0    0  501    0  0.00000000000E+00 -0.00000000000E+00 -0.98568764753E+03  0.98568764753E+03  0.00000000000E+00 0. -1.
         25    2    1    2    0    0  0.23191580206E+02  0.27908936662E+02 -0.55673859214E+03  0.57177022530E+03  0.12508625991E+03 0.  0.
         23    2    1    2    0    0 -0.23191580206E+02 -0.27908936662E+02 -0.41539651834E+03  0.42746995928E+03  0.94125132165E+02 0.  0.
          5    1    3    3  502    0  0.61650787650E+02  0.42552780613E+01 -0.46836364439E+03  0.47244142790E+03  0.41800000000E+01 0.  1.
         -5    1    3    3    0  502 -0.38459207444E+02  0.23653658601E+02 -0.88374947750E+02  0.99328797396E+02  0.41800000000E+01 0.  1.
        -11    1    4    4    0    0  0.13882252444E+02 -0.51422641006E+02 -0.16906263764E+03  0.17725456380E+03  0.00000000000E+00 0.  1.
         11    1    4    4    0    0 -0.37073832650E+02  0.23513704344E+02 -0.24633388070E+03  0.25021539549E+03  0.00000000000E+00 0. -1.
</event>
<event>
 8    1  0.6505836E-009  0.1858415E+03  0.7561462E-02  0.1162266E+00
         -2   -1    0    0    0  501 -0.00000000000E+00  0.00000000000E+00  0.32576687567E+02  0.32576687567E+02  0.00000000000E+00 0.  1.
          2   -1    0    0  501    0  0.00000000000E+00 -0.00000000000E+00 -0.14553253294E+04  0.14553253294E+04  0.00000000000E+00 0. -1.
         25    2    1    2    0    0 -0.68779362132E+02 -0.15589090638E+03 -0.10153306383E+04  0.10370991174E+04  0.12508276805E+03 0.  0.
         23    2    1    2    0    0  0.68779362132E+02  0.15589090638E+03 -0.40741800352E+03  0.45080289957E+03  0.90560749326E+02 0.  0.
          5    1    3    3  502    0 -0.54062681946E+02 -0.15417952772E+03 -0.10058026109E+04  0.10189948306E+04  0.41800000000E+01 0. -1.
         -5    1    3    3    0  502 -0.14716680187E+02 -0.17113786659E+01 -0.95280273786E+01  0.18104286740E+02  0.41800000000E+01 0. -1.
        -11    1    4    4    0    0  0.46906934316E+02  0.13528034401E+02 -0.10982570525E+03  0.12018716127E+03  0.00000000000E+00 0.  1.
         11    1    4    4    0    0  0.21872427817E+02  0.14236287198E+03 -0.29759229827E+03  0.33061573830E+03  0.00000000000E+00 0. -1.
</event>
<event>
 8    1  0.6505836E-009  0.8665259E+02  0.7561462E-02  0.1311167E+00
          2   -1    0    0  501    0  0.00000000000E+00  0.00000000000E+00  0.37600147561E+02  0.37600147561E+02  0.00000000000E+00 0.  1.
         -2   -1    0    0    0  501 -0.00000000000E+00 -0.00000000000E+00 -0.43082642129E+03  0.43082642129E+03  0.00000000000E+00 0. -1.
         25    2    1    2    0    0  0.47163126078E+02  0.43855463491E+02 -0.18301462485E+03  0.23084763479E+03  0.12509442608E+03 0.  0.
         23    2    1    2    0    0 -0.47163126078E+02 -0.43855463491E+02 -0.21021164887E+03  0.23757893406E+03  0.90039715948E+02 0.  0.
          5    1    3    3  502    0  0.47317714442E+02  0.21595850078E+02 -0.19729073427E+03  0.20407462623E+03  0.41800000000E+01 0. -1.
         -5    1    3    3    0  502 -0.15458836432E+00  0.22259613413E+02  0.14276109422E+02  0.26773008555E+02  0.41800000000E+01 0. -1.
        -11    1    4    4    0    0 -0.62936035783E+02 -0.51147120239E+02 -0.11455064797E+03  0.14035249716E+03  0.00000000000E+00 0. -1.
         11    1    4    4    0    0  0.15772909705E+02  0.72916567477E+01 -0.95661000899E+02  0.97226436898E+02  0.00000000000E+00 0.  1.
</event>
<event>
 8    1  0.6505836E-009  0.3078595E+03  0.7561462E-02  0.1081376E+00
         -2   -1    0    0    0  501 -0.00000000000E+00  0.00000000000E+00  0.13396811798E+03  0.13396811798E+03  0.00000000000E+00 0.  1.
          2   -1    0    0  501    0  0.00000000000E+00 -0.00000000000E+00 -0.86273771739E+03  0.86273771739E+03  0.00000000000E+00 0. -1.
         25    2    1    2    0    0  0.26945111855E+03 -0.12063700690E+03 -0.55687906868E+03  0.64258762435E+03  0.12508942848E+03 0.  0.
         23    2    1    2    0    0 -0.26945111855E+03  0.12063700690E+03 -0.17189053073E+03  0.35411821101E+03  0.93253204196E+02 0.  0.
          5    1    3    3  502    0  0.23378461557E+03 -0.14671289006E+03 -0.47137730687E+03  0.54625447955E+03  0.41800000000E+01 0.  1.
         -5    1    3    3    0  502  0.35666502980E+02  0.26075883154E+02 -0.85501761803E+02  0.96333144808E+02  0.41800000000E+01 0.  1.
        -11    1    4    4    0    0 -0.67075420945E+02  0.33243665767E+02 -0.45546036701E+00  0.74862947128E+02  0.00000000000E+00 0.  1.
         11    1    4    4    0    0 -0.20237569761E+03  0.87393341137E+02 -0.17143507036E+03  0.27925526388E+03  0.00000000000E+00 0. -1.
</event>
<event>
 8    1  0.6505836E-009  0.1190149E+03  0.7561462E-02  0.1244731E+00
          2   -1    0    0  501    0  0.00000000000E+00  0.00000000000E+00  0.64330420215E+03  0.64330420215E+03  0.00000000000E+00 0. -1.
         -2   -1    0    0    0  501 -0.00000000000E+00 -0.00000000000E+00 -0.26223260626E+02  0.26223260626E+02  0.00000000000E+00 0.  1.
         25    2    1    2    0    0  0.13344347223E+02  0.70393430901E+02  0.31356970892E+03  0.34511784775E+03  0.12508820792E+03 0.  0.
         23    2    1    2    0    0 -0.13344347223E+02 -0.70393430901E+02  0.30351123260E+03  0.32440961503E+03  0.89382455175E+02 0.  0.
          5    1    3    3  502    0 -0.44115080154E+02  0.15350092821E+02  0.20589173730E+03  0.21116497232E+03  0.41800000000E+01 0. -1.
         -5    1    3    3    0  502  0.57459427377E+02  0.55043338081E+02  0.10767797162E+03  0.13395287542E+03  0.41800000000E+01 0. -1.
        -11    1    4    4    0    0  0.32854743933E+02 -0.79930343843E+01  0.60640609420E+02  0.69430586259E+02  0.00000000000E+00 0.  1.
         11    1    4    4    0    0 -0.46199091155E+02 -0.62400396517E+02  0.24287062318E+03  0.25497902877E+03  0.00000000000E+00 0. -1.
</event>
<event>
 8    1  0.6505836E-009  0.1053282E+03  0.7561462E-02  0.1269474E+00
         -2   -1    0    0    0  501 -0.00000000000E+00  0.00000000000E+00  0.94695495058E+01  0.94695495058E+01  0.00000000000E+00 0. -1.
          2   -1    0    0  501    0  0.00000000000E+00 -0.00000000000E+00 -0.19268564063E+04  0.19268564063E+04  0.00000000000E+00 0.  1.
         25    2    1    2    0    0  0.22047403061E+02 -0.49707910384E+02 -0.15505071211E+04  0.15564952970E+04  0.12509321579E+03 0.  0.
         23    2    1    2    0    0 -0.22047403061E+02  0.49707910384E+02 -0.36687973566E+03  0.37983065878E+03  0.81936710792E+02 0.  0.
          5    1    3    3  502    0  0.68965384498E+02 -0.48515710016E+02 -0.78173276942E+03  0.78627831813E+03  0.41800000000E+01 0.  1.
         -5    1    3    3    0  502 -0.46917981437E+02 -0.11922003679E+01 -0.76877435170E+03  0.77021697888E+03  0.41800000000E+01 0.  1.
        -11    1    4    4    0    0  0.19164621461E+02  0.89526594351E+01 -0.23599893275E+02  0.31692077705E+02  0.00000000000E+00 0. -1.
         11    1    4    4    0    0 -0.41212024522E+02  0.40755250949E+02 -0.34327984239E+03  0.34813858108E+03  0.00000000000E+00 0.  1.
</event>
<event>
 8    1  0.6505836E-009  0.7219519E+02  0.7561462E-02  0.1352783E+00
         -2   -1    0    0    0  501 -0.00000000000E+00  0.00000000000E+00  0.32844135359E+02  0.32844135359E+02  0.00000000000E+00 0.  1.
          2   -1    0    0  501    0  0.00000000000E+00 -0.00000000000E+00 -0.38228561434E+03  0.38228561434E+03  0.00000000000E+00 0. -1.
         25    2    1    2    0    0  0.20563205870E+02 -0.83608460794E+01 -0.24289920607E+03  0.27411697440E+03  0.12508933673E+03 0.  0.
         23    2    1    2    0    0 -0.20563205870E+02  0.83608460794E+01 -0.10654227292E+03  0.14101277530E+03  0.89669379930E+02 0.  0.
          5    1    3    3  502    0  0.21825268780E+02  0.19111814329E+02  0.32041505882E+00  0.29311753105E+02  0.41800000000E+01 0. -1.
         -5    1    3    3    0  502 -0.12620629101E+01 -0.27472660409E+02 -0.24321962113E+03  0.24480522130E+03  0.41800000000E+01 0. -1.
        -11    1    4    4    0    0 -0.43560905524E+01 -0.37949382727E+02 -0.24380373073E+02  0.45315932798E+02  0.00000000000E+00 0.  1.
         11    1    4    4    0    0 -0.16207115318E+02  0.46310228806E+02 -0.82161899843E+02  0.95696842502E+02  0.00000000000E+00 0. -1.
</event>
<event>
 8    1  0.6505836E-009  0.1069075E+03  0.7561462E-02  0.1266406E+00
          1   -1    0    0  501    0  0.00000000000E+00  0.00000000000E+00  0.54385507463E+03  0.54385507463E+03  0.00000000000E+00 0. -1.
         -1   -1    0    0    0  501 -0.00000000000E+00 -0.00000000000E+00 -0.48746018818E+02  0.48746018818E+02  0.00000000000E+00 0.  1.
         25    2    1    2    0    0  0.97303556322E+02  0.10210977149E+02  0.13344623496E+03  0.20743088503E+03  0.12508968108E+03 0.  0.
         23    2    1    2    0    0 -0.97303556322E+02 -0.10210977149E+02  0.36166282085E+03  0.38517020842E+03  0.89352377357E+02 0.  0.
          5    1    3    3  502    0  0.88150016580E+02  0.26083831283E+02  0.22272945020E+02  0.94680241642E+02  0.41800000000E+01 0.  1.
         -5    1    3    3    0  502  0.91535397422E+01 -0.15872854134E+02  0.11117328994E+03  0.11275064339E+03  0.41800000000E+01 0.  1.
        -11    1    4    4    0    0 -0.77879768402E+02 -0.21156988920E+02  0.35153941081E+03  0.36068384197E+03  0.00000000000E+00 0. -1.
         11    1    4    4    0    0 -0.19423787921E+02  0.10946011771E+02  0.10123410040E+02  0.24486366445E+02  0.00000000000E+00 0.  1.
</event>
<event>
 8    1  0.6505836E-009  0.1309085E+03  0.7561462E-02  0.1226114E+00
          1   -1    0    0  501    0  0.00000000000E+00  0.00000000000E+00  0.18212531846E+03  0.18212531846E+03  0.00000000000E+00 0. -1.
         -1   -1    0    0    0  501 -0.00000000000E+00 -0.00000000000E+00 -0.10119217780E+03  0.10119217780E+03  0.00000000000E+00 0.  1.
         25    2    1    2    0    0 -0.45139783703E+02  0.65926361536E+02  0.71857234842E+02  0.16491199141E+03  0.12509443431E+03 0.  0.
         23    2    1    2    0    0  0.45139783703E+02 -0.65926361536E+02  0.90759058173E+01  0.11840550484E+03  0.86911485382E+02 0.  0.
          5    1    3    3  502    0  0.40113912513E+02  0.34390181524E+02  0.46346749795E+02  0.70408125802E+02  0.41800000000E+01 0.  1.
         -5    1    3    3    0  502 -0.85253696216E+02  0.31536180012E+02  0.25510485048E+02  0.94503865612E+02  0.41800000000E+01 0.  1.
        -11    1    4    4    0    0 -0.23521165735E+02 -0.35808683562E+02 -0.31273825334E+00  0.42843959448E+02  0.00000000000E+00 0.  1.
         11    1    4    4    0    0  0.68660949438E+02 -0.30117677974E+02  0.93886440706E+01  0.75561545390E+02  0.00000000000E+00 0. -1.
</event>
<event>
 8    1  0.6505836E-009  0.1470340E+03  0.7561462E-02  0.1204166E+00
         -2   -1    0    0    0  501 -0.00000000000E+00  0.00000000000E+00  0.46702684425E+02  0.46702684425E+02  0.00000000000E+00 0.  1.
          2   -1    0    0  501    0  0.00000000000E+00 -0.00000000000E+00 -0.76617456523E+03  0.76617456523E+03  0.00000000000E+00 0. -1.
         25    2    1    2    0    0 -0.28855388188E+02 -0.13333793740E+03 -0.21196603293E+03  0.28140679815E+03  0.12509415635E+03 0.  0.
         23    2    1    2    0    0  0.28855388188E+02  0.13333793740E+03 -0.50750584788E+03  0.53147045151E+03  0.79290707008E+02 0.  0.
          5    1    3    3  502    0 -0.22387394505E+02 -0.24980392098E+02  0.91734952334E+01  0.35026287797E+02  0.41800000000E+01 0.  1.
         -5    1    3    3    0  502 -0.64679936829E+01 -0.10835754530E+03 -0.22113952816E+03  0.24638051035E+03  0.41800000000E+01 0.  1.
        -11    1    4    4    0    0  0.48896503613E+02  0.71432954838E+02 -0.35981017244E+03  0.37007687754E+03  0.00000000000E+00 0.  1.
         11    1    4    4    0    0 -0.20041115425E+02  0.61904982557E+02 -0.14769567544E+03  0.16139357396E+03  0.00000000000E+00 0. -1.
</event>
<event>
 8    1  0.6505836E-009  0.1947982E+03  0.7561462E-02  0.1154204E+00
         -1   -1    0    0    0  501 -0.00000000000E+00  0.00000000000E+00  0.10154905600E+03  0.10154905600E+03  0.00000000000E+00 0.  1.
          1   -1    0    0  501    0  0.00000000000E+00 -0.00000000000E+00 -0.68670754570E+03  0.68670754570E+03  0.00000000000E+00 0. -1.
         25    2    1    2    0    0  0.32217414447E+02 -0.18231541114E+03 -0.52900239796E+03  0.57425429912E+03  0.12509033569E+03 0.  0.
         23    2    1    2    0    0 -0.32217414447E+02  0.18231541114E+03 -0.56156091737E+02  0.21400230258E+03  0.91469163866E+02 0.  0.
          5    1    3    3  502    0  0.21274975084E+02 -0.13045417659E+03 -0.49203829162E+03  0.50949982294E+03  0.41800000000E+01 0. -1.
         -5    1    3    3    0  502  0.10942439363E+02 -0.51861234548E+02 -0.36964106333E+02  0.64754476177E+02  0.41800000000E+01 0. -1.
        -11    1    4    4    0    0  0.20828929538E+02  0.12240781972E+03 -0.18396136282E+02  0.12552265319E+03  0.00000000000E+00 0. -1.
         11    1    4    4    0    0 -0.53046343985E+02  0.59907591415E+02 -0.37759955455E+02  0.88479649386E+02  0.00000000000E+00 0.  1.
</event>
<event>
 7    1  0.6505836E-009  0.1179367E+03  0.7561462E-02  0.1246540E+00
         -2   -1    0    0    0  501 -0.00000000000E+00  0.00000000000E+00  0.73066361963E+03  0.73066361963E+03  0.00000000000E+00 0.  1.
          2   -1    0    0  501    0  0.00000000000E+00 -0.00000000000E+00 -0.28890763692E+02  0.28890763692E+02  0.00000000000E+00 0. -1.
         25    2    1    2    0    0  0.15200190439E+02  0.94139109773E+02  0.59628804258E+03  0.61668541579E+03  0.12509298362E+03 0.  0.
          5    1    3    3  502    0  0.49086890241E+02  0.10893118524E+02  0.96819068760E+02  0.10917686248E+03  0.41800000000E+01 0. -1.
         -5    1    3    3    0  502 -0.33886699802E+02  0.83245991248E+02  0.49946897382E+03  0.50750855332E+03  0.41800000000E+01 0. -1.
        -11    1    1    2    0    0 -0.35302548392E+01 -0.13077661086E+02  0.22598870169E+02  0.26347615672E+02  0.00000000000E+00 0.  1.
         11    1    1    2    0    0 -0.11669935600E+02 -0.81061448687E+02  0.82885943193E+02  0.11652135186E+03  0.00000000000E+00 0. -1.
</event>
<event>
 8    1  0.6505836E-009  0.1174387E+03  0.7561462E-02  0.1247383E+00
         -2   -1    0    0    0  501 -0.00000000000E+00  0.00000000000E+00  0.27958312567E+02  0.27958312567E+02  0.00000000000E+00 0.  1.
          2   -1    0    0  501    0  0.00000000000E+00 -0.00000000000E+00 -0.77932022956E+03  0.77932022956E+03  0.00000000000E+00 0. -1.
         25    2    1    2    0    0 -0.54104654422E+02 -0.80338532113E+02 -0.47821169384E+03  0.50371564831E+03  0.12514566252E+03 0.  0.
         23    2    1    2    0    0  0.54104654422E+02  0.80338532113E+02 -0.27315022315E+03  0.30356289382E+03  0.90320500033E+02 0.  0.
          5    1    3    3  502    0 -0.49690351381E+02 -0.13136741829E+02 -0.55920676181E+02  0.76067729234E+02  0.41800000000E+01 0.  1.
         -5    1    3    3    0  502 -0.44143030408E+01 -0.67201790284E+02 -0.42229101766E+03  0.42764791907E+03  0.41800000000E+01 0.  1.
        -11    1    4    4    0    0  0.12646283046E+02  0.72558032918E+02 -0.93487603536E+02  0.11901482526E+03  0.00000000000E+00 0.  1.
         11    1    4    4    0    0  0.41458371376E+02  0.77804991956E+01 -0.17966261961E+03  0.18454806856E+03  0.00000000000E+00 0. -1.
</event>
<event>
 8    1  0.6505836E-009  0.1164105E+03  0.7561462E-02  0.1249139E+00
         -1   -1    0    0    0  501 -0.00000000000E+00  0.00000000000E+00  0.17205349553E+03  0.17205349553E+03  0.00000000000E+00 0.  1.
          1   -1    0    0  501    0  0.00000000000E+00 -0.00000000000E+00 -0.10706281490E+03  0.10706281490E+03  0.00000000000E+00 0. -1.
         25    2    1    2    0    0 -0.67312585444E+02  0.40008763938E+02  0.58309905423E+02  0.15868020772E+03  0.12509067871E+03 0.  0.
         23    2    1    2    0    0  0.67312585444E+02 -0.40008763938E+02  0.66807752073E+01  0.12043610271E+03  0.91260817044E+02 0.  0.
          5    1    3    3  502    0 -0.78040180884E+02 -0.18890906161E+02  0.88065711597E+01  0.80883646453E+02  0.41800000000E+01 0. -1.
         -5    1    3    3    0  502  0.10727595440E+02  0.58899670099E+02  0.49503334263E+02  0.77796561266E+02  0.41800000000E+01 0. -1.
        -11    1    4    4    0    0  0.21126556576E+01 -0.25527851551E+02 -0.33745018993E+02  0.42365797828E+02  0.00000000000E+00 0. -1.
         11    1    4    4    0    0  0.65199929786E+02 -0.14480912387E+02  0.40425794200E+02  0.78070304882E+02  0.00000000000E+00 0.  1.
</event>
<event>
 8    1  0.6505836E-009  0.1080784E+03  0.7561462E-02  0.1264170E+00
         -2   -1    0    0    0  501 -0.00000000000E+00  0.00000000000E+00  0.36661230115E+03  0.36661230115E+03  0.00000000000E+00 0.  1.
          2   -1    0    0  501    0  0.00000000000E+00 -0.00000000000E+00 -0.40744165062E+02  0.40744165062E+02  0.00000000000E+00 0. -1.
         25    2    1    2    0    0 -0.60854830490E+00  0.41645158108E+02  0.22198977567E+03  0.25818966905E+03  0.12509098760E+03 0.  0.
         23    2    1    2    0    0  0.60854830490E+00 -0.41645158108E+02  0.10387836042E+03  0.14916679716E+03  0.98617088210E+02 0.  0.
          5    1    3    3  502    0  0.51071927014E+02  0.30536101553E+02  0.48816561694E+02  0.77079986524E+02  0.41800000000E+01 0.  1.
         -5    1    3    3    0  502 -0.51680475319E+02  0.11109056555E+02  0.17317321398E+03  0.18110968253E+03  0.41800000000E+01 0.  1.
        -11    1    4    4    0    0 -0.14771897125E+02  0.28267783486E+02  0.15581016219E+02  0.35497106844E+02  0.00000000000E+00 0. -1.
         11    1    4    4    0    0  0.15380445430E+02 -0.69912941594E+02  0.88297344204E+02  0.11366969032E+03  0.00000000000E+00 0.  1.
</event>
<event>
 8    1  0.6505836E-009  0.7861371E+02  0.7561462E-02  0.1333032E+00
         -2   -1    0    0    0  501 -0.00000000000E+00  0.00000000000E+00  0.22047889101E+02  0.22047889101E+02  0.00000000000E+00 0. -1.
          2   -1    0    0  501    0  0.00000000000E+00 -0.00000000000E+00 -0.85888896554E+03  0.85888896554E+03  0.00000000000E+00 0.  1.
         25    2    1    2    0    0 -0.48734918283E+02 -0.34536393318E+02 -0.64792557194E+03  0.66258796108E+03  0.12508958661E+03 0.  0.
         23    2    1    2    0    0  0.48734918283E+02  0.34536393318E+02 -0.18891550450E+03  0.21834889356E+03  0.91756834914E+02 0.  0.
          5    1    3    3  502    0 -0.41635868875E+02 -0.35702819136E+02 -0.65129315726E+03  0.65361187716E+03  0.41800000000E+01 0. -1.
         -5    1    3    3    0  502 -0.70990494085E+01  0.11664258185E+01  0.33675853220E+01  0.89760839231E+01  0.41800000000E+01 0. -1.
        -11    1    4    4    0    0 -0.19011481293E+01 -0.19647458516E+02 -0.54749270442E+01  0.20484428635E+02  0.00000000000E+00 0. -1.
         11    1    4    4    0    0  0.50636066412E+02  0.54183851834E+02 -0.18344057746E+03  0.19786446492E+03  0.00000000000E+00 0.  1.
</event>
<event>
 8    1  0.6505836E-009  0.1404659E+03  0.7561462E-02  0.1212703E+00
          1   -1    0    0  501    0  0.00000000000E+00  0.00000000000E+00  0.57271985542E+03  0.57271985542E+03  0.00000000000E+00 0. -1.
         -1   -1    0    0    0  501 -0.00000000000E+00 -0.00000000000E+00 -0.49154881005E+02  0.49154881005E+02  0.00000000000E+00 0.  1.
         25    2    1    2    0    0 -0.10197373829E+03 -0.54998161300E+02  0.17899534759E+03  0.24719614757E+03  0.12507261837E+03 0.  0.
         23    2    1    2    0    0  0.10197373829E+03  0.54998161300E+02  0.34456962682E+03  0.37467858886E+03  0.90732442769E+02 0.  0.
          5    1    3    3  502    0 -0.12088246121E+03 -0.28123709165E+02  0.17389193786E+03  0.21368058147E+03  0.41800000000E+01 0.  1.
         -5    1    3    3    0  502  0.18908722917E+02 -0.26874452136E+02  0.51034097335E+01  0.33515566098E+02  0.41800000000E+01 0.  1.
        -11    1    4    4    0    0  0.30291680999E+02  0.40362159649E+02  0.49554589452E+02  0.70727273417E+02  0.00000000000E+00 0.  1.
         11    1    4    4    0    0  0.71682057294E+02  0.14636001651E+02  0.29501503737E+03  0.30395131544E+03  0.00000000000E+00 0. -1.
</event>
<event>
 8    1  0.6505836E-009  0.7110511E+02  0.7561462E-02  0.1356375E+00
          2   -1    0    0  501    0  0.00000000000E+00  0.00000000000E+00  0.54766220908E+02  0.54766220908E+02  0.00000000000E+00 0. -1.
         -2   -1    0    0    0  501 -0.00000000000E+00 -0.00000000000E+00 -0.22701519021E+03  0.22701519021E+03  0.00000000000E+00 0.  1.
         25    2    1    2    0    0  0.14324872648E+02 -0.13433982010E+02 -0.77565328241E+02  0.14852450159E+03  0.12512982689E+03 0.  0.
         23    2    1    2    0    0 -0.14324872648E+02  0.13433982010E+02 -0.94683641063E+02  0.13325690953E+03  0.91688266450E+02 0.  0.
          5    1    3    3  502    0  0.58851778189E+01 -0.50170293616E+02  0.11277013364E+02  0.51926266088E+02  0.41800000000E+01 0. -1.
         -5    1    3    3    0  502  0.84396948294E+01  0.36736311606E+02 -0.88842341605E+02  0.96598235497E+02  0.41800000000E+01 0. -1.
        -11    1    4    4    0    0 -0.86438005583E+01 -0.18893047905E+02 -0.98082604738E+02  0.10025896419E+03  0.00000000000E+00 0.  1.
         11    1    4    4    0    0 -0.56810720900E+01  0.32327029914E+02  0.33989636757E+01  0.32997945349E+02  0.00000000000E+00 0. -1.
</event>
<event>
 8    1  0.6505836E-009  0.1736676E+03  0.7561462E-02  0.1174076E+00
          1   -1    0    0  501    0  0.00000000000E+00  0.00000000000E+00  0.12318967712E+03  0.12318967712E+03  0.00000000000E+00 0. -1.
         -1   -1    0    0    0  501 -0.00000000000E+00 -0.00000000000E+00 -0.26578609127E+03  0.26578609127E+03  0.00000000000E+00 0.  1.
         25    2    1    2    0    0  0.12798535624E+03  0.61886043504E+02 -0.48773792114E+02  0.19553979273E+03  0.12508714542E+03 0.  0.
         23    2    1    2    0    0 -0.12798535624E+03 -0.61886043504E+02 -0.93822622035E+02  0.19343597566E+03  0.91676924481E+02 0.  0.
          5    1    3    3  502    0  0.13545206096E+03  0.15484615384E+02 -0.14386705040E+02  0.13715496278E+03  0.41800000000E+01 0. -1.
         -5    1    3    3    0  502 -0.74667047190E+01  0.46401428120E+02 -0.34387087074E+02  0.58384829951E+02  0.41800000000E+01 0. -1.
        -11    1    4    4    0    0 -0.11615295728E+03 -0.17069262661E+02 -0.87997627037E+02  0.14671895438E+03  0.00000000000E+00 0.  1.
         11    1    4    4    0    0 -0.11832398968E+02 -0.44816780843E+02 -0.58249949980E+01  0.46717021279E+02  0.00000000000E+00 0. -1.
</event>
<event>
 8    1  0.6505836E-009  0.1962827E+03  0.7561462E-02  0.1152914E+00
          2   -1    0    0  501    0  0.00000000000E+00  0.00000000000E+00  0.46733884216E+03  0.46733884216E+03  0.00000000000E+00 0. -1.
         -2   -1    0    0    0  501 -0.00000000000E+00 -0.00000000000E+00 -0.10740958672E+03  0.10740958672E+03  0.00000000000E+00 0.  1.
         25    2    1    2    0    0 -0.13467507585E+03  0.13939048246E+03  0.22694148017E+03  0.32360141397E+03  0.12509339329E+03 0.  0.
         23    2    1    2    0    0  0.13467507585E+03 -0.13939048246E+03  0.13298777527E+03  0.25114701491E+03  0.88442026580E+02 0.  0.
          5    1    3    3  502    0 -0.53283980793E+02  0.48058064314E+02  0.74200173389E+01  0.72258488858E+02  0.41800000000E+01 0. -1.
         -5    1    3    3    0  502 -0.81391095061E+02  0.91332418150E+02  0.21952146283E+03  0.25134292511E+03  0.41800000000E+01 0. -1.
        -11    1    4    4    0    0  0.89015703905E+02 -0.62186747155E+02  0.26227173061E+02  0.11170878063E+03  0.00000000000E+00 0.  1.
         11    1    4    4    0    0  0.45659371950E+02 -0.77203735309E+02  0.10676060221E+03  0.13943823427E+03  0.00000000000E+00 0. -1.
</event>
<event>
 8    1  0.6505836E-009  0.1449929E+03  0.7561462E-02  0.1206764E+00
          1   -1    0    0  501    0  0.00000000000E+00  0.00000000000E+00  0.45058713162E+03  0.45058713162E+03  0.00000000000E+00 0. -1.
         -1   -1    0    0    0  501 -0.00000000000E+00 -0.00000000000E+00 -0.57425146441E+02  0.57425146441E+02  0.00000000000E+00 0.  1.
         25    2    1    2    0    0  0.54119116862E+02 -0.10152079867E+03  0.17657070945E+03  0.24507202947E+03  0.12509089822E+03 0.  0.
         23    2    1    2    0    0 -0.54119116862E+02  0.10152079867E+03  0.21659127573E+03  0.26294024860E+03  0.94817942594E+02 0.  0.
          5    1    3    3  502    0  0.86840990842E+02 -0.42920711157E+02  0.72095657558E+02  0.12082549969E+03  0.41800000000E+01 0.  1.
         -5    1    3    3    0  502 -0.32721873980E+02 -0.58600087512E+02  0.10447505190E+03  0.12424652978E+03  0.41800000000E+01 0.  1.
        -11    1    4    4    0    0 -0.26288743217E+02  0.69395931896E+01  0.25800111634E+01  0.27311397459E+02  0.00000000000E+00 0.  1.
         11    1    4    4    0    0 -0.27830373645E+02  0.94581205480E+02  0.21401126457E+03  0.23562885114E+03  0.00000000000E+00 0. -1.
</event>
<event>
 8    1  0.6505836E-009  0.9258955E+02  0.7561462E-02  0.1296699E+00
         -2   -1    0    0    0  501 -0.00000000000E+00  0.00000000000E+00  0.29522865231E+02  0.29522865231E+02  0.00000000000E+00 0.  1.
          2   -1    0    0  501    0  0.00000000000E+00 -0.00000000000E+00 -0.41210094065E+03  0.41210094065E+03  0.00000000000E+00 0. -1.
         25    2    1    2    0    0  0.93127281193E+01  0.23003656083E+01 -0.26075218288E+03  0.28936438465E+03  0.12509207664E+03 0.  0.
         23    2    1    2    0    0 -0.93127281193E+01 -0.23003656083E+01 -0.12182589254E+03  0.15225942123E+03  0.90826013207E+02 0.  0.
          5    1    3    3  502    0 -0.18879972313E+02  0.44829682887E+02 -0.41081884709E+02  0.63807111466E+02  0.41800000000E+01 0. -1.
         -5    1    3    3    0  502  0.28192700433E+02 -0.42529317279E+02 -0.21967029817E+03  0.22555727318E+03  0.41800000000E+01 0. -1.
        -11    1    4    4    0    0  0.51193597082E+01  0.40072078642E+02 -0.30721697975E+02  0.50752360112E+02  0.00000000000E+00 0.  1.
         11    1    4    4    0    0 -0.14432087828E+02 -0.42372444250E+02 -0.91104194562E+02  0.10150706112E+03  0.00000000000E+00 0. -1.
</event>
<event>
 8    1  0.6505836E-009  0.1103039E+03  0.7561462E-02  0.1260008E+00
          3   -1    0    0  501    0  0.00000000000E+00  0.00000000000E+00  0.63410245109E+03  0.63410245109E+03  0.00000000000E+00 0. -1.
         -3   -1    0    0    0  501 -0.00000000000E+00 -0.00000000000E+00 -0.21623260318E+02  0.21623260318E+02  0.00000000000E+00 0.  1.
         25    2    1    2    0    0 -0.23239771507E+02  0.33830006495E+02  0.39759622673E+03  0.41882544851E+03  0.12508972975E+03 0.  0.
         23    2    1    2    0    0  0.23239771507E+02 -0.33830006495E+02  0.21488296403E+03  0.23690026289E+03  0.90898239843E+02 0.  0.
          5    1    3    3  502    0  0.50131716375E+02 -0.82637311628E+00  0.14473452475E+03  0.15322998054E+03  0.41800000000E+01 0. -1.
         -5    1    3    3    0  502 -0.73371487882E+02  0.34656379611E+02  0.25286170198E+03  0.26559546798E+03  0.41800000000E+01 0. -1.
        -11    1    4    4    0    0 -0.22645578796E+02  0.10750283230E+02  0.11914927743E+03  0.12175771491E+03  0.00000000000E+00 0. -1.
         11    1    4    4    0    0  0.45885350303E+02 -0.44580289724E+02  0.95733686606E+02  0.11514254798E+03  0.00000000000E+00 0.  1.
</event>
<event>
 8    1  0.6505836E-009  0.1276075E+03  0.7561462E-02  0.1231050E+00
         -1   -1    0    0    0  501 -0.00000000000E+00  0.00000000000E+00  0.98902032969E+01  0.98902032969E+01  0.00000000000E+00 0.  1.
          1   -1    0    0  501    0  0.00000000000E+00 -0.00000000000E+00 -0.24023449290E+04  0.24023449290E+04  0.00000000000E+00 0. -1.
         25    2    1    2    0    0 -0.50048906255E+02  0.80428569815E+02 -0.18421506683E+04  0.18488213606E+04  0.12509073016E+03 0.  0.
         23    2    1    2    0    0  0.50048906255E+02 -0.80428569815E+02 -0.55030405735E+03  0.56341377166E+03  0.75012496963E+02 0.  0.
          5    1    3    3  502    0  0.12544817067E+02  0.70358737304E+02 -0.49250451578E+03  0.49768051480E+03  0.41800000000E+01 0.  1.
         -5    1    3    3    0  502 -0.62593723322E+02  0.10069832511E+02 -0.13496461526E+04  0.13511408458E+04  0.41800000000E+01 0.  1.
        -11    1    4    4    0    0 -0.17312527837E+02 -0.31928646132E+01 -0.60840164837E+02  0.63335958680E+02  0.00000000000E+00 0.  1.
         11    1    4    4    0    0  0.67361434092E+02 -0.77235705202E+02 -0.48946389251E+03  0.50007781298E+03  0.00000000000E+00 0. -1.
</event>
<event>
 8    1  0.6505836E-009  0.9793076E+02  0.7561462E-02  0.1284708E+00
         -1   -1    0    0    0  501 -0.00000000000E+00  0.00000000000E+00  0.35737893327E+03  0.35737893327E+03  0.00000000000E+00 0.  1.
          1   -1    0    0  501    0  0.00000000000E+00 -0.00000000000E+00 -0.82687121510E+02  0.82687121510E+02  0.00000000000E+00 0. -1.
         25    2    1    2    0    0  0.50992460427E+02  0.23298982745E+02 -0.10369602735E+02  0.13742259468E+03  0.12503746339E+03 0.  0.
         23    2    1    2    0    0 -0.50992460427E+02 -0.23298982745E+02  0.28506141450E+03  0.30264346010E+03  0.84793751476E+02 0.  0.
          5    1    3    3  502    0  0.65323928974E+02 -0.71231701250E+01  0.39757123360E+02  0.76915905423E+02  0.41800000000E+01 0. -1.
         -5    1    3    3    0  502 -0.14331468547E+02  0.30422152870E+02 -0.50126726095E+02  0.60506689258E+02  0.41800000000E+01 0. -1.
        -11    1    4    4    0    0  0.12090324572E+02  0.17304234735E+02  0.11275182965E+03  0.11471088692E+03  0.00000000000E+00 0. -1.
         11    1    4    4    0    0 -0.63082784999E+02 -0.40603217480E+02  0.17230958484E+03  0.18793257318E+03  0.00000000000E+00 0.  1.
</event>
<event>
 8    1  0.6505836E-009  0.1089887E+03  0.7561462E-02  0.1262454E+00
         -2   -1    0    0    0  501 -0.00000000000E+00  0.00000000000E+00  0.80462334901E+02  0.80462334901E+02  0.00000000000E+00 0.  1.
          2   -1    0    0  501    0  0.00000000000E+00 -0.00000000000E+00 -0.28400727499E+03  0.28400727499E+03  0.00000000000E+00 0. -1.
         25    2    1    2    0    0  0.52882455200E+02 -0.88419018452E+02 -0.82686231423E+02  0.18193077197E+03  0.12508923227E+03 0.  0.
         23    2    1    2    0    0 -0.52882455200E+02  0.88419018452E+02 -0.12085870867E+03  0.18253883792E+03  0.89995127629E+02 0.  0.
          5    1    3    3  502    0  0.35487724235E+02 -0.49063474746E+02  0.25188853464E+02  0.65715704853E+02  0.41800000000E+01 0.  1.
         -5    1    3    3    0  502  0.17394730965E+02 -0.39355543706E+02 -0.10787508489E+03  0.11621506712E+03  0.41800000000E+01 0.  1.
        -11    1    4    4    0    0 -0.57354119089E+02  0.52187977430E+02 -0.27465627298E+02  0.82264455554E+02  0.00000000000E+00 0.  1.
         11    1    4    4    0    0  0.44716638895E+01  0.36231041022E+02 -0.93393081369E+02  0.10027438237E+03  0.00000000000E+00 0. -1.
</event>
<event>
 8    1  0.6505836E-009  0.1126526E+03  0.7561462E-02  0.1255735E+00
          1   -1    0    0  501    0  0.00000000000E+00  0.00000000000E+00  0.85305749433E+03  0.85305749433E+03  0.00000000000E+00 0. -1.
         -1   -1    0    0    0  501 -0.00000000000E+00 -0.00000000000E+00 -0.16833080176E+02  0.16833080176E+02  0.00000000000E+00 0.  1.
         25    2    1    2    0    0 -0.29646414933E+02 -0.74142454191E+01  0.32438935409E+03  0.34901256089E+03  0.12508970245E+03 0.  0.
         23    2    1    2    0    0  0.29646414933E+02  0.74142454191E+01  0.51183506006E+03  0.52087801361E+03  0.91678216631E+02 0.  0.
          5    1    3    3  502    0  0.44827041881E+02  0.19923028283E+02  0.11771390234E+03  0.12759477240E+03  0.41800000000E+01 0.  1.
         -5    1    3    3    0  502 -0.74473456814E+02 -0.27337273703E+02  0.20667545175E+03  0.22141778849E+03  0.41800000000E+01 0.  1.
        -11    1    4    4    0    0  0.28671063387E+01 -0.41108345964E+02  0.21510022960E+03  0.21901192931E+03  0.00000000000E+00 0. -1.
         11    1    4    4    0    0  0.26779308594E+02  0.48522591383E+02  0.29673483047E+03  0.30186608431E+03  0.00000000000E+00 0.  1.
</event>
<event>
 8    1  0.6505836E-009  0.9776124E+02  0.7561462E-02  0.1285075E+00
         -1   -1    0    0    0  501 -0.00000000000E+00  0.00000000000E+00  0.38738051677E+02  0.38738051677E+02  0.00000000000E+00 0.  1.
          1   -1    0    0  501    0  0.00000000000E+00 -0.00000000000E+00 -0.54115608069E+03  0.54115608069E+03  0.00000000000E+00 0. -1.
         25    2    1    2    0    0  0.91145769872E+02 -0.18573551345E+02 -0.23529161426E+03  0.28224108647E+03  0.12508140938E+03 0.  0.
         23    2    1    2    0    0 -0.91145769872E+02  0.18573551345E+02 -0.26712641475E+03  0.29765304590E+03  0.92673006323E+02 0.  0.
          5    1    3    3  502    0  0.56742044249E+02 -0.20065432094E+02 -0.19096272724E+02  0.63280496068E+02  0.41800000000E+01 0.  1.
         -5    1    3    3    0  502  0.34403725623E+02  0.14918807494E+01 -0.21619534154E+03  0.21896059040E+03  0.41800000000E+01 0.  1.
        -11    1    4    4    0    0 -0.19146497103E+02 -0.11655959453E+02 -0.34780345224E+01  0.22683616692E+02  0.00000000000E+00 0.  1.
         11    1    4    4    0    0 -0.71999272769E+02  0.30229510798E+02 -0.26364838022E+03  0.27496942920E+03  0.00000000000E+00 0. -1.
</event>
<event>
 8    1  0.6505836E-009  0.7922406E+02  0.7561462E-02  0.1331268E+00
         -1   -1    0    0    0  501 -0.00000000000E+00  0.00000000000E+00  0.32100729867E+02  0.32100729867E+02  0.00000000000E+00 0.  1.
          1   -1    0    0  501    0  0.00000000000E+00 -0.00000000000E+00 -0.43893150397E+03  0.43893150397E+03  0.00000000000E+00 0. -1.
         25    2    1    2    0    0  0.20060969580E+02  0.45282091061E+02 -0.21338306654E+03  0.25225566856E+03  0.12509068297E+03 0.  0.
         23    2    1    2    0    0 -0.20060969580E+02 -0.45282091061E+02 -0.19344770757E+03  0.21877656528E+03  0.89377064617E+02 0.  0.
          5    1    3    3  502    0  0.29351745294E+01 -0.97757300982E+01 -0.18931264698E+03  0.18963367543E+03  0.41800000000E+01 0.  1.
         -5    1    3    3    0  502  0.17125795050E+02  0.55057821159E+02 -0.24070419556E+02  0.62621993137E+02  0.41800000000E+01 0.  1.
        -11    1    4    4    0    0  0.21931226649E+02 -0.42130666256E+02 -0.15369461671E+03  0.16086642579E+03  0.00000000000E+00 0. -1.
         11    1    4    4    0    0 -0.41992196229E+02 -0.31514248044E+01 -0.39753090863E+02  0.57910139489E+02  0.00000000000E+00 0.  1.
</event>
<event>
 8    1  0.6505836E-009  0.1148884E+03  0.7561462E-02  0.1251776E+00
         -2   -1    0    0    0  501 -0.00000000000E+00  0.00000000000E+00  0.90047262836E+01  0.90047262836E+01  0.00000000000E+00 0.  1.
          2   -1    0    0  501    0  0.00000000000E+00 -0.00000000000E+00 -0.20233339197E+04  0.20233339197E+04  0.00000000000E+00 0. -1.
         25    2    1    2    0    0 -0.67572000074E+01 -0.51626922404E+02 -0.15842694228E+04  0.15900531371E+04  0.12509346920E+03 0.  0.
         23    2    1    2    0    0  0.67572000074E+01  0.51626922404E+02 -0.43005977063E+03  0.44228550886E+03  0.89185571498E+02 0.  0.
          5    1    3    3  502    0 -0.74985115071E+01 -0.91093027730E+02 -0.12690931861E+04  0.12723871875E+04  0.41800000000E+01 0. -1.
         -5    1    3    3    0  502  0.74131149969E+00  0.39466105325E+02 -0.31517623665E+03  0.31766594964E+03  0.41800000000E+01 0. -1.
        -11    1    4    4    0    0  0.80110735297E+01 -0.22790949444E+02 -0.57580702723E+02  0.62443110122E+02  0.00000000000E+00 0.  1.
         11    1    4    4    0    0 -0.12538735222E+01  0.74417871848E+02 -0.37247906791E+03  0.37984239874E+03  0.00000000000E+00 0. -1.
</event>
<event>
 8    1  0.6505836E-009  0.2050792E+03  0.7561462E-02  0.1145523E+00
          4   -1    0    0  501    0  0.00000000000E+00  0.00000000000E+00  0.23332121069E+03  0.23332121069E+03  0.00000000000E+00 0. -1.
         -4   -1    0    0    0  501 -0.00000000000E+00 -0.00000000000E+00 -0.21257522088E+03  0.21257522088E+03  0.00000000000E+00 0.  1.
         25    2    1    2    0    0 -0.14028754923E+03  0.13228979227E+03  0.31418333193E+02  0.23198237619E+03  0.12509006992E+03 0.  0.
         23    2    1    2    0    0  0.14028754923E+03 -0.13228979227E+03 -0.10672343383E+02  0.21391405539E+03  0.92000753100E+02 0.  0.
          5    1    3    3  502    0 -0.19666652128E+02  0.67022218307E+02 -0.36457616832E+02  0.78901110118E+02  0.41800000000E+01 0.  1.
         -5    1    3    3    0  502 -0.12062089710E+03  0.65267573965E+02  0.67875950025E+02  0.15308126607E+03  0.41800000000E+01 0.  1.
        -11    1    4    4    0    0  0.33454591555E+02 -0.74146898907E+02 -0.37164154397E+02  0.89432358158E+02  0.00000000000E+00 0.  1.
         11    1    4    4    0    0  0.10683295768E+03 -0.58142893365E+02  0.26491811015E+02  0.12448169723E+03  0.00000000000E+00 0. -1.
</event>
<event>
 8    1  0.6505836E-009  0.1245525E+03  0.7561462E-02  0.1235770E+00
          2   -1    0    0  501    0  0.00000000000E+00  0.00000000000E+00  0.46773010125E+02  0.46773010125E+02  0.00000000000E+00 0. -1.
         -2   -1    0    0    0  501 -0.00000000000E+00 -0.00000000000E+00 -0.37234400372E+03  0.37234400372E+03  0.00000000000E+00 0.  1.
         25    2    1    2    0    0 -0.31957563966E+02 -0.64032686779E+02 -0.21200201215E+03  0.25634689237E+03  0.12508958870E+03 0.  0.
         23    2    1    2    0    0  0.31957563966E+02  0.64032686779E+02 -0.11356898144E+03  0.16277012147E+03  0.92058286033E+02 0.  0.
          5    1    3    3  502    0 -0.76671430852E+02 -0.43028304813E+02 -0.16972373520E+03  0.19118985856E+03  0.41800000000E+01 0. -1.
         -5    1    3    3    0  502  0.44713866886E+02 -0.21004381967E+02 -0.42278276947E+02  0.65157033813E+02  0.41800000000E+01 0. -1.
        -11    1    4    4    0    0  0.48149980099E+02  0.28675103327E+01 -0.73378200716E+02  0.87812319975E+02  0.00000000000E+00 0. -1.
         11    1    4    4    0    0 -0.16192416133E+02  0.61165176447E+02 -0.40190780728E+02  0.74957801499E+02  0.00000000000E+00 0.  1.
</event>
<event>
 8    1  0.6505836E-009  0.1052087E+03  0.7561462E-02  0.1269709E+00
          1   -1    0    0  501    0  0.00000000000E+00  0.00000000000E+00  0.35059632953E+03  0.35059632953E+03  0.00000000000E+00 0. -1.
         -1   -1    0    0    0  501 -0.00000000000E+00 -0.00000000000E+00 -0.55356969100E+02  0.55356969100E+02  0.00000000000E+00 0.  1.
         25    2    1    2    0    0 -0.15292101216E+02  0.84734106101E+02  0.14226134876E+03  0.20808490280E+03  0.12508924145E+03 0.  0.
         23    2    1    2    0    0  0.15292101216E+02 -0.84734106101E+02  0.15297801167E+03  0.19786839583E+03  0.91301220787E+02 0.  0.
          5    1    3    3  502    0 -0.32312424139E+02  0.13826686665E+01  0.11364613755E+03  0.11823248922E+03  0.41800000000E+01 0.  1.
         -5    1    3    3    0  502  0.17020322924E+02  0.83351437434E+02  0.28615211215E+02  0.89852413588E+02  0.41800000000E+01 0.  1.
        -11    1    4    4    0    0 -0.88872120363E+01 -0.46879138238E+02  0.11015528884E+02  0.48969153723E+02  0.00000000000E+00 0.  1.
         11    1    4    4    0    0  0.24179313252E+02 -0.37854967863E+02  0.14196248278E+03  0.14889924210E+03  0.00000000000E+00 0. -1.
</event>
<event>
 8    1  0.6505836E-009  0.1138591E+03  0.7561462E-02  0.1253586E+00
          1   -1    0    0  501    0  0.00000000000E+00  0.00000000000E+00  0.21449330458E+03  0.21449330458E+03  0.00000000000E+00 0. -1.
         -1   -1    0    0    0  501 -0.00000000000E+00 -0.00000000000E+00 -0.98550051438E+02  0.98550051438E+02  0.00000000000E+00 0.  1.
         25    2    1    2    0    0  0.15311111679E+02  0.30816830037E+02 -0.33702251519E+02  0.13404279445E+03  0.12509005489E+03 0.  0.
         23    2    1    2    0    0 -0.15311111679E+02 -0.30816830037E+02  0.14964550466E+03  0.17900056157E+03  0.91996287009E+02 0.  0.
          5    1    3    3  502    0  0.70308979196E+02  0.11965751691E+02 -0.19174039092E+02  0.73970588373E+02  0.41800000000E+01 0.  1.
         -5    1    3    3    0  502 -0.54997867517E+02  0.18851078346E+02 -0.14528212427E+02  0.60072206074E+02  0.41800000000E+01 0.  1.
        -11    1    4    4    0    0  0.33014927838E+02  0.10248981055E+02  0.46991794428E+02  0.58337430663E+02  0.00000000000E+00 0. -1.
         11    1    4    4    0    0 -0.48326039517E+02 -0.41065811093E+02  0.10265371023E+03  0.12066313091E+03  0.00000000000E+00 0.  1.
</event>
<event>
 8    1  0.6505836E-009  0.6709071E+02  0.7561462E-02  0.1370275E+00
          1   -1    0    0  501    0  0.00000000000E+00  0.00000000000E+00  0.19778966070E+02  0.19778966070E+02  0.00000000000E+00 0. -1.
         -1   -1    0    0    0  501 -0.00000000000E+00 -0.00000000000E+00 -0.68833879800E+03  0.68833879800E+03  0.00000000000E+00 0.  1.
         25    2    1    2    0    0  0.35442717998E+02 -0.23658868033E+02 -0.39162435037E+03  0.41331982770E+03  0.12509084649E+03 0.  0.
         23    2    1    2    0    0 -0.35442717998E+02  0.23658868033E+02 -0.27693548156E+03  0.29479793637E+03  0.91633149258E+02 0.  0.
          5    1    3    3  502    0  0.27362421691E+02 -0.24741943630E+02 -0.21141164559E+02  0.42723379247E+02  0.41800000000E+01 0. -1.
         -5    1    3    3    0  502  0.80802963071E+01  0.10830755960E+01 -0.37048318581E+03  0.37059644845E+03  0.41800000000E+01 0. -1.
        -11    1    4    4    0    0 -0.52599810612E+02 -0.66973678750E+01 -0.23166228239E+03  0.23765312515E+03  0.00000000000E+00 0.  1.
         11    1    4    4    0    0  0.17157092615E+02  0.30356235908E+02 -0.45273199174E+02  0.57144811217E+02  0.00000000000E+00 0. -1.
</event>
<event>
 8    1  0.6505836E-009  0.8445937E+02  0.7561462E-02  0.1316852E+00
         -4   -1    0    0    0  501 -0.00000000000E+00  0.00000000000E+00  0.58881036793E+02  0.58881036793E+02  0.00000000000E+00 0. -1.
          4   -1    0    0  501    0  0.00000000000E+00 -0.00000000000E+00 -0.21379669973E+03  0.21379669973E+03  0.00000000000E+00 0.  1.
         25    2    1    2    0    0  0.12412070614E+02 -0.28716485569E+02 -0.80045491594E+02  0.15176688067E+03  0.12508880566E+03 0.  0.
         23    2    1    2    0    0 -0.12412070614E+02  0.28716485569E+02 -0.74870171340E+02  0.12091085585E+03  0.89639257395E+02 0.  0.
          5    1    3    3  502    0 -0.38615544829E+02 -0.49150175357E+02 -0.11311375372E+02  0.63657832613E+02  0.41800000000E+01 0. -1.
         -5    1    3    3    0  502  0.51027615444E+02  0.20433689788E+02 -0.68734116222E+02  0.88109048054E+02  0.41800000000E+01 0. -1.
        -11    1    4    4    0    0 -0.26483321803E+02  0.25392493019E+02  0.73586972217E+01  0.37420521913E+02  0.00000000000E+00 0. -1.
         11    1    4    4    0    0  0.14071251189E+02  0.33239925501E+01 -0.82228868562E+02  0.83490333940E+02  0.00000000000E+00 0.  1.
</event>
<event>
 8    1  0.6505836E-009  0.1719189E+03  0.7561462E-02  0.1175861E+00
          1   -1    0    0  501    0  0.00000000000E+00  0.00000000000E+00  0.21871737849E+03  0.21871737849E+03  0.00000000000E+00 0. -1.
         -1   -1    0    0    0  501 -0.00000000000E+00 -0.00000000000E+00 -0.15055335412E+03  0.15055335412E+03  0.00000000000E+00 0.  1.
         25    2    1    2    0    0  0.14502501829E+03  0.23608455587E+01  0.38739248465E+02  0.19541280954E+03  0.12509039627E+03 0.  0.
         23    2    1    2    0    0 -0.14502501829E+03 -0.23608455587E+01  0.29424775902E+02  0.17385792306E+03  0.91230096203E+02 0.  0.
          5    1    3    3  502    0  0.92709667298E+02  0.47184194576E+02 -0.18508267796E+02  0.10574241819E+03  0.41800000000E+01 0. -1.
         -5    1    3    3    0  502  0.52315350994E+02 -0.44823349017E+02  0.57247516260E+02  0.89670391349E+02  0.41800000000E+01 0. -1.
        -11    1    4    4    0    0 -0.90831215529E+02 -0.45361809173E+02  0.10107040799E+02  0.10203017063E+03  0.00000000000E+00 0. -1.
         11    1    4    4    0    0 -0.54193802762E+02  0.43000963615E+02  0.19317735103E+02  0.71827752430E+02  0.00000000000E+00 0.  1.
</event>
<event>
 8    1  0.6505836E-009  0.1204812E+03  0.7561462E-02  0.1242305E+00
          4   -1    0    0  501    0  0.00000000000E+00  0.00000000000E+00  0.11778716571E+02  0.11778716571E+02  0.00000000000E+00 0.  1.
         -4   -1    0    0    0  501 -0.00000000000E+00 -0.00000000000E+00 -0.18911628420E+04  0.18911628420E+04  0.00000000000E+00 0. -1.
         25    2    1    2    0    0 -0.29824907154E+02  0.86623567636E+02 -0.12924248205E+04  0.13016921149E+04  0.12508907844E+03 0.  0.
         23    2    1    2    0    0  0.29824907154E+02 -0.86623567636E+02 -0.58695930491E+03  0.60124944375E+03  0.92663371562E+02 0.  0.
          5    1    3    3  502    0  0.14766260942E+02  0.24821108069E+01 -0.79864892275E+03  0.79880021128E+03  0.41800000000E+01 0. -1.
         -5    1    3    3    0  502 -0.44591168096E+02  0.84141456829E+02 -0.49377589780E+03  0.50289190357E+03  0.41800000000E+01 0. -1.
        -11    1    4    4    0    0 -0.33030217204E+02 -0.20539401400E+02 -0.16030584932E+03  0.16495704769E+03  0.00000000000E+00 0. -1.
         11    1    4    4    0    0  0.62855124357E+02 -0.66084166236E+02 -0.42665345560E+03  0.43629239606E+03  0.00000000000E+00 0.  1.
</event>
<event>
 8    1  0.6505836E-009  0.1133373E+03  0.7561462E-02  0.1254512E+00
          2   -1    0    0  501    0  0.00000000000E+00  0.00000000000E+00  0.38044254465E+03  0.38044254465E+03  0.00000000000E+00 0. -1.
         -2   -1    0    0    0  501 -0.00000000000E+00 -0.00000000000E+00 -0.36578547347E+02  0.36578547347E+02  0.00000000000E+00 0.  1.
         25    2    1    2    0    0 -0.13020673041E+02  0.27628115929E+02  0.14638515287E+03  0.19495798141E+03  0.12508857189E+03 0.  0.
         23    2    1    2    0    0  0.13020673041E+02 -0.27628115929E+02  0.19747884444E+03  0.22206311059E+03  0.96857009914E+02 0.  0.
          5    1    3    3  502    0  0.42288445659E+02 -0.26810753364E+02  0.47077213389E+02  0.68853943625E+02  0.41800000000E+01 0.  1.
         -5    1    3    3    0  502 -0.55309118700E+02  0.54438869293E+02  0.99307939479E+02  0.12610403778E+03  0.41800000000E+01 0.  1.
        -11    1    4    4    0    0  0.34920854472E+02 -0.54076745431E+02  0.10217923480E+03  0.12076570911E+03  0.00000000000E+00 0.  1.
         11    1    4    4    0    0 -0.21900181431E+02  0.26448629502E+02  0.95299609639E+02  0.10129740148E+03  0.00000000000E+00 0. -1.
</event>
<event>
 8    1  0.6505836E-009  0.1198374E+03  0.7561462E-02  0.1243365E+00
         -1   -1    0    0    0  501 -0.00000000000E+00  0.00000000000E+00  0.34320975483E+02  0.34320975483E+02  0.00000000000E+00 0.  1.
          1   -1    0    0  501    0  0.00000000000E+00 -0.00000000000E+00 -0.66338492926E+03  0.66338492926E+03  0.00000000000E+00 0. -1.
         25    2    1    2    0    0 -0.99437481596E+02  0.20161513942E+02 -0.27793118246E+03  0.32122754758E+03  0.12508835178E+03 0.  0.
         23    2    1    2    0    0  0.99437481596E+02 -0.20161513942E+02 -0.35113277132E+03  0.37647835716E+03  0.90263120535E+02 0.  0.
          5    1    3    3  502    0 -0.21188872982E+02  0.47154204088E+02 -0.30236717224E+02  0.60035146122E+02  0.41800000000E+01 0.  1.
         -5    1    3    3    0  502 -0.78248608614E+02 -0.26992690146E+02 -0.24769446523E+03  0.26119240146E+03  0.41800000000E+01 0.  1.
        -11    1    4    4    0    0  0.35082687215E+02  0.57591550540E+01 -0.26049739308E+02  0.44074388563E+02  0.00000000000E+00 0.  1.
         11    1    4    4    0    0  0.64354794381E+02 -0.25920668996E+02 -0.32508303201E+03  0.33240396860E+03  0.00000000000E+00 0. -1.
</event>
<event>
 8    1  0.6505836E-009  0.1782647E+03  0.7561462E-02  0.1169493E+00
          1   -1    0    0  501    0  0.00000000000E+00  0.00000000000E+00  0.38455984494E+03  0.38455984494E+03  0.00000000000E+00 0. -1.
         -1   -1    0    0    0  501 -0.00000000000E+00 -0.00000000000E+00 -0.10226058270E+03  0.10226058270E+03  0.00000000000E+00 0.  1.
         25    2    1    2    0    0 -0.14203433273E+03  0.77652784274E+02  0.10295931369E+03  0.22902090148E+03  0.12508495698E+03 0.  0.
         23    2    1    2    0    0  0.14203433273E+03 -0.77652784274E+02  0.17933994855E+03  0.25779952616E+03  0.89967060433E+02 0.  0.
          5    1    3    3  502    0 -0.12629862662E+03  0.87422244054E+02  0.33841765079E+02  0.15734271291E+03  0.41800000000E+01 0.  1.
         -5    1    3    3    0  502 -0.15735706101E+02 -0.97694597798E+01  0.69117548611E+02  0.71678188571E+02  0.41800000000E+01 0.  1.
        -11    1    4    4    0    0  0.13873985525E+03 -0.37669450788E+02  0.15220414938E+03  0.20936532197E+03  0.00000000000E+00 0.  1.
         11    1    4    4    0    0  0.32944774798E+01 -0.39983333486E+02  0.27135799174E+02  0.48434204188E+02  0.00000000000E+00 0. -1.
</event>
<event>
 8    1  0.6505836E-009  0.1017848E+03  0.7561462E-02  0.1276587E+00
         -2   -1    0    0    0  501 -0.00000000000E+00  0.00000000000E+00  0.46921149303E+02  0.46921149303E+02  0.00000000000E+00 0.  1.
          2   -1    0    0  501    0  0.00000000000E+00 -0.00000000000E+00 -0.26890260613E+03  0.26890260613E+03  0.00000000000E+00 0. -1.
         25    2    1    2    0    0 -0.24188113401E+02 -0.32156381305E+01 -0.15623002449E+03  0.20161915412E+03  0.12508819927E+03 0.  0.
         23    2    1    2    0    0  0.24188113401E+02  0.32156381305E+01 -0.65751432331E+02  0.11420460131E+03  0.90133428584E+02 0.  0.
          5    1    3    3  502    0 -0.41769303988E+02  0.53101621069E+02 -0.93159048455E+02  0.11515440775E+03  0.41800000000E+01 0. -1.
         -5    1    3    3    0  502  0.17581190587E+02 -0.56317259199E+02 -0.63070976040E+02  0.86464746370E+02  0.41800000000E+01 0. -1.
        -11    1    4    4    0    0 -0.10217470827E+00  0.35961976034E+02  0.10117207191E+01  0.35976349714E+02  0.00000000000E+00 0.  1.
         11    1    4    4    0    0  0.24290288109E+02 -0.32746337904E+02 -0.66763153050E+02  0.78228251596E+02  0.00000000000E+00 0. -1.
</event>
<event>
 8    1  0.6505836E-009  0.1033784E+03  0.7561462E-02  0.1273348E+00
          1   -1    0    0  501    0  0.00000000000E+00  0.00000000000E+00  0.73785261521E+03  0.73785261521E+03  0.00000000000E+00 0. -1.
         -1   -1    0    0    0  501 -0.00000000000E+00 -0.00000000000E+00 -0.19128461581E+02  0.19128461581E+02  0.00000000000E+00 0.  1.
         25    2    1    2    0    0 -0.90749297365E+01 -0.35030772436E+02  0.52437323736E+03  0.54029748963E+03  0.12507827897E+03 0.  0.
         23    2    1    2    0    0  0.90749297365E+01  0.35030772436E+02  0.19435091626E+03  0.21668358716E+03  0.88712958045E+02 0.  0.
          5    1    3    3  502    0  0.36646359448E+02 -0.50665368975E+02  0.14673466026E+03  0.15955710011E+03  0.41800000000E+01 0.  1.
         -5    1    3    3    0  502 -0.45721289185E+02  0.15634596539E+02  0.37763857710E+03  0.38074038952E+03  0.41800000000E+01 0.  1.
        -11    1    4    4    0    0 -0.34079450901E+02 -0.76104877474E+01  0.78236966020E+02  0.85675850445E+02  0.00000000000E+00 0.  1.
         11    1    4    4    0    0  0.43154380637E+02  0.42641260184E+02  0.11611395024E+03  0.13100773672E+03  0.00000000000E+00 0. -1.
</event>
<event>
 8    1  0.6505836E-009  0.1609958E+03  0.7561462E-02  0.1187577E+00
          3   -1    0    0  501    0  0.00000000000E+00  0.00000000000E+00  0.28661079317E+02  0.28661079317E+02  0.00000000000E+00 0. -1.
         -3   -1    0    0    0  501 -0.00000000000E+00 -0.00000000000E+00 -0.10605523558E+04  0.10605523558E+04  0.00000000000E+00 0.  1.
         25    2    1    2    0    0 -0.11513504346E+03  0.52481692219E+02 -0.67335727985E+03  0.69646806613E+03  0.12508930638E+03 0.  0.
         23    2    1    2    0    0  0.11513504346E+03 -0.52481692219E+02 -0.35853399665E+03  0.39274536900E+03  0.98447406595E+02 0.  0.
          5    1    3    3  502    0 -0.76914845496E+02  0.91574163574E+02 -0.39360107255E+03  0.41138910730E+03  0.41800000000E+01 0.  1.
         -5    1    3    3    0  502 -0.38220197961E+02 -0.39092471355E+02 -0.27975620730E+03  0.28507895884E+03  0.41800000000E+01 0.  1.
        -11    1    4    4    0    0  0.26555170090E+02  0.19836132921E+02 -0.29376311775E+02  0.44290144743E+02  0.00000000000E+00 0. -1.
         11    1    4    4    0    0  0.88579873366E+02 -0.72317825140E+02 -0.32915768488E+03  0.34845522426E+03  0.00000000000E+00 0.  1.
</event>
<event>
 8    1  0.6505836E-009  0.1025676E+03  0.7561462E-02  0.1274987E+00
         -2   -1    0    0    0  501 -0.00000000000E+00  0.00000000000E+00  0.11880580127E+03  0.11880580127E+03  0.00000000000E+00 0. -1.
          2   -1    0    0  501    0  0.00000000000E+00 -0.00000000000E+00 -0.11211913806E+03  0.11211913806E+03  0.00000000000E+00 0.  1.
         25    2    1    2    0    0 -0.25541097196E+02 -0.36757185299E+02  0.46629287104E+00  0.13286025589E+03  0.12509273299E+03 0.  0.
         23    2    1    2    0    0  0.25541097196E+02  0.36757185299E+02  0.62203703364E+01  0.98064683440E+02  0.87031895383E+02 0.  0.
          5    1    3    3  502    0  0.45577112672E+02 -0.77604206570E+01  0.24219630671E+02  0.52359910601E+02  0.41800000000E+01 0. -1.
         -5    1    3    3    0  502 -0.71118209867E+02 -0.28996764642E+02 -0.23753337800E+02  0.80500345285E+02  0.41800000000E+01 0. -1.
        -11    1    4    4    0    0 -0.77970256464E+01 -0.16908543628E+02 -0.22041647764E+02  0.28853538651E+02  0.00000000000E+00 0.  1.
         11    1    4    4    0    0  0.33338122842E+02  0.53665728927E+02  0.28262018100E+02  0.69211144789E+02  0.00000000000E+00 0. -1.
</event>
<event>
 8    1  0.6505836E-009  0.1240419E+03  0.7561462E-02  0.1236574E+00
          1   -1    0    0  501    0  0.00000000000E+00  0.00000000000E+00  0.84866616784E+02  0.84866616784E+02  0.00000000000E+00 0. -1.
         -1   -1    0    0    0  501 -0.00000000000E+00 -0.00000000000E+00 -0.37783142489E+03  0.37783142489E+03  0.00000000000E+00 0.  1.
         25    2    1    2    0    0  0.34491014944E+02 -0.69044750536E+02  0.17982715555E+00  0.14698108558E+03  0.12508636813E+03 0.  0.
         23    2    1    2    0    0 -0.34491014944E+02  0.69044750536E+02 -0.29314463526E+03  0.31571695610E+03  0.88241778635E+02 0.  0.
          5    1    3    3  502    0 -0.42884527058E+02 -0.91012892667E+01 -0.17577959264E+02  0.47417013605E+02  0.41800000000E+01 0. -1.
         -5    1    3    3    0  502  0.77375542002E+02 -0.59943461269E+02  0.17757786420E+02  0.99564071972E+02  0.41800000000E+01 0. -1.
        -11    1    4    4    0    0 -0.56715503068E+02  0.39534813269E+02 -0.24761327362E+03  0.25708361095E+03  0.00000000000E+00 0.  1.
         11    1    4    4    0    0  0.22224488124E+02  0.29509937267E+02 -0.45531361644E+02  0.58633345147E+02  0.00000000000E+00 0. -1.
</event>
<event>
 8    1  0.6505836E-009  0.4761814E+02  0.7561462E-02  0.1458629E+00
         -1   -1    0    0    0  501 -0.00000000000E+00  0.00000000000E+00  0.27918304379E+02  0.27918304379E+02  0.00000000000E+00 0.  1.
          1   -1    0    0  501    0  0.00000000000E+00 -0.00000000000E+00 -0.49495346037E+03  0.49495346037E+03  0.00000000000E+00 0. -1.
         25    2    1    2    0    0  0.26578439283E+02  0.70398828016E+01 -0.36631339109E+03  0.38805780405E+03  0.12508950960E+03 0.  0.
         23    2    1    2    0    0 -0.26578439283E+02 -0.70398828016E+01 -0.10072176490E+03  0.13481396069E+03  0.85287494325E+02 0.  0.
          5    1    3    3  502    0  0.32406382235E+02 -0.16494166550E+01 -0.37334570193E+03  0.37477643967E+03  0.41800000000E+01 0. -1.
         -5    1    3    3    0  502 -0.58279429521E+01  0.86892994567E+01  0.70323108410E+01  0.13281364383E+02  0.41800000000E+01 0. -1.
        -11    1    4    4    0    0 -0.22831086467E+02  0.16019858383E+02  0.34056567103E+01  0.28097915750E+02  0.00000000000E+00 0.  1.
         11    1    4    4    0    0 -0.37473528164E+01 -0.23059741185E+02 -0.10412742161E+03  0.10671604494E+03  0.00000000000E+00 0. -1.
</event>
<event>
 8    1  0.6505836E-009  0.7940147E+02  0.7561462E-02  0.1330759E+00
         -1   -1    0    0    0  501 -0.00000000000E+00  0.00000000000E+00  0.18817358583E+03  0.18817358583E+03  0.00000000000E+00 0.  1.
          1   -1    0    0  501    0  0.00000000000E+00 -0.00000000000E+00 -0.99074386470E+02  0.99074386470E+02  0.00000000000E+00 0. -1.
         25    2    1    2    0    0 -0.37895014993E+01 -0.34377741481E+02  0.12634493097E+03  0.18112618714E+03  0.12508982635E+03 0.  0.
         23    2    1    2    0    0  0.37895014993E+01  0.34377741481E+02 -0.37245731610E+02  0.10612178516E+03  0.93157926829E+02 0.  0.
          5    1    3    3  502    0  0.32573246011E+02  0.26620050521E+02  0.93824252892E+02  0.10290824202E+03  0.41800000000E+01 0.  1.
         -5    1    3    3    0  502 -0.36362747510E+02 -0.60997792002E+02  0.32520678076E+02  0.78217945116E+02  0.41800000000E+01 0.  1.
        -11    1    4    4    0    0  0.15627234564E+02  0.27690419827E+02  0.26222304374E+02  0.41213821189E+02  0.00000000000E+00 0.  1.
         11    1    4    4    0    0 -0.11837733065E+02  0.66873216542E+01 -0.63468035984E+02  0.64907963970E+02  0.00000000000E+00 0. -1.
</event>
<event>
 8    1  0.6505836E-009  0.1297490E+03  0.7561462E-02  0.1227829E+00
         -1   -1    0    0    0  501 -0.00000000000E+00  0.00000000000E+00  0.36876603210E+02  0.36876603210E+02  0.00000000000E+00 0.  1.
          1   -1    0    0  501    0  0.00000000000E+00 -0.00000000000E+00 -0.48898053060E+03  0.48898053060E+03  0.00000000000E+00 0. -1.
         25    2    1    2    0    0  0.14849747218E+02  0.73345169556E+02 -0.29287395914E+03  0.32713660496E+03  0.12507267276E+03 0.  0.
         23    2    1    2    0    0 -0.14849747218E+02 -0.73345169556E+02 -0.15922996825E+03  0.19872052885E+03  0.92388510699E+02 0.  0.
          5    1    3    3  502    0  0.62802066611E+02  0.14429662327E+02 -0.92533557168E+02  0.11283725594E+03  0.41800000000E+01 0. -1.
         -5    1    3    3    0  502 -0.47952319393E+02  0.58915507229E+02 -0.20034040197E+03  0.21429934902E+03  0.41800000000E+01 0. -1.
        -11    1    4    4    0    0 -0.53738128433E+02 -0.50502484740E+02 -0.10152304238E+03  0.12547994081E+03  0.00000000000E+00 0.  1.
         11    1    4    4    0    0  0.38888381215E+02 -0.22842684816E+02 -0.57706925874E+02  0.73240588043E+02  0.00000000000E+00 0. -1.
</event>
<event>
 8    1  0.6505836E-009  0.1457323E+03  0.7561462E-02  0.1205817E+00
         -2   -1    0    0    0  501 -0.00000000000E+00  0.00000000000E+00  0.29131261581E+02  0.29131261581E+02  0.00000000000E+00 0.  1.
          2   -1    0    0  501    0  0.00000000000E+00 -0.00000000000E+00 -0.14384830381E+04  0.14384830381E+04  0.00000000000E+00 0. -1.
         25    2    1    2    0    0  0.14197182304E+03 -0.26375737259E+01 -0.10858492664E+04  0.11022156441E+04  0.12509093290E+03 0.  0.
         23    2    1    2    0    0 -0.14197182304E+03  0.26375737259E+01 -0.32350251008E+03  0.36539865551E+03  0.93270295861E+02 0.  0.
          5    1    3    3  502    0 -0.10004273197E+01  0.19730814740E+01 -0.46743788422E+03  0.46746180797E+03  0.41800000000E+01 0.  1.
         -5    1    3    3    0  502  0.14297225036E+03 -0.46106551999E+01 -0.61841138220E+03  0.63475383618E+03  0.41800000000E+01 0.  1.
        -11    1    4    4    0    0 -0.10623450840E+03  0.11363581936E+02 -0.30703676488E+03  0.32509456587E+03  0.00000000000E+00 0. -1.
         11    1    4    4    0    0 -0.35737314639E+02 -0.87260082105E+01 -0.16465745198E+02  0.40304089641E+02  0.00000000000E+00 0.  1.
</event>
<event>
 8    1  0.6505836E-009  0.1714765E+03  0.7561462E-02  0.1176317E+00
          2   -1    0    0  501    0  0.00000000000E+00  0.00000000000E+00  0.24199124894E+04  0.24199124894E+04  0.00000000000E+00 0. -1.
         -2   -1    0    0    0  501 -0.00000000000E+00 -0.00000000000E+00 -0.15851317984E+02  0.15851317984E+02  0.00000000000E+00 0.  1.
         25    2    1    2    0    0 -0.85755085286E+02  0.12868708095E+03  0.15895344944E+04  0.16019311107E+04  0.12509626326E+03 0.  0.
         23    2    1    2    0    0  0.85755085286E+02 -0.12868708095E+03  0.81452667705E+03  0.83383269672E+03  0.88932328418E+02 0.  0.
          5    1    3    3  502    0  0.12735826263E+01 -0.60197262361E+01  0.55342385228E+03  0.55347384020E+03  0.41800000000E+01 0. -1.
         -5    1    3    3    0  502 -0.87028667912E+02  0.13470680718E+03  0.10361106421E+04  0.10484572705E+04  0.41800000000E+01 0. -1.
        -11    1    4    4    0    0  0.11436571839E+02  0.11624592067E+02  0.39957343238E+02  0.43156871930E+02  0.00000000000E+00 0. -1.
         11    1    4    4    0    0  0.74318513447E+02 -0.14031167301E+03  0.77456933382E+03  0.79067582479E+03  0.00000000000E+00 0.  1.
</event>
<event>
 8    1  0.6505836E-009  0.8521098E+02  0.7561462E-02  0.1314882E+00
         -1   -1    0    0    0  501 -0.00000000000E+00  0.00000000000E+00  0.54791848133E+03  0.54791848133E+03  0.00000000000E+00 0.  1.
          1   -1    0    0  501    0  0.00000000000E+00 -0.00000000000E+00 -0.22162732507E+02  0.22162732507E+02  0.00000000000E+00 0. -1.
         25    2    1    2    0    0  0.82804607047E+01 -0.50862013681E+01  0.34501210671E+03  0.36711726942E+03  0.12508916922E+03 0.  0.
         23    2    1    2    0    0 -0.82804607047E+01  0.50862013681E+01  0.18074364211E+03  0.20296394442E+03  0.91824087776E+02 0.  0.
          5    1    3    3  502    0 -0.13570430615E+02  0.49742656869E+02  0.77770242790E+02  0.93403273835E+02  0.41800000000E+01 0. -1.
         -5    1    3    3    0  502  0.21850891320E+02 -0.54828858237E+02  0.26724186392E+03  0.27371399558E+03  0.41800000000E+01 0. -1.
        -11    1    4    4    0    0  0.15498907592E+01  0.31396680184E+02  0.17001661701E+03  0.17289824681E+03  0.00000000000E+00 0.  1.
         11    1    4    4    0    0 -0.98303514639E+01 -0.26310478816E+02  0.10727025098E+02  0.30065697612E+02  0.00000000000E+00 0. -1.
</event>
<event>
 8    1  0.6505836E-009  0.1031207E+03  0.7561462E-02  0.1273867E+00
          2   -1    0    0  501    0  0.00000000000E+00  0.00000000000E+00  0.73003744710E+03  0.73003744710E+03  0.00000000000E+00 0. -1.
         -2   -1    0    0    0  501 -0.00000000000E+00 -0.00000000000E+00 -0.70194317132E+02  0.70194317132E+02  0.00000000000E+00 0.  1.
         25    2    1    2    0    0  0.27287553880E+02  0.83245570996E+02  0.65701448384E+03  0.67452959943E+03  0.12509081841E+03 0.  0.
         23    2    1    2    0    0 -0.27287553880E+02 -0.83245570996E+02  0.28286461296E+01  0.12570216480E+03  0.90103259151E+02 0.  0.
          5    1    3    3  502    0  0.30302093046E+02  0.15185577623E+02  0.52319598715E+03  0.52430938574E+03  0.41800000000E+01 0. -1.
         -5    1    3    3    0  502 -0.30145391656E+01  0.68059993373E+02  0.13381849669E+03  0.15022021369E+03  0.41800000000E+01 0. -1.
        -11    1    4    4    0    0 -0.98090276528E+01  0.69118180941E+01  0.28013576912E+02  0.30475412126E+02  0.00000000000E+00 0. -1.
         11    1    4    4    0    0 -0.17478526227E+02 -0.90157389090E+02 -0.25184930782E+02  0.95226752675E+02  0.00000000000E+00 0.  1.
</event>
<event>
 8    1  0.6505836E-009  0.1419346E+03  0.7561462E-02  0.1210749E+00
          1   -1    0    0  501    0  0.00000000000E+00  0.00000000000E+00  0.27452781487E+02  0.27452781487E+02  0.00000000000E+00 0. -1.
         -1   -1    0    0    0  501 -0.00000000000E+00 -0.00000000000E+00 -0.99308113467E+03  0.99308113467E+03  0.00000000000E+00 0.  1.
         25    2    1    2    0    0 -0.37357629768E+02  0.11925052947E+03 -0.51858845974E+03  0.54790216989E+03  0.12508603403E+03 0.  0.
         23    2    1    2    0    0  0.37357629768E+02 -0.11925052947E+03 -0.44703989344E+03  0.47263174627E+03  0.88993370388E+02 0.  0.
          5    1    3    3  502    0 -0.63838751106E+02  0.11518244190E+03 -0.49409874507E+03  0.51136427656E+03  0.41800000000E+01 0. -1.
         -5    1    3    3    0  502  0.26481121338E+02  0.40680875670E+01 -0.24489714671E+02  0.36537893323E+02  0.41800000000E+01 0. -1.
        -11    1    4    4    0    0  0.28812679505E+02 -0.87864295861E+02 -0.42079731765E+03  0.43083719376E+03  0.00000000000E+00 0.  1.
         11    1    4    4    0    0  0.85449502631E+01 -0.31386233610E+02 -0.26242575793E+02  0.41794552509E+02  0.00000000000E+00 0. -1.
</event>
<event>
 8    1  0.6505836E-009  0.1692733E+03  0.7561462E-02  0.1178608E+00
          1   -1    0    0  501    0  0.00000000000E+00  0.00000000000E+00  0.89466695784E+02  0.89466695784E+02  0.00000000000E+00 0. -1.
         -1   -1    0    0    0  501 -0.00000000000E+00 -0.00000000000E+00 -0.33160642031E+03  0.33160642031E+03  0.00000000000E+00 0.  1.
         25    2    1    2    0    0 -0.13001810162E+03  0.14545132977E+02 -0.10350822051E+03  0.20851344377E+03  0.12509051474E+03 0.  0.
         23    2    1    2    0    0  0.13001810162E+03 -0.14545132977E+02 -0.13863150402E+03  0.21255967232E+03  0.94056646488E+02 0.  0.
          5    1    3    3  502    0 -0.12143426204E+03 -0.36266102846E+02 -0.88656138769E+02  0.15472198795E+03  0.41800000000E+01 0. -1.
         -5    1    3    3    0  502 -0.85838395818E+01  0.50811235823E+02 -0.14852081737E+02  0.53791455825E+02  0.41800000000E+01 0. -1.
        -11    1    4    4    0    0 -0.13963961960E+02 -0.75897176317E+01 -0.70540927659E+01  0.17388394753E+02  0.00000000000E+00 0. -1.
         11    1    4    4    0    0  0.14398206358E+03 -0.69554153454E+01 -0.13157741125E+03  0.19517127757E+03  0.00000000000E+00 0.  1.
</event>
<event>
 8    1  0.6505836E-009  0.8477644E+02  0.7561462E-02  0.1316018E+00
         -2   -1    0    0    0  501 -0.00000000000E+00  0.00000000000E+00  0.34591059556E+02  0.34591059556E+02  0.00000000000E+00 0.  1.
          2   -1    0    0  501    0  0.00000000000E+00 -0.00000000000E+00 -0.47579897296E+03  0.47579897296E+03  0.00000000000E+00 0. -1.
         25    2    1    2    0    0 -0.63382790931E+02  0.72142674596E+01 -0.29977963043E+03  0.33103791418E+03  0.12509536348E+03 0.  0.
         23    2    1    2    0    0  0.63382790931E+02 -0.72142674596E+01 -0.14142828297E+03  0.17935211833E+03  0.89976659668E+02 0.  0.
          5    1    3    3  502    0 -0.47384751767E+02  0.21222545969E+02 -0.30444616902E+03  0.30886996194E+03  0.41800000000E+01 0.  1.
         -5    1    3    3    0  502 -0.15998039164E+02 -0.14008278509E+02  0.46665385959E+01  0.22167952236E+02  0.41800000000E+01 0.  1.
        -11    1    4    4    0    0 -0.16049979712E+02 -0.19539727528E+00  0.10405472471E+01  0.16084861436E+02  0.00000000000E+00 0.  1.
         11    1    4    4    0    0  0.79432770643E+02 -0.70188701844E+01 -0.14246883022E+03  0.16326725690E+03  0.00000000000E+00 0. -1.
</event>
<event>
 8    1  0.6505836E-009  0.9014599E+02  0.7561462E-02  0.1302499E+00
         -1   -1    0    0    0  501 -0.00000000000E+00  0.00000000000E+00  0.17140648248E+03  0.17140648248E+03  0.00000000000E+00 0.  1.
          1   -1    0    0  501    0  0.00000000000E+00 -0.00000000000E+00 -0.94241219834E+02  0.94241219834E+02  0.00000000000E+00 0. -1.
         25    2    1    2    0    0 -0.52934665343E+02 -0.28883517242E+02  0.71142208722E+02  0.15603055813E+03  0.12509190559E+03 0.  0.
         23    2    1    2    0    0  0.52934665343E+02  0.28883517242E+02  0.60230539270E+01  0.10961714419E+03  0.91341692336E+02 0.  0.
          5    1    3    3  502    0  0.94157640637E+01  0.18290452573E+02 -0.24606656800E+02  0.32344353867E+02  0.41800000000E+01 0.  1.
         -5    1    3    3    0  502 -0.62350429406E+02 -0.47173969815E+02  0.95748865522E+02  0.12368620426E+03  0.41800000000E+01 0.  1.
        -11    1    4    4    0    0  0.16549029903E+02 -0.16138804369E+02  0.37253812038E+02  0.43842649424E+02  0.00000000000E+00 0.  1.
         11    1    4    4    0    0  0.36385635440E+02  0.45022321611E+02 -0.31230758111E+02  0.65774494767E+02  0.00000000000E+00 0. -1.
</event>
<event>
 8    1  0.6505836E-009  0.9840853E+02  0.7561462E-02  0.1283679E+00
         -1   -1    0    0    0  501 -0.00000000000E+00  0.00000000000E+00  0.21112978592E+03  0.21112978592E+03  0.00000000000E+00 0.  1.
          1   -1    0    0  501    0  0.00000000000E+00 -0.00000000000E+00 -0.79271143977E+02  0.79271143977E+02  0.00000000000E+00 0. -1.
         25    2    1    2    0    0 -0.49966446197E+02  0.48908502340E+02  0.75883205270E+02  0.16214305223E+03  0.12507366308E+03 0.  0.
         23    2    1    2    0    0  0.49966446197E+02 -0.48908502340E+02  0.55975436671E+02  0.12825787767E+03  0.91804936289E+02 0.  0.
          5    1    3    3  502    0 -0.62183042178E+02  0.62757347438E+02  0.98675248047E+02  0.13251223479E+03  0.41800000000E+01 0.  1.
         -5    1    3    3    0  502  0.12216595981E+02 -0.13848845099E+02 -0.22792042777E+02  0.29630817435E+02  0.41800000000E+01 0.  1.
        -11    1    4    4    0    0 -0.99463354972E+01  0.27596414533E+01 -0.17480101680E+02  0.20300225751E+02  0.00000000000E+00 0. -1.
         11    1    4    4    0    0  0.59912781694E+02 -0.51668143793E+02  0.73455538351E+02  0.10795765192E+03  0.00000000000E+00 0.  1.
</event>
<event>
 8    1  0.6505836E-009  0.1008218E+03  0.7561462E-02  0.1278577E+00
          2   -1    0    0  501    0  0.00000000000E+00  0.00000000000E+00  0.12093801880E+03  0.12093801880E+03  0.00000000000E+00 0. -1.
         -2   -1    0    0    0  501 -0.00000000000E+00 -0.00000000000E+00 -0.12199169956E+03  0.12199169956E+03  0.00000000000E+00 0.  1.
         25    2    1    2    0    0 -0.39237085134E+01 -0.42213553126E+02  0.32397185985E+02  0.13599169784E+03  0.12508710831E+03 0.  0.
         23    2    1    2    0    0  0.39237085134E+01  0.42213553126E+02 -0.33450866752E+02  0.10693802052E+03  0.92300596913E+02 0.  0.
          5    1    3    3  502    0  0.18435338171E+01 -0.79796098868E+02  0.49582570605E+02  0.94057002500E+02  0.41800000000E+01 0. -1.
         -5    1    3    3    0  502 -0.57672423305E+01  0.37582545742E+02 -0.17185384619E+02  0.41934695338E+02  0.41800000000E+01 0. -1.
        -11    1    4    4    0    0 -0.17144746145E+02  0.55814262423E+02 -0.50017772277E+02  0.76882714272E+02  0.00000000000E+00 0.  1.
         11    1    4    4    0    0  0.21068454659E+02 -0.13600709297E+02  0.16566905525E+02  0.30055306250E+02  0.00000000000E+00 0. -1.
</event>
<event>
 8    1  0.6505836E-009  0.1017820E+03  0.7561462E-02  0.1276593E+00
         -2   -1    0    0    0  501 -0.00000000000E+00  0.00000000000E+00  0.11849006759E+02  0.11849006759E+02  0.00000000000E+00 0.  1.
          2   -1    0    0  501    0  0.00000000000E+00 -0.00000000000E+00 -0.13072402433E+04  0.13072402433E+04  0.00000000000E+00 0. -1.
         25    2    1    2    0    0 -0.21546558010E+02  0.27496683454E+02 -0.97437029930E+03  0.98298744847E+03  0.12508605808E+03 0.  0.
         23    2    1    2    0    0  0.21546558010E+02 -0.27496683454E+02 -0.32102093719E+03  0.33610180154E+03  0.93218330389E+02 0.  0.
          5    1    3    3  502    0 -0.24209556150E+01 -0.36701736459E+02 -0.11095357668E+03  0.11696600815E+03  0.41800000000E+01 0. -1.
         -5    1    3    3    0  502 -0.19125602395E+02  0.64198419912E+02 -0.86341672262E+03  0.86602144032E+03  0.41800000000E+01 0. -1.
        -11    1    4    4    0    0  0.36827603609E+02  0.25158670168E+02 -0.13582839495E+03  0.14296357560E+03  0.00000000000E+00 0. -1.
         11    1    4    4    0    0 -0.15281045599E+02 -0.52655353621E+02 -0.18519254224E+03  0.19313822594E+03  0.00000000000E+00 0.  1.
</event>
<event>
 8    1  0.6505836E-009  0.1088224E+03  0.7561462E-02  0.1262766E+00
          2   -1    0    0  501    0  0.00000000000E+00  0.00000000000E+00  0.99835998550E+03  0.99835998550E+03  0.00000000000E+00 0. -1.
         -2   -1    0    0    0  501 -0.00000000000E+00 -0.00000000000E+00 -0.20247746288E+02  0.20247746288E+02  0.00000000000E+00 0.  1.
         25    2    1    2    0    0 -0.68142080816E+02  0.77554146509E+01  0.75172210815E+03  0.76513751787E+03  0.12508318727E+03 0.  0.
         23    2    1    2    0    0  0.68142080816E+02 -0.77554146509E+01  0.22639013106E+03  0.25347021391E+03  0.91055852456E+02 0.  0.
          5    1    3    3  502    0 -0.10522797211E+02  0.58532917131E+02  0.22221780832E+03  0.23007620125E+03  0.41800000000E+01 0.  1.
         -5    1    3    3    0  502 -0.57619283605E+02 -0.50777502480E+02  0.52950429983E+03  0.53506131662E+03  0.41800000000E+01 0.  1.
        -11    1    4    4    0    0  0.34047120166E+02  0.17878909304E+02  0.21239021664E+02  0.43931285330E+02  0.00000000000E+00 0. -1.
         11    1    4    4    0    0  0.34094960650E+02 -0.25634323955E+02  0.20515110940E+03  0.20953892858E+03  0.00000000000E+00 0.  1.
</event>
<event>
 8    1  0.6505836E-009  0.1388839E+03  0.7561462E-02  0.1214839E+00
          3   -1    0    0  501    0  0.00000000000E+00  0.00000000000E+00  0.13486012890E+03  0.13486012890E+03  0.00000000000E+00 0. -1.
         -3   -1    0    0    0  501 -0.00000000000E+00 -0.00000000000E+00 -0.17656839462E+03  0.17656839462E+03  0.00000000000E+00 0.  1.
         25    2    1    2    0    0  0.10774577992E+03 -0.79014968250E+01 -0.25030842807E+02  0.16716082910E+03  0.12507842720E+03 0.  0.
         23    2    1    2    0    0 -0.10774577992E+03  0.79014968250E+01 -0.16677422918E+02  0.14426769442E+03  0.94145868075E+02 0.  0.
          5    1    3    3  502    0  0.39397546091E+02 -0.43317897449E+02  0.35975410168E+02  0.68849904968E+02  0.41800000000E+01 0. -1.
         -5    1    3    3    0  502  0.68348233829E+02  0.35416400624E+02 -0.61006252975E+02  0.98310924128E+02  0.41800000000E+01 0. -1.
        -11    1    4    4    0    0 -0.85481619033E+02  0.46575758665E+02 -0.22655652132E+01  0.97373206137E+02  0.00000000000E+00 0. -1.
         11    1    4    4    0    0 -0.22264160887E+02 -0.38674261840E+02 -0.14411857705E+02  0.46894488283E+02  0.00000000000E+00 0.  1.
</event>
<event>
 7    1  0.6505836E-009  0.1019300E+03  0.7561462E-02  0.1276289E+00
         -2   -1    0    0    0  501 -0.00000000000E+00  0.00000000000E+00  0.69572842377E+02  0.69572842377E+02  0.00000000000E+00 0.  1.
          2   -1    0    0  501    0  0.00000000000E+00 -0.00000000000E+00 -0.29951371163E+03  0.29951371163E+03  0.00000000000E+00 0. -1.
         23    2    1    2    0    0 -0.24818380106E+02  0.65735507350E+02 -0.24397218854E+02  0.11836884664E+03  0.92080674683E+02 0.  0.
          5    1    1    2  502    0  0.53399520815E+02 -0.52302613594E+02 -0.45655034065E+02  0.87686525462E+02  0.41800000000E+01 0.  1.
         -5    1    1    2    0  502 -0.28581140709E+02 -0.13432893756E+02 -0.15988861633E+03  0.16303118190E+03  0.41800000000E+01 0.  1.
        -11    1    3    3    0    0  0.18770113933E+02  0.61729071463E+00 -0.34579029599E+02  0.39349809567E+02  0.00000000000E+00 0. -1.
         11    1    3    3    0    0 -0.43588494040E+02  0.65118216636E+02  0.10181810745E+02  0.79019037077E+02  0.00000000000E+00 0.  1.
</event>
<event>
 8    1  0.6505836E-009  0.1166416E+03  0.7561462E-02  0.1248743E+00
         -2   -1    0    0    0  501 -0.00000000000E+00  0.00000000000E+00  0.23588443575E+02  0.23588443575E+02  0.00000000000E+00 0. -1.
          2   -1    0    0  501    0  0.00000000000E+00 -0.00000000000E+00 -0.61159097615E+03  0.61159097615E+03  0.00000000000E+00 0.  1.
         25    2    1    2    0    0 -0.32572684027E+00 -0.47019040697E+02 -0.36816293229E+03  0.39166721029E+03  0.12509341556E+03 0.  0.
         23    2    1    2    0    0  0.32572684027E+00  0.47019040697E+02 -0.21983960029E+03  0.24351220944E+03  0.93583385310E+02 0.  0.
          5    1    3    3  502    0  0.60251138286E+02 -0.24345779370E+02 -0.23027520097E+03  0.23930536396E+03  0.41800000000E+01 0. -1.
         -5    1    3    3    0  502 -0.60576865126E+02 -0.22673261328E+02 -0.13788773132E+03  0.15236184633E+03  0.41800000000E+01 0. -1.
        -11    1    4    4    0    0  0.38252487098E+02  0.52573996528E+02 -0.15662755923E+03  0.16958617334E+03  0.00000000000E+00 0. -1.
         11    1    4    4    0    0 -0.37926760258E+02 -0.55549558304E+01 -0.63212041060E+02  0.73926036096E+02  0.00000000000E+00 0.  1.
</event>
<event>
 8    1  0.6505836E-009  0.8841759E+02  0.7561462E-02  0.1306730E+00
          2   -1    0    0  501    0  0.00000000000E+00  0.00000000000E+00  0.70627869279E+02  0.70627869279E+02  0.00000000000E+00 0. -1.
         -2   -1    0    0    0  501 -0.00000000000E+00 -0.00000000000E+00 -0.19526080785E+03  0.19526080785E+03  0.00000000000E+00 0.  1.
         25    2    1    2    0    0 -0.97866077876E+01  0.43245215915E+02 -0.85687819825E+02  0.15797156269E+03  0.12508671296E+03 0.  0.
         23    2    1    2    0    0  0.97866077876E+01 -0.43245215915E+02 -0.38945118746E+02  0.10791711444E+03  0.90351839626E+02 0.  0.
          5    1    3    3  502    0  0.34833657190E+02  0.46398499232E+02  0.33242927136E+01  0.58264292034E+02  0.41800000000E+01 0. -1.
         -5    1    3    3    0  502 -0.44620264977E+02 -0.31532833170E+01 -0.89012112539E+02  0.99707270653E+02  0.41800000000E+01 0. -1.
        -11    1    4    4    0    0  0.16717081118E+02  0.10373840944E+02 -0.49110371734E+02  0.52904687778E+02  0.00000000000E+00 0.  1.
         11    1    4    4    0    0 -0.69304733305E+01 -0.53619056859E+02  0.10165252989E+02  0.55012426663E+02  0.00000000000E+00 0. -1.
</event>
<event>
 8    1  0.6505836E-009  0.1325951E+03  0.7561462E-02  0.1223655E+00
          3   -1    0    0  501    0  0.00000000000E+00  0.00000000000E+00  0.56450059189E+02  0.56450059189E+02  0.00000000000E+00 0. -1.
         -3   -1    0    0    0  501 -0.00000000000E+00 -0.00000000000E+00 -0.38007954909E+03  0.38007954909E+03  0.00000000000E+00 0.  1.
         25    2    1    2    0    0  0.76203101109E+02 -0.41604875048E+02 -0.10707463059E+03  0.18614667119E+03  0.12509088070E+03 0.  0.
         23    2    1    2    0    0 -0.76203101109E+02  0.41604875048E+02 -0.21655485931E+03  0.25038293709E+03  0.90872052058E+02 0.  0.
          5    1    3    3  502    0  0.50611229594E+02 -0.79962091073E+02 -0.10258390269E+03  0.13962937392E+03  0.41800000000E+01 0. -1.
         -5    1    3    3    0  502  0.25591871515E+02  0.38357216026E+02 -0.44907279007E+01  0.46517297277E+02  0.41800000000E+01 0. -1.
        -11    1    4    4    0    0 -0.50689516346E+01  0.52025147867E+02 -0.72429660021E+02  0.89321699111E+02  0.00000000000E+00 0.  1.
         11    1    4    4    0    0 -0.71134149474E+02 -0.10420272820E+02 -0.14412519929E+03  0.16106123798E+03  0.00000000000E+00 0. -1.
</event>
<event>
 8    1  0.6505836E-009  0.9338004E+02  0.7561462E-02  0.1294867E+00
         -1   -1    0    0    0  501 -0.00000000000E+00  0.00000000000E+00  0.50492694409E+02  0.50492694409E+02  0.00000000000E+00 0.  1.
          1   -1    0    0  501    0  0.00000000000E+00 -0.00000000000E+00 -0.28271136435E+03  0.28271136435E+03  0.00000000000E+00 0. -1.
         25    2    1    2    0    0  0.38812493518E+02  0.16318986792E+01 -0.17989970454E+03  0.22253981402E+03  0.12510392632E+03 0.  0.
         23    2    1    2    0    0 -0.38812493518E+02 -0.16318986792E+01 -0.52318965399E+02  0.11066424474E+03  0.89443994644E+02 0.  0.
          5    1    3    3  502    0  0.51328503673E+02  0.43395153192E+02 -0.16160264972E+03  0.17507325154E+03  0.41800000000E+01 0. -1.
         -5    1    3    3    0  502 -0.12516010155E+02 -0.41763254513E+02 -0.18297054825E+02  0.47466562473E+02  0.41800000000E+01 0. -1.
        -11    1    4    4    0    0 -0.23712181042E+02  0.31370936749E+02  0.81309100651E+01  0.40156131546E+02  0.00000000000E+00 0.  1.
         11    1    4    4    0    0 -0.15100312476E+02 -0.33002835428E+02 -0.60449875464E+02  0.70508113198E+02  0.00000000000E+00 0. -1.
</event>
<event>
 8    1  0.6505836E-009  0.1557895E+03  0.7561462E-02  0.1193534E+00
         -3   -1    0    0    0  501 -0.00000000000E+00  0.00000000000E+00  0.42081489824E+03  0.42081489824E+03  0.00000000000E+00 0.  1.
          3   -1    0    0  501    0  0.00000000000E+00 -0.00000000000E+00 -0.95917268306E+02  0.95917268306E+02  0.00000000000E+00 0. -1.
         25    2    1    2    0    0 -0.13552916088E+02  0.14626955502E+03  0.62183794873E+02  0.20271236630E+03  0.12508802838E+03 0.  0.
         23    2    1    2    0    0  0.13552916088E+02 -0.14626955502E+03  0.26271383506E+03  0.31401980025E+03  0.89506488910E+02 0.  0.
          5    1    3    3  502    0  0.16767690308E+02  0.10180462792E+03 -0.19222378013E+02  0.10503480338E+03  0.41800000000E+01 0.  1.
         -5    1    3    3    0  502 -0.30320606396E+02  0.44464927100E+02  0.81406172886E+02  0.97677562921E+02  0.41800000000E+01 0.  1.
        -11    1    4    4    0    0  0.28767884937E+02 -0.57740178463E+02  0.18258886855E+03  0.19364972071E+03  0.00000000000E+00 0.  1.
         11    1    4    4    0    0 -0.15214968850E+02 -0.88529376555E+02  0.80124966514E+02  0.12037007954E+03  0.00000000000E+00 0. -1.
</event>
<event>
 8    1  0.6505836E-009  0.1315691E+03  0.7561462E-02  0.1225146E+00
         -2   -1    0    0    0  501 -0.00000000000E+00  0.00000000000E+00  0.12107025686E+03  0.12107025686E+03  0.00000000000E+00 0.  1.
          2   -1    0    0  501    0  0.00000000000E+00 -0.00000000000E+00 -0.27695175352E+03  0.27695175352E+03  0.00000000000E+00 0. -1.
         25    2    1    2    0    0 -0.15936250134E+02  0.11795003153E+03 -0.17858795942E+03  0.24840972170E+03  0.12509019378E+03 0.  0.
         23    2    1    2    0    0  0.15936250134E+02 -0.11795003153E+03  0.22706462760E+02  0.14961228867E+03  0.87761491921E+02 0.  0.
          5    1    3    3  502    0  0.30829822073E+02  0.71843770317E+02 -0.16293476884E+03  0.18076840586E+03  0.41800000000E+01 0.  1.
         -5    1    3    3    0  502 -0.46766072207E+02  0.46106261215E+02 -0.15653190583E+02  0.67641315838E+02  0.41800000000E+01 0.  1.
        -11    1    4    4    0    0  0.10435607498E+02 -0.69161775727E+02  0.56579524603E+02  0.89963857909E+02  0.00000000000E+00 0.  1.
         11    1    4    4    0    0  0.55006426356E+01 -0.48788255804E+02 -0.33873061844E+02  0.59648430763E+02  0.00000000000E+00 0. -1.
</event>
<event>
 8    1  0.6505836E-009  0.1004577E+03  0.7561462E-02  0.1279337E+00
          3   -1    0    0  501    0  0.00000000000E+00  0.00000000000E+00  0.73688095163E+02  0.73688095163E+02  0.00000000000E+00 0. -1.
         -3   -1    0    0    0  501 -0.00000000000E+00 -0.00000000000E+00 -0.38732082126E+03  0.38732082126E+03  0.00000000000E+00 0.  1.
         25    2    1    2    0    0  0.66741463783E+02 -0.23832977097E+02 -0.29956193627E+03  0.33227588031E+03  0.12508986045E+03 0.  0.
         23    2    1    2    0    0 -0.66741463783E+02  0.23832977097E+02 -0.14070789824E+02  0.12873303611E+03  0.10654470271E+03 0.  0.
          5    1    3    3  502    0  0.51382738061E+02  0.39370832800E+02 -0.22033192043E+03  0.22968211904E+03  0.41800000000E+01 0.  1.
         -5    1    3    3    0  502  0.15358725722E+02 -0.63203809898E+02 -0.79230015840E+02  0.10259376127E+03  0.41800000000E+01 0.  1.
        -11    1    4    4    0    0 -0.28347111361E+02  0.98508556599E+01 -0.60104751619E+02  0.67180199814E+02  0.00000000000E+00 0.  1.
         11    1    4    4    0    0 -0.38394352422E+02  0.13982121437E+02  0.46033961796E+02  0.61552836298E+02  0.00000000000E+00 0. -1.
</event>
<event>
 8    1  0.6505836E-009  0.7812835E+02  0.7561462E-02  0.1334448E+00
          2   -1    0    0  501    0  0.00000000000E+00  0.00000000000E+00  0.17207566055E+03  0.17207566055E+03  0.00000000000E+00 0. -1.
         -2   -1    0    0    0  501 -0.00000000000E+00 -0.00000000000E+00 -0.72738099264E+02  0.72738099264E+02  0.00000000000E+00 0.  1.
         25    2    1    2    0    0 -0.18725835129E+01 -0.70572562593E+01  0.32429371520E+02  0.12943085669E+03  0.12508945236E+03 0.  0.
         23    2    1    2    0    0  0.18725835129E+01  0.70572562593E+01  0.66908189761E+02  0.11538290312E+03  0.93718712323E+02 0.  0.
          5    1    3    3  502    0  0.63972394781E+01 -0.53308756249E+02 -0.21318119876E+02  0.57919623624E+02  0.41800000000E+01 0.  1.
         -5    1    3    3    0  502 -0.82698229910E+01  0.46251499990E+02  0.53747491397E+02  0.71511233069E+02  0.41800000000E+01 0.  1.
        -11    1    4    4    0    0  0.35106832116E+01  0.31017855051E+02  0.81505117501E+02  0.87278384538E+02  0.00000000000E+00 0. -1.
         11    1    4    4    0    0 -0.16380996987E+01 -0.23960598791E+02 -0.14596927740E+02  0.28104518578E+02  0.00000000000E+00 0.  1.
</event>
<event>
 8    1  0.6505836E-009  0.1060570E+03  0.7561462E-02  0.1268051E+00
         -2   -1    0    0    0  501 -0.00000000000E+00  0.00000000000E+00  0.12927178364E+03  0.12927178364E+03  0.00000000000E+00 0.  1.
          2   -1    0    0  501    0  0.00000000000E+00 -0.00000000000E+00 -0.14916244386E+03  0.14916244386E+03  0.00000000000E+00 0. -1.
         25    2    1    2    0    0 -0.88780841146E+01  0.81318249809E+02 -0.33317527315E+02  0.15313059635E+03  0.12508974291E+03 0.  0.
         23    2    1    2    0    0  0.88780841146E+01 -0.81318249809E+02  0.13426867094E+02  0.12530363115E+03  0.93964041470E+02 0.  0.
          5    1    3    3  502    0  0.12283241563E+02  0.95941955159E+02 -0.61538348626E+02  0.11471781699E+03  0.41800000000E+01 0. -1.
         -5    1    3    3    0  502 -0.21161325678E+02 -0.14623705350E+02  0.28220821310E+02  0.38412779358E+02  0.41800000000E+01 0. -1.
        -11    1    4    4    0    0 -0.51681028158E+01 -0.72435043312E+02  0.47927210698E+02  0.87008978339E+02  0.00000000000E+00 0.  1.
         11    1    4    4    0    0  0.14046186930E+02 -0.88832064971E+01 -0.34500343604E+02  0.38294652809E+02  0.00000000000E+00 0. -1.
</event>
<event>
 8    1  0.6505836E-009  0.1598393E+03  0.7561462E-02  0.1188878E+00
         -1   -1    0    0    0  501 -0.00000000000E+00  0.00000000000E+00  0.50749076056E+03  0.50749076056E+03  0.00000000000E+00 0.  1.
          1   -1    0    0  501    0  0.00000000000E+00 -0.00000000000E+00 -0.59182935195E+02  0.59182935195E+02  0.00000000000E+00 0. -1.
         25    2    1    2    0    0 -0.51493993813E+02 -0.11997715388E+03  0.29541841038E+03  0.34637080433E+03  0.12511813637E+03 0.  0.
         23    2    1    2    0    0  0.51493993813E+02  0.11997715388E+03  0.15288941499E+03  0.22030289143E+03  0.90066874618E+02 0.  0.
          5    1    3    3  502    0 -0.30937178004E+02 -0.13787640002E+03  0.28254696416E+03  0.31593871245E+03  0.41800000000E+01 0. -1.
         -5    1    3    3    0  502 -0.20556815809E+02  0.17899246140E+02  0.12871446216E+02  0.30432091881E+02  0.41800000000E+01 0. -1.
        -11    1    4    4    0    0  0.44378711384E+02  0.13060913158E+03  0.15482733585E+03  0.20736373647E+03  0.00000000000E+00 0.  1.
         11    1    4    4    0    0  0.71152824283E+01 -0.10631977698E+02 -0.19379208600E+01  0.12939154959E+02  0.00000000000E+00 0. -1.
</event>
<event>
 8    1  0.6505836E-009  0.1460565E+03  0.7561462E-02  0.1205404E+00
          2   -1    0    0  501    0  0.00000000000E+00  0.00000000000E+00  0.38263491280E+03  0.38263491280E+03  0.00000000000E+00 0. -1.
         -2   -1    0    0    0  501 -0.00000000000E+00 -0.00000000000E+00 -0.66173777996E+02  0.66173777996E+02  0.00000000000E+00 0.  1.
         25    2    1    2    0    0  0.88549550425E+02 -0.75462328424E+02  0.14735350765E+03  0.22560060368E+03  0.12508793017E+03 0.  0.
         23    2    1    2    0    0 -0.88549550425E+02  0.75462328424E+02  0.16910762715E+03  0.22320808711E+03  0.87686228673E+02 0.  0.
          5    1    3    3  502    0 -0.14286503072E+02 -0.65696857976E+02  0.54696493490E+02  0.86771885528E+02  0.41800000000E+01 0.  1.
         -5    1    3    3    0  502  0.10283605350E+03 -0.97654704478E+01  0.92657014160E+02  0.13882871816E+03  0.41800000000E+01 0.  1.
        -11    1    4    4    0    0 -0.85959824784E+02  0.57959867183E+02  0.76289761497E+02  0.12871893952E+03  0.00000000000E+00 0.  1.
         11    1    4    4    0    0 -0.25897256406E+01  0.17502461241E+02  0.92817865656E+02  0.94489147596E+02  0.00000000000E+00 0. -1.
</event>
<event>
 8    1  0.6505836E-009  0.1029773E+03  0.7561462E-02  0.1274157E+00
          1   -1    0    0  501    0  0.00000000000E+00  0.00000000000E+00  0.50950020623E+03  0.50950020623E+03  0.00000000000E+00 0. -1.
         -1   -1    0    0    0  501 -0.00000000000E+00 -0.00000000000E+00 -0.40932248862E+02  0.40932248862E+02  0.00000000000E+00 0.  1.
         25    2    1    2    0    0  0.69317689918E+02 -0.46111525330E+02  0.16520444805E+03  0.22331925246E+03  0.12509102269E+03 0.  0.
         23    2    1    2    0    0 -0.69317689918E+02  0.46111525330E+02  0.30336350931E+03  0.32711320263E+03  0.89679505192E+02 0.  0.
          5    1    3    3  502    0  0.33404231292E+02 -0.36472438785E+02  0.17720371131E+03  0.18402366468E+03  0.41800000000E+01 0. -1.
         -5    1    3    3    0  502  0.35913458625E+02 -0.96390865453E+01 -0.11999263260E+02  0.39295587776E+02  0.41800000000E+01 0. -1.
        -11    1    4    4    0    0 -0.41186140025E+02 -0.20928551513E+02  0.82028693332E+02  0.94143554896E+02  0.00000000000E+00 0.  1.
         11    1    4    4    0    0 -0.28131549893E+02  0.67040076843E+02  0.22133481598E+03  0.23296964774E+03  0.00000000000E+00 0. -1.
</event>
<event>
 8    1  0.6505836E-009  0.1288649E+03  0.7561462E-02  0.1229150E+00
          2   -1    0    0  501    0  0.00000000000E+00  0.00000000000E+00  0.88626103391E+03  0.88626103391E+03  0.00000000000E+00 0.  1.
         -2   -1    0    0    0  501 -0.00000000000E+00 -0.00000000000E+00 -0.25696592103E+02  0.25696592103E+02  0.00000000000E+00 0. -1.
         25    2    1    2    0    0 -0.53568897869E+02 -0.83382872404E+02  0.35202441550E+03  0.38651101188E+03  0.12508894025E+03 0.  0.
         23    2    1    2    0    0  0.53568897869E+02  0.83382872404E+02  0.50854002631E+03  0.52544661413E+03  0.87514888509E+02 0.  0.
          5    1    3    3  502    0 -0.37387170071E+02 -0.11407721780E+03  0.30591462400E+03  0.32865276765E+03  0.41800000000E+01 0. -1.
         -5    1    3    3    0  502 -0.16181727798E+02  0.30694345397E+02  0.46109791499E+02  0.57858244235E+02  0.41800000000E+01 0. -1.
        -11    1    4    4    0    0  0.55700297760E+02  0.71745569025E+02  0.50499169656E+03  0.51309508226E+03  0.00000000000E+00 0.  1.
         11    1    4    4    0    0 -0.21313998911E+01  0.11637303379E+02  0.35483297472E+01  0.12351531866E+02  0.00000000000E+00 0. -1.
</event>
<event>
 8    1  0.6505836E-009  0.9893359E+02  0.7561462E-02  0.1282555E+00
          1   -1    0    0  501    0  0.00000000000E+00  0.00000000000E+00  0.82098264365E+03  0.82098264365E+03  0.00000000000E+00 0. -1.
         -1   -1    0    0    0  501 -0.00000000000E+00 -0.00000000000E+00 -0.16953356383E+02  0.16953356383E+02  0.00000000000E+00 0.  1.
         25    2    1    2    0    0 -0.32101667820E+02  0.36283077691E+02  0.42570855251E+03  0.44634124229E+03  0.12508298878E+03 0.  0.
         23    2    1    2    0    0  0.32101667820E+02 -0.36283077691E+02  0.37832073475E+03  0.39159475774E+03  0.88729347707E+02 0.  0.
          5    1    3    3  502    0 -0.53504859542E+02 -0.12378933667E+02  0.34653377811E+03  0.35088337060E+03  0.41800000000E+01 0.  1.
         -5    1    3    3    0  502  0.21403191721E+02  0.48662011358E+02  0.79174774405E+02  0.95457871689E+02  0.41800000000E+01 0.  1.
        -11    1    4    4    0    0 -0.24517316192E+02 -0.16217454269E+02  0.51494331841E+02  0.59293935845E+02  0.00000000000E+00 0.  1.
         11    1    4    4    0    0  0.56618984013E+02 -0.20065623421E+02  0.32682640291E+03  0.33230082190E+03  0.00000000000E+00 0. -1.
</event>
<event>
 8    1  0.6505836E-009  0.1229085E+03  0.7561462E-02  0.1238375E+00
          2   -1    0    0  501    0  0.00000000000E+00  0.00000000000E+00  0.24778185298E+03  0.24778185298E+03  0.00000000000E+00 0. -1.
         -2   -1    0    0    0  501 -0.00000000000E+00 -0.00000000000E+00 -0.75172772774E+02  0.75172772774E+02  0.00000000000E+00 0.  1.
         25    2    1    2    0    0 -0.75211527263E+01  0.73423048164E+02  0.48273201669E+02  0.15305323056E+03  0.12508987826E+03 0.  0.
         23    2    1    2    0    0  0.75211527263E+01 -0.73423048164E+02  0.12433587854E+03  0.16990139520E+03  0.89216375509E+02 0.  0.
          5    1    3    3  502    0 -0.85839722607E+01  0.10234028538E+03  0.77399295967E+01  0.10307568822E+03  0.41800000000E+01 0.  1.
         -5    1    3    3    0  502  0.10628195344E+01 -0.28917237214E+02  0.40533272072E+02  0.49977542340E+02  0.41800000000E+01 0.  1.
        -11    1    4    4    0    0 -0.30607135205E+02 -0.68909114597E+02  0.66821584845E+02  0.10074912903E+03  0.00000000000E+00 0.  1.
         11    1    4    4    0    0  0.38128287931E+02 -0.45139335671E+01  0.57514293696E+02  0.69152266168E+02  0.00000000000E+00 0. -1.
</event>
<event>
 8    1  0.6505836E-009  0.2193475E+03  0.7561462E-02  0.1134370E+00
         -1   -1    0    0    0  501 -0.00000000000E+00  0.00000000000E+00  0.71438414594E+03  0.71438414594E+03  0.00000000000E+00 0.  1.
          1   -1    0    0  501    0  0.00000000000E+00 -0.00000000000E+00 -0.95574724443E+02  0.95574724443E+02  0.00000000000E+00 0. -1.
         25    2    1    2    0    0  0.16199234737E+03 -0.14427890518E+03  0.16996545767E+03  0.30264547564E+03  0.12509238201E+03 0.  0.
         23    2    1    2    0    0 -0.16199234737E+03  0.14427890518E+03  0.44884396382E+03  0.50731339474E+03  0.94064092714E+02 0.  0.
          5    1    3    3  502    0  0.12542948425E+03 -0.96545974998E+02  0.46130581776E+02  0.16492175048E+03  0.41800000000E+01 0. -1.
         -5    1    3    3    0  502  0.36562863121E+02 -0.47732930183E+02  0.12383487590E+03  0.13772372516E+03  0.41800000000E+01 0. -1.
        -11    1    4    4    0    0 -0.11926795617E+03  0.12634991661E+03  0.25889076673E+03  0.31179091695E+03  0.00000000000E+00 0. -1.
         11    1    4    4    0    0 -0.42724391196E+02  0.17928988569E+02  0.18995319710E+03  0.19552247779E+03  0.00000000000E+00 0.  1.
</event>
<event>
 8    1  0.6505836E-009  0.5228379E+02  0.7561462E-02  0.1433399E+00
         -4   -1    0    0    0  501 -0.00000000000E+00  0.00000000000E+00  0.39495818638E+03  0.39495818638E+03  0.00000000000E+00 0.  1.
          4   -1    0    0  501    0  0.00000000000E+00 -0.00000000000E+00 -0.35904486569E+02  0.35904486569E+02  0.00000000000E+00 0. -1.
         25    2    1    2    0    0  0.97247354704E+01 -0.11246818260E+02  0.11772257489E+03  0.17242127231E+03  0.12509767825E+03 0.  0.
         23    2    1    2    0    0 -0.97247354704E+01  0.11246818260E+02  0.24133112492E+03  0.25844140064E+03  0.91269843369E+02 0.  0.
          5    1    3    3  502    0  0.96523484087E+01 -0.20210654854E+02  0.14324692607E+03  0.14504755298E+03  0.41800000000E+01 0.  1.
         -5    1    3    3    0  502  0.72387061758E-01  0.89638365931E+01 -0.25524351179E+02  0.27373719321E+02  0.41800000000E+01 0.  1.
        -11    1    4    4    0    0  0.14155046679E+02  0.35279559448E+02  0.20605125427E+03  0.20952835619E+03  0.00000000000E+00 0.  1.
         11    1    4    4    0    0 -0.23879782149E+02 -0.24032741188E+02  0.35279870658E+02  0.48913044458E+02  0.00000000000E+00 0. -1.
</event>
<event>
 8    1  0.6505836E-009  0.1624462E+03  0.7561462E-02  0.1185962E+00
         -1   -1    0    0    0  501 -0.00000000000E+00  0.00000000000E+00  0.60298169057E+02  0.60298169057E+02  0.00000000000E+00 0.  1.
          1   -1    0    0  501    0  0.00000000000E+00 -0.00000000000E+00 -0.48345589133E+03  0.48345589133E+03  0.00000000000E+00 0. -1.
         25    2    1    2    0    0  0.95994521973E+02  0.82305413176E+02 -0.28082712762E+03  0.33241617432E+03  0.12508999984E+03 0.  0.
         23    2    1    2    0    0 -0.95994521973E+02 -0.82305413176E+02 -0.14233059466E+03  0.21133788607E+03  0.91741891327E+02 0.  0.
          5    1    3    3  502    0 -0.48670001064E+00 -0.29644232445E+02 -0.51065194202E+02  0.59195809422E+02  0.41800000000E+01 0. -1.
         -5    1    3    3    0  502  0.96481221984E+02  0.11194964562E+03 -0.22976193341E+03  0.27322036490E+03  0.41800000000E+01 0. -1.
        -11    1    4    4    0    0 -0.11147374968E+02 -0.57691169855E+02 -0.23542876423E+02  0.63299305511E+02  0.00000000000E+00 0.  1.
         11    1    4    4    0    0 -0.84847147005E+02 -0.24614243321E+02 -0.11878771824E+03  0.14803858056E+03  0.00000000000E+00 0. -1.
</event>
<event>
 8    1  0.6505836E-009  0.1201481E+03  0.7561462E-02  0.1242853E+00
         -1   -1    0    0    0  501 -0.00000000000E+00  0.00000000000E+00  0.12399360771E+03  0.12399360771E+03  0.00000000000E+00 0.  1.
          1   -1    0    0  501    0  0.00000000000E+00 -0.00000000000E+00 -0.18578670794E+03  0.18578670794E+03  0.00000000000E+00 0. -1.
         25    2    1    2    0    0 -0.14281915556E+01  0.86501768488E+02 -0.94667488558E+02  0.17914804961E+03  0.12508994606E+03 0.  0.
         23    2    1    2    0    0  0.14281915556E+01 -0.86501768488E+02  0.32874388325E+02  0.13063226604E+03  0.92192558492E+02 0.  0.
          5    1    3    3  502    0 -0.46659243102E+02  0.69776456635E+02 -0.99797713338E+02  0.13047181632E+03  0.41800000000E+01 0.  1.
         -5    1    3    3    0  502  0.45231051547E+02  0.16725311852E+02  0.51302247800E+01  0.48676233285E+02  0.41800000000E+01 0.  1.
        -11    1    4    4    0    0 -0.25992212639E+02 -0.12327705906E+02 -0.20412885058E+02  0.35273975210E+02  0.00000000000E+00 0. -1.
         11    1    4    4    0    0  0.27420404194E+02 -0.74174062582E+02  0.53287273383E+02  0.95358290833E+02  0.00000000000E+00 0.  1.
</event>
<event>
 8    1  0.6505836E-009  0.1730367E+03  0.7561462E-02  0.1174718E+00
          2   -1    0    0  501    0  0.00000000000E+00  0.00000000000E+00  0.67620978890E+03  0.67620978890E+03  0.00000000000E+00 0. -1.
         -2   -1    0    0    0  501 -0.00000000000E+00 -0.00000000000E+00 -0.51172219581E+02  0.51172219581E+02  0.00000000000E+00 0.  1.
         25    2    1    2    0    0  0.56192034571E+02 -0.13630343191E+03  0.26737859746E+03  0.32996096369E+03  0.12508698126E+03 0.  0.
         23    2    1    2    0    0 -0.56192034571E+02  0.13630343191E+03  0.35765897186E+03  0.39742104479E+03  0.91035028367E+02 0.  0.
          5    1    3    3  502    0  0.23682285203E+02 -0.14307513101E+03  0.25664161819E+03  0.29481135720E+03  0.41800000000E+01 0.  1.
         -5    1    3    3    0  502  0.32509749368E+02  0.67716990943E+01  0.10736979262E+02  0.35149606488E+02  0.41800000000E+01 0.  1.
        -11    1    4    4    0    0 -0.53592751083E+02  0.30455314370E+02  0.18377660086E+03  0.19383897484E+03  0.00000000000E+00 0. -1.
         11    1    4    4    0    0 -0.25992834875E+01  0.10584811754E+03  0.17388237100E+03  0.20358206995E+03  0.00000000000E+00 0.  1.
</event>
<event>
 8    1  0.6505836E-009  0.1224214E+03  0.7561462E-02  0.1239155E+00
         -3   -1    0    0    0  501 -0.00000000000E+00  0.00000000000E+00  0.61625109055E+02  0.61625109055E+02  0.00000000000E+00 0.  1.
          3   -1    0    0  501    0  0.00000000000E+00 -0.00000000000E+00 -0.24658686902E+03  0.24658686902E+03  0.00000000000E+00 0. -1.
         25    2    1    2    0    0 -0.50476172016E+02 -0.21621473842E+02 -0.11044238252E+03  0.17567091067E+03  0.12508963558E+03 0.  0.
         23    2    1    2    0    0  0.50476172016E+02  0.21621473842E+02 -0.74519377451E+02  0.13254106740E+03  0.94861292740E+02 0.  0.
          5    1    3    3  502    0 -0.64332545381E+02  0.38271677571E+02 -0.59044476381E+02  0.95431233306E+02  0.41800000000E+01 0. -1.
         -5    1    3    3    0  502  0.13856373365E+02 -0.59893151413E+02 -0.51397906136E+02  0.80239677369E+02  0.41800000000E+01 0. -1.
        -11    1    4    4    0    0  0.75325179094E+02  0.16371542740E-01 -0.41913570588E+02  0.86201103665E+02  0.00000000000E+00 0.  1.
         11    1    4    4    0    0 -0.24849007078E+02  0.21605102300E+02 -0.32605806863E+02  0.46339963739E+02  0.00000000000E+00 0. -1.
</event>
<event>
 8    1  0.6505836E-009  0.1085513E+03  0.7561462E-02  0.1263276E+00
          1   -1    0    0  501    0  0.00000000000E+00  0.00000000000E+00  0.87658766940E+03  0.87658766940E+03  0.00000000000E+00 0. -1.
         -1   -1    0    0    0  501 -0.00000000000E+00 -0.00000000000E+00 -0.15146109733E+02  0.15146109733E+02  0.00000000000E+00 0.  1.
         25    2    1    2    0    0 -0.12158296277E+02  0.39201413701E+02  0.51368404951E+03  0.53028633481E+03  0.12509084361E+03 0.  0.
         23    2    1    2    0    0  0.12158296277E+02 -0.39201413701E+02  0.34775751016E+03  0.36144744433E+03  0.89578982666E+02 0.  0.
          5    1    3    3  502    0  0.32607212406E+02 -0.24225804943E+02  0.81425415295E+02  0.91091660331E+02  0.41800000000E+01 0. -1.
         -5    1    3    3    0  502 -0.44765508683E+02  0.63427218644E+02  0.43225863422E+03  0.43919467448E+03  0.41800000000E+01 0. -1.
        -11    1    4    4    0    0  0.25781602836E+01 -0.68062335303E+02  0.23763114402E+03  0.24719969459E+03  0.00000000000E+00 0.  1.
         11    1    4    4    0    0  0.95801359933E+01  0.28860921602E+02  0.11012636614E+03  0.11424774974E+03  0.00000000000E+00 0. -1.
</event>
<event>
 8    1  0.6505836E-009  0.1135800E+03  0.7561462E-02  0.1254080E+00
         -2   -1    0    0    0  501 -0.00000000000E+00  0.00000000000E+00  0.33377607736E+03  0.33377607736E+03  0.00000000000E+00 0. -1.
          2   -1    0    0  501    0  0.00000000000E+00 -0.00000000000E+00 -0.55914138161E+02  0.55914138161E+02  0.00000000000E+00 0.  1.
         25    2    1    2    0    0  0.39780346945E+02  0.12796437382E+02  0.25605855191E+03  0.28802646105E+03  0.12508811074E+03 0.  0.
         23    2    1    2    0    0 -0.39780346945E+02 -0.12796437382E+02  0.21803387291E+02  0.10166375447E+03  0.90077224995E+02 0.  0.
          5    1    3    3  502    0  0.82348907358E+02 -0.99839970950E+01  0.17185281065E+03  0.19087137992E+03  0.41800000000E+01 0.  1.
         -5    1    3    3    0  502 -0.42568560413E+02  0.22780434477E+02  0.84205741255E+02  0.97155081138E+02  0.41800000000E+01 0.  1.
        -11    1    4    4    0    0 -0.50777626787E+02 -0.41067855529E+02  0.27391566606E+02  0.70818317270E+02  0.00000000000E+00 0.  1.
         11    1    4    4    0    0  0.10997279842E+02  0.28271418147E+02 -0.55881793157E+01  0.30845437200E+02  0.00000000000E+00 0. -1.
</event>
<event>
 8    1  0.6505836E-009  0.1326765E+03  0.7561462E-02  0.1223537E+00
         -2   -1    0    0    0  501 -0.00000000000E+00  0.00000000000E+00  0.18965562797E+02  0.18965562797E+02  0.00000000000E+00 0.  1.
          2   -1    0    0  501    0  0.00000000000E+00 -0.00000000000E+00 -0.99695133250E+03  0.99695133250E+03  0.00000000000E+00 0. -1.
         25    2    1    2    0    0 -0.72582712996E+02 -0.43386877983E+02 -0.54664715648E+03  0.56711658956E+03  0.12508973203E+03 0.  0.
         23    2    1    2    0    0  0.72582712996E+02  0.43386877983E+02 -0.43133861322E+03  0.44880030573E+03  0.90653426661E+02 0.  0.
          5    1    3    3  502    0  0.31993832715E+02 -0.15334503435E+02 -0.73512622522E+02  0.81733288184E+02  0.41800000000E+01 0.  1.
         -5    1    3    3    0  502 -0.10457654571E+03 -0.28052374548E+02 -0.47313453396E+03  0.48538330138E+03  0.41800000000E+01 0.  1.
        -11    1    4    4    0    0  0.23873484710E+02  0.64056849580E+02 -0.19577583805E+03  0.20736779406E+03  0.00000000000E+00 0.  1.
         11    1    4    4    0    0  0.48709228285E+02 -0.20669971597E+02 -0.23556277517E+03  0.24143251167E+03  0.00000000000E+00 0. -1.
</event>
<event>
 8    1  0.6505836E-009  0.1248081E+03  0.7561462E-02  0.1235370E+00
          2   -1    0    0  501    0  0.00000000000E+00  0.00000000000E+00  0.40324589819E+02  0.40324589819E+02  0.00000000000E+00 0. -1.
         -2   -1    0    0    0  501 -0.00000000000E+00 -0.00000000000E+00 -0.63716882528E+03  0.63716882528E+03  0.00000000000E+00 0.  1.
         25    2    1    2    0    0 -0.10296452691E+03  0.43275481458E+02 -0.39209155678E+03  0.42645016286E+03  0.12509792729E+03 0.  0.
         23    2    1    2    0    0  0.10296452691E+03 -0.43275481458E+02 -0.20475267868E+03  0.25104325223E+03  0.92868692080E+02 0.  0.
          5    1    3    3  502    0 -0.46368986676E+02  0.51653512088E+02 -0.34584071341E+03  0.35276258261E+03  0.41800000000E+01 0.  1.
         -5    1    3    3    0  502 -0.56595540230E+02 -0.83780306301E+01 -0.46250843363E+02  0.73687580249E+02  0.41800000000E+01 0.  1.
        -11    1    4    4    0    0  0.10511188315E+03 -0.30062724557E+02 -0.20992941910E+03  0.23669101460E+03  0.00000000000E+00 0.  1.
         11    1    4    4    0    0 -0.21473562442E+01 -0.13212756901E+02  0.51767404203E+01  0.14352237636E+02  0.00000000000E+00 0. -1.
</event>
<event>
 8    1  0.6505836E-009  0.1445118E+03  0.7561462E-02  0.1207384E+00
          1   -1    0    0  501    0  0.00000000000E+00  0.00000000000E+00  0.57545351540E+03  0.57545351540E+03  0.00000000000E+00 0. -1.
         -1   -1    0    0    0  501 -0.00000000000E+00 -0.00000000000E+00 -0.55122605583E+02  0.55122605583E+02  0.00000000000E+00 0.  1.
         25    2    1    2    0    0  0.12689920921E+03 -0.20509791487E+02  0.38207028524E+03  0.42207637824E+03  0.12508679130E+03 0.  0.
         23    2    1    2    0    0 -0.12689920921E+03  0.20509791487E+02  0.13826062458E+03  0.20849974275E+03  0.88499048427E+02 0.  0.
          5    1    3    3  502    0  0.59657406253E+02  0.18380747147E+02  0.30926686828E+03  0.31553181488E+03  0.41800000000E+01 0. -1.
         -5    1    3    3    0  502  0.67241802955E+02 -0.38890538634E+02  0.72803416960E+02  0.10654456336E+03  0.41800000000E+01 0. -1.
        -11    1    4    4    0    0 -0.33313773468E+02 -0.27763525877E+02  0.13886716471E+02  0.45535280455E+02  0.00000000000E+00 0.  1.
         11    1    4    4    0    0 -0.93585435740E+02  0.48273317365E+02  0.12437390811E+03  0.16296446229E+03  0.00000000000E+00 0. -1.
</event>
<event>
 8    1  0.6505836E-009  0.1284054E+03  0.7561462E-02  0.1229841E+00
         -2   -1    0    0    0  501 -0.00000000000E+00  0.00000000000E+00  0.59037335767E+03  0.59037335767E+03  0.00000000000E+00 0. -1.
          2   -1    0    0  501    0  0.00000000000E+00 -0.00000000000E+00 -0.42250733081E+02  0.42250733081E+02  0.00000000000E+00 0.  1.
         25    2    1    2    0    0 -0.90761416583E+02  0.47431118348E+02  0.17927841649E+03  0.24140363869E+03  0.12509044898E+03 0.  0.
         23    2    1    2    0    0  0.90761416583E+02 -0.47431118348E+02  0.36884420809E+03  0.39122045206E+03  0.80746805102E+02 0.  0.
          5    1    3    3  502    0  0.12374343807E+02  0.48937388790E+02  0.96872140163E+02  0.10931457518E+03  0.41800000000E+01 0.  1.
         -5    1    3    3    0  502 -0.10313576039E+03 -0.15062704422E+01  0.82406276328E+02  0.13208906351E+03  0.41800000000E+01 0.  1.
        -11    1    4    4    0    0  0.13090477482E+02 -0.29349267688E+01  0.19403025017E+01  0.13555042222E+02  0.00000000000E+00 0.  1.
         11    1    4    4    0    0  0.77670939101E+02 -0.44496191579E+02  0.36690390559E+03  0.37766540983E+03  0.00000000000E+00 0. -1.
</event>
<event>
 8    1  0.6505836E-009  0.1781458E+03  0.7561462E-02  0.1169610E+00
          1   -1    0    0  501    0  0.00000000000E+00  0.00000000000E+00  0.17593552557E+04  0.17593552557E+04  0.00000000000E+00 0. -1.
         -1   -1    0    0    0  501 -0.00000000000E+00 -0.00000000000E+00 -0.21530522493E+02  0.21530522493E+02  0.00000000000E+00 0.  1.
         25    2    1    2    0    0 -0.13806868384E+03 -0.82337296002E+02  0.95701678167E+03  0.97845326611E+03  0.12508909537E+03 0.  0.
         23    2    1    2    0    0  0.13806868384E+03  0.82337296002E+02  0.78080795149E+03  0.80243251204E+03  0.91621435824E+02 0.  0.
          5    1    3    3  502    0 -0.56991383884E+02 -0.71339349088E+02  0.24077293573E+03  0.25753912236E+03  0.41800000000E+01 0. -1.
         -5    1    3    3    0  502 -0.81077299955E+02 -0.10997946914E+02  0.71624384595E+03  0.72091414375E+03  0.41800000000E+01 0. -1.
        -11    1    4    4    0    0  0.12093159573E+03  0.25493373861E+02  0.58053170098E+03  0.59354142130E+03  0.00000000000E+00 0.  1.
         11    1    4    4    0    0  0.17137088113E+02  0.56843922141E+02  0.20027625051E+03  0.20889109075E+03  0.00000000000E+00 0. -1.
</event>
<event>
 7    1  0.6505836E-009  0.5221897E+02  0.7561462E-02  0.1433728E+00
          2   -1    0    0  501    0  0.00000000000E+00  0.00000000000E+00  0.12078368530E+03  0.12078368530E+03  0.00000000000E+00 0.  1.
         -2   -1    0    0    0  501 -0.00000000000E+00 -0.00000000000E+00 -0.10994065320E+03  0.10994065320E+03  0.00000000000E+00 0. -1.
         23    2    1    2    0    0 -0.10467012860E+02  0.29319372718E+02  0.28541211426E+02  0.10034402736E+03  0.91022739478E+02 0.  0.
          5    1    1    2  502    0  0.15853180342E+02 -0.25929868731E+02 -0.70576936567E+02  0.76956206992E+02  0.41800000000E+01 0. -1.
         -5    1    1    2    0  502 -0.53861674823E+01 -0.33895039868E+01  0.52878757243E+02  0.53424104157E+02  0.41800000000E+01 0. -1.
        -11    1    3    3    0    0 -0.34801983233E+02  0.19599674487E+02  0.51728292504E+02  0.65353970976E+02  0.00000000000E+00 0.  1.
         11    1    3    3    0    0  0.24334970373E+02  0.97196982312E+01 -0.23187081077E+02  0.34990056383E+02  0.00000000000E+00 0. -1.
</event>
<event>
 8    1  0.6505836E-009  0.6926822E+02  0.7561462E-02  0.1362599E+00
         -1   -1    0    0    0  501 -0.00000000000E+00  0.00000000000E+00  0.59156169256E+02  0.59156169256E+02  0.00000000000E+00 0.  1.
          1   -1    0    0  501    0  0.00000000000E+00 -0.00000000000E+00 -0.26803234335E+03  0.26803234335E+03  0.00000000000E+00 0. -1.
         25    2    1    2    0    0  0.13642185181E+01  0.11298340914E+02 -0.19701501840E+03  0.23364715044E+03  0.12508620961E+03 0.  0.
         23    2    1    2    0    0 -0.13642185181E+01 -0.11298340914E+02 -0.11861155698E+02  0.93541362170E+02  0.92085752550E+02 0.  0.
          5    1    3    3  502    0 -0.20855388595E+02 -0.92907639434E+00  0.11059114035E+02  0.23991390532E+02  0.41800000000E+01 0.  1.
         -5    1    3    3    0  502  0.22219607113E+02  0.12227417308E+02 -0.20807413243E+03  0.20965575991E+03  0.41800000000E+01 0.  1.
        -11    1    4    4    0    0  0.28878225864E+02  0.29153474346E+02  0.22606541564E+01  0.41097293740E+02  0.00000000000E+00 0. -1.
         11    1    4    4    0    0 -0.30242444382E+02 -0.40451815259E+02 -0.14121809854E+02  0.52444068431E+02  0.00000000000E+00 0.  1.
</event>
<event>
 8    1  0.6505836E-009  0.1269973E+03  0.7561462E-02  0.1231980E+00
         -1   -1    0    0    0  501 -0.00000000000E+00  0.00000000000E+00  0.52821238992E+02  0.52821238992E+02  0.00000000000E+00 0.  1.
          1   -1    0    0  501    0  0.00000000000E+00 -0.00000000000E+00 -0.31801243589E+03  0.31801243589E+03  0.00000000000E+00 0. -1.
         25    2    1    2    0    0  0.63365988876E+02  0.22073579515E+02 -0.11227157464E+03  0.18098292696E+03  0.12508965553E+03 0.  0.
         23    2    1    2    0    0 -0.63365988876E+02 -0.22073579515E+02 -0.15291962225E+03  0.18985074792E+03  0.90312812803E+02 0.  0.
          5    1    3    3  502    0  0.64187547452E+02  0.69023600217E+02 -0.81595975874E+02  0.12473842357E+03  0.41800000000E+01 0. -1.
         -5    1    3    3    0  502 -0.82155857581E+00 -0.46950020702E+02 -0.30675598770E+02  0.56244503396E+02  0.41800000000E+01 0. -1.
        -11    1    4    4    0    0 -0.70341136605E+02  0.17364246998E+02 -0.97318015461E+02  0.12132678478E+03  0.00000000000E+00 0. -1.
         11    1    4    4    0    0  0.69751477281E+01 -0.39437826513E+02 -0.55601606793E+02  0.68523963136E+02  0.00000000000E+00 0.  1.
</event>
<event>
 8    1  0.6505836E-009  0.9686092E+02  0.7561462E-02  0.1287039E+00
         -1   -1    0    0    0  501 -0.00000000000E+00  0.00000000000E+00  0.57179428352E+02  0.57179428352E+02  0.00000000000E+00 0.  1.
          1   -1    0    0  501    0  0.00000000000E+00 -0.00000000000E+00 -0.33977553834E+03  0.33977553834E+03  0.00000000000E+00 0. -1.
         25    2    1    2    0    0  0.53662010338E+02 -0.33896517016E+02 -0.70007801964E+02  0.15677110814E+03  0.12508997878E+03 0.  0.
         23    2    1    2    0    0 -0.53662010338E+02  0.33896517016E+02 -0.21258830803E+03  0.24018385856E+03  0.92010390622E+02 0.  0.
          5    1    3    3  502    0  0.44360511137E+02 -0.57602080918E+02 -0.95765967175E+02  0.12030979820E+03  0.41800000000E+01 0.  1.
         -5    1    3    3    0  502  0.93014992006E+01  0.23705563902E+02  0.25758165210E+02  0.36461309936E+02  0.41800000000E+01 0.  1.
        -11    1    4    4    0    0 -0.58059380024E+02 -0.28058597507E+01 -0.61432090988E+02  0.84573437088E+02  0.00000000000E+00 0.  1.
         11    1    4    4    0    0  0.43973696861E+01  0.36702376767E+02 -0.15115621704E+03  0.15561042147E+03  0.00000000000E+00 0. -1.
</event>
<event>
 8    1  0.6505836E-009  0.1656348E+03  0.7561462E-02  0.1182478E+00
         -2   -1    0    0    0  501 -0.00000000000E+00  0.00000000000E+00  0.12270273316E+03  0.12270273316E+03  0.00000000000E+00 0. -1.
          2   -1    0    0  501    0  0.00000000000E+00 -0.00000000000E+00 -0.26833745701E+03  0.26833745701E+03  0.00000000000E+00 0.  1.
         25    2    1    2    0    0 -0.75867973065E+02  0.10126162772E+03 -0.85000858506E+00  0.17792527069E+03  0.12508722097E+03 0.  0.
         23    2    1    2    0    0  0.75867973065E+02 -0.10126162772E+03 -0.14478471527E+03  0.21311491948E+03  0.91899339200E+02 0.  0.
          5    1    3    3  502    0 -0.89446266295E+02  0.12176007458E+03  0.82761553639E+01  0.15136749143E+03  0.41800000000E+01 0. -1.
         -5    1    3    3    0  502  0.13578293230E+02 -0.20498446855E+02 -0.91261639490E+01  0.26557779254E+02  0.41800000000E+01 0. -1.
        -11    1    4    4    0    0  0.24953065509E+01 -0.78252335397E+02 -0.86176229325E+02  0.11643022396E+03  0.00000000000E+00 0.  1.
         11    1    4    4    0    0  0.73372666515E+02 -0.23009292327E+02 -0.58608485942E+02  0.96684695527E+02  0.00000000000E+00 0. -1.
</event>
<event>
 8    1  0.6505836E-009  0.1249805E+03  0.7561462E-02  0.1235100E+00
         -1   -1    0    0    0  501 -0.00000000000E+00  0.00000000000E+00  0.34278387630E+03  0.34278387630E+03  0.00000000000E+00 0.  1.
          1   -1    0    0  501    0  0.00000000000E+00 -0.00000000000E+00 -0.45758881505E+02  0.45758881505E+02  0.00000000000E+00 0. -1.
         25    2    1    2    0    0  0.56700238783E+02 -0.26617082050E+02  0.16077829977E+03  0.21312726562E+03  0.12510069360E+03 0.  0.
         23    2    1    2    0    0 -0.56700238783E+02  0.26617082050E+02  0.13624669502E+03  0.17541549219E+03  0.91016739442E+02 0.  0.
          5    1    3    3  502    0  0.78263571447E+02  0.26067227947E+02  0.89027157104E+02  0.12144131953E+03  0.41800000000E+01 0. -1.
         -5    1    3    3    0  502 -0.21563332664E+02 -0.52684309997E+02  0.71751142663E+02  0.91685946082E+02  0.41800000000E+01 0. -1.
        -11    1    4    4    0    0  0.23248141167E+02  0.18906939038E+02  0.32412984784E+02  0.44142383194E+02  0.00000000000E+00 0.  1.
         11    1    4    4    0    0 -0.79948379949E+02  0.77101430125E+01  0.10383371024E+03  0.13127310899E+03  0.00000000000E+00 0. -1.
</event>
<event>
 8    1  0.6505836E-009  0.1224034E+03  0.7561462E-02  0.1239184E+00
         -2   -1    0    0    0  501 -0.00000000000E+00  0.00000000000E+00  0.80217674622E+02  0.80217674622E+02  0.00000000000E+00 0.  1.
          2   -1    0    0  501    0  0.00000000000E+00 -0.00000000000E+00 -0.25795143745E+03  0.25795143745E+03  0.00000000000E+00 0. -1.
         25    2    1    2    0    0  0.61392408243E+02 -0.31060883718E+02 -0.16865558649E+03  0.22096627133E+03  0.12509028709E+03 0.  0.
         23    2    1    2    0    0 -0.61392408243E+02  0.31060883718E+02 -0.90781763379E+01  0.11720284074E+03  0.94447267323E+02 0.  0.
          5    1    3    3  502    0  0.19483671691E+02 -0.73989650810E+02 -0.62180265026E+02  0.98680999428E+02  0.41800000000E+01 0. -1.
         -5    1    3    3    0  502  0.41908736552E+02  0.42928767091E+02 -0.10647532146E+03  0.12228527190E+03  0.41800000000E+01 0. -1.
        -11    1    4    4    0    0  0.12480132195E+02  0.31804571573E+02  0.17880261176E+02  0.38561486127E+02  0.00000000000E+00 0.  1.
         11    1    4    4    0    0 -0.73872540438E+02 -0.74368785499E+00 -0.26958437514E+02  0.78641354614E+02  0.00000000000E+00 0. -1.
</event>
<event>
 8    1  0.6505836E-009  0.1092720E+03  0.7561462E-02  0.1261924E+00
          1   -1    0    0  501    0  0.00000000000E+00  0.00000000000E+00  0.12725864339E+03  0.12725864339E+03  0.00000000000E+00 0. -1.
         -1   -1    0    0    0  501 -0.00000000000E+00 -0.00000000000E+00 -0.10779435256E+03  0.10779435256E+03  0.00000000000E+00 0.  1.
         25    2    1    2    0    0  0.27979418416E+01  0.40778452180E+02  0.29164863977E+02  0.13480479103E+03  0.12510408368E+03 0.  0.
         23    2    1    2    0    0 -0.27979418416E+01 -0.40778452180E+02 -0.97005731504E+01  0.10024820491E+03  0.91021375668E+02 0.  0.
          5    1    3    3  502    0 -0.32780968846E+02  0.67711746027E+02 -0.90741750584E+01  0.75889956657E+02  0.41800000000E+01 0. -1.
         -5    1    3    3    0  502  0.35578910687E+02 -0.26933293846E+02  0.38239039035E+02  0.58914834375E+02  0.41800000000E+01 0. -1.
        -11    1    4    4    0    0 -0.46018373491E+02 -0.24987640343E+02  0.31903297239E+01  0.52461901151E+02  0.00000000000E+00 0.  1.
         11    1    4    4    0    0  0.43220431649E+02 -0.15790811838E+02 -0.12890902874E+02  0.47786303763E+02  0.00000000000E+00 0. -1.
</event>
<event>
 8    1  0.6505836E-009  0.1303554E+03  0.7561462E-02  0.1226929E+00
         -1   -1    0    0    0  501 -0.00000000000E+00  0.00000000000E+00  0.50969772606E+03  0.50969772606E+03  0.00000000000E+00 0.  1.
          1   -1    0    0  501    0  0.00000000000E+00 -0.00000000000E+00 -0.41617114716E+02  0.41617114716E+02  0.00000000000E+00 0. -1.
         25    2    1    2    0    0 -0.25953254876E+02 -0.91640522383E+02  0.22113393794E+03  0.27132959966E+03  0.12509187169E+03 0.  0.
         23    2    1    2    0    0  0.25953254876E+02  0.91640522383E+02  0.24694667341E+03  0.27998524112E+03  0.91310015627E+02 0.  0.
          5    1    3    3  502    0  0.63165392540E+01 -0.10221982419E+03  0.91976745101E+02  0.13771704748E+03  0.41800000000E+01 0. -1.
         -5    1    3    3    0  502 -0.32269794130E+02  0.10579301812E+02  0.12915719283E+03  0.13361255218E+03  0.41800000000E+01 0. -1.
        -11    1    4    4    0    0 -0.13986312893E+02  0.81630287619E+02  0.20550653434E+03  0.22156727299E+03  0.00000000000E+00 0.  1.
         11    1    4    4    0    0  0.39939567769E+02  0.10010234764E+02  0.41440139071E+02  0.58417968125E+02  0.00000000000E+00 0. -1.
</event>
<event>
 8    1  0.6505836E-009  0.1519038E+03  0.7561462E-02  0.1198153E+00
         -2   -1    0    0    0  501 -0.00000000000E+00  0.00000000000E+00  0.77356979926E+02  0.77356979926E+02  0.00000000000E+00 0.  1.
          2   -1    0    0  501    0  0.00000000000E+00 -0.00000000000E+00 -0.30856470342E+03  0.30856470342E+03  0.00000000000E+00 0. -1.
         25    2    1    2    0    0 -0.10712451704E+03 -0.55592529461E+01 -0.11326367549E+03  0.19995559068E+03  0.12508801147E+03 0.  0.
         23    2    1    2    0    0  0.10712451704E+03  0.55592529461E+01 -0.11794404800E+03  0.18596609266E+03  0.95739342585E+02 0.  0.
          5    1    3    3  502    0 -0.12736032449E+03 -0.27514767781E+02 -0.72235448891E+02  0.14904075676E+03  0.41800000000E+01 0.  1.
         -5    1    3    3    0  502  0.20235807452E+02  0.21955514835E+02 -0.41028226600E+02  0.50914833917E+02  0.41800000000E+01 0.  1.
        -11    1    4    4    0    0  0.54317702503E+02 -0.44734576800E+02 -0.50279270714E+02  0.86484682055E+02  0.00000000000E+00 0. -1.
         11    1    4    4    0    0  0.52806814533E+02  0.50293829746E+02 -0.67664777285E+02  0.99481410608E+02  0.00000000000E+00 0.  1.
</event>
<event>
 8    1  0.6505836E-009  0.1459652E+03  0.7561462E-02  0.1205520E+00
          3   -1    0    0  501    0  0.00000000000E+00  0.00000000000E+00  0.22552854659E+03  0.22552854659E+03  0.00000000000E+00 0. -1.
         -3   -1    0    0    0  501 -0.00000000000E+00 -0.00000000000E+00 -0.10443403892E+03  0.10443403892E+03  0.00000000000E+00 0.  1.
         25    2    1    2    0    0 -0.10829453819E+03  0.84805849067E+01  0.64747416419E+02  0.17787380253E+03  0.12508890587E+03 0.  0.
         23    2    1    2    0    0  0.10829453819E+03 -0.84805849067E+01  0.56347091249E+02  0.15208878298E+03  0.90312656332E+02 0.  0.
          5    1    3    3  502    0 -0.88306924006E+02  0.52232349465E+02  0.74601316562E+01  0.10295366493E+03  0.41800000000E+01 0.  1.
         -5    1    3    3    0  502 -0.19987614179E+02 -0.43751764558E+02  0.57287284762E+02  0.74920137600E+02  0.41800000000E+01 0.  1.
        -11    1    4    4    0    0  0.24342804964E+02 -0.43622434838E+02  0.15257867300E+02  0.52233049780E+02  0.00000000000E+00 0.  1.
         11    1    4    4    0    0  0.83951733221E+02  0.35141849932E+02  0.41089223948E+02  0.99855733196E+02  0.00000000000E+00 0. -1.
</event>
<event>
 8    1  0.6505836E-009  0.5703296E+03  0.7561462E-02  0.9968950E-01
         -3   -1    0    0    0  501 -0.00000000000E+00  0.00000000000E+00  0.71954222546E+03  0.71954222546E+03  0.00000000000E+00 0.  1.
          3   -1    0    0  501    0  0.00000000000E+00 -0.00000000000E+00 -0.93085737577E+03  0.93085737577E+03  0.00000000000E+00 0. -1.
         25    2    1    2    0    0 -0.21803025891E+03  0.52145131280E+03  0.48051005360E+03  0.75232053585E+03  0.12509041379E+03 0.  0.
         23    2    1    2    0    0  0.21803025891E+03 -0.52145131280E+03 -0.69182520392E+03  0.89807906539E+03  0.92061009627E+02 0.  0.
          5    1    3    3  502    0 -0.21191274615E+02  0.16768696889E+03  0.98435573580E+02  0.19564003731E+03  0.41800000000E+01 0.  1.
         -5    1    3    3    0  502 -0.19683898429E+03  0.35376434392E+03  0.38207448002E+03  0.55668049853E+03  0.41800000000E+01 0.  1.
        -11    1    4    4    0    0  0.39262470328E+02 -0.58461868312E+02 -0.13436856903E+03  0.15170446258E+03  0.00000000000E+00 0. -1.
         11    1    4    4    0    0  0.17876778858E+03 -0.46298944449E+03 -0.55745663489E+03  0.74637460281E+03  0.00000000000E+00 0.  1.
</event>
<event>
 8    1  0.6505836E-009  0.8990569E+02  0.7561462E-02  0.1303080E+00
          3   -1    0    0  501    0  0.00000000000E+00  0.00000000000E+00  0.95096340675E+03  0.95096340675E+03  0.00000000000E+00 0. -1.
         -3   -1    0    0    0  501 -0.00000000000E+00 -0.00000000000E+00 -0.13483259157E+02  0.13483259157E+02  0.00000000000E+00 0.  1.
         25    2    1    2    0    0 -0.13479883664E+02 -0.37588872938E+01  0.47639814684E+03  0.49274668727E+03  0.12509303341E+03 0.  0.
         23    2    1    2    0    0  0.13479883664E+02  0.37588872938E+01  0.46108200076E+03  0.47169997864E+03  0.98531324608E+02 0.  0.
          5    1    3    3  502    0  0.10243598288E+02 -0.38028691636E+02  0.42313702855E+03  0.42498650570E+03  0.41800000000E+01 0. -1.
         -5    1    3    3    0  502 -0.23723481952E+02  0.34269804342E+02  0.53261118284E+02  0.67760181570E+02  0.41800000000E+01 0. -1.
        -11    1    4    4    0    0 -0.29036219108E+02 -0.31675791513E+02  0.16593833360E+03  0.17141175090E+03  0.00000000000E+00 0.  1.
         11    1    4    4    0    0  0.42516102772E+02  0.35434678806E+02  0.29514366716E+03  0.30028822774E+03  0.00000000000E+00 0. -1.
</event>
<event>
 8    1  0.6505836E-009  0.8787749E+02  0.7561462E-02  0.1308075E+00
          1   -1    0    0  501    0  0.00000000000E+00  0.00000000000E+00  0.72751146839E+02  0.72751146839E+02  0.00000000000E+00 0. -1.
         -1   -1    0    0    0  501 -0.00000000000E+00 -0.00000000000E+00 -0.12812322809E+03  0.12812322809E+03  0.00000000000E+00 0.  1.
         25    2    1    2    0    0  0.93346283589E+01  0.26470134976E+02 -0.40636747668E+02  0.13448612087E+03  0.12508944046E+03 0.  0.
         23    2    1    2    0    0 -0.93346283589E+01 -0.26470134976E+02 -0.14735333583E+02  0.66388254058E+02  0.58330668510E+02 0.  0.
          5    1    3    3  502    0  0.65310052739E+02  0.28525143537E+02 -0.16052119079E+02  0.73172602315E+02  0.41800000000E+01 0.  1.
         -5    1    3    3    0  502 -0.55975424380E+02 -0.20550085617E+01 -0.24584628588E+02  0.61313518555E+02  0.41800000000E+01 0.  1.
        -11    1    4    4    0    0  0.11732074964E+02 -0.24342314549E+02 -0.29932220121E+02  0.40325273240E+02  0.00000000000E+00 0.  1.
         11    1    4    4    0    0 -0.21066703323E+02 -0.21278204269E+01  0.15196886538E+02  0.26062980818E+02  0.00000000000E+00 0. -1.
</event>
<event>
 8    1  0.6505836E-009  0.9653097E+02  0.7561462E-02  0.1287765E+00
          2   -1    0    0  501    0  0.00000000000E+00  0.00000000000E+00  0.49897231092E+03  0.49897231092E+03  0.00000000000E+00 0.  1.
         -2   -1    0    0    0  501 -0.00000000000E+00 -0.00000000000E+00 -0.32047072449E+02  0.32047072449E+02  0.00000000000E+00 0. -1.
         25    2    1    2    0    0 -0.38607377547E+02 -0.22520630583E+02  0.15767267226E+03  0.20617169214E+03  0.12509351167E+03 0.  0.
         23    2    1    2    0    0  0.38607377547E+02  0.22520630583E+02  0.30925256621E+03  0.32484769122E+03  0.88832226038E+02 0.  0.
          5    1    3    3  502    0 -0.30619594703E+02  0.31209178307E+02  0.14322446630E+03  0.14980751830E+03  0.41800000000E+01 0. -1.
         -5    1    3    3    0  502 -0.79877828437E+01 -0.53729808889E+02  0.14448205955E+02  0.56364173846E+02  0.41800000000E+01 0. -1.
        -11    1    4    4    0    0  0.47546207012E+02 -0.19727770547E+02  0.21649285154E+03  0.22252860827E+03  0.00000000000E+00 0. -1.
         11    1    4    4    0    0 -0.89388294650E+01  0.42248401130E+02  0.92759714672E+02  0.10231908295E+03  0.00000000000E+00 0.  1.
</event>
<event>
 8    1  0.6505836E-009  0.1362874E+03  0.7561462E-02  0.1218414E+00
         -1   -1    0    0    0  501 -0.00000000000E+00  0.00000000000E+00  0.30073428886E+03  0.30073428886E+03  0.00000000000E+00 0.  1.
          1   -1    0    0  501    0  0.00000000000E+00 -0.00000000000E+00 -0.87972803172E+02  0.87972803172E+02  0.00000000000E+00 0. -1.
         25    2    1    2    0    0 -0.75142553128E+02  0.77277141979E+02  0.47830209935E+02  0.17191064268E+03  0.12508948845E+03 0.  0.
         23    2    1    2    0    0  0.75142553128E+02 -0.77277141979E+02  0.16493127575E+03  0.21679644936E+03  0.90444539742E+02 0.  0.
          5    1    3    3  502    0 -0.58374596580E+02 -0.23093777853E+02  0.23796727898E+02  0.67265687836E+02  0.41800000000E+01 0. -1.
         -5    1    3    3    0  502 -0.16767956548E+02  0.10037091983E+03  0.24033482037E+02  0.10464495484E+03  0.41800000000E+01 0. -1.
        -11    1    4    4    0    0  0.17900389769E+02 -0.19813464690E+02 -0.62039285930E+01  0.27413246194E+02  0.00000000000E+00 0. -1.
         11    1    4    4    0    0  0.57242163359E+02 -0.57463677288E+02  0.17113520435E+03  0.18938320316E+03  0.00000000000E+00 0.  1.
</event>
<event>
 8    1  0.6505836E-009  0.1394111E+03  0.7561462E-02  0.1214124E+00
         -1   -1    0    0    0  501 -0.00000000000E+00  0.00000000000E+00  0.14669432924E+03  0.14669432924E+03  0.00000000000E+00 0.  1.
          1   -1    0    0  501    0  0.00000000000E+00 -0.00000000000E+00 -0.18415432281E+03  0.18415432281E+03  0.00000000000E+00 0. -1.
         25    2    1    2    0    0  0.43629576977E+02  0.10968697023E+03  0.14742460270E+02  0.17262518808E+03  0.12508934407E+03 0.  0.
         23    2    1    2    0    0 -0.43629576977E+02 -0.10968697023E+03 -0.52202453842E+02  0.15822346398E+03  0.91513916652E+02 0.  0.
          5    1    3    3  502    0  0.45082848313E+02 -0.53271053766E+01  0.32740776933E+02  0.56127285147E+02  0.41800000000E+01 0. -1.
         -5    1    3    3    0  502 -0.14532713366E+01  0.11501407561E+03 -0.17998316663E+02  0.11649790293E+03  0.41800000000E+01 0. -1.
        -11    1    4    4    0    0 -0.14119357381E+02 -0.29930061796E+02  0.26466649698E+02  0.42375091719E+02  0.00000000000E+00 0.  1.
         11    1    4    4    0    0 -0.29510219596E+02 -0.79756908433E+02 -0.78669103540E+02  0.11584837226E+03  0.00000000000E+00 0. -1.
</event>
<event>
 8    1  0.6505836E-009  0.9067965E+02  0.7561462E-02  0.1301214E+00
          1   -1    0    0  501    0  0.00000000000E+00  0.00000000000E+00  0.54957503941E+03  0.54957503941E+03  0.00000000000E+00 0. -1.
         -1   -1    0    0    0  501 -0.00000000000E+00 -0.00000000000E+00 -0.37988782894E+02  0.37988782894E+02  0.00000000000E+00 0.  1.
         25    2    1    2    0    0  0.33456633479E+02 -0.10978408175E+02  0.10024268330E+03  0.16412308177E+03  0.12509164098E+03 0.  0.
         23    2    1    2    0    0 -0.33456633479E+02  0.10978408175E+02  0.41134357321E+03  0.42344074054E+03  0.94120421553E+02 0.  0.
          5    1    3    3  502    0  0.12375785918E+01  0.29938305846E+02  0.10722541653E+03  0.11141183110E+03  0.41800000000E+01 0.  1.
         -5    1    3    3    0  502  0.32219054887E+02 -0.40916714021E+02 -0.69827332282E+01  0.52711250672E+02  0.41800000000E+01 0.  1.
        -11    1    4    4    0    0  0.25946531089E+02 -0.19153511581E+02  0.10077448807E+03  0.10580915333E+03  0.00000000000E+00 0.  1.
         11    1    4    4    0    0 -0.59403164568E+02  0.30131919756E+02  0.31056908514E+03  0.31763158721E+03  0.00000000000E+00 0. -1.
</event>
<event>
 8    1  0.6505836E-009  0.1132460E+03  0.7561462E-02  0.1254674E+00
         -2   -1    0    0    0  501 -0.00000000000E+00  0.00000000000E+00  0.17560441150E+03  0.17560441150E+03  0.00000000000E+00 0.  1.
          2   -1    0    0  501    0  0.00000000000E+00 -0.00000000000E+00 -0.90858549360E+02  0.90858549360E+02  0.00000000000E+00 0. -1.
         25    2    1    2    0    0 -0.12426645093E+02  0.68355273242E+02  0.88656515468E+02  0.16832709303E+03  0.12508863907E+03 0.  0.
         23    2    1    2    0    0  0.12426645093E+02 -0.68355273242E+02 -0.39106533240E+01  0.98135867837E+02  0.69198919488E+02 0.  0.
          5    1    3    3  502    0 -0.51956509762E+02  0.13448903073E+01  0.25515182992E+01  0.52204121314E+02  0.41800000000E+01 0.  1.
         -5    1    3    3    0  502  0.39529864669E+02  0.67010382935E+02  0.86104997168E+02  0.11612297171E+03  0.41800000000E+01 0. -1.
        -11    1    4    4    0    0 -0.27740576568E+02 -0.25141643803E+02 -0.10199909702E+02  0.38803092652E+02  0.00000000000E+00 0.  1.
         11    1    4    4    0    0  0.40167221661E+02 -0.43213629439E+02  0.62892563781E+01  0.59332775184E+02  0.00000000000E+00 0. -1.
</event>
