<event>
 7    1  0.2794945E-009  0.1433321E+03  0.7561462E-02  0.1208914E+00
         -2   -1    0    0    0  501 -0.00000000000E+00  0.00000000000E+00  0.76251012076E+02  0.76251012076E+02  0.00000000000E+00 0. -1.
          2   -1    0    0  501    0  0.00000000000E+00 -0.00000000000E+00 -0.47765665106E+03  0.47765665106E+03  0.00000000000E+00 0.  1.
         25    2    1    2    0    0  0.84144570794E+02 -0.59482085565E+02 -0.39546909768E+02  0.16681809275E+03  0.12508353489E+03 0.  0.
          5    1    3    3  502    0  0.70229154376E+02  0.21787950857E+02  0.34562149810E+01  0.73731043319E+02  0.41800000000E+01 0. -1.
         -5    1    3    3    0  502  0.13915416417E+02 -0.81270036423E+02 -0.43003124749E+02  0.93087049434E+02  0.41800000000E+01 0. -1.
        -11    1    1    2    0    0 -0.17581531555E+02 -0.20101134378E+02 -0.13522499705E+03  0.13783673560E+03  0.00000000000E+00 0.  1.
         11    1    1    2    0    0 -0.66563039238E+02  0.79583219943E+02 -0.22663373217E+03  0.24925283478E+03  0.00000000000E+00 0. -1.
</event>
<event>
 7    1  0.2794945E-009  0.1533485E+03  0.7561462E-02  0.1196418E+00
         -2   -1    0    0    0  501 -0.00000000000E+00  0.00000000000E+00  0.94202351605E+02  0.94202351605E+02  0.00000000000E+00 0.  1.
          2   -1    0    0  501    0  0.00000000000E+00 -0.00000000000E+00 -0.57015812445E+03  0.57015812445E+03  0.00000000000E+00 0. -1.
         25    2    1    2    0    0 -0.26326448591E+02 -0.13322880221E+03 -0.46264247645E+03  0.49812485949E+03  0.12508924408E+03 0.  0.
          5    1    3    3  502    0 -0.49645777613E+02 -0.64614950781E+02 -0.37760351857E+03  0.38631811339E+03  0.41800000000E+01 0.  1.
         -5    1    3    3    0  502  0.23319329022E+02 -0.68613851430E+02 -0.85038957885E+02  0.11180674609E+03  0.41800000000E+01 0. -1.
        -11    1    1    2    0    0  0.49413639424E+02  0.74349390706E+02 -0.39707659177E+02  0.97704850733E+02  0.00000000000E+00 0. -1.
         11    1    1    2    0    0 -0.23087190833E+02  0.58879411506E+02  0.26394362782E+02  0.68530765839E+02  0.00000000000E+00 0.  1.
</event>
<event>
 7    1  0.2794945E-009  0.8794459E+02  0.7561462E-02  0.1307907E+00
          4   -1    0    0  501    0  0.00000000000E+00  0.00000000000E+00  0.83874052553E+02  0.83874052553E+02  0.00000000000E+00 0.  1.
         -4   -1    0    0    0  501 -0.00000000000E+00 -0.00000000000E+00 -0.19172953011E+03  0.19172953011E+03  0.00000000000E+00 0. -1.
         25    2    1    2    0    0 -0.62030300245E+02 -0.10927186415E+02 -0.46250464686E+02  0.14749295376E+03  0.12509158394E+03 0.  0.
          5    1    3    3  502    0 -0.10767840040E+02 -0.46651098864E+02 -0.66167933647E+02  0.81779821762E+02  0.41800000000E+01 0. -1.
         -5    1    3    3    0  502 -0.51262460204E+02  0.35723912449E+02  0.19917468960E+02  0.65713131995E+02  0.41800000000E+01 0. -1.
        -11    1    1    2    0    0  0.22921621839E+02 -0.41478068536E+01  0.23596866093E+02  0.33157459777E+02  0.00000000000E+00 0.  1.
         11    1    1    2    0    0  0.39108678405E+02  0.15074993268E+02 -0.85201878963E+02  0.94953169128E+02  0.00000000000E+00 0. -1.
</event>
<event>
 7    1  0.2794945E-009  0.1134589E+03  0.7561462E-02  0.1254295E+00
          1   -1    0    0  501    0  0.00000000000E+00  0.00000000000E+00  0.85166587824E+03  0.85166587824E+03  0.00000000000E+00 0. -1.
         -1   -1    0    0    0  501 -0.00000000000E+00 -0.00000000000E+00 -0.26371336113E+02  0.26371336113E+02  0.00000000000E+00 0.  1.
         25    2    1    2    0    0 -0.72651035287E+01 -0.94321645864E+02  0.33161059363E+03  0.36682739530E+03  0.12508955803E+03 0.  0.
          5    1    3    3  502    0 -0.10677872897E+00 -0.66225010028E+02  0.33093865854E+03  0.33752574934E+03  0.41800000000E+01 0.  1.
         -5    1    3    3    0  502 -0.71583247997E+01 -0.28096635836E+02  0.67193509671E+00  0.29301645961E+02  0.41800000000E+01 0.  1.
        -11    1    1    2    0    0  0.49171138531E+02  0.55401967227E+02  0.31517753577E+03  0.32376543653E+03  0.00000000000E+00 0.  1.
         11    1    1    2    0    0 -0.41906035003E+02  0.38919678637E+02  0.17850641272E+03  0.18744438251E+03  0.00000000000E+00 0. -1.
</event>
<event>
 7    1  0.4197115E-009  0.1099938E+03  0.7561462E-02  0.1260581E+00
          4   -1    0    0  501    0  0.00000000000E+00  0.00000000000E+00  0.49882935627E+03  0.49882935627E+03  0.00000000000E+00 0. -1.
         -4   -1    0    0    0  501 -0.00000000000E+00 -0.00000000000E+00 -0.35073287303E+02  0.35073287303E+02  0.00000000000E+00 0.  1.
         25    2    1    2    0    0 -0.59378735587E+02 -0.47488244912E+02  0.25527778927E+03  0.29426804430E+03  0.12508383012E+03 0.  0.
          5    1    3    3  502    0 -0.68257365204E+02 -0.13539700471E+02  0.49552302393E+02  0.85529494714E+02  0.41800000000E+01 0. -1.
         -5    1    3    3    0  502  0.88786296170E+01 -0.33948544440E+02  0.20572548687E+03  0.20873854958E+03  0.41800000000E+01 0. -1.
        -11    1    1    2    0    0  0.39007988091E+02 -0.20426432934E+02  0.10824349747E+03  0.11685682283E+03  0.00000000000E+00 0. -1.
         11    1    1    2    0    0  0.20370747496E+02  0.67914677845E+02  0.10023478224E+03  0.12277777645E+03  0.00000000000E+00 0.  1.
</event>
<event>
 7    1  0.2794945E-009  0.2485001E+03  0.7561462E-02  0.1114256E+00
         -1   -1    0    0    0  501 -0.00000000000E+00  0.00000000000E+00  0.13961633902E+03  0.13961633902E+03  0.00000000000E+00 0.  1.
          1   -1    0    0  501    0  0.00000000000E+00 -0.00000000000E+00 -0.48781687363E+03  0.48781687363E+03  0.00000000000E+00 0. -1.
         25    2    1    2    0    0 -0.15208303378E+03  0.18150652383E+03 -0.18217685812E+03  0.32389844438E+03  0.12509167551E+03 0.  0.
          5    1    3    3  502    0 -0.36236542491E+02  0.12602227896E+03 -0.52450009298E+02  0.14129110971E+03  0.41800000000E+01 0.  1.
         -5    1    3    3    0  502 -0.11584649129E+03  0.55484244870E+02 -0.12972684882E+03  0.18260733468E+03  0.41800000000E+01 0.  1.
        -11    1    1    2    0    0  0.81240537591E+02 -0.85096930383E+02 -0.13669674334E+03  0.18035385260E+03  0.00000000000E+00 0.  1.
         11    1    1    2    0    0  0.70842496187E+02 -0.96409593450E+02 -0.29326933151E+02  0.12318091566E+03  0.00000000000E+00 0. -1.
</event>
<event>
 7    1  0.2794945E-009  0.1031639E+03  0.7561462E-02  0.1273780E+00
          1   -1    0    0  501    0  0.00000000000E+00  0.00000000000E+00  0.10035518448E+03  0.10035518448E+03  0.00000000000E+00 0. -1.
         -1   -1    0    0    0  501 -0.00000000000E+00 -0.00000000000E+00 -0.17823091468E+03  0.17823091468E+03  0.00000000000E+00 0.  1.
         25    2    1    2    0    0  0.21436234374E+02  0.35269389466E+02 -0.12458173789E+03  0.18130610458E+03  0.12509137526E+03 0.  0.
          5    1    3    3  502    0  0.42501217037E+02 -0.36615932298E+02 -0.60815976664E+02  0.82844042424E+02  0.41800000000E+01 0. -1.
         -5    1    3    3    0  502 -0.21064982662E+02  0.71885321764E+02 -0.63765761224E+02  0.98462062156E+02  0.41800000000E+01 0. -1.
        -11    1    1    2    0    0  0.17816930604E+02 -0.30746675326E+02 -0.72964279678E+00  0.35543402177E+02  0.00000000000E+00 0.  1.
         11    1    1    2    0    0 -0.39253164978E+02 -0.45227141408E+01  0.47435650489E+02  0.61736592402E+02  0.00000000000E+00 0. -1.
</event>
<event>
 7    1  0.2794945E-009  0.1767380E+03  0.7561462E-02  0.1170998E+00
         -1   -1    0    0    0  501 -0.00000000000E+00  0.00000000000E+00  0.85869033175E+03  0.85869033175E+03  0.00000000000E+00 0.  1.
          1   -1    0    0  501    0  0.00000000000E+00 -0.00000000000E+00 -0.49008230646E+02  0.49008230646E+02  0.00000000000E+00 0. -1.
         25    2    1    2    0    0 -0.14659371107E+03  0.64102842737E+02  0.57072008059E+03  0.60577823459E+03  0.12508784327E+03 0.  0.
          5    1    3    3  502    0 -0.16287725544E+03  0.64403907561E+02  0.55752606296E+03  0.58440537894E+03  0.41800000000E+01 0. -1.
         -5    1    3    3    0  502  0.16283544371E+02 -0.30106482319E+00  0.13194017629E+02  0.21372855647E+02  0.41800000000E+01 0. -1.
        -11    1    1    2    0    0  0.76636092958E+02 -0.21660765040E+02  0.19132605145E+03  0.20723884156E+03  0.00000000000E+00 0.  1.
         11    1    1    2    0    0  0.69957618110E+02 -0.42442077698E+02  0.47635969060E+02  0.94681486253E+02  0.00000000000E+00 0. -1.
</event>
<event>
 7    1  0.2794945E-009  0.1836204E+03  0.7561462E-02  0.1164344E+00
          1   -1    0    0  501    0  0.00000000000E+00  0.00000000000E+00  0.28687642327E+03  0.28687642327E+03  0.00000000000E+00 0. -1.
         -1   -1    0    0    0  501 -0.00000000000E+00 -0.00000000000E+00 -0.24624229381E+03  0.24624229381E+03  0.00000000000E+00 0.  1.
         25    2    1    2    0    0  0.16922057628E+03  0.37219624267E+02 -0.14878587002E+03  0.26039574767E+03  0.12509119242E+03 0.  0.
          5    1    3    3  502    0  0.18807872030E+02 -0.23973298300E+02  0.10881942092E+02  0.32624287661E+02  0.41800000000E+01 0. -1.
         -5    1    3    3    0  502  0.15041270425E+03  0.61192922567E+02 -0.15966781211E+03  0.22777146001E+03  0.41800000000E+01 0. -1.
        -11    1    1    2    0    0 -0.58258171181E+02 -0.20886407455E+02  0.12332760721E+02  0.63105891268E+02  0.00000000000E+00 0.  1.
         11    1    1    2    0    0 -0.11096240510E+03 -0.16333216812E+02  0.17708723875E+03  0.20961707814E+03  0.00000000000E+00 0. -1.
</event>
<event>
 7    1  0.2794945E-009  0.3054100E+03  0.7561462E-02  0.1082567E+00
          2   -1    0    0  501    0  0.00000000000E+00  0.00000000000E+00  0.16046796272E+04  0.16046796272E+04  0.00000000000E+00 0.  1.
         -2   -1    0    0    0  501 -0.00000000000E+00 -0.00000000000E+00 -0.64608052974E+02  0.64608052974E+02  0.00000000000E+00 0. -1.
         25    2    1    2    0    0  0.73971648194E+02 -0.28899846073E+03  0.65335083236E+03  0.72904490938E+03  0.12508898715E+03 0.  0.
          5    1    3    3  502    0  0.28364542075E+02 -0.48370297863E+02  0.25725988933E+03  0.26333316544E+03  0.41800000000E+01 0.  1.
         -5    1    3    3    0  502  0.45607106119E+02 -0.24062816287E+03  0.39609094303E+03  0.46571174394E+03  0.41800000000E+01 0.  1.
        -11    1    1    2    0    0 -0.33610937858E+02  0.25402163694E+03  0.67819534333E+03  0.72498662808E+03  0.00000000000E+00 0. -1.
         11    1    1    2    0    0 -0.40360710336E+02  0.34976823794E+02  0.20852539853E+03  0.21525614271E+03  0.00000000000E+00 0.  1.
</event>
<event>
 7    1  0.2794945E-009  0.1251285E+03  0.7561462E-02  0.1234869E+00
         -2   -1    0    0    0  501 -0.00000000000E+00  0.00000000000E+00  0.72988500832E+02  0.72988500832E+02  0.00000000000E+00 0.  1.
          2   -1    0    0  501    0  0.00000000000E+00 -0.00000000000E+00 -0.33820301211E+03  0.33820301211E+03  0.00000000000E+00 0. -1.
         25    2    1    2    0    0 -0.53519458111E+02 -0.93945777284E+02 -0.18212095815E+03  0.24598545318E+03  0.12510259114E+03 0.  0.
          5    1    3    3  502    0 -0.46592674915E+02 -0.64199979735E+02 -0.21306710654E+02  0.82243316279E+02  0.41800000000E+01 0. -1.
         -5    1    3    3    0  502 -0.69267831960E+01 -0.29745797549E+02 -0.16081424750E+03  0.16374213690E+03  0.41800000000E+01 0. -1.
        -11    1    1    2    0    0 -0.40486304513E+01  0.80856524034E+02 -0.63865684072E+02  0.10311641232E+03  0.00000000000E+00 0. -1.
         11    1    1    2    0    0  0.57568088562E+02  0.13089253250E+02 -0.19227869049E+02  0.62089647442E+02  0.00000000000E+00 0.  1.
</event>
<event>
 7    1  0.2794945E-009  0.1875897E+03  0.7561462E-02  0.1160653E+00
         -2   -1    0    0    0  501 -0.00000000000E+00  0.00000000000E+00  0.59878945064E+02  0.59878945064E+02  0.00000000000E+00 0.  1.
          2   -1    0    0  501    0  0.00000000000E+00 -0.00000000000E+00 -0.68894837628E+03  0.68894837628E+03  0.00000000000E+00 0. -1.
         25    2    1    2    0    0 -0.10827340050E+03 -0.12807125689E+03 -0.36749810072E+03  0.42289011667E+03  0.12512322187E+03 0.  0.
          5    1    3    3  502    0 -0.36687422523E+02 -0.14981110182E+01 -0.18919812171E+03  0.19277347579E+03  0.41800000000E+01 0.  1.
         -5    1    3    3    0  502 -0.71585977979E+02 -0.12657314588E+03 -0.17829997901E+03  0.23011664089E+03  0.41800000000E+01 0.  1.
        -11    1    1    2    0    0 -0.65072180655E+01  0.57803293901E+02 -0.99689051767E+02  0.11541868010E+03  0.00000000000E+00 0.  1.
         11    1    1    2    0    0  0.11478061857E+03  0.70267962993E+02 -0.16188227873E+03  0.21051852458E+03  0.00000000000E+00 0. -1.
</event>
<event>
 7    1  0.2794945E-009  0.9351098E+02  0.7561462E-02  0.1294565E+00
         -3   -1    0    0    0  501 -0.00000000000E+00  0.00000000000E+00  0.55099704541E+03  0.55099704541E+03  0.00000000000E+00 0.  1.
          3   -1    0    0  501    0  0.00000000000E+00 -0.00000000000E+00 -0.30602611304E+02  0.30602611304E+02  0.00000000000E+00 0. -1.
         25    2    1    2    0    0  0.52267344614E+02  0.34516625133E+02  0.36660571161E+03  0.39239096305E+03  0.12509055671E+03 0.  0.
          5    1    3    3  502    0  0.66609079022E+02  0.38708204758E+02  0.10485686350E+03  0.13018267452E+03  0.41800000000E+01 0.  1.
         -5    1    3    3    0  502 -0.14341734408E+02 -0.41915796248E+01  0.26174884811E+03  0.26220828853E+03  0.41800000000E+01 0.  1.
        -11    1    1    2    0    0  0.12488441874E+02 -0.26254003329E+02  0.90818739225E+01  0.30458402867E+02  0.00000000000E+00 0. -1.
         11    1    1    2    0    0 -0.64755786488E+02 -0.82626218039E+01  0.14470684857E+03  0.15875029079E+03  0.00000000000E+00 0.  1.
</event>
<event>
 7    1  0.3324011E-009  0.1779883E+03  0.7561462E-02  0.1169764E+00
          2   -1    0    0  501    0  0.00000000000E+00  0.00000000000E+00  0.94010828660E+03  0.94010828660E+03  0.00000000000E+00 0. -1.
         -2   -1    0    0    0  501 -0.00000000000E+00 -0.00000000000E+00 -0.34732518773E+02  0.34732518773E+02  0.00000000000E+00 0.  1.
         25    2    1    2    0    0 -0.13824724142E+03  0.40001202474E+02  0.45385553881E+03  0.49228465367E+03  0.12508770594E+03 0.  0.
          5    1    3    3  502    0 -0.15106630409E+03  0.61475909662E+01  0.39609570222E+03  0.42399068247E+03  0.41800000000E+01 0. -1.
         -5    1    3    3    0  502  0.12819062671E+02  0.33853611508E+02  0.57759836586E+02  0.68293971201E+02  0.41800000000E+01 0. -1.
        -11    1    1    2    0    0  0.57275793214E+02 -0.61973993947E+02  0.26305820575E+03  0.27626239705E+03  0.00000000000E+00 0. -1.
         11    1    1    2    0    0  0.80971448206E+02  0.21972791474E+02  0.18846202327E+03  0.20629375464E+03  0.00000000000E+00 0.  1.
</event>
<event>
 6    1  0.2794945E-009  0.8883159E+02  0.7561462E-02  0.1305706E+00
          2   -1    0    0  501    0  0.00000000000E+00  0.00000000000E+00  0.56606604866E+03  0.56606604866E+03  0.00000000000E+00 0. -1.
         -2   -1    0    0    0  501 -0.00000000000E+00 -0.00000000000E+00 -0.26615253356E+02  0.26615253356E+02  0.00000000000E+00 0.  1.
          5    1    1    2  502    0 -0.47663947877E+02 -0.13247095786E+02  0.35740051948E+03  0.36083228958E+03  0.41800000000E+01 0.  1.
         -5    1    1    2    0  502  0.46840482796E+02  0.20868600591E+02  0.88906195301E+02  0.10271958568E+03  0.41800000000E+01 0.  1.
        -11    1    1    2    0    0 -0.36459216823E+02  0.58497186845E+01  0.12011345383E+02  0.38829964176E+02  0.00000000000E+00 0.  1.
         11    1    1    2    0    0  0.37282681904E+02 -0.13471223490E+02  0.81132735134E+02  0.90299462582E+02  0.00000000000E+00 0. -1.
</event>
<event>
 7    1  0.2794945E-009  0.2641997E+03  0.7561462E-02  0.1104646E+00
          2   -1    0    0  501    0  0.00000000000E+00  0.00000000000E+00  0.44479225201E+02  0.44479225201E+02  0.00000000000E+00 0.  1.
         -2   -1    0    0    0  501 -0.00000000000E+00 -0.00000000000E+00 -0.17782815018E+04  0.17782815018E+04  0.00000000000E+00 0. -1.
         25    2    1    2    0    0  0.87787146134E+02  0.24246052695E+03 -0.97744594631E+03  0.10185996956E+04  0.12510424360E+03 0.  0.
          5    1    3    3  502    0  0.15949074842E+02  0.45937042067E+02 -0.42581241823E+03  0.42860036484E+03  0.41800000000E+01 0.  1.
         -5    1    3    3    0  502  0.71838071292E+02  0.19652348488E+03 -0.55163352808E+03  0.58999933076E+03  0.41800000000E+01 0.  1.
        -11    1    1    2    0    0 -0.47805033628E+02 -0.21856237076E+03 -0.66479766603E+03  0.70143479235E+03  0.00000000000E+00 0. -1.
         11    1    1    2    0    0 -0.39982112505E+02 -0.23898156182E+02 -0.91558664247E+02  0.10272623904E+03  0.00000000000E+00 0.  1.
</event>
<event>
 7    1  0.2794945E-009  0.8264691E+02  0.7561462E-02  0.1321703E+00
         -3   -1    0    0    0  501 -0.00000000000E+00  0.00000000000E+00  0.26472760458E+03  0.26472760458E+03  0.00000000000E+00 0.  1.
          3   -1    0    0  501    0  0.00000000000E+00 -0.00000000000E+00 -0.76925979384E+02  0.76925979384E+02  0.00000000000E+00 0. -1.
         25    2    1    2    0    0 -0.35338551147E+02  0.22682556327E+02  0.20037846956E+03  0.23992185636E+03  0.12509058531E+03 0.  0.
          5    1    3    3  502    0  0.11021793366E+02 -0.67024393671E+01 -0.13463294538E+02  0.19108514393E+02  0.41800000000E+01 0.  1.
         -5    1    3    3    0  502 -0.46360344514E+02  0.29384995694E+02  0.21384176410E+03  0.22081334196E+03  0.41800000000E+01 0.  1.
        -11    1    1    2    0    0  0.18528505072E+02  0.33369130740E+02  0.92543080523E+01  0.39273993992E+02  0.00000000000E+00 0.  1.
         11    1    1    2    0    0  0.16810046075E+02 -0.56051687067E+02 -0.21831152422E+02  0.62457733614E+02  0.00000000000E+00 0. -1.
</event>
<event>
 7    1  0.2794945E-009  0.1655885E+03  0.7561462E-02  0.1182528E+00
         -2   -1    0    0    0  501 -0.00000000000E+00  0.00000000000E+00  0.80506861048E+02  0.80506861048E+02  0.00000000000E+00 0. -1.
          2   -1    0    0  501    0  0.00000000000E+00 -0.00000000000E+00 -0.53861386979E+03  0.53861386979E+03  0.00000000000E+00 0.  1.
         25    2    1    2    0    0 -0.13839004469E+03 -0.53768534344E+02 -0.38481316278E+03  0.43101325727E+03  0.12509355674E+03 0.  0.
          5    1    3    3  502    0  0.67660162307E+01 -0.34985247389E+02 -0.28610655046E+02  0.45888871119E+02  0.41800000000E+01 0.  1.
         -5    1    3    3    0  502 -0.14515606092E+03 -0.18783286956E+02 -0.35620250773E+03  0.38512438615E+03  0.41800000000E+01 0.  1.
        -11    1    1    2    0    0  0.97535082658E+02  0.43196641428E+02 -0.93011167061E+02  0.14152780426E+03  0.00000000000E+00 0.  1.
         11    1    1    2    0    0  0.40854962033E+02  0.10571892916E+02  0.19717321093E+02  0.46579669317E+02  0.00000000000E+00 0. -1.
</event>
<event>
 7    1  0.2794945E-009  0.1565892E+03  0.7561462E-02  0.1192602E+00
          2   -1    0    0  501    0  0.00000000000E+00  0.00000000000E+00  0.50379504299E+03  0.50379504299E+03  0.00000000000E+00 0. -1.
         -2   -1    0    0    0  501 -0.00000000000E+00 -0.00000000000E+00 -0.66206318492E+02  0.66206318492E+02  0.00000000000E+00 0.  1.
         25    2    1    2    0    0 -0.46279603227E+02 -0.12751766186E+03  0.14634456803E+03  0.23551483131E+03  0.12509175598E+03 0.  0.
          5    1    3    3  502    0  0.21148122212E+02 -0.40339900392E+02  0.11042499637E+03  0.11952281313E+03  0.41800000000E+01 0.  1.
         -5    1    3    3    0  502 -0.67427725439E+02 -0.87177761472E+02  0.35919571665E+02  0.11599201818E+03  0.41800000000E+01 0.  1.
        -11    1    1    2    0    0  0.10337953780E+01  0.10778175658E+03  0.24122636775E+03  0.26421229397E+03  0.00000000000E+00 0. -1.
         11    1    1    2    0    0  0.45245807849E+02  0.19735905281E+02  0.50017788710E+02  0.70274236194E+02  0.00000000000E+00 0.  1.
</event>
<event>
 7    1  0.2794945E-009  0.1201671E+03  0.7561462E-02  0.1242822E+00
         -2   -1    0    0    0  501 -0.00000000000E+00  0.00000000000E+00  0.24996053377E+03  0.24996053377E+03  0.00000000000E+00 0.  1.
          2   -1    0    0  501    0  0.00000000000E+00 -0.00000000000E+00 -0.73387151658E+02  0.73387151658E+02  0.00000000000E+00 0. -1.
         25    2    1    2    0    0  0.50688855735E+02 -0.47859100844E+02  0.11386281317E+03  0.18295483027E+03  0.12509147080E+03 0.  0.
          5    1    3    3  502    0  0.77279027673E+02 -0.35609778001E+02  0.24230995133E+02  0.88570412287E+02  0.41800000000E+01 0. -1.
         -5    1    3    3    0  502 -0.26590171938E+02 -0.12249322843E+02  0.89631818032E+02  0.94384417980E+02  0.41800000000E+01 0. -1.
        -11    1    1    2    0    0 -0.11066459472E+02 -0.33389037339E+02  0.19142655352E+02  0.40046667697E+02  0.00000000000E+00 0.  1.
         11    1    1    2    0    0 -0.39622396263E+02  0.81248138183E+02  0.43567913599E+02  0.10034618747E+03  0.00000000000E+00 0. -1.
</event>
<event>
 7    1  0.4034134E-009  0.8498825E+02  0.7561462E-02  0.1315463E+00
          1   -1    0    0  501    0  0.00000000000E+00  0.00000000000E+00  0.36108484029E+03  0.36108484029E+03  0.00000000000E+00 0. -1.
         -1   -1    0    0    0  501 -0.00000000000E+00 -0.00000000000E+00 -0.47561076522E+02  0.47561076522E+02  0.00000000000E+00 0.  1.
         25    2    1    2    0    0  0.69352725407E+02  0.21487362005E+02  0.19005876810E+03  0.23883383318E+03  0.12509099605E+03 0.  0.
          5    1    3    3  502    0  0.11052259150E+02 -0.13975588174E+01  0.17351136613E+03  0.17391886666E+03  0.41800000000E+01 0.  1.
         -5    1    3    3    0  502  0.58300466257E+02  0.22884920823E+02  0.16547401968E+02  0.64914966523E+02  0.41800000000E+01 0.  1.
        -11    1    1    2    0    0 -0.36414145565E+02 -0.42708259590E+02  0.20682553585E+02  0.59814324849E+02  0.00000000000E+00 0.  1.
         11    1    1    2    0    0 -0.32938579842E+02  0.21220897584E+02  0.10278244209E+03  0.10999775879E+03  0.00000000000E+00 0. -1.
</event>
<event>
 7    1  0.2794945E-009  0.1210634E+03  0.7561462E-02  0.1241353E+00
         -2   -1    0    0    0  501 -0.00000000000E+00  0.00000000000E+00  0.52942645617E+02  0.52942645617E+02  0.00000000000E+00 0.  1.
          2   -1    0    0  501    0  0.00000000000E+00 -0.00000000000E+00 -0.35708106795E+03  0.35708106795E+03  0.00000000000E+00 0. -1.
         25    2    1    2    0    0  0.42386001782E+02  0.70312883143E+02 -0.13551553390E+03  0.20187268831E+03  0.12509055789E+03 0.  0.
          5    1    3    3  502    0 -0.31329309095E+02  0.15282103307E+02 -0.94978373245E+02  0.10125923204E+03  0.41800000000E+01 0.  1.
         -5    1    3    3    0  502  0.73715310877E+02  0.55030779836E+02 -0.40537160658E+02  0.10061345626E+03  0.41800000000E+01 0.  1.
        -11    1    1    2    0    0 -0.60693506290E+02 -0.74559786328E+02 -0.10757071643E+03  0.14427169673E+03  0.00000000000E+00 0.  1.
         11    1    1    2    0    0  0.18307504508E+02  0.42469031850E+01 -0.61052171995E+02  0.63879328529E+02  0.00000000000E+00 0. -1.
</event>
<event>
 7    1  0.2794945E-009  0.1176368E+03  0.7561462E-02  0.1247047E+00
          1   -1    0    0  501    0  0.00000000000E+00  0.00000000000E+00  0.54507297491E+02  0.54507297491E+02  0.00000000000E+00 0. -1.
         -1   -1    0    0    0  501 -0.00000000000E+00 -0.00000000000E+00 -0.40756620268E+03  0.40756620268E+03  0.00000000000E+00 0.  1.
         25    2    1    2    0    0  0.17306145947E+02  0.61321243166E+02 -0.67077471422E+02  0.15558456702E+03  0.12508945907E+03 0.  0.
          5    1    3    3  502    0 -0.61414635647E+01 -0.32684110476E+02  0.61367538233E+01  0.34074929197E+02  0.41800000000E+01 0. -1.
         -5    1    3    3    0  502  0.23447609512E+02  0.94005353642E+02 -0.73214225245E+02  0.12150963782E+03  0.41800000000E+01 0. -1.
        -11    1    1    2    0    0  0.21871715823E+02 -0.61845258241E+02 -0.22175856068E+03  0.23125757751E+03  0.00000000000E+00 0. -1.
         11    1    1    2    0    0 -0.39177861770E+02  0.52401507550E+00 -0.64222873086E+02  0.75231355645E+02  0.00000000000E+00 0.  1.
</event>
<event>
 7    1  0.2794945E-009  0.1195646E+03  0.7561462E-02  0.1243817E+00
         -1   -1    0    0    0  501 -0.00000000000E+00  0.00000000000E+00  0.66215357599E+02  0.66215357599E+02  0.00000000000E+00 0.  1.
          1   -1    0    0  501    0  0.00000000000E+00 -0.00000000000E+00 -0.29752869414E+03  0.29752869414E+03  0.00000000000E+00 0. -1.
         25    2    1    2    0    0  0.38128767678E+02  0.65721513212E+02 -0.18232004995E+03  0.23379648315E+03  0.12508826762E+03 0.  0.
          5    1    3    3  502    0  0.58874375682E+02  0.90579404116E+02 -0.10893136529E+03  0.15347421707E+03  0.41800000000E+01 0. -1.
         -5    1    3    3    0  502 -0.20745608004E+02 -0.24857890904E+02 -0.73388684657E+02  0.80322266075E+02  0.41800000000E+01 0. -1.
        -11    1    1    2    0    0  0.14990881493E+02 -0.15571904367E+01 -0.43987753905E+02  0.46498106021E+02  0.00000000000E+00 0. -1.
         11    1    1    2    0    0 -0.53119649171E+02 -0.64164322775E+02 -0.50055326843E+01  0.83449462567E+02  0.00000000000E+00 0.  1.
</event>
<event>
 7    1  0.2794945E-009  0.1192689E+03  0.7561462E-02  0.1244308E+00
          2   -1    0    0  501    0  0.00000000000E+00  0.00000000000E+00  0.68684540854E+03  0.68684540854E+03  0.00000000000E+00 0. -1.
         -2   -1    0    0    0  501 -0.00000000000E+00 -0.00000000000E+00 -0.23918246272E+02  0.23918246272E+02  0.00000000000E+00 0.  1.
         25    2    1    2    0    0  0.44970643120E+02  0.35864133686E+02  0.47151729897E+03  0.49120753184E+03  0.12509069222E+03 0.  0.
          5    1    3    3  502    0 -0.75742847640E+01 -0.39538404579E+02  0.21291535408E+03  0.21672811453E+03  0.41800000000E+01 0. -1.
         -5    1    3    3    0  502  0.52544927884E+02  0.75402538265E+02  0.25860194490E+03  0.27447941731E+03  0.41800000000E+01 0. -1.
        -11    1    1    2    0    0  0.13566850819E+02 -0.44835456770E+02  0.10291120640E+03  0.11307074789E+03  0.00000000000E+00 0.  1.
         11    1    1    2    0    0 -0.58537493940E+02  0.89713230838E+01  0.88498656899E+02  0.10648537509E+03  0.00000000000E+00 0. -1.
</event>
<event>
 7    1  0.2794945E-009  0.8663636E+02  0.7561462E-02  0.1311208E+00
         -1   -1    0    0    0  501 -0.00000000000E+00  0.00000000000E+00  0.79315046359E+02  0.79315046359E+02  0.00000000000E+00 0.  1.
          1   -1    0    0  501    0  0.00000000000E+00 -0.00000000000E+00 -0.21216906398E+03  0.21216906398E+03  0.00000000000E+00 0. -1.
         25    2    1    2    0    0  0.49572300008E+02  0.25708781094E+02 -0.11541830168E+03  0.17912624653E+03  0.12508586442E+03 0.  0.
          5    1    3    3  502    0  0.27968668533E+02 -0.19050874773E+02  0.16655902774E+02  0.37948303603E+02  0.41800000000E+01 0.  1.
         -5    1    3    3    0  502  0.21603631476E+02  0.44759655867E+02 -0.13207420445E+03  0.14117794292E+03  0.41800000000E+01 0.  1.
        -11    1    1    2    0    0  0.17317361377E+02  0.82931032656E+00  0.23779819640E+02  0.29428873285E+02  0.00000000000E+00 0.  1.
         11    1    1    2    0    0 -0.66889661386E+02 -0.26538091421E+02 -0.41215535583E+02  0.82928990528E+02  0.00000000000E+00 0. -1.
</event>
<event>
 7    1  0.3479356E-009  0.1718289E+03  0.7561462E-02  0.1175954E+00
          1   -1    0    0  501    0  0.00000000000E+00  0.00000000000E+00  0.87052897004E+02  0.87052897004E+02  0.00000000000E+00 0. -1.
         -1   -1    0    0    0  501 -0.00000000000E+00 -0.00000000000E+00 -0.35382761304E+03  0.35382761304E+03  0.00000000000E+00 0.  1.
         25    2    1    2    0    0  0.13216534450E+03  0.37505505777E+02 -0.13580356454E+03  0.23014067536E+03  0.12509109107E+03 0.  0.
          5    1    3    3  502    0 -0.20306640182E+02  0.23933265257E+02 -0.32795490713E+02  0.45587031407E+02  0.41800000000E+01 0. -1.
         -5    1    3    3    0  502  0.15247198468E+03  0.13572240520E+02 -0.10300807382E+03  0.18455364396E+03  0.41800000000E+01 0. -1.
        -11    1    1    2    0    0 -0.85598348602E+02 -0.62521937956E+02 -0.11293025315E+03  0.15488483491E+03  0.00000000000E+00 0. -1.
         11    1    1    2    0    0 -0.46566995899E+02  0.25016432179E+02 -0.18040898354E+02  0.55854999771E+02  0.00000000000E+00 0.  1.
</event>
<event>
 7    1  0.2794945E-009  0.1419109E+03  0.7561462E-02  0.1210781E+00
          1   -1    0    0  501    0  0.00000000000E+00  0.00000000000E+00  0.33592204288E+03  0.33592204288E+03  0.00000000000E+00 0. -1.
         -1   -1    0    0    0  501 -0.00000000000E+00 -0.00000000000E+00 -0.72311950352E+02  0.72311950352E+02  0.00000000000E+00 0.  1.
         25    2    1    2    0    0 -0.11027648841E+03 -0.44809135048E+01  0.17517121060E+03  0.24189624501E+03  0.12509139797E+03 0.  0.
          5    1    3    3  502    0 -0.26067777829E+02  0.45597609231E+02  0.11589431308E+03  0.12730921103E+03  0.41800000000E+01 0.  1.
         -5    1    3    3    0  502 -0.84208710582E+02 -0.50078522736E+02  0.59276897520E+02  0.11458703398E+03  0.41800000000E+01 0.  1.
        -11    1    1    2    0    0  0.29904893432E+02  0.35944890172E+02  0.62848496406E+01  0.47178778235E+02  0.00000000000E+00 0.  1.
         11    1    1    2    0    0  0.80371594979E+02 -0.31463976668E+02  0.82154032288E+02  0.11915896999E+03  0.00000000000E+00 0. -1.
</event>
<event>
 7    1  0.2794945E-009  0.1321466E+03  0.7561462E-02  0.1224305E+00
         -2   -1    0    0    0  501 -0.00000000000E+00  0.00000000000E+00  0.16694330626E+03  0.16694330626E+03  0.00000000000E+00 0.  1.
          2   -1    0    0  501    0  0.00000000000E+00 -0.00000000000E+00 -0.20737503893E+03  0.20737503893E+03  0.00000000000E+00 0. -1.
         25    2    1    2    0    0 -0.95225594467E+02 -0.62178352726E+02  0.78980955489E+02  0.18660001878E+03  0.12509002474E+03 0.  0.
          5    1    3    3  502    0 -0.40812043432E+02  0.99728674750E+01 -0.24767551290E+02  0.48948799492E+02  0.41800000000E+01 0. -1.
         -5    1    3    3    0  502 -0.54413551035E+02 -0.72151220201E+02  0.10374850678E+03  0.13765121929E+03  0.41800000000E+01 0. -1.
        -11    1    1    2    0    0  0.96804394144E+02  0.32835486895E+02 -0.12086647532E+03  0.15829707762E+03  0.00000000000E+00 0. -1.
         11    1    1    2    0    0 -0.15787996768E+01  0.29342865830E+02  0.14537871574E+01  0.29421248795E+02  0.00000000000E+00 0.  1.
</event>
<event>
 7    1  0.2794945E-009  0.2065282E+03  0.7561462E-02  0.1144345E+00
          1   -1    0    0  501    0  0.00000000000E+00  0.00000000000E+00  0.29996226293E+03  0.29996226293E+03  0.00000000000E+00 0. -1.
         -1   -1    0    0    0  501 -0.00000000000E+00 -0.00000000000E+00 -0.20961753319E+03  0.20961753319E+03  0.00000000000E+00 0.  1.
         25    2    1    2    0    0  0.92597728315E+02 -0.16416992331E+03 -0.78764575698E+02  0.23953649326E+03  0.12509104769E+03 0.  0.
          5    1    3    3  502    0 -0.20455721771E+02 -0.72603560800E+02 -0.33628235701E+01  0.75620728483E+02  0.41800000000E+01 0. -1.
         -5    1    3    3    0  502  0.11305345009E+03 -0.91566362506E+02 -0.75401752128E+02  0.16391576478E+03  0.41800000000E+01 0. -1.
        -11    1    1    2    0    0 -0.48233058262E+02  0.12014629252E+03  0.56512224604E+02  0.14126284382E+03  0.00000000000E+00 0.  1.
         11    1    1    2    0    0 -0.44364670053E+02  0.44023630786E+02  0.11259708083E+03  0.12878045903E+03  0.00000000000E+00 0. -1.
</event>
<event>
 7    1  0.2794945E-009  0.1218973E+03  0.7561462E-02  0.1239999E+00
         -3   -1    0    0    0  501 -0.00000000000E+00  0.00000000000E+00  0.10987479731E+03  0.10987479731E+03  0.00000000000E+00 0.  1.
          3   -1    0    0  501    0  0.00000000000E+00 -0.00000000000E+00 -0.14668590254E+03  0.14668590254E+03  0.00000000000E+00 0. -1.
         25    2    1    2    0    0  0.31017449704E+02  0.48539810980E+02  0.12145315677E+02  0.13824589269E+03  0.12508486206E+03 0.  0.
          5    1    3    3  502    0  0.26434537611E+02 -0.40374686114E+02  0.72718233062E+01  0.48982158708E+02  0.41800000000E+01 0. -1.
         -5    1    3    3    0  502  0.45829120932E+01  0.88914497095E+02  0.48734923707E+01  0.89263733984E+02  0.41800000000E+01 0. -1.
        -11    1    1    2    0    0 -0.56758510087E+02 -0.67707454663E+01 -0.16527092385E+02  0.59502237304E+02  0.00000000000E+00 0.  1.
         11    1    1    2    0    0  0.25741060384E+02 -0.41769065514E+02 -0.32429328520E+02  0.58812569846E+02  0.00000000000E+00 0. -1.
</event>
<event>
 7    1  0.2794945E-009  0.1007762E+03  0.7561462E-02  0.1278672E+00
          1   -1    0    0  501    0  0.00000000000E+00  0.00000000000E+00  0.66311985443E+03  0.66311985443E+03  0.00000000000E+00 0. -1.
         -1   -1    0    0    0  501 -0.00000000000E+00 -0.00000000000E+00 -0.19017572201E+02  0.19017572201E+02  0.00000000000E+00 0.  1.
         25    2    1    2    0    0 -0.94788352143E-01  0.87347405990E+00  0.28785706314E+03  0.31386539027E+03  0.12509605299E+03 0.  0.
          5    1    3    3  502    0 -0.54791455491E+02 -0.60627963919E+01  0.70530487605E+02  0.89615195010E+02  0.41800000000E+01 0. -1.
         -5    1    3    3    0  502  0.54696667139E+02  0.69362704518E+01  0.21732657553E+03  0.22425019526E+03  0.41800000000E+01 0. -1.
        -11    1    1    2    0    0  0.38222508025E+02  0.24294461843E+02  0.13614507733E+03  0.14348053205E+03  0.00000000000E+00 0. -1.
         11    1    1    2    0    0 -0.38127719673E+02 -0.25167935903E+02  0.22010014176E+03  0.22479150431E+03  0.00000000000E+00 0.  1.
</event>
<event>
 7    1  0.2794945E-009  0.1176303E+03  0.7561462E-02  0.1247058E+00
          1   -1    0    0  501    0  0.00000000000E+00  0.00000000000E+00  0.93208757389E+03  0.93208757389E+03  0.00000000000E+00 0. -1.
         -1   -1    0    0    0  501 -0.00000000000E+00 -0.00000000000E+00 -0.19710765126E+02  0.19710765126E+02  0.00000000000E+00 0.  1.
         25    2    1    2    0    0  0.67360384073E+02  0.38820947562E+02  0.50571848694E+03  0.52672796592E+03  0.12508666890E+03 0.  0.
          5    1    3    3  502    0 -0.31927492332E+02 -0.10320528274E+02  0.16493067451E+03  0.16836115307E+03  0.41800000000E+01 0. -1.
         -5    1    3    3    0  502  0.99287876404E+02  0.49141475835E+02  0.34078781243E+03  0.35836681285E+03  0.41800000000E+01 0. -1.
        -11    1    1    2    0    0 -0.67925819032E+02 -0.18695644947E+02  0.39613833392E+03  0.40235435083E+03  0.00000000000E+00 0. -1.
         11    1    1    2    0    0  0.56543495952E+00 -0.20125302614E+02  0.10519987903E+02  0.22716022264E+02  0.00000000000E+00 0.  1.
</event>
<event>
 7    1  0.2794945E-009  0.1597098E+03  0.7561462E-02  0.1189025E+00
         -1   -1    0    0    0  501 -0.00000000000E+00  0.00000000000E+00  0.38559150638E+03  0.38559150638E+03  0.00000000000E+00 0.  1.
          1   -1    0    0  501    0  0.00000000000E+00 -0.00000000000E+00 -0.84914167283E+02  0.84914167283E+02  0.00000000000E+00 0. -1.
         25    2    1    2    0    0 -0.10790152973E+03  0.60385535579E+02  0.62599927568E+02  0.18669455467E+03  0.12508778032E+03 0.  0.
          5    1    3    3  502    0 -0.44681494409E+02  0.93724449533E+02  0.31025542469E+02  0.10844706113E+03  0.41800000000E+01 0.  1.
         -5    1    3    3    0  502 -0.63220035325E+02 -0.33338913954E+02  0.31574385099E+02  0.78247493535E+02  0.41800000000E+01 0.  1.
        -11    1    1    2    0    0  0.44043013919E+02 -0.66497923697E+02  0.18159238327E+03  0.19833697233E+03  0.00000000000E+00 0.  1.
         11    1    1    2    0    0  0.63858515815E+02  0.61123881182E+01  0.56485028253E+02  0.85474146660E+02  0.00000000000E+00 0. -1.
</event>
<event>
 7    1  0.2794945E-009  0.1041832E+03  0.7561462E-02  0.1271737E+00
         -2   -1    0    0    0  501 -0.00000000000E+00  0.00000000000E+00  0.15041537640E+02  0.15041537640E+02  0.00000000000E+00 0.  1.
          2   -1    0    0  501    0  0.00000000000E+00 -0.00000000000E+00 -0.11201958779E+04  0.11201958779E+04  0.00000000000E+00 0. -1.
         25    2    1    2    0    0  0.48290188939E+02  0.29991603468E+02 -0.78094740377E+03  0.79294264366E+03  0.12509096714E+03 0.  0.
          5    1    3    3  502    0 -0.20129934970E+02 -0.27659271779E+02 -0.40538998214E+03  0.40685225773E+03  0.41800000000E+01 0. -1.
         -5    1    3    3    0  502  0.68420123909E+02  0.57650875247E+02 -0.37555742163E+03  0.38609038594E+03  0.41800000000E+01 0. -1.
        -11    1    1    2    0    0 -0.46905310855E+02 -0.47509441320E+02 -0.31586359008E+03  0.32284216382E+03  0.00000000000E+00 0. -1.
         11    1    1    2    0    0 -0.13848780847E+01  0.17517837852E+02 -0.83433463840E+01  0.19452608031E+02  0.00000000000E+00 0.  1.
</event>
<event>
 6    1  0.2794945E-009  0.1356479E+03  0.7561462E-02  0.1219308E+00
         -2   -1    0    0    0  501 -0.00000000000E+00  0.00000000000E+00  0.29573666588E+02  0.29573666588E+02  0.00000000000E+00 0. -1.
          2   -1    0    0  501    0  0.00000000000E+00 -0.00000000000E+00 -0.89146170442E+03  0.89146170442E+03  0.00000000000E+00 0.  1.
          5    1    1    2  502    0  0.76243532275E+02  0.43736040408E+02 -0.43090199263E+03  0.43979531273E+03  0.41800000000E+01 0. -1.
         -5    1    1    2    0  502  0.42967958960E+02 -0.29800953055E+02 -0.54449227348E+02  0.75607757929E+02  0.41800000000E+01 0. -1.
        -11    1    1    2    0    0 -0.94151883586E+02 -0.32555270931E+02 -0.35228369636E+03  0.36609865552E+03  0.00000000000E+00 0.  1.
         11    1    1    2    0    0 -0.25059607649E+02  0.18620183578E+02 -0.24253121493E+02  0.39533644838E+02  0.00000000000E+00 0. -1.
</event>
<event>
 7    1  0.2794945E-009  0.1100288E+03  0.7561462E-02  0.1260517E+00
         -4   -1    0    0    0  501 -0.00000000000E+00  0.00000000000E+00  0.11921321916E+03  0.11921321916E+03  0.00000000000E+00 0.  1.
          4   -1    0    0  501    0  0.00000000000E+00 -0.00000000000E+00 -0.11504107751E+03  0.11504107751E+03  0.00000000000E+00 0. -1.
         25    2    1    2    0    0  0.40589672094E+02 -0.74034530505E+01 -0.13625758436E+02  0.13242198250E+03  0.12509031760E+03 0.  0.
          5    1    3    3  502    0 -0.24586013653E+02  0.38222539057E+02 -0.24851642045E+02  0.51966441783E+02  0.41800000000E+01 0.  1.
         -5    1    3    3    0  502  0.65175685747E+02 -0.45625992108E+02  0.11225883609E+02  0.80455540712E+02  0.41800000000E+01 0.  1.
        -11    1    1    2    0    0 -0.67522947064E+02  0.57013436443E+01  0.27532944738E+02  0.73143125073E+02  0.00000000000E+00 0.  1.
         11    1    1    2    0    0  0.26933274970E+02  0.17021094062E+01 -0.97350446447E+01  0.28689189101E+02  0.00000000000E+00 0. -1.
</event>
<event>
 7    1  0.2794945E-009  0.9967821E+02  0.7561462E-02  0.1280974E+00
         -3   -1    0    0    0  501 -0.00000000000E+00  0.00000000000E+00  0.27349959999E+03  0.27349959999E+03  0.00000000000E+00 0.  1.
          3   -1    0    0  501    0  0.00000000000E+00 -0.00000000000E+00 -0.80488805338E+02  0.80488805338E+02  0.00000000000E+00 0. -1.
         25    2    1    2    0    0  0.92506166075E+02 -0.48484681104E+01  0.55911900853E+02  0.16539056008E+03  0.12508796226E+03 0.  0.
          5    1    3    3  502    0  0.93442224047E+02 -0.14210797781E+02 -0.13191615417E+02  0.95524275060E+02  0.41800000000E+01 0.  1.
         -5    1    3    3    0  502 -0.93605797226E+00  0.93623296703E+01  0.69103516270E+02  0.69866285019E+02  0.41800000000E+01 0.  1.
        -11    1    1    2    0    0 -0.11258902775E+02 -0.55309578409E+01 -0.12711165255E+02  0.17858558410E+02  0.00000000000E+00 0. -1.
         11    1    1    2    0    0 -0.81247263300E+02  0.10379425951E+02  0.14981005906E+03  0.17073928684E+03  0.00000000000E+00 0.  1.
</event>
<event>
 7    1  0.2794945E-009  0.3199103E+03  0.7561462E-02  0.1075691E+00
          2   -1    0    0  501    0  0.00000000000E+00  0.00000000000E+00  0.10414862725E+04  0.10414862725E+04  0.00000000000E+00 0. -1.
         -2   -1    0    0    0  501 -0.00000000000E+00 -0.00000000000E+00 -0.10131212768E+03  0.10131212768E+03  0.00000000000E+00 0.  1.
         25    2    1    2    0    0  0.27762049649E+03 -0.13153514680E+03  0.47890043078E+03  0.58255283196E+03  0.12509014552E+03 0.  0.
          5    1    3    3  502    0  0.99429843490E+02  0.16750116042E+01  0.21801184157E+03  0.23965753672E+03  0.41800000000E+01 0.  1.
         -5    1    3    3    0  502  0.17819065300E+03 -0.13321015840E+03  0.26088858921E+03  0.34289529524E+03  0.41800000000E+01 0.  1.
        -11    1    1    2    0    0 -0.18756314554E+03  0.45021192787E+02  0.27037596960E+03  0.33212950230E+03  0.00000000000E+00 0.  1.
         11    1    1    2    0    0 -0.90057350953E+02  0.86513954010E+02  0.19089774439E+03  0.22811606588E+03  0.00000000000E+00 0. -1.
</event>
<event>
 7    1  0.2794945E-009  0.2635951E+03  0.7561462E-02  0.1105002E+00
          1   -1    0    0  501    0  0.00000000000E+00  0.00000000000E+00  0.67523693734E+03  0.67523693734E+03  0.00000000000E+00 0. -1.
         -1   -1    0    0    0  501 -0.00000000000E+00 -0.00000000000E+00 -0.11302084585E+03  0.11302084585E+03  0.00000000000E+00 0.  1.
         25    2    1    2    0    0 -0.55467558314E+02  0.24752897718E+03  0.27216884837E+03  0.39251721203E+03  0.12508651063E+03 0.  0.
          5    1    3    3  502    0  0.30220960455E+02  0.61012545247E+02  0.11599433645E+03  0.13456595267E+03  0.41800000000E+01 0.  1.
         -5    1    3    3    0  502 -0.85688518769E+02  0.18651643194E+03  0.15617451192E+03  0.25795125936E+03  0.41800000000E+01 0.  1.
        -11    1    1    2    0    0  0.49600713335E+02 -0.21863922683E+03  0.19807918965E+03  0.29916334609E+03  0.00000000000E+00 0.  1.
         11    1    1    2    0    0  0.58668449781E+01 -0.28889750356E+02  0.91968053459E+02  0.96577225073E+02  0.00000000000E+00 0. -1.
</event>
<event>
 7    1  0.2794945E-009  0.1686783E+03  0.7561462E-02  0.1179233E+00
         -3   -1    0    0    0  501 -0.00000000000E+00  0.00000000000E+00  0.67145606799E+02  0.67145606799E+02  0.00000000000E+00 0.  1.
          3   -1    0    0  501    0  0.00000000000E+00 -0.00000000000E+00 -0.82862714054E+03  0.82862714054E+03  0.00000000000E+00 0. -1.
         25    2    1    2    0    0  0.28204345307E+02  0.15680230180E+03 -0.13527895171E+03  0.24358671684E+03  0.12510654219E+03 0.  0.
          5    1    3    3  502    0  0.23337040559E+02  0.34649592454E+02 -0.11127593214E+03  0.11893282639E+03  0.41800000000E+01 0. -1.
         -5    1    3    3    0  502  0.48673047486E+01  0.12215270934E+03 -0.24003019575E+02  0.12465389045E+03  0.41800000000E+01 0. -1.
        -11    1    1    2    0    0  0.19010774579E+02 -0.85115014989E+02 -0.21302678157E+03  0.23018771686E+03  0.00000000000E+00 0.  1.
         11    1    1    2    0    0 -0.47215119886E+02 -0.71687286807E+02 -0.41317580046E+03  0.42199831364E+03  0.00000000000E+00 0. -1.
</event>
<event>
 7    1  0.2794945E-009  0.1783510E+03  0.7561462E-02  0.1169409E+00
         -2   -1    0    0    0  501 -0.00000000000E+00  0.00000000000E+00  0.15372033681E+03  0.15372033681E+03  0.00000000000E+00 0.  1.
          2   -1    0    0  501    0  0.00000000000E+00 -0.00000000000E+00 -0.27577505410E+03  0.27577505410E+03  0.00000000000E+00 0. -1.
         25    2    1    2    0    0 -0.13183179409E+03 -0.99429287741E+02 -0.12209233691E+03  0.24045649212E+03  0.12508789180E+03 0.  0.
          5    1    3    3  502    0 -0.12461432322E+03 -0.63751806497E+02 -0.14142756363E+03  0.19902826568E+03  0.41800000000E+01 0. -1.
         -5    1    3    3    0  502 -0.72174708740E+01 -0.35677481244E+02  0.19335226722E+02  0.41428226442E+02  0.41800000000E+01 0. -1.
        -11    1    1    2    0    0  0.98523275950E+02  0.10743209946E+03  0.23316164378E+02  0.14762159537E+03  0.00000000000E+00 0.  1.
         11    1    1    2    0    0  0.33308518145E+02 -0.80028117177E+01 -0.23278544767E+02  0.41417303423E+02  0.00000000000E+00 0. -1.
</event>
<event>
 7    1  0.2794945E-009  0.1276028E+03  0.7561462E-02  0.1231057E+00
          2   -1    0    0  501    0  0.00000000000E+00  0.00000000000E+00  0.19757728959E+04  0.19757728959E+04  0.00000000000E+00 0. -1.
         -2   -1    0    0    0  501 -0.00000000000E+00 -0.00000000000E+00 -0.10513950346E+02  0.10513950346E+02  0.00000000000E+00 0.  1.
         25    2    1    2    0    0  0.60612282152E+02 -0.59537268965E+02  0.14523823765E+04  0.14602326643E+04  0.12508529583E+03 0.  0.
          5    1    3    3  502    0  0.52161939231E+02 -0.91211528798E+02  0.78230687954E+03  0.78934272471E+03  0.41800000000E+01 0. -1.
         -5    1    3    3    0  502  0.84503429211E+01  0.31674259833E+02  0.67007549697E+03  0.67088993961E+03  0.41800000000E+01 0. -1.
        -11    1    1    2    0    0 -0.37866111657E+02  0.78650615219E+02  0.38480907930E+03  0.39458559172E+03  0.00000000000E+00 0.  1.
         11    1    1    2    0    0 -0.22746170495E+02 -0.19113346255E+02  0.12806748971E+03  0.13146859016E+03  0.00000000000E+00 0. -1.
</event>
<event>
 7    1  0.2794945E-009  0.1768836E+03  0.7561462E-02  0.1170854E+00
         -1   -1    0    0    0  501 -0.00000000000E+00  0.00000000000E+00  0.43958402974E+02  0.43958402974E+02  0.00000000000E+00 0.  1.
          1   -1    0    0  501    0  0.00000000000E+00 -0.00000000000E+00 -0.36246953089E+04  0.36246953089E+04  0.00000000000E+00 0. -1.
         25    2    1    2    0    0 -0.14526953450E+03 -0.61591027765E+02 -0.34202919006E+04  0.34262137211E+04  0.12508830839E+03 0.  0.
          5    1    3    3  502    0 -0.78671906692E+01 -0.36439512363E+02 -0.16458115868E+04  0.16462390417E+04  0.41800000000E+01 0.  1.
         -5    1    3    3    0  502 -0.13740234383E+03 -0.25151515403E+02 -0.17744803138E+04  0.17799746794E+04  0.41800000000E+01 0.  1.
        -11    1    1    2    0    0  0.98068298262E+02 -0.10486864464E+01 -0.59893008712E+02  0.11491589690E+03  0.00000000000E+00 0.  1.
         11    1    1    2    0    0  0.47201236239E+02  0.62639714212E+02 -0.10055199661E+03  0.12752409388E+03  0.00000000000E+00 0. -1.
</event>
<event>
 7    1  0.2794945E-009  0.9772495E+02  0.7561462E-02  0.1285154E+00
          1   -1    0    0  501    0  0.00000000000E+00  0.00000000000E+00  0.10850662922E+03  0.10850662922E+03  0.00000000000E+00 0. -1.
         -1   -1    0    0    0  501 -0.00000000000E+00 -0.00000000000E+00 -0.20016018327E+03  0.20016018327E+03  0.00000000000E+00 0.  1.
         25    2    1    2    0    0 -0.35722292226E+01 -0.63105763221E+02  0.29610926419E+02  0.14321167071E+03  0.12505069969E+03 0.  0.
          5    1    3    3  502    0 -0.62759891988E+01  0.22685499082E+02 -0.30195690835E+02  0.38513271142E+02  0.41800000000E+01 0. -1.
         -5    1    3    3    0  502  0.27037599761E+01 -0.85791262303E+02  0.59806617254E+02  0.10469839957E+03  0.41800000000E+01 0. -1.
        -11    1    1    2    0    0 -0.47435537877E+01  0.72732668201E+02 -0.13067748069E+03  0.14963003136E+03  0.00000000000E+00 0.  1.
         11    1    1    2    0    0  0.83157830104E+01 -0.96269049801E+01  0.94130002223E+01  0.15825110418E+02  0.00000000000E+00 0. -1.
</event>
<event>
 7    1  0.2794945E-009  0.1403978E+03  0.7561462E-02  0.1212795E+00
         -1   -1    0    0    0  501 -0.00000000000E+00  0.00000000000E+00  0.83917372569E+02  0.83917372569E+02  0.00000000000E+00 0.  1.
          1   -1    0    0  501    0  0.00000000000E+00 -0.00000000000E+00 -0.28914814638E+03  0.28914814638E+03  0.00000000000E+00 0. -1.
         25    2    1    2    0    0  0.44930837523E+02  0.97154892536E+02 -0.69857689812E+02  0.17884773114E+03  0.12509420772E+03 0.  0.
          5    1    3    3  502    0  0.82995628807E+02  0.73140053350E+02 -0.21718328255E+02  0.11281356296E+03  0.41800000000E+01 0.  1.
         -5    1    3    3    0  502 -0.38064791284E+02  0.24014839186E+02 -0.48139361557E+02  0.66034168184E+02  0.41800000000E+01 0.  1.
        -11    1    1    2    0    0 -0.57242767119E+02 -0.49515990545E+02 -0.37047490525E+02  0.84267931393E+02  0.00000000000E+00 0.  1.
         11    1    1    2    0    0  0.12311929596E+02 -0.47638901991E+02 -0.98325593472E+02  0.10994985641E+03  0.00000000000E+00 0. -1.
</event>
<event>
 7    1  0.2794945E-009  0.1065928E+03  0.7561462E-02  0.1267013E+00
          1   -1    0    0  501    0  0.00000000000E+00  0.00000000000E+00  0.27321113443E+03  0.27321113443E+03  0.00000000000E+00 0. -1.
         -1   -1    0    0    0  501 -0.00000000000E+00 -0.00000000000E+00 -0.59982801873E+02  0.59982801873E+02  0.00000000000E+00 0.  1.
         25    2    1    2    0    0  0.11617936592E+02 -0.56582229376E+02  0.70895281067E+02  0.15493493656E+03  0.12506865537E+03 0.  0.
          5    1    3    3  502    0 -0.52059013685E+02 -0.51239290643E+02  0.44756361096E+02  0.85768351215E+02  0.41800000000E+01 0. -1.
         -5    1    3    3    0  502  0.63676950277E+02 -0.53429387328E+01  0.26138919971E+02  0.69166585344E+02  0.41800000000E+01 0. -1.
        -11    1    1    2    0    0  0.94328115179E+01 -0.51596287893E+01 -0.86419340319E+01  0.13794300496E+02  0.00000000000E+00 0.  1.
         11    1    1    2    0    0 -0.21050748110E+02  0.61741858165E+02  0.15097498552E+03  0.16446469925E+03  0.00000000000E+00 0. -1.
</event>
<event>
 7    1  0.2794945E-009  0.9939407E+02  0.7561462E-02  0.1281575E+00
         -3   -1    0    0    0  501 -0.00000000000E+00  0.00000000000E+00  0.76246689353E+02  0.76246689353E+02  0.00000000000E+00 0.  1.
          3   -1    0    0  501    0  0.00000000000E+00 -0.00000000000E+00 -0.18942652370E+03  0.18942652370E+03  0.00000000000E+00 0. -1.
         25    2    1    2    0    0  0.13054171353E+02 -0.38910466835E+02 -0.10172484291E+03  0.16637571271E+03  0.12509395788E+03 0.  0.
          5    1    3    3  502    0  0.63056076760E+02 -0.17642919373E+01 -0.26315473715E+02  0.68477427663E+02  0.41800000000E+01 0.  1.
         -5    1    3    3    0  502 -0.50001905408E+02 -0.37146174898E+02 -0.75409369194E+02  0.97898285052E+02  0.41800000000E+01 0.  1.
        -11    1    1    2    0    0 -0.31733046548E+02  0.20296590354E+01 -0.38471398112E+02  0.49911463931E+02  0.00000000000E+00 0. -1.
         11    1    1    2    0    0  0.18678875196E+02  0.36880807800E+02  0.27016406673E+02  0.49386036408E+02  0.00000000000E+00 0.  1.
</event>
<event>
 7    1  0.2794945E-009  0.3392861E+03  0.7561462E-02  0.1067100E+00
          1   -1    0    0  501    0  0.00000000000E+00  0.00000000000E+00  0.67671233541E+03  0.67671233541E+03  0.00000000000E+00 0. -1.
         -1   -1    0    0    0  501 -0.00000000000E+00 -0.00000000000E+00 -0.17692374873E+03  0.17692374873E+03  0.00000000000E+00 0.  1.
         25    2    1    2    0    0 -0.32840617395E+03  0.87866161461E+01  0.23498971070E+03  0.42284244617E+03  0.12509096864E+03 0.  0.
          5    1    3    3  502    0 -0.31247257387E+03  0.30697445477E+02  0.18136760900E+03  0.36261980720E+03  0.41800000000E+01 0. -1.
         -5    1    3    3    0  502 -0.15933600080E+02 -0.21910829331E+02  0.53622101700E+02  0.60222638968E+02  0.41800000000E+01 0. -1.
        -11    1    1    2    0    0  0.12816655982E+03 -0.40514212716E+02  0.79707079427E+02  0.15627311669E+03  0.00000000000E+00 0.  1.
         11    1    1    2    0    0  0.20023961413E+03  0.31727596570E+02  0.18509179655E+03  0.27452052128E+03  0.00000000000E+00 0. -1.
</event>
<event>
 7    1  0.2794945E-009  0.1167761E+03  0.7561462E-02  0.1248512E+00
         -1   -1    0    0    0  501 -0.00000000000E+00  0.00000000000E+00  0.37247406605E+02  0.37247406605E+02  0.00000000000E+00 0.  1.
          1   -1    0    0  501    0  0.00000000000E+00 -0.00000000000E+00 -0.52411422445E+03  0.52411422445E+03  0.00000000000E+00 0. -1.
         25    2    1    2    0    0 -0.61624878516E+02 -0.41825984713E+02 -0.27976891248E+03  0.31538220407E+03  0.12509297185E+03 0.  0.
          5    1    3    3  502    0  0.36383176468E+02 -0.28842172880E+02 -0.91856318363E+02  0.10300806808E+03  0.41800000000E+01 0. -1.
         -5    1    3    3    0  502 -0.98008054984E+02 -0.12983811832E+02 -0.18791259412E+03  0.21237413600E+03  0.41800000000E+01 0. -1.
        -11    1    1    2    0    0  0.85200665997E+01  0.33084186706E+02 -0.18445265364E+03  0.18758980884E+03  0.00000000000E+00 0. -1.
         11    1    1    2    0    0  0.53104811916E+02  0.87417980065E+01 -0.22645251721E+02  0.58389618140E+02  0.00000000000E+00 0.  1.
</event>
<event>
 7    1  0.2794945E-009  0.8257869E+02  0.7561462E-02  0.1321889E+00
         -1   -1    0    0    0  501 -0.00000000000E+00  0.00000000000E+00  0.32960683175E+03  0.32960683175E+03  0.00000000000E+00 0.  1.
          1   -1    0    0  501    0  0.00000000000E+00 -0.00000000000E+00 -0.37520404674E+02  0.37520404674E+02  0.00000000000E+00 0. -1.
         25    2    1    2    0    0  0.65720067764E+01  0.39433993268E+01  0.20309120510E+03  0.23864721775E+03  0.12509082811E+03 0.  0.
          5    1    3    3  502    0  0.39615023259E+02  0.49563038920E+02  0.72926592481E+02  0.96755388407E+02  0.41800000000E+01 0. -1.
         -5    1    3    3    0  502 -0.33043016483E+02 -0.45619639593E+02  0.13016461262E+03  0.14189182934E+03  0.41800000000E+01 0. -1.
        -11    1    1    2    0    0  0.48404448686E+01 -0.22656346104E+02  0.10090801656E+03  0.10353341360E+03  0.00000000000E+00 0.  1.
         11    1    1    2    0    0 -0.11412451645E+02  0.18712946777E+02 -0.11912794592E+02  0.24946605072E+02  0.00000000000E+00 0. -1.
</event>
<event>
 7    1  0.2794945E-009  0.7686818E+02  0.7561462E-02  0.1338182E+00
         -1   -1    0    0    0  501 -0.00000000000E+00  0.00000000000E+00  0.16553889390E+03  0.16553889390E+03  0.00000000000E+00 0.  1.
          1   -1    0    0  501    0  0.00000000000E+00 -0.00000000000E+00 -0.80316496334E+02  0.80316496334E+02  0.00000000000E+00 0. -1.
         25    2    1    2    0    0 -0.16217321400E+02 -0.11921150562E+02  0.85285219993E+02  0.15272890585E+03  0.12508970616E+03 0.  0.
          5    1    3    3  502    0  0.37409163085E+02 -0.47474314544E+02  0.53572789178E+02  0.80875040429E+02  0.41800000000E+01 0.  1.
         -5    1    3    3    0  502 -0.53626484484E+02  0.35553163981E+02  0.31712430815E+02  0.71853865418E+02  0.41800000000E+01 0.  1.
        -11    1    1    2    0    0  0.70057555185E+00  0.13093035832E+02  0.44254811922E+02  0.46156329703E+02  0.00000000000E+00 0.  1.
         11    1    1    2    0    0  0.15516745848E+02 -0.11718852694E+01 -0.44317634349E+02  0.46970154684E+02  0.00000000000E+00 0. -1.
</event>
<event>
 7    1  0.2794945E-009  0.1961303E+03  0.7561462E-02  0.1153046E+00
         -2   -1    0    0    0  501 -0.00000000000E+00  0.00000000000E+00  0.24046538640E+03  0.24046538640E+03  0.00000000000E+00 0.  1.
          2   -1    0    0  501    0  0.00000000000E+00 -0.00000000000E+00 -0.17520265605E+03  0.17520265605E+03  0.00000000000E+00 0. -1.
         25    2    1    2    0    0 -0.14656781703E+03 -0.88759270353E+02  0.71241782649E+02  0.22379977103E+03  0.12510240947E+03 0.  0.
          5    1    3    3  502    0 -0.14677161076E+03 -0.40118928049E+02  0.20845046094E+02  0.15363405371E+03  0.41800000000E+01 0. -1.
         -5    1    3    3    0  502  0.20379373000E+00 -0.48640342304E+02  0.50396736555E+02  0.70165717318E+02  0.41800000000E+01 0. -1.
        -11    1    1    2    0    0  0.45505148006E+02 -0.13488838385E+02  0.47742935788E+01  0.47701793837E+02  0.00000000000E+00 0. -1.
         11    1    1    2    0    0  0.10106266902E+03  0.10224810874E+03 -0.10753345882E+02  0.14416647758E+03  0.00000000000E+00 0.  1.
</event>
<event>
 7    1  0.2794945E-009  0.1252975E+03  0.7561462E-02  0.1234605E+00
         -2   -1    0    0    0  501 -0.00000000000E+00  0.00000000000E+00  0.28468319692E+02  0.28468319692E+02  0.00000000000E+00 0.  1.
          2   -1    0    0  501    0  0.00000000000E+00 -0.00000000000E+00 -0.62605477033E+03  0.62605477033E+03  0.00000000000E+00 0. -1.
         25    2    1    2    0    0  0.75725109756E+02  0.18344592953E+02 -0.38855713026E+03  0.41556571999E+03  0.12508959915E+03 0.  0.
          5    1    3    3  502    0  0.13229491381E+02  0.66565637037E+02 -0.16593058393E+03  0.17932215301E+03  0.41800000000E+01 0. -1.
         -5    1    3    3    0  502  0.62495618375E+02 -0.48221044084E+02 -0.22262654633E+03  0.23624356698E+03  0.41800000000E+01 0. -1.
        -11    1    1    2    0    0 -0.78991711065E+02 -0.35130160877E+02 -0.11768384086E+03  0.14602501505E+03  0.00000000000E+00 0.  1.
         11    1    1    2    0    0  0.32666013097E+01  0.16785567924E+02 -0.91345479515E+02  0.92932354982E+02  0.00000000000E+00 0. -1.
</event>
<event>
 7    1  0.2794945E-009  0.8340171E+02  0.7561462E-02  0.1319666E+00
         -2   -1    0    0    0  501 -0.00000000000E+00  0.00000000000E+00  0.18385278792E+02  0.18385278792E+02  0.00000000000E+00 0.  1.
          2   -1    0    0  501    0  0.00000000000E+00 -0.00000000000E+00 -0.63628522576E+03  0.63628522576E+03  0.00000000000E+00 0. -1.
         25    2    1    2    0    0 -0.63983894744E+01 -0.33341613381E+01 -0.35313942185E+03  0.37470898555E+03  0.12508923442E+03 0.  0.
          5    1    3    3  502    0 -0.39856330787E+02  0.17529967098E+02 -0.32016264807E+03  0.32313684480E+03  0.41800000000E+01 0. -1.
         -5    1    3    3    0  502  0.33457941313E+02 -0.20864128436E+02 -0.32976773785E+02  0.51572140750E+02  0.41800000000E+01 0. -1.
        -11    1    1    2    0    0  0.40210974921E+02 -0.17327296044E+02 -0.82034168191E+02  0.92987969346E+02  0.00000000000E+00 0.  1.
         11    1    1    2    0    0 -0.33812585447E+02  0.20661457382E+02 -0.18272635693E+03  0.18697354966E+03  0.00000000000E+00 0. -1.
</event>
<event>
 7    1  0.2794945E-009  0.1000879E+03  0.7561462E-02  0.1280111E+00
         -2   -1    0    0    0  501 -0.00000000000E+00  0.00000000000E+00  0.74600190465E+02  0.74600190465E+02  0.00000000000E+00 0.  1.
          2   -1    0    0  501    0  0.00000000000E+00 -0.00000000000E+00 -0.29008426628E+03  0.29008426628E+03  0.00000000000E+00 0. -1.
         25    2    1    2    0    0  0.43953230081E+02  0.83739189064E+02 -0.15610808201E+03  0.22126990050E+03  0.12508595995E+03 0.  0.
          5    1    3    3  502    0  0.30606043205E+02  0.80571672086E+02 -0.17642771459E+03  0.19639942744E+03  0.41800000000E+01 0.  1.
         -5    1    3    3    0  502  0.13347186876E+02  0.31675169781E+01  0.20319632588E+02  0.24870473051E+02  0.41800000000E+01 0.  1.
        -11    1    1    2    0    0 -0.38556704259E+02 -0.40306631893E+02 -0.77965479199E+02  0.95863757304E+02  0.00000000000E+00 0. -1.
         11    1    1    2    0    0 -0.53965258224E+01 -0.43432557171E+02  0.18589485389E+02  0.47550798946E+02  0.00000000000E+00 0.  1.
</event>
<event>
 7    1  0.2794945E-009  0.9471627E+02  0.7561462E-02  0.1291816E+00
         -1   -1    0    0    0  501 -0.00000000000E+00  0.00000000000E+00  0.44556480438E+03  0.44556480438E+03  0.00000000000E+00 0.  1.
          1   -1    0    0  501    0  0.00000000000E+00 -0.00000000000E+00 -0.37029073533E+02  0.37029073533E+02  0.00000000000E+00 0. -1.
         25    2    1    2    0    0  0.61210100522E+02  0.20592130288E+02  0.19185107815E+03  0.23795986199E+03  0.12508935804E+03 0.  0.
          5    1    3    3  502    0  0.31908450740E+02 -0.15829609737E+02  0.18741862551E+03  0.19081912735E+03  0.41800000000E+01 0.  1.
         -5    1    3    3    0  502  0.29301649781E+02  0.36421740025E+02  0.44324526401E+01  0.47140734644E+02  0.41800000000E+01 0.  1.
        -11    1    1    2    0    0 -0.13306195715E+02  0.32505673513E+02  0.11554511390E+03  0.12076566979E+03  0.00000000000E+00 0.  1.
         11    1    1    2    0    0 -0.47903904806E+02 -0.53097803802E+02  0.10113953880E+03  0.12386834613E+03  0.00000000000E+00 0. -1.
</event>
<event>
 7    1  0.2794945E-009  0.1061804E+03  0.7561462E-02  0.1267811E+00
          1   -1    0    0  501    0  0.00000000000E+00  0.00000000000E+00  0.58056857742E+03  0.58056857742E+03  0.00000000000E+00 0. -1.
         -1   -1    0    0    0  501 -0.00000000000E+00 -0.00000000000E+00 -0.23303894149E+02  0.23303894149E+02  0.00000000000E+00 0.  1.
         25    2    1    2    0    0 -0.43800794162E+02  0.22343409750E+02  0.43062315654E+03  0.45111176413E+03  0.12509109982E+03 0.  0.
          5    1    3    3  502    0 -0.87197695943E+02  0.21347654813E+02  0.26405218031E+03  0.27892684860E+03  0.41800000000E+01 0. -1.
         -5    1    3    3    0  502  0.43396901781E+02  0.99575493651E+00  0.16657097623E+03  0.17218491552E+03  0.41800000000E+01 0. -1.
        -11    1    1    2    0    0  0.46557943987E+02 -0.39774123295E+02  0.67935548551E+02  0.91459618352E+02  0.00000000000E+00 0.  1.
         11    1    1    2    0    0 -0.27571498245E+01  0.17430713545E+02  0.58705978183E+02  0.61301089096E+02  0.00000000000E+00 0. -1.
</event>
<event>
 7    1  0.2794945E-009  0.2157142E+03  0.7561462E-02  0.1137119E+00
         -1   -1    0    0    0  501 -0.00000000000E+00  0.00000000000E+00  0.18453190981E+03  0.18453190981E+03  0.00000000000E+00 0.  1.
          1   -1    0    0  501    0  0.00000000000E+00 -0.00000000000E+00 -0.39063778565E+03  0.39063778565E+03  0.00000000000E+00 0. -1.
         25    2    1    2    0    0  0.14711214698E+03 -0.14252666509E+03 -0.25046115086E+03  0.34689275416E+03  0.12509180930E+03 0.  0.
          5    1    3    3  502    0  0.11990361531E+03 -0.96749480891E+02 -0.24974111832E+03  0.29347135737E+03  0.41800000000E+01 0. -1.
         -5    1    3    3    0  502  0.27208531671E+02 -0.45777184197E+02 -0.72003253603E+00  0.53421396795E+02  0.41800000000E+01 0. -1.
        -11    1    1    2    0    0 -0.74618460636E+02  0.13415333206E+02  0.12973562015E+02  0.76916832645E+02  0.00000000000E+00 0.  1.
         11    1    1    2    0    0 -0.72493686341E+02  0.12911133188E+03  0.31381713003E+02  0.15136010865E+03  0.00000000000E+00 0. -1.
</event>
<event>
 7    1  0.2794945E-009  0.1862318E+03  0.7561462E-02  0.1161905E+00
         -2   -1    0    0    0  501 -0.00000000000E+00  0.00000000000E+00  0.39648505562E+02  0.39648505562E+02  0.00000000000E+00 0.  1.
          2   -1    0    0  501    0  0.00000000000E+00 -0.00000000000E+00 -0.18305640595E+04  0.18305640595E+04  0.00000000000E+00 0. -1.
         25    2    1    2    0    0 -0.14582263687E+03 -0.11206820793E+03 -0.14868933896E+04  0.15034370933E+04  0.12509043401E+03 0.  0.
          5    1    3    3  502    0 -0.71412607562E+02 -0.57618554421E+02 -0.11637832394E+04  0.11674024838E+04  0.41800000000E+01 0. -1.
         -5    1    3    3    0  502 -0.74410029309E+02 -0.54449653510E+02 -0.32311015021E+03  0.33603460952E+03  0.41800000000E+01 0. -1.
        -11    1    1    2    0    0  0.12318273636E+03  0.73089727202E+02 -0.15483187952E+03  0.21092417044E+03  0.00000000000E+00 0.  1.
         11    1    1    2    0    0  0.22639900511E+02  0.38978480729E+02 -0.14919028480E+03  0.15585130135E+03  0.00000000000E+00 0. -1.
</event>
<event>
 7    1  0.2794945E-009  0.2304617E+03  0.7561462E-02  0.1126315E+00
         -2   -1    0    0    0  501 -0.00000000000E+00  0.00000000000E+00  0.81017794365E+02  0.81017794365E+02  0.00000000000E+00 0. -1.
          2   -1    0    0  501    0  0.00000000000E+00 -0.00000000000E+00 -0.81882136870E+03  0.81882136870E+03  0.00000000000E+00 0.  1.
         25    2    1    2    0    0 -0.60627524722E+02  0.21973986381E+03 -0.32849519718E+03  0.41894991646E+03  0.12509449799E+03 0.  0.
          5    1    3    3  502    0 -0.97797151671E+01  0.70365408637E+02 -0.22493218138E+02  0.74634782934E+02  0.41800000000E+01 0. -1.
         -5    1    3    3    0  502 -0.50847809555E+02  0.14937445517E+03 -0.30600197904E+03  0.34431513352E+03  0.41800000000E+01 0. -1.
        -11    1    1    2    0    0  0.65021807712E+02 -0.17052303988E+03 -0.38446880969E+03  0.42558454886E+03  0.00000000000E+00 0. -1.
         11    1    1    2    0    0 -0.43942829902E+01 -0.49216823933E+02 -0.24839567464E+02  0.55304697746E+02  0.00000000000E+00 0.  1.
</event>
<event>
 7    1  0.2794945E-009  0.9050802E+02  0.7561462E-02  0.1301626E+00
         -1   -1    0    0    0  501 -0.00000000000E+00  0.00000000000E+00  0.36148065643E+02  0.36148065643E+02  0.00000000000E+00 0.  1.
          1   -1    0    0  501    0  0.00000000000E+00 -0.00000000000E+00 -0.38097234174E+03  0.38097234174E+03  0.00000000000E+00 0. -1.
         25    2    1    2    0    0 -0.33770377343E+02 -0.31708175690E+02 -0.22028561106E+03  0.25752589302E+03  0.12509191958E+03 0.  0.
          5    1    3    3  502    0  0.17493802851E+02 -0.55726398680E+02 -0.46713945067E+02  0.74907474338E+02  0.41800000000E+01 0.  1.
         -5    1    3    3    0  502 -0.51264180195E+02  0.24018222990E+02 -0.17357166599E+03  0.18261841868E+03  0.41800000000E+01 0.  1.
        -11    1    1    2    0    0  0.27884912583E+01  0.34475243214E+02 -0.36635125159E+01  0.34781308229E+02  0.00000000000E+00 0.  1.
         11    1    1    2    0    0  0.30981886085E+02 -0.27670675243E+01 -0.12087515252E+03  0.12481320613E+03  0.00000000000E+00 0. -1.
</event>
<event>
 6    1  0.2794945E-009  0.1653788E+03  0.7561462E-02  0.1182754E+00
          2   -1    0    0  501    0  0.00000000000E+00  0.00000000000E+00  0.45060023181E+03  0.45060023181E+03  0.00000000000E+00 0. -1.
         -2   -1    0    0    0  501 -0.00000000000E+00 -0.00000000000E+00 -0.66730768973E+02  0.66730768973E+02  0.00000000000E+00 0.  1.
          5    1    1    2  502    0 -0.41525281329E+02 -0.53546386082E+02  0.12058908783E+03  0.13838628890E+03  0.41800000000E+01 0.  1.
         -5    1    1    2    0  502  0.78124872377E+02 -0.81985786578E+02  0.95739303168E+02  0.14835313093E+03  0.41800000000E+01 0.  1.
        -11    1    1    2    0    0  0.84991457488E+00  0.92470067951E+02  0.64314251187E+02  0.11263995174E+03  0.00000000000E+00 0.  1.
         11    1    1    2    0    0 -0.37449505623E+02  0.43062104709E+02  0.10322682065E+03  0.11795162921E+03  0.00000000000E+00 0. -1.
</event>
<event>
 7    1  0.2794945E-009  0.2311619E+03  0.7561462E-02  0.1125825E+00
          1   -1    0    0  501    0  0.00000000000E+00  0.00000000000E+00  0.17545240970E+03  0.17545240970E+03  0.00000000000E+00 0. -1.
         -1   -1    0    0    0  501 -0.00000000000E+00 -0.00000000000E+00 -0.35437693993E+03  0.35437693993E+03  0.00000000000E+00 0.  1.
         25    2    1    2    0    0 -0.99896235418E+02 -0.18934547242E+03 -0.22974697382E+02  0.24901020734E+03  0.12508909170E+03 0.  0.
          5    1    3    3  502    0 -0.80527731144E+02 -0.20457393714E+03 -0.83410863285E+01  0.22005057909E+03  0.41800000000E+01 0.  1.
         -5    1    3    3    0  502 -0.19368504274E+02  0.15228464718E+02 -0.14633611054E+02  0.28959628242E+02  0.41800000000E+01 0.  1.
        -11    1    1    2    0    0  0.86953818521E+02  0.12797625439E+03 -0.15365695854E+03  0.21805813250E+03  0.00000000000E+00 0.  1.
         11    1    1    2    0    0  0.12942416897E+02  0.61369218032E+02 -0.22928743050E+01  0.62761009788E+02  0.00000000000E+00 0. -1.
</event>
<event>
 7    1  0.2794945E-009  0.3166782E+03  0.7561462E-02  0.1077188E+00
          2   -1    0    0  501    0  0.00000000000E+00  0.00000000000E+00  0.12300179522E+04  0.12300179522E+04  0.00000000000E+00 0.  1.
         -2   -1    0    0    0  501 -0.00000000000E+00 -0.00000000000E+00 -0.60697996200E+03  0.60697996200E+03  0.00000000000E+00 0. -1.
         25    2    1    2    0    0  0.67877254923E+02  0.28918106799E+03  0.11667928063E+04  0.12104899731E+04  0.12509000823E+03 0.  0.
          5    1    3    3  502    0  0.98336619640E+02  0.14756517059E+03  0.63697290024E+03  0.66120913362E+03  0.41800000000E+01 0.  1.
         -5    1    3    3    0  502 -0.30459364717E+02  0.14161589740E+03  0.52981990608E+03  0.54928083944E+03  0.41800000000E+01 0.  1.
        -11    1    1    2    0    0 -0.86190948059E+02 -0.17123356805E+03 -0.34394825947E+03  0.39376416742E+03  0.00000000000E+00 0.  1.
         11    1    1    2    0    0  0.18313693135E+02 -0.11794749994E+03 -0.19980655668E+03  0.23274377369E+03  0.00000000000E+00 0. -1.
</event>
<event>
 7    1  0.2794945E-009  0.1334987E+03  0.7561462E-02  0.1222355E+00
         -2   -1    0    0    0  501 -0.00000000000E+00  0.00000000000E+00  0.52334752237E+03  0.52334752237E+03  0.00000000000E+00 0.  1.
          2   -1    0    0  501    0  0.00000000000E+00 -0.00000000000E+00 -0.41907476884E+02  0.41907476884E+02  0.00000000000E+00 0. -1.
         25    2    1    2    0    0 -0.93896732578E+02  0.17734182706E+02  0.20499942355E+03  0.25846515121E+03  0.12509345749E+03 0.  0.
          5    1    3    3  502    0 -0.11711035382E+03 -0.11257467295E+02  0.13505671535E+03  0.17916292670E+03  0.41800000000E+01 0.  1.
         -5    1    3    3    0  502  0.23213621244E+02  0.28991650001E+02  0.69942708200E+02  0.79302224505E+02  0.41800000000E+01 0.  1.
        -11    1    1    2    0    0  0.25505504624E+02  0.21231224366E+02  0.20472280281E+02  0.38992434062E+02  0.00000000000E+00 0.  1.
         11    1    1    2    0    0  0.68391227954E+02 -0.38965407072E+02  0.25596834165E+03  0.26779741399E+03  0.00000000000E+00 0. -1.
</event>
<event>
 7    1  0.2794945E-009  0.1492928E+03  0.7561462E-02  0.1201345E+00
          2   -1    0    0  501    0  0.00000000000E+00  0.00000000000E+00  0.83974514757E+03  0.83974514757E+03  0.00000000000E+00 0. -1.
         -2   -1    0    0    0  501 -0.00000000000E+00 -0.00000000000E+00 -0.28166774113E+02  0.28166774113E+02  0.00000000000E+00 0.  1.
         25    2    1    2    0    0  0.17529582545E+02 -0.99363289272E+02  0.50077001597E+03  0.52592637743E+03  0.12509035158E+03 0.  0.
          5    1    3    3  502    0  0.20961773380E+02 -0.12786295927E+03  0.43791283684E+03  0.45669843154E+03  0.41800000000E+01 0. -1.
         -5    1    3    3    0  502 -0.34321908344E+01  0.28499670000E+02  0.62857179132E+02  0.69227945893E+02  0.41800000000E+01 0. -1.
        -11    1    1    2    0    0  0.38743579463E+02  0.22911995726E+02  0.13320290349E+03  0.14060241106E+03  0.00000000000E+00 0.  1.
         11    1    1    2    0    0 -0.56273162009E+02  0.76451293545E+02  0.17760545399E+03  0.20138313319E+03  0.00000000000E+00 0. -1.
</event>
<event>
 7    1  0.2794945E-009  0.4014987E+03  0.7561462E-02  0.1043262E+00
          1   -1    0    0  501    0  0.00000000000E+00  0.00000000000E+00  0.16932533903E+04  0.16932533903E+04  0.00000000000E+00 0. -1.
         -1   -1    0    0    0  501 -0.00000000000E+00 -0.00000000000E+00 -0.10710838695E+03  0.10710838695E+03  0.00000000000E+00 0.  1.
         25    2    1    2    0    0 -0.56610770828E+02 -0.39305401996E+03  0.57334955719E+03  0.70857153616E+03  0.12509062771E+03 0.  0.
          5    1    3    3  502    0 -0.17216756714E+02 -0.18660199437E+03  0.37648626542E+03  0.42056640553E+03  0.41800000000E+01 0.  1.
         -5    1    3    3    0  502 -0.39394014114E+02 -0.20645202559E+03  0.19686329177E+03  0.28800513062E+03  0.41800000000E+01 0.  1.
        -11    1    1    2    0    0 -0.18955728913E+02  0.13890976226E+03  0.29582255670E+03  0.32736253109E+03  0.00000000000E+00 0.  1.
         11    1    1    2    0    0  0.75566499741E+02  0.25414425770E+03  0.71697288942E+03  0.76442770997E+03  0.00000000000E+00 0. -1.
</event>
<event>
 7    1  0.2794945E-009  0.1666979E+03  0.7561462E-02  0.1181336E+00
         -1   -1    0    0    0  501 -0.00000000000E+00  0.00000000000E+00  0.13459205179E+03  0.13459205179E+03  0.00000000000E+00 0.  1.
          1   -1    0    0  501    0  0.00000000000E+00 -0.00000000000E+00 -0.23505985273E+03  0.23505985273E+03  0.00000000000E+00 0. -1.
         25    2    1    2    0    0 -0.13585054990E+03 -0.30820067669E+02 -0.73094996111E+02  0.20098519696E+03  0.12508765912E+03 0.  0.
          5    1    3    3  502    0 -0.11313670899E+03 -0.61990712902E+02 -0.13367894293E+02  0.12976492749E+03  0.41800000000E+01 0. -1.
         -5    1    3    3    0  502 -0.22713840903E+02  0.31170645233E+02 -0.59727101818E+02  0.71220269477E+02  0.41800000000E+01 0. -1.
        -11    1    1    2    0    0 -0.42770353560E+01  0.24910229516E+02  0.20632989389E+01  0.25358820330E+02  0.00000000000E+00 0.  1.
         11    1    1    2    0    0  0.14012758525E+03  0.59098381522E+01 -0.29436103769E+02  0.14330788722E+03  0.00000000000E+00 0. -1.
</event>
<event>
 7    1  0.2794945E-009  0.1695021E+03  0.7561462E-02  0.1178368E+00
          1   -1    0    0  501    0  0.00000000000E+00  0.00000000000E+00  0.45505712080E+03  0.45505712080E+03  0.00000000000E+00 0. -1.
         -1   -1    0    0    0  501 -0.00000000000E+00 -0.00000000000E+00 -0.10782399318E+03  0.10782399318E+03  0.00000000000E+00 0.  1.
         25    2    1    2    0    0  0.14493118244E+03 -0.23410009099E+02  0.33500411721E+03  0.38655251035E+03  0.12506801567E+03 0.  0.
          5    1    3    3  502    0 -0.14105196464E+02  0.10724030944E+01  0.10375355976E+03  0.10479685195E+03  0.41800000000E+01 0.  1.
         -5    1    3    3    0  502  0.15903637891E+03 -0.24482412194E+02  0.23125055744E+03  0.28175565840E+03  0.41800000000E+01 0.  1.
        -11    1    1    2    0    0 -0.67802286355E+02  0.47155649497E+02 -0.26607681424E+02  0.86768508257E+02  0.00000000000E+00 0. -1.
         11    1    1    2    0    0 -0.77128896090E+02 -0.23745640398E+02  0.38836691833E+02  0.89560095369E+02  0.00000000000E+00 0.  1.
</event>
<event>
 7    1  0.2794945E-009  0.1217278E+03  0.7561462E-02  0.1240274E+00
          2   -1    0    0  501    0  0.00000000000E+00  0.00000000000E+00  0.68181298787E+03  0.68181298787E+03  0.00000000000E+00 0. -1.
         -2   -1    0    0    0  501 -0.00000000000E+00 -0.00000000000E+00 -0.26624332088E+02  0.26624332088E+02  0.00000000000E+00 0.  1.
         25    2    1    2    0    0 -0.55812628684E+02 -0.30147271185E+02  0.49545991638E+03  0.51492965269E+03  0.12509240987E+03 0.  0.
          5    1    3    3  502    0  0.31111732173E+02  0.20557111585E+02  0.98894309280E+02  0.10577377522E+03  0.41800000000E+01 0. -1.
         -5    1    3    3    0  502 -0.86924360857E+02 -0.50704382770E+02  0.39656560710E+03  0.40915587748E+03  0.41800000000E+01 0. -1.
        -11    1    1    2    0    0 -0.18740043097E+02  0.23940591711E+02  0.24830995958E+02  0.39254547597E+02  0.00000000000E+00 0.  1.
         11    1    1    2    0    0  0.74552671781E+02  0.62066794737E+01  0.13489774345E+03  0.15425311967E+03  0.00000000000E+00 0. -1.
</event>
<event>
 7    1  0.2794945E-009  0.1048883E+03  0.7561462E-02  0.1270340E+00
          2   -1    0    0  501    0  0.00000000000E+00  0.00000000000E+00  0.12422308211E+04  0.12422308211E+04  0.00000000000E+00 0. -1.
         -2   -1    0    0    0  501 -0.00000000000E+00 -0.00000000000E+00 -0.19542232744E+02  0.19542232744E+02  0.00000000000E+00 0.  1.
         25    2    1    2    0    0 -0.28167613716E+02 -0.70974177385E+02  0.98388083101E+03  0.99473887255E+03  0.12511269569E+03 0.  0.
          5    1    3    3  502    0  0.84372263003E+01  0.97896573618E+00  0.68654507010E+03  0.68661033406E+03  0.41800000000E+01 0. -1.
         -5    1    3    3    0  502 -0.36604840017E+02 -0.71953143121E+02  0.29733576090E+03  0.30812853849E+03  0.41800000000E+01 0. -1.
        -11    1    1    2    0    0  0.54830556848E+01 -0.22565329289E+02  0.48286311568E+02  0.53580088376E+02  0.00000000000E+00 0.  1.
         11    1    1    2    0    0  0.22684558031E+02  0.93539506674E+02  0.19052144582E+03  0.21345409296E+03  0.00000000000E+00 0. -1.
</event>
<event>
 7    1  0.2794945E-009  0.9059133E+02  0.7561462E-02  0.1301426E+00
         -2   -1    0    0    0  501 -0.00000000000E+00  0.00000000000E+00  0.22934076599E+02  0.22934076599E+02  0.00000000000E+00 0.  1.
          2   -1    0    0  501    0  0.00000000000E+00 -0.00000000000E+00 -0.57549402786E+03  0.57549402786E+03  0.00000000000E+00 0. -1.
         25    2    1    2    0    0  0.21463505080E+02  0.32084203804E+02 -0.34156846040E+03  0.36579729043E+03  0.12509422994E+03 0.  0.
          5    1    3    3  502    0  0.10458947277E+02 -0.23821988704E+02 -0.82410615099E+01  0.27609132887E+02  0.41800000000E+01 0.  1.
         -5    1    3    3    0  502  0.11004557804E+02  0.55906192508E+02 -0.33332739889E+03  0.33818815755E+03  0.41800000000E+01 0.  1.
        -11    1    1    2    0    0 -0.56174592408E+02 -0.27949450077E+02 -0.12693472445E+03  0.14159513008E+03  0.00000000000E+00 0.  1.
         11    1    1    2    0    0  0.34711087328E+02 -0.41347537272E+01 -0.84056766407E+02  0.91035683942E+02  0.00000000000E+00 0. -1.
</event>
<event>
 7    1  0.2794945E-009  0.1253112E+03  0.7561462E-02  0.1234584E+00
         -2   -1    0    0    0  501 -0.00000000000E+00  0.00000000000E+00  0.16972295271E+02  0.16972295271E+02  0.00000000000E+00 0.  1.
          2   -1    0    0  501    0  0.00000000000E+00 -0.00000000000E+00 -0.98770761247E+03  0.98770761247E+03  0.00000000000E+00 0. -1.
         25    2    1    2    0    0 -0.66221435582E+02 -0.14393219805E+01 -0.43035643164E+03  0.45303732802E+03  0.12509521231E+03 0.  0.
          5    1    3    3  502    0 -0.98630144307E+02 -0.22005861015E+02 -0.34130649580E+03  0.35597718995E+03  0.41800000000E+01 0. -1.
         -5    1    3    3    0  502  0.32408708725E+02  0.20566539035E+02 -0.89049935841E+02  0.97060138071E+02  0.41800000000E+01 0. -1.
        -11    1    1    2    0    0  0.45745981170E+02  0.44105509077E+02 -0.31665788394E+03  0.32297090610E+03  0.00000000000E+00 0. -1.
         11    1    1    2    0    0  0.20475454412E+02 -0.42666187097E+02 -0.22372100161E+03  0.22867167362E+03  0.00000000000E+00 0.  1.
</event>
<event>
 7    1  0.2794945E-009  0.8960019E+02  0.7561462E-02  0.1303823E+00
         -1   -1    0    0    0  501 -0.00000000000E+00  0.00000000000E+00  0.50821325064E+02  0.50821325064E+02  0.00000000000E+00 0.  1.
          1   -1    0    0  501    0  0.00000000000E+00 -0.00000000000E+00 -0.45718246813E+03  0.45718246813E+03  0.00000000000E+00 0. -1.
         25    2    1    2    0    0 -0.28401264547E+02 -0.56319566896E+02 -0.77859531798E+02  0.16027446066E+03  0.12508905070E+03 0.  0.
          5    1    3    3  502    0  0.46564746967E+01  0.27458014118E+01  0.31150653491E+02  0.31891343573E+02  0.41800000000E+01 0.  1.
         -5    1    3    3    0  502 -0.33057739244E+02 -0.59065368308E+02 -0.10901018529E+03  0.12838311709E+03  0.41800000000E+01 0.  1.
        -11    1    1    2    0    0 -0.28538948803E+02  0.31296876347E+02 -0.69708883379E+02  0.81567729463E+02  0.00000000000E+00 0.  1.
         11    1    1    2    0    0  0.56940213350E+02  0.25022690549E+02 -0.25879272789E+03  0.26616160307E+03  0.00000000000E+00 0. -1.
</event>
<event>
 7    1  0.2794945E-009  0.1077601E+03  0.7561462E-02  0.1264775E+00
         -1   -1    0    0    0  501 -0.00000000000E+00  0.00000000000E+00  0.81165765077E+03  0.81165765077E+03  0.00000000000E+00 0.  1.
          1   -1    0    0  501    0  0.00000000000E+00 -0.00000000000E+00 -0.16203917689E+02  0.16203917689E+02  0.00000000000E+00 0. -1.
         25    2    1    2    0    0  0.23398455078E+02 -0.34596740268E+02  0.48556332230E+03  0.50315021996E+03  0.12507590391E+03 0.  0.
          5    1    3    3  502    0 -0.40291237990E+02  0.15146803224E+02  0.25862874418E+03  0.26221958207E+03  0.41800000000E+01 0.  1.
         -5    1    3    3    0  502  0.63689693068E+02 -0.49743543493E+02  0.22693457813E+03  0.24093063789E+03  0.41800000000E+01 0.  1.
        -11    1    1    2    0    0 -0.41495906796E+02 -0.10462268554E+02  0.20068554594E+03  0.20519760646E+03  0.00000000000E+00 0.  1.
         11    1    1    2    0    0  0.18097451718E+02  0.45059008822E+02  0.10920486483E+03  0.11951374204E+03  0.00000000000E+00 0. -1.
</event>
<event>
 7    1  0.2794945E-009  0.1431527E+03  0.7561462E-02  0.1209149E+00
         -1   -1    0    0    0  501 -0.00000000000E+00  0.00000000000E+00  0.70969737555E+03  0.70969737555E+03  0.00000000000E+00 0.  1.
          1   -1    0    0  501    0  0.00000000000E+00 -0.00000000000E+00 -0.35979689877E+02  0.35979689877E+02  0.00000000000E+00 0. -1.
         25    2    1    2    0    0 -0.21383256267E+02 -0.96495632322E+02  0.51096031492E+03  0.53526078980E+03  0.12512001829E+03 0.  0.
          5    1    3    3  502    0  0.54391921911E+01 -0.12170207973E+03  0.40908236580E+03  0.42685692618E+03  0.41800000000E+01 0. -1.
         -5    1    3    3    0  502 -0.26822448458E+02  0.25206447404E+02  0.10187794912E+03  0.10840386362E+03  0.41800000000E+01 0. -1.
        -11    1    1    2    0    0 -0.25680159652E+02  0.67174925261E+02  0.12192519181E+03  0.14155456044E+03  0.00000000000E+00 0.  1.
         11    1    1    2    0    0  0.47063415919E+02  0.29320707061E+02  0.40832178949E+02  0.68861715185E+02  0.00000000000E+00 0. -1.
</event>
<event>
 7    1  0.2794945E-009  0.9738525E+02  0.7561462E-02  0.1285893E+00
         -2   -1    0    0    0  501 -0.00000000000E+00  0.00000000000E+00  0.67567860211E+02  0.67567860211E+02  0.00000000000E+00 0.  1.
          2   -1    0    0  501    0  0.00000000000E+00 -0.00000000000E+00 -0.29971301344E+03  0.29971301344E+03  0.00000000000E+00 0. -1.
         25    2    1    2    0    0  0.23565449596E+02 -0.86035941958E+02 -0.10411986126E+03  0.18559444215E+03  0.12508732040E+03 0.  0.
          5    1    3    3  502    0  0.21383604184E+02 -0.72737045629E+01  0.25203739018E+02  0.34100823545E+02  0.41800000000E+01 0. -1.
         -5    1    3    3    0  502  0.21818454126E+01 -0.78762237395E+02 -0.12932360028E+03  0.15149361860E+03  0.41800000000E+01 0. -1.
        -11    1    1    2    0    0  0.19299339366E+01  0.41763704325E+02 -0.12351519447E+03  0.13039913692E+03  0.00000000000E+00 0. -1.
         11    1    1    2    0    0 -0.25495383533E+02  0.44272237633E+02 -0.45100975030E+01  0.51287294587E+02  0.00000000000E+00 0.  1.
</event>
<event>
 7    1  0.2794945E-009  0.1161899E+03  0.7561462E-02  0.1249518E+00
          1   -1    0    0  501    0  0.00000000000E+00  0.00000000000E+00  0.61271954469E+02  0.61271954469E+02  0.00000000000E+00 0. -1.
         -1   -1    0    0    0  501 -0.00000000000E+00 -0.00000000000E+00 -0.68487129776E+03  0.68487129776E+03  0.00000000000E+00 0.  1.
         25    2    1    2    0    0 -0.47604713711E+02 -0.57161173971E+02 -0.60933765079E+03  0.62647720703E+03  0.12509080576E+03 0.  0.
          5    1    3    3  502    0 -0.72773050945E+01  0.36818597436E+02 -0.98585216806E+02  0.10557028777E+03  0.41800000000E+01 0.  1.
         -5    1    3    3    0  502 -0.40327408617E+02 -0.93979771407E+02 -0.51075243398E+03  0.52090691926E+03  0.41800000000E+01 0.  1.
        -11    1    1    2    0    0  0.47109924430E+02  0.14063751556E+02 -0.45062309615E+02  0.66691422503E+02  0.00000000000E+00 0.  1.
         11    1    1    2    0    0  0.49478928126E+00  0.43097422415E+02  0.30800617111E+02  0.52974622695E+02  0.00000000000E+00 0. -1.
</event>
<event>
 7    1  0.2794945E-009  0.9135112E+02  0.7561462E-02  0.1299612E+00
          1   -1    0    0  501    0  0.00000000000E+00  0.00000000000E+00  0.13021794185E+04  0.13021794185E+04  0.00000000000E+00 0. -1.
         -1   -1    0    0    0  501 -0.00000000000E+00 -0.00000000000E+00 -0.11553643664E+02  0.11553643664E+02  0.00000000000E+00 0.  1.
         25    2    1    2    0    0 -0.15845446225E+02  0.10960492019E+02  0.10158601752E+04  0.10237150234E+04  0.12509733380E+03 0.  0.
          5    1    3    3  502    0 -0.52320636362E+02  0.20913133143E+02  0.89996713551E+03  0.90173894533E+03  0.41800000000E+01 0.  1.
         -5    1    3    3    0  502  0.36475190137E+02 -0.99526411243E+01  0.11589303973E+03  0.12197607806E+03  0.41800000000E+01 0.  1.
        -11    1    1    2    0    0  0.50983248293E+02 -0.14066427171E+02  0.11764594440E+03  0.12898730253E+03  0.00000000000E+00 0.  1.
         11    1    1    2    0    0 -0.35137802068E+02  0.31059351518E+01  0.15711965522E+03  0.16103073627E+03  0.00000000000E+00 0. -1.
</event>
<event>
 7    1  0.2794945E-009  0.1190384E+03  0.7561462E-02  0.1244692E+00
          1   -1    0    0  501    0  0.00000000000E+00  0.00000000000E+00  0.57257015379E+02  0.57257015379E+02  0.00000000000E+00 0. -1.
         -1   -1    0    0    0  501 -0.00000000000E+00 -0.00000000000E+00 -0.25869435658E+03  0.25869435658E+03  0.00000000000E+00 0.  1.
         25    2    1    2    0    0  0.38603739978E+02 -0.21236440060E+02 -0.82082964720E+02  0.15597619582E+03  0.12509886266E+03 0.  0.
          5    1    3    3  502    0  0.31921023519E+02 -0.72851567864E+02 -0.57689182038E+02  0.98345395454E+02  0.41800000000E+01 0. -1.
         -5    1    3    3    0  502  0.66827164590E+01  0.51615127804E+02 -0.24393782682E+02  0.57630800368E+02  0.41800000000E+01 0. -1.
        -11    1    1    2    0    0  0.36933925415E+01  0.53119499127E+02 -0.65881605032E+02  0.84709552103E+02  0.00000000000E+00 0.  1.
         11    1    1    2    0    0 -0.42297132519E+02 -0.31883059066E+02 -0.53472771445E+02  0.75265624031E+02  0.00000000000E+00 0. -1.
</event>
<event>
 7    1  0.2794945E-009  0.2075764E+03  0.7561462E-02  0.1143500E+00
         -1   -1    0    0    0  501 -0.00000000000E+00  0.00000000000E+00  0.42631484776E+03  0.42631484776E+03  0.00000000000E+00 0.  1.
          1   -1    0    0  501    0  0.00000000000E+00 -0.00000000000E+00 -0.10333761358E+03  0.10333761358E+03  0.00000000000E+00 0. -1.
         25    2    1    2    0    0 -0.27739624408E+02  0.17683776923E+03  0.15914754673E+03  0.27021543824E+03  0.12508940020E+03 0.  0.
          5    1    3    3  502    0  0.46801918747E+02  0.59531932181E+02  0.79926314024E+02  0.11018238798E+03  0.41800000000E+01 0. -1.
         -5    1    3    3    0  502 -0.74541543155E+02  0.11730583705E+03  0.79221232704E+02  0.16003305025E+03  0.41800000000E+01 0. -1.
        -11    1    1    2    0    0 -0.33093743758E+02 -0.65730950053E+02  0.72238646669E+02  0.10312213993E+03  0.00000000000E+00 0.  1.
         11    1    1    2    0    0  0.60833368166E+02 -0.11110681918E+03  0.91591040776E+02  0.15631488317E+03  0.00000000000E+00 0. -1.
</event>
<event>
 7    1  0.3327428E-009  0.1342049E+03  0.7561462E-02  0.1221346E+00
          1   -1    0    0  501    0  0.00000000000E+00  0.00000000000E+00  0.90287405697E+03  0.90287405697E+03  0.00000000000E+00 0. -1.
         -1   -1    0    0    0  501 -0.00000000000E+00 -0.00000000000E+00 -0.28535782008E+02  0.28535782008E+02  0.00000000000E+00 0.  1.
         25    2    1    2    0    0 -0.71086514887E+02  0.79385391860E+02  0.32060945599E+03  0.36026828253E+03  0.12508988401E+03 0.  0.
          5    1    3    3  502    0 -0.43496102796E+02 -0.87203360007E+01  0.21657819060E+03  0.22111431492E+03  0.41800000000E+01 0. -1.
         -5    1    3    3    0  502 -0.27590412091E+02  0.88105727861E+02  0.10403126539E+03  0.13915396760E+03  0.41800000000E+01 0. -1.
        -11    1    1    2    0    0  0.77156342769E+00 -0.57904328686E+02  0.15034552037E+03  0.16111263788E+03  0.00000000000E+00 0.  1.
         11    1    1    2    0    0  0.70314951459E+02 -0.21481063174E+02  0.40338329860E+03  0.41002891857E+03  0.00000000000E+00 0. -1.
</event>
<event>
 7    1  0.2794945E-009  0.1343006E+03  0.7561462E-02  0.1221210E+00
          1   -1    0    0  501    0  0.00000000000E+00  0.00000000000E+00  0.14359451000E+03  0.14359451000E+03  0.00000000000E+00 0. -1.
         -1   -1    0    0    0  501 -0.00000000000E+00 -0.00000000000E+00 -0.14752338598E+03  0.14752338598E+03  0.00000000000E+00 0.  1.
         25    2    1    2    0    0 -0.16061638949E+02  0.72075550646E+02  0.51968766987E+02  0.15428689654E+03  0.12510328715E+03 0.  0.
          5    1    3    3  502    0  0.17278494262E+02 -0.31142875215E+02  0.57950565166E+01  0.36324648941E+02  0.41800000000E+01 0.  1.
         -5    1    3    3    0  502 -0.33340133212E+02  0.10321842586E+03  0.46173710471E+02  0.11796224760E+03  0.41800000000E+01 0.  1.
        -11    1    1    2    0    0 -0.38858450896E+02 -0.77733240482E+01 -0.11196723396E+02  0.41179732729E+02  0.00000000000E+00 0.  1.
         11    1    1    2    0    0  0.54920089845E+02 -0.64302226598E+02 -0.44700919565E+02  0.95651266714E+02  0.00000000000E+00 0. -1.
</event>
<event>
 7    1  0.2794945E-009  0.9631661E+02  0.7561462E-02  0.1288238E+00
          2   -1    0    0  501    0  0.00000000000E+00  0.00000000000E+00  0.46401270831E+02  0.46401270831E+02  0.00000000000E+00 0. -1.
         -2   -1    0    0    0  501 -0.00000000000E+00 -0.00000000000E+00 -0.26906081336E+03  0.26906081336E+03  0.00000000000E+00 0.  1.
         25    2    1    2    0    0  0.23174755491E+02 -0.46212940565E+01 -0.10983261560E+03  0.16813311015E+03  0.12508842324E+03 0.  0.
          5    1    3    3  502    0 -0.89262476268E+00 -0.50698024037E+02 -0.10384524210E+03  0.11563906402E+03  0.41800000000E+01 0. -1.
         -5    1    3    3    0  502  0.24067380254E+02  0.46076729980E+02 -0.59873735039E+01  0.52494046133E+02  0.41800000000E+01 0. -1.
        -11    1    1    2    0    0 -0.32335809193E+02  0.40927329505E+02 -0.41063176567E+02  0.66383999024E+02  0.00000000000E+00 0.  1.
         11    1    1    2    0    0  0.91610537018E+01 -0.36306035449E+02 -0.71763750363E+02  0.80944975021E+02  0.00000000000E+00 0. -1.
</event>
<event>
 7    1  0.3191243E-009  0.1454083E+03  0.7561462E-02  0.1206231E+00
          3   -1    0    0  501    0  0.00000000000E+00  0.00000000000E+00  0.18168779714E+04  0.18168779714E+04  0.00000000000E+00 0. -1.
         -3   -1    0    0    0  501 -0.00000000000E+00 -0.00000000000E+00 -0.15407408548E+02  0.15407408548E+02  0.00000000000E+00 0.  1.
         25    2    1    2    0    0 -0.20270593322E+01 -0.10784754148E+03  0.13224031279E+04  0.13326788199E+04  0.12509038036E+03 0.  0.
          5    1    3    3  502    0 -0.61362207047E+02 -0.34483554721E+02  0.59916956291E+03  0.60330429596E+03  0.41800000000E+01 0.  1.
         -5    1    3    3    0  502  0.59335147715E+02 -0.73363986754E+02  0.72323356497E+03  0.72937452396E+03  0.41800000000E+01 0.  1.
        -11    1    1    2    0    0  0.33363937743E+02  0.60221638466E+02  0.14267152771E+03  0.15841389744E+03  0.00000000000E+00 0.  1.
         11    1    1    2    0    0 -0.31336878410E+02  0.47625903010E+02  0.33639590721E+03  0.34119266254E+03  0.00000000000E+00 0. -1.
</event>
<event>
 7    1  0.2794945E-009  0.1674436E+03  0.7561462E-02  0.1180540E+00
         -1   -1    0    0    0  501 -0.00000000000E+00  0.00000000000E+00  0.36603641364E+02  0.36603641364E+02  0.00000000000E+00 0.  1.
          1   -1    0    0  501    0  0.00000000000E+00 -0.00000000000E+00 -0.97025072577E+03  0.97025072577E+03  0.00000000000E+00 0. -1.
         25    2    1    2    0    0 -0.73857611169E+02 -0.10803982037E+03 -0.27707351279E+03  0.33097271652E+03  0.12508260500E+03 0.  0.
          5    1    3    3  502    0  0.14825872141E+02 -0.88746416651E+02 -0.13226989411E+03  0.16002665478E+03  0.41800000000E+01 0.  1.
         -5    1    3    3    0  502 -0.88683483310E+02 -0.19293403724E+02 -0.14480361868E+03  0.17094606173E+03  0.41800000000E+01 0.  1.
        -11    1    1    2    0    0  0.64987818979E+02  0.23730040083E+02 -0.39198572631E+03  0.39804439582E+03  0.00000000000E+00 0. -1.
         11    1    1    2    0    0  0.88697921908E+01  0.84309780292E+02 -0.26458784531E+03  0.27783725480E+03  0.00000000000E+00 0.  1.
</event>
<event>
 7    1  0.3122497E-009  0.1087617E+03  0.7561462E-02  0.1262880E+00
         -3   -1    0    0    0  501 -0.00000000000E+00  0.00000000000E+00  0.60644609761E+02  0.60644609761E+02  0.00000000000E+00 0.  1.
          3   -1    0    0  501    0  0.00000000000E+00 -0.00000000000E+00 -0.30234577571E+03  0.30234577571E+03  0.00000000000E+00 0. -1.
         25    2    1    2    0    0 -0.30395204234E+02  0.61269469048E+02 -0.76042887657E+02  0.16157953106E+03  0.12509039858E+03 0.  0.
          5    1    3    3  502    0  0.35695297287E+02  0.37283900115E+02 -0.74997702722E+02  0.91139295969E+02  0.41800000000E+01 0. -1.
         -5    1    3    3    0  502 -0.66090501521E+02  0.23985568933E+02 -0.10451849359E+01  0.70440235092E+02  0.41800000000E+01 0. -1.
        -11    1    1    2    0    0  0.48883592295E+02 -0.25722677767E+02 -0.36568463964E+02  0.66245862541E+02  0.00000000000E+00 0.  1.
         11    1    1    2    0    0 -0.18488388061E+02 -0.35546791281E+02 -0.12908981433E+03  0.13516499187E+03  0.00000000000E+00 0. -1.
</event>
<event>
 7    1  0.2794945E-009  0.1442451E+03  0.7561462E-02  0.1207728E+00
         -2   -1    0    0    0  501 -0.00000000000E+00  0.00000000000E+00  0.16385109584E+03  0.16385109584E+03  0.00000000000E+00 0.  1.
          2   -1    0    0  501    0  0.00000000000E+00 -0.00000000000E+00 -0.13867277107E+03  0.13867277107E+03  0.00000000000E+00 0. -1.
         25    2    1    2    0    0 -0.10129893459E+03  0.93964115299E+01  0.37703973238E+02  0.16558717489E+03  0.12509099164E+03 0.  0.
          5    1    3    3  502    0 -0.94368136325E+02 -0.43666022176E+02  0.40904807424E+02  0.11181566221E+03  0.41800000000E+01 0. -1.
         -5    1    3    3    0  502 -0.69307982634E+01  0.53062433706E+02 -0.32008341857E+01  0.53771512671E+02  0.41800000000E+01 0. -1.
        -11    1    1    2    0    0  0.29285580812E+02  0.35396918788E+02  0.14085322707E+02  0.48051882575E+02  0.00000000000E+00 0.  1.
         11    1    1    2    0    0  0.72013353776E+02 -0.44793330318E+02 -0.26610971180E+02  0.88884809445E+02  0.00000000000E+00 0. -1.
</event>
<event>
 7    1  0.2794945E-009  0.1319678E+03  0.7561462E-02  0.1224565E+00
         -1   -1    0    0    0  501 -0.00000000000E+00  0.00000000000E+00  0.38854890977E+02  0.38854890977E+02  0.00000000000E+00 0.  1.
          1   -1    0    0  501    0  0.00000000000E+00 -0.00000000000E+00 -0.66692028783E+03  0.66692028783E+03  0.00000000000E+00 0. -1.
         25    2    1    2    0    0 -0.36860344217E+02  0.10610194605E+03 -0.40283865051E+03  0.43651137453E+03  0.12508754458E+03 0.  0.
          5    1    3    3  502    0  0.20115073429E+02  0.43961351673E+02 -0.29795058229E+03  0.30187619732E+03  0.41800000000E+01 0. -1.
         -5    1    3    3    0  502 -0.56975417646E+02  0.62140594381E+02 -0.10488806822E+03  0.13463517721E+03  0.41800000000E+01 0. -1.
        -11    1    1    2    0    0 -0.10673463773E+02 -0.71283695639E+02 -0.59794927436E+02  0.93652129927E+02  0.00000000000E+00 0.  1.
         11    1    1    2    0    0  0.47533807990E+02 -0.34818250415E+02 -0.16543181890E+03  0.17561167435E+03  0.00000000000E+00 0. -1.
</event>
<event>
 7    1  0.2794945E-009  0.1031971E+03  0.7561462E-02  0.1273713E+00
          1   -1    0    0  501    0  0.00000000000E+00  0.00000000000E+00  0.44723258467E+03  0.44723258467E+03  0.00000000000E+00 0. -1.
         -1   -1    0    0    0  501 -0.00000000000E+00 -0.00000000000E+00 -0.29027097504E+02  0.29027097504E+02  0.00000000000E+00 0.  1.
         25    2    1    2    0    0  0.21397184127E+02 -0.15999982719E+01  0.17837952197E+03  0.21892555550E+03  0.12509494597E+03 0.  0.
          5    1    3    3  502    0  0.71928083034E+02 -0.16811224367E+02  0.10354486940E+03  0.12726067253E+03  0.41800000000E+01 0.  1.
         -5    1    3    3    0  502 -0.50530898907E+02  0.15211226095E+02  0.74834652576E+02  0.91664882969E+02  0.41800000000E+01 0.  1.
        -11    1    1    2    0    0  0.74588875192E+01 -0.33336558467E+02  0.17461812752E+03  0.17792822034E+03  0.00000000000E+00 0. -1.
         11    1    1    2    0    0 -0.28856071646E+02  0.34936556738E+02  0.65207837670E+02  0.79405906337E+02  0.00000000000E+00 0.  1.
</event>
<event>
 7    1  0.2794945E-009  0.9779675E+02  0.7561462E-02  0.1284998E+00
          1   -1    0    0  501    0  0.00000000000E+00  0.00000000000E+00  0.76210309806E+02  0.76210309806E+02  0.00000000000E+00 0. -1.
         -1   -1    0    0    0  501 -0.00000000000E+00 -0.00000000000E+00 -0.16790377580E+03  0.16790377580E+03  0.00000000000E+00 0.  1.
         25    2    1    2    0    0  0.15555106382E+02 -0.24927270306E+02 -0.52843974336E+02  0.13893501299E+03  0.12508845698E+03 0.  0.
          5    1    3    3  502    0  0.54203745851E+02  0.27665747850E+02 -0.38012513213E+02  0.71873939847E+02  0.41800000000E+01 0.  1.
         -5    1    3    3    0  502 -0.38648639469E+02 -0.52593018156E+02 -0.14831461123E+02  0.67061073140E+02  0.41800000000E+01 0.  1.
        -11    1    1    2    0    0 -0.16884982423E+02 -0.18901416263E+02 -0.53292892092E+02  0.59012697919E+02  0.00000000000E+00 0.  1.
         11    1    1    2    0    0  0.13298760414E+01  0.43828686569E+02  0.14443400437E+02  0.46166374698E+02  0.00000000000E+00 0. -1.
</event>
<event>
 7    1  0.2794945E-009  0.9793236E+02  0.7561462E-02  0.1284705E+00
         -2   -1    0    0    0  501 -0.00000000000E+00  0.00000000000E+00  0.17250970335E+03  0.17250970335E+03  0.00000000000E+00 0.  1.
          2   -1    0    0  501    0  0.00000000000E+00 -0.00000000000E+00 -0.90875899704E+02  0.90875899704E+02  0.00000000000E+00 0. -1.
         25    2    1    2    0    0 -0.22717499805E+02 -0.52176106364E+02  0.74461746182E+02  0.15630618626E+03  0.12509452965E+03 0.  0.
          5    1    3    3  502    0  0.32369210769E+02 -0.31286865486E+02  0.85032783376E+02  0.96305142160E+02  0.41800000000E+01 0. -1.
         -5    1    3    3    0  502 -0.55086710574E+02 -0.20889240878E+02 -0.10571037194E+02  0.60001044105E+02  0.41800000000E+01 0. -1.
        -11    1    1    2    0    0 -0.26144298976E+02  0.14550030512E+02 -0.23647584936E+02  0.38137068976E+02  0.00000000000E+00 0. -1.
         11    1    1    2    0    0  0.48861798781E+02  0.37626075852E+02  0.30819642396E+02  0.68942347810E+02  0.00000000000E+00 0.  1.
</event>
<event>
 7    1  0.2794945E-009  0.1288778E+03  0.7561462E-02  0.1229130E+00
          1   -1    0    0  501    0  0.00000000000E+00  0.00000000000E+00  0.24464867626E+03  0.24464867626E+03  0.00000000000E+00 0. -1.
         -1   -1    0    0    0  501 -0.00000000000E+00 -0.00000000000E+00 -0.11190278017E+03  0.11190278017E+03  0.00000000000E+00 0.  1.
         25    2    1    2    0    0 -0.69548421819E+02 -0.81418892349E+02  0.13798135006E+03  0.21482965620E+03  0.12508760613E+03 0.  0.
          5    1    3    3  502    0 -0.51330506643E+02 -0.25592943045E+02  0.14457165898E+03  0.15559002740E+03  0.41800000000E+01 0.  1.
         -5    1    3    3    0  502 -0.18217915176E+02 -0.55825949304E+02 -0.65903089131E+01  0.59239628802E+02  0.41800000000E+01 0.  1.
        -11    1    1    2    0    0  0.20137979629E+01 -0.19685970778E+02  0.21894198796E+01  0.19909454716E+02  0.00000000000E+00 0.  1.
         11    1    1    2    0    0  0.67534623856E+02  0.10110486313E+03 -0.74248738575E+01  0.12181234551E+03  0.00000000000E+00 0. -1.
</event>
<event>
 7    1  0.2794945E-009  0.1596597E+03  0.7561462E-02  0.1189081E+00
         -2   -1    0    0    0  501 -0.00000000000E+00  0.00000000000E+00  0.26753250112E+03  0.26753250112E+03  0.00000000000E+00 0.  1.
          2   -1    0    0  501    0  0.00000000000E+00 -0.00000000000E+00 -0.11626934927E+03  0.11626934927E+03  0.00000000000E+00 0. -1.
         25    2    1    2    0    0 -0.43468634247E+02  0.13116198479E+03  0.68376154866E+02  0.19856428366E+03  0.12513787506E+03 0.  0.
          5    1    3    3  502    0 -0.40844162988E+02  0.26464348449E+02  0.79347409034E+02  0.93177739345E+02  0.41800000000E+01 0. -1.
         -5    1    3    3    0  502 -0.26244712597E+01  0.10469763634E+03 -0.10971254168E+02  0.10538654431E+03  0.41800000000E+01 0. -1.
        -11    1    1    2    0    0 -0.10589057503E+02 -0.10512456764E+03  0.52682923629E+02  0.11806266684E+03  0.00000000000E+00 0.  1.
         11    1    1    2    0    0  0.54057691750E+02 -0.26037417150E+02  0.30204073353E+02  0.67174899898E+02  0.00000000000E+00 0. -1.
</event>
<event>
 7    1  0.2794945E-009  0.9467529E+02  0.7561462E-02  0.1291909E+00
         -2   -1    0    0    0  501 -0.00000000000E+00  0.00000000000E+00  0.13356109913E+03  0.13356109913E+03  0.00000000000E+00 0. -1.
          2   -1    0    0  501    0  0.00000000000E+00 -0.00000000000E+00 -0.15314993895E+03  0.15314993895E+03  0.00000000000E+00 0.  1.
         25    2    1    2    0    0 -0.49945868000E+01  0.49398072954E+01  0.82473073505E+02  0.14999558684E+03  0.12509005006E+03 0.  0.
          5    1    3    3  502    0  0.21511605241E+02  0.57911424081E+02  0.60812643931E+02  0.86787857797E+02  0.41800000000E+01 0.  1.
         -5    1    3    3    0  502 -0.26506192041E+02 -0.52971616786E+02  0.21660429575E+02  0.63207729043E+02  0.41800000000E+01 0.  1.
        -11    1    1    2    0    0 -0.30411720748E+02 -0.10577729268E+02 -0.41736743376E+01  0.32468148589E+02  0.00000000000E+00 0. -1.
         11    1    1    2    0    0  0.35406307548E+02  0.56379219726E+01 -0.97888238988E+02  0.10424730265E+03  0.00000000000E+00 0.  1.
</event>
<event>
 7    1  0.2794945E-009  0.1120680E+03  0.7561462E-02  0.1256788E+00
          2   -1    0    0  501    0  0.00000000000E+00  0.00000000000E+00  0.18357264535E+04  0.18357264535E+04  0.00000000000E+00 0. -1.
         -2   -1    0    0    0  501 -0.00000000000E+00 -0.00000000000E+00 -0.13658177735E+02  0.13658177735E+02  0.00000000000E+00 0.  1.
         25    2    1    2    0    0 -0.50638862625E+02 -0.57666411600E+02  0.14837335059E+04  0.14909741843E+04  0.12509673178E+03 0.  0.
          5    1    3    3  502    0 -0.67080062799E+02 -0.25397324491E+02  0.38565871506E+03  0.39229437393E+03  0.41800000000E+01 0. -1.
         -5    1    3    3    0  502  0.16441200174E+02 -0.32269087110E+02  0.10980747908E+04  0.10986798104E+04  0.41800000000E+01 0. -1.
        -11    1    1    2    0    0  0.66683768168E+02  0.69176848853E+02  0.24845406849E+03  0.26638615862E+03  0.00000000000E+00 0.  1.
         11    1    1    2    0    0 -0.16044905542E+02 -0.11510437252E+02  0.89880701398E+02  0.92024288334E+02  0.00000000000E+00 0. -1.
</event>
<event>
 7    1  0.2794945E-009  0.1049309E+03  0.7561462E-02  0.1270256E+00
         -2   -1    0    0    0  501 -0.00000000000E+00  0.00000000000E+00  0.23651097994E+02  0.23651097994E+02  0.00000000000E+00 0.  1.
          2   -1    0    0  501    0  0.00000000000E+00 -0.00000000000E+00 -0.96981154988E+03  0.96981154988E+03  0.00000000000E+00 0. -1.
         25    2    1    2    0    0 -0.54791892400E+02  0.48038781532E+00 -0.80331029241E+03  0.81483690873E+03  0.12509748078E+03 0.  0.
          5    1    3    3  502    0 -0.89234646052E+02 -0.21128100522E+02 -0.63684132781E+03  0.64342331935E+03  0.41800000000E+01 0. -1.
         -5    1    3    3    0  502  0.34442753652E+02  0.21608488337E+02 -0.16646896460E+03  0.17141358937E+03  0.41800000000E+01 0. -1.
        -11    1    1    2    0    0  0.54845816732E+01  0.22235770530E+02  0.29077373130E+01  0.23086036114E+02  0.00000000000E+00 0.  1.
         11    1    1    2    0    0  0.49307310727E+02 -0.22716158345E+02 -0.14575789679E+03  0.15553970303E+03  0.00000000000E+00 0. -1.
</event>
<event>
 7    1  0.2794945E-009  0.1124108E+03  0.7561462E-02  0.1256169E+00
          2   -1    0    0  501    0  0.00000000000E+00  0.00000000000E+00  0.66336059514E+03  0.66336059514E+03  0.00000000000E+00 0. -1.
         -2   -1    0    0    0  501 -0.00000000000E+00 -0.00000000000E+00 -0.31755999258E+02  0.31755999258E+02  0.00000000000E+00 0.  1.
         25    2    1    2    0    0 -0.18094020843E+02 -0.82252956821E+02  0.43622980164E+03  0.46155926330E+03  0.12509025222E+03 0.  0.
          5    1    3    3  502    0 -0.43629020817E+02 -0.79967062128E+02  0.42240026952E+03  0.43213155702E+03  0.41800000000E+01 0. -1.
         -5    1    3    3    0  502  0.25534999974E+02 -0.22858946927E+01  0.13829532128E+02  0.29427706284E+02  0.41800000000E+01 0. -1.
        -11    1    1    2    0    0 -0.20902416970E+02  0.58195326306E+02  0.17061615646E+03  0.18147583830E+03  0.00000000000E+00 0. -1.
         11    1    1    2    0    0  0.38996437813E+02  0.24057630515E+02  0.24758637778E+02  0.52081492804E+02  0.00000000000E+00 0.  1.
</event>
<event>
 7    1  0.2794945E-009  0.1940726E+03  0.7561462E-02  0.1154839E+00
          1   -1    0    0  501    0  0.00000000000E+00  0.00000000000E+00  0.39956265598E+03  0.39956265598E+03  0.00000000000E+00 0. -1.
         -1   -1    0    0    0  501 -0.00000000000E+00 -0.00000000000E+00 -0.14725532355E+03  0.14725532355E+03  0.00000000000E+00 0.  1.
         25    2    1    2    0    0 -0.18833593594E+03  0.32902452683E+02  0.14978853588E+02  0.22896522650E+03  0.12509081794E+03 0.  0.
          5    1    3    3  502    0 -0.49750726321E+02 -0.80025225180E+01 -0.49428610656E+02  0.70709512002E+02  0.41800000000E+01 0.  1.
         -5    1    3    3    0  502 -0.13858520962E+03  0.40904975201E+02  0.64407464243E+02  0.15825571450E+03  0.41800000000E+01 0.  1.
        -11    1    1    2    0    0  0.52511476551E+02  0.28032119585E+01  0.14653181823E+02  0.54589640999E+02  0.00000000000E+00 0.  1.
         11    1    1    2    0    0  0.13582445939E+03 -0.35705664642E+02  0.22267529701E+03  0.26326311203E+03  0.00000000000E+00 0. -1.
</event>
<event>
 7    1  0.2794945E-009  0.1557781E+03  0.7561462E-02  0.1193547E+00
         -1   -1    0    0    0  501 -0.00000000000E+00  0.00000000000E+00  0.26032938654E+03  0.26032938654E+03  0.00000000000E+00 0.  1.
          1   -1    0    0  501    0  0.00000000000E+00 -0.00000000000E+00 -0.13817899737E+03  0.13817899737E+03  0.00000000000E+00 0. -1.
         25    2    1    2    0    0  0.11597987695E+03  0.82654215344E+02 -0.79234314885E+00  0.18955492633E+03  0.12508953241E+03 0.  0.
          5    1    3    3  502    0  0.53335925911E+02  0.34339227558E+02  0.61746898481E+02  0.88623108804E+02  0.41800000000E+01 0. -1.
         -5    1    3    3    0  502  0.62643951035E+02  0.48314987785E+02 -0.62539241630E+02  0.10093181753E+03  0.41800000000E+01 0. -1.
        -11    1    1    2    0    0 -0.51925065942E+02 -0.90389718094E+02  0.80780600479E+02  0.13187880430E+03  0.00000000000E+00 0.  1.
         11    1    1    2    0    0 -0.64054811004E+02  0.77355027503E+01  0.42162131847E+02  0.77074653275E+02  0.00000000000E+00 0. -1.
</event>
<event>
 7    1  0.2794945E-009  0.1797192E+03  0.7561462E-02  0.1168075E+00
          1   -1    0    0  501    0  0.00000000000E+00  0.00000000000E+00  0.13556700516E+04  0.13556700516E+04  0.00000000000E+00 0. -1.
         -1   -1    0    0    0  501 -0.00000000000E+00 -0.00000000000E+00 -0.30055586181E+02  0.30055586181E+02  0.00000000000E+00 0.  1.
         25    2    1    2    0    0  0.10273417968E+02  0.15805052188E+03  0.91494263266E+03  0.93693825645E+03  0.12509102594E+03 0.  0.
          5    1    3    3  502    0  0.57182446104E+02  0.46048435321E+02  0.46942345943E+03  0.47514855277E+03  0.41800000000E+01 0. -1.
         -5    1    3    3    0  502 -0.46909028136E+02  0.11200208656E+03  0.44551917323E+03  0.46178970369E+03  0.41800000000E+01 0. -1.
        -11    1    1    2    0    0  0.14769675665E+02 -0.25194151878E+02  0.17219437009E+03  0.17465334150E+03  0.00000000000E+00 0.  1.
         11    1    1    2    0    0 -0.25043093633E+02 -0.13285637000E+03  0.23847746270E+03  0.27413403985E+03  0.00000000000E+00 0. -1.
</event>
<event>
 7    1  0.2794945E-009  0.1015250E+03  0.7561462E-02  0.1277121E+00
         -1   -1    0    0    0  501 -0.00000000000E+00  0.00000000000E+00  0.60337746078E+02  0.60337746078E+02  0.00000000000E+00 0.  1.
          1   -1    0    0  501    0  0.00000000000E+00 -0.00000000000E+00 -0.24547282064E+03  0.24547282064E+03  0.00000000000E+00 0. -1.
         25    2    1    2    0    0  0.54943723186E+02  0.50890030931E+00 -0.11945365442E+03  0.18148195303E+03  0.12508977586E+03 0.  0.
          5    1    3    3  502    0 -0.30379070126E+02 -0.20183769473E+01  0.43576027314E+01  0.31039053607E+02  0.41800000000E+01 0. -1.
         -5    1    3    3    0  502  0.85322793312E+02  0.25272772566E+01 -0.12381125715E+03  0.15044289942E+03  0.41800000000E+01 0. -1.
        -11    1    1    2    0    0 -0.42833643814E+02 -0.31770946117E+02 -0.32063438772E+01  0.53426535548E+02  0.00000000000E+00 0.  1.
         11    1    1    2    0    0 -0.12110079371E+02  0.31262045808E+02 -0.62475076264E+02  0.70902078140E+02  0.00000000000E+00 0. -1.
</event>
<event>
 7    1  0.2794945E-009  0.2307756E+03  0.7561462E-02  0.1126095E+00
         -1   -1    0    0    0  501 -0.00000000000E+00  0.00000000000E+00  0.13353829875E+03  0.13353829875E+03  0.00000000000E+00 0.  1.
          1   -1    0    0  501    0  0.00000000000E+00 -0.00000000000E+00 -0.59163306609E+03  0.59163306609E+03  0.00000000000E+00 0. -1.
         25    2    1    2    0    0 -0.12470069239E+03  0.16890237310E+03 -0.31844781331E+02  0.24645417871E+03  0.12508915935E+03 0.  0.
          5    1    3    3  502    0  0.25619019974E+02  0.24771125336E+02 -0.10672325921E+01  0.35896437431E+02  0.41800000000E+01 0. -1.
         -5    1    3    3    0  502 -0.15031971237E+03  0.14413124776E+03 -0.30777548739E+02  0.21055774128E+03  0.41800000000E+01 0. -1.
        -11    1    1    2    0    0  0.17014903343E+02  0.58085681320E-01 -0.25241036475E+02  0.30440437448E+02  0.00000000000E+00 0.  1.
         11    1    1    2    0    0  0.10768578905E+03 -0.16896045878E+03 -0.40100894954E+03  0.44827674868E+03  0.00000000000E+00 0. -1.
</event>
<event>
 7    1  0.2794945E-009  0.9466851E+02  0.7561462E-02  0.1291924E+00
         -1   -1    0    0    0  501 -0.00000000000E+00  0.00000000000E+00  0.12767624956E+03  0.12767624956E+03  0.00000000000E+00 0.  1.
          1   -1    0    0  501    0  0.00000000000E+00 -0.00000000000E+00 -0.12472039950E+03  0.12472039950E+03  0.00000000000E+00 0. -1.
         25    2    1    2    0    0 -0.50538815985E+02 -0.43300518690E+02  0.14904709252E+02  0.14247575443E+03  0.12509229953E+03 0.  0.
          5    1    3    3  502    0  0.17510843739E+02  0.12719512095E+02  0.44288692755E+02  0.49470964639E+02  0.41800000000E+01 0.  1.
         -5    1    3    3    0  502 -0.68049659724E+02 -0.56020030784E+02 -0.29383983503E+02  0.93004789791E+02  0.41800000000E+01 0.  1.
        -11    1    1    2    0    0  0.44222869476E+02  0.10237620638E+02  0.31284483228E+02  0.55128848635E+02  0.00000000000E+00 0.  1.
         11    1    1    2    0    0  0.63159465086E+01  0.33062898051E+02 -0.43233342414E+02  0.54792045993E+02  0.00000000000E+00 0. -1.
</event>
<event>
 7    1  0.2794945E-009  0.1806461E+03  0.7561462E-02  0.1167179E+00
          1   -1    0    0  501    0  0.00000000000E+00  0.00000000000E+00  0.63529935591E+03  0.63529935591E+03  0.00000000000E+00 0. -1.
         -1   -1    0    0    0  501 -0.00000000000E+00 -0.00000000000E+00 -0.62800954180E+02  0.62800954180E+02  0.00000000000E+00 0.  1.
         25    2    1    2    0    0  0.11459181322E+03  0.11411657070E+03  0.22369297057E+03  0.30304285559E+03  0.12507018779E+03 0.  0.
          5    1    3    3  502    0 -0.34882606273E+01  0.69951466687E+02  0.12315565237E+03  0.14173977129E+03  0.41800000000E+01 0. -1.
         -5    1    3    3    0  502  0.11808007385E+03  0.44165104018E+02  0.10053731820E+03  0.16130308430E+03  0.41800000000E+01 0. -1.
        -11    1    1    2    0    0 -0.22331559702E+02 -0.43177274545E+02  0.20174027907E+03  0.20751413397E+03  0.00000000000E+00 0. -1.
         11    1    1    2    0    0 -0.92260253521E+02 -0.70939296160E+02  0.14706515209E+03  0.18754332054E+03  0.00000000000E+00 0.  1.
</event>
<event>
 7    1  0.2794945E-009  0.9284752E+02  0.7561462E-02  0.1296099E+00
         -2   -1    0    0    0  501 -0.00000000000E+00  0.00000000000E+00  0.31872032620E+03  0.31872032620E+03  0.00000000000E+00 0.  1.
          2   -1    0    0  501    0  0.00000000000E+00 -0.00000000000E+00 -0.74932299408E+02  0.74932299408E+02  0.00000000000E+00 0. -1.
         25    2    1    2    0    0 -0.59586996651E+02  0.59426301362E+02  0.39996645987E+02  0.15598111235E+03  0.12509308636E+03 0.  0.
          5    1    3    3  502    0 -0.28880273404E+01 -0.84011709376E+01  0.63625045058E+02  0.64378095139E+02  0.41800000000E+01 0. -1.
         -5    1    3    3    0  502 -0.56698969311E+02  0.67827472299E+02 -0.23628399071E+02  0.91603017211E+02  0.41800000000E+01 0. -1.
        -11    1    1    2    0    0  0.10346962689E+02 -0.25662278245E+02  0.16307375867E+03  0.16540454325E+03  0.00000000000E+00 0.  1.
         11    1    1    2    0    0  0.49240033962E+02 -0.33764023117E+02  0.40717622134E+02  0.72266970006E+02  0.00000000000E+00 0. -1.
</event>
<event>
 7    1  0.2794945E-009  0.7816926E+02  0.7561462E-02  0.1334329E+00
          2   -1    0    0  501    0  0.00000000000E+00  0.00000000000E+00  0.75939184856E+03  0.75939184856E+03  0.00000000000E+00 0. -1.
         -2   -1    0    0    0  501 -0.00000000000E+00 -0.00000000000E+00 -0.19399814724E+02  0.19399814724E+02  0.00000000000E+00 0.  1.
         25    2    1    2    0    0  0.56204493494E+01 -0.48901837397E+02  0.52255510027E+03  0.53956805540E+03  0.12508746715E+03 0.  0.
          5    1    3    3  502    0 -0.42885306715E+01  0.97556379732E+00  0.45434595121E+03  0.45438646437E+03  0.41800000000E+01 0. -1.
         -5    1    3    3    0  502  0.99089800209E+01 -0.49877401194E+02  0.68209149057E+02  0.85181591028E+02  0.41800000000E+01 0. -1.
        -11    1    1    2    0    0  0.28695117123E+02 -0.10574433446E+02  0.78448456672E+02  0.84198507966E+02  0.00000000000E+00 0. -1.
         11    1    1    2    0    0 -0.34315566472E+02  0.59476270843E+02  0.13898847690E+03  0.15502509992E+03  0.00000000000E+00 0.  1.
</event>
<event>
 7    1  0.2794945E-009  0.1131109E+03  0.7561462E-02  0.1254915E+00
         -1   -1    0    0    0  501 -0.00000000000E+00  0.00000000000E+00  0.28810637909E+02  0.28810637909E+02  0.00000000000E+00 0.  1.
          1   -1    0    0  501    0  0.00000000000E+00 -0.00000000000E+00 -0.65129755036E+03  0.65129755036E+03  0.00000000000E+00 0. -1.
         25    2    1    2    0    0  0.52712718287E+02  0.40363896560E+01 -0.18593472978E+03  0.23024851999E+03  0.12509090338E+03 0.  0.
          5    1    3    3  502    0  0.70359581020E+02 -0.33922500479E+02 -0.63385432108E+02  0.10067965079E+03  0.41800000000E+01 0. -1.
         -5    1    3    3    0  502 -0.17646862733E+02  0.37958890135E+02 -0.12254929767E+03  0.12956886919E+03  0.41800000000E+01 0. -1.
        -11    1    1    2    0    0 -0.41888431668E+01 -0.43305902147E+02 -0.23007858096E+03  0.23415614659E+03  0.00000000000E+00 0. -1.
         11    1    1    2    0    0 -0.48523875121E+02  0.39269512491E+02 -0.20647360171E+03  0.21570352169E+03  0.00000000000E+00 0.  1.
</event>
<event>
 7    1  0.2794945E-009  0.1293425E+03  0.7561462E-02  0.1228435E+00
         -2   -1    0    0    0  501 -0.00000000000E+00  0.00000000000E+00  0.23023491072E+02  0.23023491072E+02  0.00000000000E+00 0.  1.
          2   -1    0    0  501    0  0.00000000000E+00 -0.00000000000E+00 -0.81769124645E+03  0.81769124645E+03  0.00000000000E+00 0. -1.
         25    2    1    2    0    0 -0.30934817123E+02 -0.69015527836E+02 -0.54799254285E+03  0.56715315736E+03  0.12508705324E+03 0.  0.
          5    1    3    3  502    0 -0.46707509528E+02 -0.10024975851E+03 -0.42960003067E+03  0.44362739352E+03  0.41800000000E+01 0.  1.
         -5    1    3    3    0  502  0.15772692405E+02  0.31234230677E+02 -0.11839251217E+03  0.12352576383E+03  0.41800000000E+01 0.  1.
        -11    1    1    2    0    0  0.22136941795E+02 -0.15991517806E+02 -0.29619664543E+02  0.40287682503E+02  0.00000000000E+00 0.  1.
         11    1    1    2    0    0  0.87978753279E+01  0.85007045642E+02 -0.21705554799E+03  0.23327389766E+03  0.00000000000E+00 0. -1.
</event>
<event>
 7    1  0.2794945E-009  0.1020090E+03  0.7561462E-02  0.1276127E+00
          2   -1    0    0  501    0  0.00000000000E+00  0.00000000000E+00  0.50821931171E+03  0.50821931171E+03  0.00000000000E+00 0. -1.
         -2   -1    0    0    0  501 -0.00000000000E+00 -0.00000000000E+00 -0.25523803023E+02  0.25523803023E+02  0.00000000000E+00 0.  1.
         25    2    1    2    0    0 -0.25376479280E+02  0.14463661327E+02  0.25102945196E+03  0.28198736680E+03  0.12509167073E+03 0.  0.
          5    1    3    3  502    0  0.40314759883E+02  0.34013663898E+02  0.65770423888E+02  0.84412263650E+02  0.41800000000E+01 0.  1.
         -5    1    3    3    0  502 -0.65691239162E+02 -0.19550002572E+02  0.18525902807E+03  0.19757510315E+03  0.41800000000E+01 0.  1.
        -11    1    1    2    0    0  0.40092897751E+01 -0.44995710502E+02  0.54862487016E+02  0.71067438744E+02  0.00000000000E+00 0.  1.
         11    1    1    2    0    0  0.21367189505E+02  0.30532049176E+02  0.17680356971E+03  0.18068830918E+03  0.00000000000E+00 0. -1.
</event>
<event>
 7    1  0.2794945E-009  0.6355534E+02  0.7561462E-02  0.1383490E+00
          2   -1    0    0  501    0  0.00000000000E+00  0.00000000000E+00  0.14567627559E+03  0.14567627559E+03  0.00000000000E+00 0. -1.
         -2   -1    0    0    0  501 -0.00000000000E+00 -0.00000000000E+00 -0.10489638228E+03  0.10489638228E+03  0.00000000000E+00 0.  1.
         25    2    1    2    0    0  0.10763339566E+02 -0.57346696068E+02  0.18196177290E+02  0.13922618984E+03  0.12509331733E+03 0.  0.
          5    1    3    3  502    0 -0.11465085826E+02 -0.24343313832E+02 -0.51845937899E+02  0.58562093524E+02  0.41800000000E+01 0.  1.
         -5    1    3    3    0  502  0.22228425391E+02 -0.33003382237E+02  0.70042115189E+02  0.80664096316E+02  0.41800000000E+01 0.  1.
        -11    1    1    2    0    0 -0.10038493435E+02  0.18764897213E+02  0.56246858792E+02  0.60138189546E+02  0.00000000000E+00 0. -1.
         11    1    1    2    0    0 -0.72484613031E+00  0.38581798855E+02 -0.33663142766E+02  0.51208278488E+02  0.00000000000E+00 0.  1.
</event>
<event>
 7    1  0.2794945E-009  0.8233894E+02  0.7561462E-02  0.1322542E+00
         -2   -1    0    0    0  501 -0.00000000000E+00  0.00000000000E+00  0.82241942144E+02  0.82241942144E+02  0.00000000000E+00 0.  1.
          2   -1    0    0  501    0  0.00000000000E+00 -0.00000000000E+00 -0.19527071121E+03  0.19527071121E+03  0.00000000000E+00 0. -1.
         25    2    1    2    0    0  0.23751410164E+02 -0.24230831911E+02 -0.16310567769E+01  0.12961992822E+03  0.12508957888E+03 0.  0.
          5    1    3    3  502    0  0.26345618083E+02 -0.44413349076E+02 -0.53057283232E+02  0.74156489078E+02  0.41800000000E+01 0.  1.
         -5    1    3    3    0  502 -0.25942079182E+01  0.20182517166E+02  0.51426226455E+02  0.55463439140E+02  0.41800000000E+01 0.  1.
        -11    1    1    2    0    0  0.32345524227E+02  0.46400667027E+01 -0.64095134385E+02  0.71944071392E+02  0.00000000000E+00 0.  1.
         11    1    1    2    0    0 -0.56096934391E+02  0.19590765208E+02 -0.47302577907E+02  0.75948653748E+02  0.00000000000E+00 0. -1.
</event>
<event>
 7    1  0.2794945E-009  0.1063080E+03  0.7561462E-02  0.1267564E+00
          2   -1    0    0  501    0  0.00000000000E+00  0.00000000000E+00  0.47312585992E+03  0.47312585992E+03  0.00000000000E+00 0.  1.
         -2   -1    0    0    0  501 -0.00000000000E+00 -0.00000000000E+00 -0.63973030711E+02  0.63973030711E+02  0.00000000000E+00 0. -1.
         25    2    1    2    0    0  0.44873747516E+01  0.51768593442E+02  0.23500410810E+02  0.13747634498E+03  0.12508937733E+03 0.  0.
          5    1    3    3  502    0 -0.37812540226E+02 -0.26423649486E+02  0.51411459843E+01  0.46603661150E+02  0.41800000000E+01 0.  1.
         -5    1    3    3    0  502  0.42299914978E+02  0.78192242928E+02  0.18359264826E+02  0.90872683828E+02  0.41800000000E+01 0.  1.
        -11    1    1    2    0    0  0.10344493450E+02  0.96301249201E+01  0.70626086381E+01  0.15799629473E+02  0.00000000000E+00 0. -1.
         11    1    1    2    0    0 -0.14831868202E+02 -0.61398718362E+02  0.37858980976E+03  0.38382291618E+03  0.00000000000E+00 0.  1.
</event>
<event>
 7    1  0.2794945E-009  0.8254771E+02  0.7561462E-02  0.1321973E+00
          2   -1    0    0  501    0  0.00000000000E+00  0.00000000000E+00  0.18709994892E+03  0.18709994892E+03  0.00000000000E+00 0. -1.
         -2   -1    0    0    0  501 -0.00000000000E+00 -0.00000000000E+00 -0.77124256745E+02  0.77124256745E+02  0.00000000000E+00 0.  1.
         25    2    1    2    0    0  0.15479031272E+02  0.12181647012E+02  0.11120137542E+03  0.16852450780E+03  0.12508705329E+03 0.  0.
          5    1    3    3  502    0  0.31349971701E+02 -0.47496088276E+02  0.24744897253E+02  0.62197117837E+02  0.41800000000E+01 0.  1.
         -5    1    3    3    0  502 -0.15870940428E+02  0.59677735288E+02  0.86456478163E+02  0.10632738996E+03  0.41800000000E+01 0.  1.
        -11    1    1    2    0    0  0.14173937816E+02 -0.25125393047E+00  0.40631889653E+02  0.43033871526E+02  0.00000000000E+00 0. -1.
         11    1    1    2    0    0 -0.29652969088E+02 -0.11930393082E+02 -0.41857572900E+02  0.52665826338E+02  0.00000000000E+00 0.  1.
</event>
<event>
 7    1  0.2794945E-009  0.2041438E+03  0.7561462E-02  0.1146289E+00
          2   -1    0    0  501    0  0.00000000000E+00  0.00000000000E+00  0.16449562440E+04  0.16449562440E+04  0.00000000000E+00 0. -1.
         -2   -1    0    0    0  501 -0.00000000000E+00 -0.00000000000E+00 -0.30088357786E+02  0.30088357786E+02  0.00000000000E+00 0.  1.
         25    2    1    2    0    0  0.49330829898E+02 -0.18000601182E+03  0.63787651616E+03  0.67629486407E+03  0.12511034418E+03 0.  0.
          5    1    3    3  502    0  0.32625141459E+01 -0.16416928606E+03  0.38244084327E+03  0.41622189934E+03  0.41800000000E+01 0.  1.
         -5    1    3    3    0  502  0.46068315752E+02 -0.15836725764E+02  0.25543567289E+03  0.26007296473E+03  0.41800000000E+01 0.  1.
        -11    1    1    2    0    0 -0.59853683938E+02  0.11869801157E+03  0.80397130943E+03  0.81488744488E+03  0.00000000000E+00 0.  1.
         11    1    1    2    0    0  0.10522854040E+02  0.61308000252E+02  0.17302006065E+03  0.18386229287E+03  0.00000000000E+00 0. -1.
</event>
<event>
 7    1  0.2794945E-009  0.9102501E+02  0.7561462E-02  0.1300388E+00
          3   -1    0    0  501    0  0.00000000000E+00  0.00000000000E+00  0.22477660486E+03  0.22477660486E+03  0.00000000000E+00 0. -1.
         -3   -1    0    0    0  501 -0.00000000000E+00 -0.00000000000E+00 -0.52810067529E+02  0.52810067529E+02  0.00000000000E+00 0.  1.
         25    2    1    2    0    0  0.66448463600E+01 -0.99592925006E+01  0.10284509985E+03  0.16238343323E+03  0.12509165974E+03 0.  0.
          5    1    3    3  502    0  0.53295803286E+02  0.32365371279E+01  0.58622012575E+01  0.53877227323E+02  0.41800000000E+01 0.  1.
         -5    1    3    3    0  502 -0.46650956926E+02 -0.13195829628E+02  0.96982898594E+02  0.10850620591E+03  0.41800000000E+01 0.  1.
        -11    1    1    2    0    0  0.16901970398E+02 -0.29431393767E+02  0.59218684715E+02  0.68254935073E+02  0.00000000000E+00 0. -1.
         11    1    1    2    0    0 -0.23546816758E+02  0.39390686267E+02  0.99027527668E+01  0.46948304085E+02  0.00000000000E+00 0.  1.
</event>
<event>
 7    1  0.2794945E-009  0.1005446E+03  0.7561462E-02  0.1279155E+00
         -3   -1    0    0    0  501 -0.00000000000E+00  0.00000000000E+00  0.28624114082E+02  0.28624114082E+02  0.00000000000E+00 0.  1.
          3   -1    0    0  501    0  0.00000000000E+00 -0.00000000000E+00 -0.43161429905E+03  0.43161429905E+03  0.00000000000E+00 0. -1.
         25    2    1    2    0    0  0.10979585968E+02 -0.15368978881E+02 -0.25901289622E+03  0.28825632489E+03  0.12508905471E+03 0.  0.
          5    1    3    3  502    0 -0.51720272769E+02  0.13302033765E+02 -0.14922771464E+03  0.15855066678E+03  0.41800000000E+01 0.  1.
         -5    1    3    3    0  502  0.62699858737E+02 -0.28671012646E+02 -0.10978518158E+03  0.12970565811E+03  0.41800000000E+01 0.  1.
        -11    1    1    2    0    0  0.30770967486E+02  0.19606554040E+02 -0.11585717238E+03  0.12146667771E+03  0.00000000000E+00 0. -1.
         11    1    1    2    0    0 -0.41750553453E+02 -0.42375751593E+01 -0.28120116359E+02  0.50515410529E+02  0.00000000000E+00 0.  1.
</event>
<event>
 7    1  0.2794945E-009  0.1041585E+03  0.7561462E-02  0.1271786E+00
         -1   -1    0    0    0  501 -0.00000000000E+00  0.00000000000E+00  0.15858020446E+02  0.15858020446E+02  0.00000000000E+00 0.  1.
          1   -1    0    0  501    0  0.00000000000E+00 -0.00000000000E+00 -0.10993105234E+04  0.10993105234E+04  0.00000000000E+00 0. -1.
         25    2    1    2    0    0  0.17806839058E+02  0.28413757876E+02 -0.88975299587E+03  0.89912740129E+03  0.12508103346E+03 0.  0.
          5    1    3    3  502    0  0.34583700791E+01 -0.41858958377E+02 -0.14794318358E+03  0.15384664666E+03  0.41800000000E+01 0.  1.
         -5    1    3    3    0  502  0.14348468979E+02  0.70272716253E+02 -0.74180981229E+03  0.74528075463E+03  0.41800000000E+01 0.  1.
        -11    1    1    2    0    0  0.28545410138E+02  0.13676712666E+02 -0.83484345533E+02  0.89283418720E+02  0.00000000000E+00 0.  1.
         11    1    1    2    0    0 -0.46352249195E+02 -0.42090470543E+02 -0.11021516152E+03  0.12675772380E+03  0.00000000000E+00 0. -1.
</event>
<event>
 7    1  0.2794945E-009  0.1286972E+03  0.7561462E-02  0.1229402E+00
         -4   -1    0    0    0  501 -0.00000000000E+00  0.00000000000E+00  0.86869739081E+02  0.86869739081E+02  0.00000000000E+00 0. -1.
          4   -1    0    0  501    0  0.00000000000E+00 -0.00000000000E+00 -0.27720275441E+03  0.27720275441E+03  0.00000000000E+00 0.  1.
         25    2    1    2    0    0  0.77157567509E+02  0.30929954983E+02 -0.15933661325E+02  0.15103601277E+03  0.12509213905E+03 0.  0.
          5    1    3    3  502    0 -0.20604166544E+02 -0.26572937441E+02 -0.16158210156E+02  0.37539483729E+02  0.41800000000E+01 0.  1.
         -5    1    3    3    0  502  0.97761734054E+02  0.57502892424E+02  0.22454883088E+00  0.11349652904E+03  0.41800000000E+01 0.  1.
        -11    1    1    2    0    0 -0.66110487006E+02  0.10675624236E+02 -0.56817730140E+02  0.87822661672E+02  0.00000000000E+00 0.  1.
         11    1    1    2    0    0 -0.11047080503E+02 -0.41605579220E+02 -0.11758162386E+03  0.12521381904E+03  0.00000000000E+00 0. -1.
</event>
<event>
 6    1  0.3135643E-009  0.1129822E+03  0.7561462E-02  0.1255145E+00
         -2   -1    0    0    0  501 -0.00000000000E+00  0.00000000000E+00  0.46407533652E+02  0.46407533652E+02  0.00000000000E+00 0.  1.
          2   -1    0    0  501    0  0.00000000000E+00 -0.00000000000E+00 -0.33716650460E+03  0.33716650460E+03  0.00000000000E+00 0. -1.
          5    1    1    2  502    0 -0.42165318719E+02  0.62807623104E+02 -0.96560443087E+02  0.12273590832E+03  0.41800000000E+01 0.  1.
         -5    1    1    2    0  502 -0.20317539906E+02 -0.59483259368E+02 -0.58324931519E+02  0.85850629639E+02  0.41800000000E+01 0.  1.
        -11    1    1    2    0    0  0.34407455126E+02 -0.32060722542E+02 -0.17831948728E+02  0.50296533614E+02  0.00000000000E+00 0.  1.
         11    1    1    2    0    0  0.28075403499E+02  0.28736358806E+02 -0.11804164761E+03  0.12469096667E+03  0.00000000000E+00 0. -1.
</event>
<event>
 7    1  0.2794945E-009  0.1532337E+03  0.7561462E-02  0.1196555E+00
         -2   -1    0    0    0  501 -0.00000000000E+00  0.00000000000E+00  0.75795914257E+02  0.75795914257E+02  0.00000000000E+00 0.  1.
          2   -1    0    0  501    0  0.00000000000E+00 -0.00000000000E+00 -0.57130644190E+03  0.57130644190E+03  0.00000000000E+00 0. -1.
         25    2    1    2    0    0 -0.13430817723E+03  0.13354905513E+02 -0.43955026760E+03  0.47651768335E+03  0.12509046655E+03 0.  0.
          5    1    3    3  502    0 -0.10344572386E+03 -0.13618796231E+02 -0.14272010551E+03  0.17684170977E+03  0.41800000000E+01 0.  1.
         -5    1    3    3    0  502 -0.30862453366E+02  0.26973701744E+02 -0.29683016209E+03  0.29967597358E+03  0.41800000000E+01 0.  1.
        -11    1    1    2    0    0  0.11618253814E+02 -0.34447812801E+02 -0.17063402507E+02  0.40159623176E+02  0.00000000000E+00 0. -1.
         11    1    1    2    0    0  0.12268992342E+03  0.21092907289E+02 -0.38896857531E+02  0.13042504963E+03  0.00000000000E+00 0.  1.
</event>
<event>
 6    1  0.2794945E-009  0.7154486E+02  0.7561462E-02  0.1354917E+00
         -2   -1    0    0    0  501 -0.00000000000E+00  0.00000000000E+00  0.10922240820E+03  0.10922240820E+03  0.00000000000E+00 0.  1.
          2   -1    0    0  501    0  0.00000000000E+00 -0.00000000000E+00 -0.26585200034E+03  0.26585200034E+03  0.00000000000E+00 0. -1.
          5    1    1    2  502    0  0.15329985358E+02  0.30922966305E+02 -0.22260615454E+03  0.22530470643E+03  0.41800000000E+01 0.  1.
         -5    1    1    2    0  502  0.13285489185E+01 -0.27209223852E+02  0.36625184990E+01  0.27802757896E+02  0.41800000000E+01 0.  1.
        -11    1    1    2    0    0 -0.37618884581E+02  0.25032464388E+02  0.72081767595E+02  0.85074002904E+02  0.00000000000E+00 0.  1.
         11    1    1    2    0    0  0.20960350305E+02 -0.28746206842E+02 -0.97677236975E+01  0.36892941315E+02  0.00000000000E+00 0. -1.
</event>
<event>
 7    1  0.2794945E-009  0.2150408E+03  0.7561462E-02  0.1137635E+00
          2   -1    0    0  501    0  0.00000000000E+00  0.00000000000E+00  0.81007828572E+03  0.81007828572E+03  0.00000000000E+00 0.  1.
         -2   -1    0    0    0  501 -0.00000000000E+00 -0.00000000000E+00 -0.72126636532E+02  0.72126636532E+02  0.00000000000E+00 0. -1.
         25    2    1    2    0    0  0.99620938261E+02 -0.18105397006E+03  0.26711082756E+03  0.36014268572E+03  0.12509871486E+03 0.  0.
          5    1    3    3  502    0  0.12984662664E+02 -0.78423695487E+02  0.25336306689E+02  0.83536089895E+02  0.41800000000E+01 0.  1.
         -5    1    3    3    0  502  0.86636275597E+02 -0.10263027457E+03  0.24177452087E+03  0.27660659582E+03  0.41800000000E+01 0.  1.
        -11    1    1    2    0    0 -0.96472470002E+02  0.11555491276E+03  0.25128761050E+03  0.29292548289E+03  0.00000000000E+00 0. -1.
         11    1    1    2    0    0 -0.31484682585E+01  0.65499057295E+02  0.21955321113E+03  0.22913675365E+03  0.00000000000E+00 0.  1.
</event>
<event>
 7    1  0.2794945E-009  0.1197794E+03  0.7561462E-02  0.1243461E+00
          2   -1    0    0  501    0  0.00000000000E+00  0.00000000000E+00  0.87711348082E+03  0.87711348082E+03  0.00000000000E+00 0.  1.
         -2   -1    0    0    0  501 -0.00000000000E+00 -0.00000000000E+00 -0.24744702219E+02  0.24744702219E+02  0.00000000000E+00 0. -1.
         25    2    1    2    0    0 -0.54759933864E+02  0.23421143762E+02  0.64283993390E+03  0.65760087657E+03  0.12509409225E+03 0.  0.
          5    1    3    3  502    0 -0.84603618899E+02  0.47755651691E+02  0.39744729960E+03  0.40917013938E+03  0.41800000000E+01 0.  1.
         -5    1    3    3    0  502  0.29843685034E+02 -0.24334507929E+02  0.24539263430E+03  0.24843073719E+03  0.41800000000E+01 0.  1.
        -11    1    1    2    0    0  0.45889035729E+02  0.26425763973E+02  0.37381536604E+02  0.64819008636E+02  0.00000000000E+00 0. -1.
         11    1    1    2    0    0  0.88708981351E+01 -0.49846907735E+02  0.17214730810E+03  0.17943829784E+03  0.00000000000E+00 0.  1.
</event>
<event>
 7    1  0.2794945E-009  0.8699148E+02  0.7561462E-02  0.1310305E+00
         -2   -1    0    0    0  501 -0.00000000000E+00  0.00000000000E+00  0.82401636565E+02  0.82401636565E+02  0.00000000000E+00 0.  1.
          2   -1    0    0  501    0  0.00000000000E+00 -0.00000000000E+00 -0.16167608233E+03  0.16167608233E+03  0.00000000000E+00 0. -1.
         25    2    1    2    0    0 -0.34358838122E+02  0.84173852656E+01 -0.67608340388E+02  0.14652570985E+03  0.12509002288E+03 0.  0.
          5    1    3    3  502    0 -0.18093288999E+02 -0.55996650314E+02 -0.50839241658E+02  0.77878705982E+02  0.41800000000E+01 0. -1.
         -5    1    3    3    0  502 -0.16265549123E+02  0.64414035579E+02 -0.16769098731E+02  0.68647003868E+02  0.41800000000E+01 0. -1.
        -11    1    1    2    0    0  0.87005208519E+00 -0.14378660988E+02  0.36125369666E+02  0.38891454279E+02  0.00000000000E+00 0.  1.
         11    1    1    2    0    0  0.33488786037E+02  0.59612757225E+01 -0.47791475044E+02  0.58660554765E+02  0.00000000000E+00 0. -1.
</event>
<event>
 7    1  0.2794945E-009  0.6745654E+02  0.7561462E-02  0.1368962E+00
         -1   -1    0    0    0  501 -0.00000000000E+00  0.00000000000E+00  0.23210819193E+03  0.23210819193E+03  0.00000000000E+00 0.  1.
          1   -1    0    0  501    0  0.00000000000E+00 -0.00000000000E+00 -0.60187659688E+02  0.60187659688E+02  0.00000000000E+00 0. -1.
         25    2    1    2    0    0 -0.10993660401E+02 -0.47072246304E+02  0.10284829188E+03  0.16900079653E+03  0.12508733407E+03 0.  0.
          5    1    3    3  502    0  0.10509658846E+02 -0.32980286492E+02 -0.22157105374E+02  0.41310554883E+02  0.41800000000E+01 0.  1.
         -5    1    3    3    0  502 -0.21503319247E+02 -0.14091959812E+02  0.12500539725E+03  0.12769024165E+03  0.41800000000E+01 0.  1.
        -11    1    1    2    0    0  0.16920793840E+01  0.58916143787E+02  0.83653973182E+02  0.10233260654E+03  0.00000000000E+00 0.  1.
         11    1    1    2    0    0  0.93015810168E+01 -0.11843897483E+02 -0.14581732822E+02  0.20962448547E+02  0.00000000000E+00 0. -1.
</event>
<event>
 7    1  0.2794945E-009  0.1191813E+03  0.7561462E-02  0.1244454E+00
          1   -1    0    0  501    0  0.00000000000E+00  0.00000000000E+00  0.74079527903E+03  0.74079527903E+03  0.00000000000E+00 0. -1.
         -1   -1    0    0    0  501 -0.00000000000E+00 -0.00000000000E+00 -0.31697020214E+02  0.31697020214E+02  0.00000000000E+00 0.  1.
         25    2    1    2    0    0 -0.65490198519E+02  0.60700553429E+02  0.53971989609E+03  0.56117449592E+03  0.12508287392E+03 0.  0.
          5    1    3    3  502    0 -0.45396201446E+02 -0.13861612651E+02  0.67264254153E+02  0.82431254375E+02  0.41800000000E+01 0. -1.
         -5    1    3    3    0  502 -0.20093997073E+02  0.74562166081E+02  0.47245564194E+03  0.47874324155E+03  0.41800000000E+01 0. -1.
        -11    1    1    2    0    0 -0.37237135257E+01 -0.41340221059E+02  0.11170636329E+03  0.11916875228E+03  0.00000000000E+00 0.  1.
         11    1    1    2    0    0  0.69213912045E+02 -0.19360332370E+02  0.57671999439E+02  0.92149051049E+02  0.00000000000E+00 0. -1.
</event>
<event>
 7    1  0.2794945E-009  0.3760086E+03  0.7561462E-02  0.1052419E+00
          4   -1    0    0  501    0  0.00000000000E+00  0.00000000000E+00  0.49136579559E+03  0.49136579559E+03  0.00000000000E+00 0. -1.
         -4   -1    0    0    0  501 -0.00000000000E+00 -0.00000000000E+00 -0.34028186051E+03  0.34028186051E+03  0.00000000000E+00 0.  1.
         25    2    1    2    0    0 -0.13358714928E+03  0.33441902279E+03  0.23916466817E+03  0.45003030785E+03  0.12508369286E+03 0.  0.
          5    1    3    3  502    0  0.17111388937E+02  0.10653267978E+03  0.67583582005E+02  0.12738533844E+03  0.41800000000E+01 0.  1.
         -5    1    3    3    0  502 -0.15069853822E+03  0.22788634301E+03  0.17158108617E+03  0.32264496940E+03  0.41800000000E+01 0.  1.
        -11    1    1    2    0    0  0.56568741515E+02 -0.47949163188E+02 -0.25727813975E+02  0.78492453007E+02  0.00000000000E+00 0.  1.
         11    1    1    2    0    0  0.77018407767E+02 -0.28646985960E+03 -0.62352919113E+02  0.30312489525E+03  0.00000000000E+00 0. -1.
</event>
<event>
 7    1  0.2794945E-009  0.1224550E+03  0.7561462E-02  0.1239101E+00
          1   -1    0    0  501    0  0.00000000000E+00  0.00000000000E+00  0.23167944513E+03  0.23167944513E+03  0.00000000000E+00 0. -1.
         -1   -1    0    0    0  501 -0.00000000000E+00 -0.00000000000E+00 -0.80782851935E+02  0.80782851935E+02  0.00000000000E+00 0.  1.
         25    2    1    2    0    0 -0.49540384046E+02  0.33369324120E+02  0.61964159319E+02  0.15184058520E+03  0.12509294476E+03 0.  0.
          5    1    3    3  502    0 -0.79169622583E+02 -0.89424325119E+01  0.60271660369E+02  0.99989707884E+02  0.41800000000E+01 0.  1.
         -5    1    3    3    0  502  0.29629238537E+02  0.42311756632E+02  0.16924989496E+01  0.51850877314E+02  0.41800000000E+01 0.  1.
        -11    1    1    2    0    0  0.71293741550E+01  0.33428237434E+02  0.72007301680E+02  0.79707757019E+02  0.00000000000E+00 0. -1.
         11    1    1    2    0    0  0.42411009891E+02 -0.66797561554E+02  0.16925132200E+02  0.80913954850E+02  0.00000000000E+00 0.  1.
</event>
<event>
 7    1  0.2794945E-009  0.1060003E+03  0.7561462E-02  0.1268161E+00
         -1   -1    0    0    0  501 -0.00000000000E+00  0.00000000000E+00  0.35645236504E+02  0.35645236504E+02  0.00000000000E+00 0.  1.
          1   -1    0    0  501    0  0.00000000000E+00 -0.00000000000E+00 -0.45310633735E+03  0.45310633735E+03  0.00000000000E+00 0. -1.
         25    2    1    2    0    0 -0.51468577292E+02  0.16455376483E+02 -0.29471567123E+03  0.32469002074E+03  0.12508592582E+03 0.  0.
          5    1    3    3  502    0  0.25462910299E+02 -0.82713528517E+01 -0.10300742520E+02  0.28988838807E+02  0.41800000000E+01 0.  1.
         -5    1    3    3    0  502 -0.76931487591E+02  0.24726729335E+02 -0.28441492871E+03  0.29570118194E+03  0.41800000000E+01 0.  1.
        -11    1    1    2    0    0  0.75600659317E+02 -0.15356015386E+01 -0.10867178231E+03  0.13239098924E+03  0.00000000000E+00 0.  1.
         11    1    1    2    0    0 -0.24132082025E+02 -0.14919774944E+02 -0.14073647305E+02  0.31670563868E+02  0.00000000000E+00 0. -1.
</event>
<event>
 7    1  0.2794945E-009  0.1059679E+03  0.7561462E-02  0.1268224E+00
          1   -1    0    0  501    0  0.00000000000E+00  0.00000000000E+00  0.27169019189E+03  0.27169019189E+03  0.00000000000E+00 0. -1.
         -1   -1    0    0    0  501 -0.00000000000E+00 -0.00000000000E+00 -0.52056022731E+02  0.52056022731E+02  0.00000000000E+00 0.  1.
         25    2    1    2    0    0  0.66464066758E+01 -0.36774763687E+02  0.16903063313E+03  0.21357829991E+03  0.12509107599E+03 0.  0.
          5    1    3    3  502    0 -0.58844242509E+02 -0.20040949027E+02  0.71449208841E+02  0.94798451244E+02  0.41800000000E+01 0.  1.
         -5    1    3    3    0  502  0.65490649185E+02 -0.16733814660E+02  0.97581424286E+02  0.11877984867E+03  0.41800000000E+01 0.  1.
        -11    1    1    2    0    0  0.21797260699E+02 -0.12416303353E+02 -0.10078830866E+02  0.27034570360E+02  0.00000000000E+00 0.  1.
         11    1    1    2    0    0 -0.28443667374E+02  0.49191067040E+02  0.60682366894E+02  0.83133344345E+02  0.00000000000E+00 0. -1.
</event>
<event>
 7    1  0.2794945E-009  0.1106944E+03  0.7561462E-02  0.1259289E+00
         -2   -1    0    0    0  501 -0.00000000000E+00  0.00000000000E+00  0.28466063934E+03  0.28466063934E+03  0.00000000000E+00 0.  1.
          2   -1    0    0  501    0  0.00000000000E+00 -0.00000000000E+00 -0.43155024772E+02  0.43155024772E+02  0.00000000000E+00 0. -1.
         25    2    1    2    0    0 -0.13969039102E+02  0.20246029243E+02  0.13824065752E+03  0.18804489328E+03  0.12508144045E+03 0.  0.
          5    1    3    3  502    0 -0.12386001716E+02  0.73079346882E+02  0.85996237895E+02  0.11360822730E+03  0.41800000000E+01 0. -1.
         -5    1    3    3    0  502 -0.15830373858E+01 -0.52833317639E+02  0.52244419621E+02  0.74436665976E+02  0.41800000000E+01 0. -1.
        -11    1    1    2    0    0 -0.10558289341E+02 -0.52531373653E+02  0.56201300397E+02  0.77650556070E+02  0.00000000000E+00 0. -1.
         11    1    1    2    0    0  0.24527328443E+02  0.32285344410E+02  0.47063656650E+02  0.62120214758E+02  0.00000000000E+00 0.  1.
</event>
<event>
 7    1  0.2794945E-009  0.1986783E+03  0.7561462E-02  0.1150859E+00
          4   -1    0    0  501    0  0.00000000000E+00  0.00000000000E+00  0.11306756511E+04  0.11306756511E+04  0.00000000000E+00 0.  1.
         -4   -1    0    0    0  501 -0.00000000000E+00 -0.00000000000E+00 -0.64718398828E+02  0.64718398828E+02  0.00000000000E+00 0. -1.
         25    2    1    2    0    0  0.12203198942E+03 -0.13265820099E+03  0.92139044725E+03  0.94715274535E+03  0.12509181431E+03 0.  0.
          5    1    3    3  502    0  0.94841720530E+00  0.16222749615E+02  0.19864746950E+03  0.19935487613E+03  0.41800000000E+01 0. -1.
         -5    1    3    3    0  502  0.12108357222E+03 -0.14888095060E+03  0.72274297775E+03  0.74779786921E+03  0.41800000000E+01 0. -1.
        -11    1    1    2    0    0 -0.65630664202E+02  0.31475356810E+02  0.14773922426E+02  0.74272141169E+02  0.00000000000E+00 0. -1.
         11    1    1    2    0    0 -0.56401325221E+02  0.10118284418E+03  0.12979288257E+03  0.17396916338E+03  0.00000000000E+00 0.  1.
</event>
<event>
 7    1  0.2794945E-009  0.1299878E+03  0.7561462E-02  0.1227474E+00
          1   -1    0    0  501    0  0.00000000000E+00  0.00000000000E+00  0.58057272987E+03  0.58057272987E+03  0.00000000000E+00 0. -1.
         -1   -1    0    0    0  501 -0.00000000000E+00 -0.00000000000E+00 -0.40561391939E+02  0.40561391939E+02  0.00000000000E+00 0.  1.
         25    2    1    2    0    0  0.83049442601E+02  0.70641466765E+02  0.30803026822E+03  0.34987997913E+03  0.12508367964E+03 0.  0.
          5    1    3    3  502    0  0.12317150510E+02  0.77724612664E+02  0.85702379058E+02  0.11642679153E+03  0.41800000000E+01 0.  1.
         -5    1    3    3    0  502  0.70732292091E+02 -0.70831458989E+01  0.22232788916E+03  0.23345318759E+03  0.41800000000E+01 0.  1.
        -11    1    1    2    0    0 -0.53119009397E+02 -0.53859687311E+02  0.22343275807E+03  0.23589127253E+03  0.00000000000E+00 0. -1.
         11    1    1    2    0    0 -0.29930433203E+02 -0.16781779454E+02  0.85483116434E+01  0.35362870151E+02  0.00000000000E+00 0.  1.
</event>
<event>
 7    1  0.2794945E-009  0.1201289E+03  0.7561462E-02  0.1242885E+00
          2   -1    0    0  501    0  0.00000000000E+00  0.00000000000E+00  0.30885283494E+03  0.30885283494E+03  0.00000000000E+00 0. -1.
         -2   -1    0    0    0  501 -0.00000000000E+00 -0.00000000000E+00 -0.52571670770E+02  0.52571670770E+02  0.00000000000E+00 0.  1.
         25    2    1    2    0    0 -0.54617817199E+02  0.15549383489E+02  0.19382758404E+03  0.23757373900E+03  0.12508900768E+03 0.  0.
          5    1    3    3  502    0  0.39649163624E+02  0.19535670503E+01  0.77468168540E+02  0.87147358751E+02  0.41800000000E+01 0.  1.
         -5    1    3    3    0  502 -0.94266980823E+02  0.13595816439E+02  0.11635941550E+03  0.15042638025E+03  0.41800000000E+01 0.  1.
        -11    1    1    2    0    0  0.79210839180E+02 -0.13183876683E+02  0.57204670571E+02  0.98592829269E+02  0.00000000000E+00 0. -1.
         11    1    1    2    0    0 -0.24593021981E+02 -0.23655068056E+01  0.52489095634E+01  0.25257937450E+02  0.00000000000E+00 0.  1.
</event>
<event>
 7    1  0.2794945E-009  0.1234195E+03  0.7561462E-02  0.1237560E+00
          2   -1    0    0  501    0  0.00000000000E+00  0.00000000000E+00  0.19192238933E+04  0.19192238933E+04  0.00000000000E+00 0.  1.
         -2   -1    0    0    0  501 -0.00000000000E+00 -0.00000000000E+00 -0.11833546555E+02  0.11833546555E+02  0.00000000000E+00 0. -1.
         25    2    1    2    0    0  0.29727412103E+02 -0.58059398441E+02  0.15554426845E+04  0.15618272351E+04  0.12509098523E+03 0.  0.
          5    1    3    3  502    0 -0.30290048429E+02  0.20604104419E+02  0.63566708144E+03  0.63673552358E+03  0.41800000000E+01 0.  1.
         -5    1    3    3    0  502  0.60017460532E+02 -0.78663502860E+02  0.91977560308E+03  0.92509171149E+03  0.41800000000E+01 0.  1.
        -11    1    1    2    0    0  0.30327249723E+02  0.35724905555E+02  0.16950266752E+03  0.17586121019E+03  0.00000000000E+00 0.  1.
         11    1    1    2    0    0 -0.60054661826E+02  0.22334492886E+02  0.18244499468E+03  0.19336899458E+03  0.00000000000E+00 0. -1.
</event>
<event>
 7    1  0.2794945E-009  0.1432897E+03  0.7561462E-02  0.1208970E+00
          2   -1    0    0  501    0  0.00000000000E+00  0.00000000000E+00  0.16212768109E+04  0.16212768109E+04  0.00000000000E+00 0. -1.
         -2   -1    0    0    0  501 -0.00000000000E+00 -0.00000000000E+00 -0.22033070013E+02  0.22033070013E+02  0.00000000000E+00 0.  1.
         25    2    1    2    0    0 -0.11378430403E+03  0.10607716184E+02  0.12896329897E+04  0.13007151373E+04  0.12508888381E+03 0.  0.
          5    1    3    3  502    0 -0.11498416629E+03  0.40164657629E+02  0.71543634666E+03  0.72574182513E+03  0.41800000000E+01 0. -1.
         -5    1    3    3    0  502  0.11998622585E+01 -0.29556941445E+02  0.57419664302E+03  0.57497331217E+03  0.41800000000E+01 0. -1.
        -11    1    1    2    0    0  0.64179007499E+02 -0.41471588200E+02  0.10535618117E+03  0.13014900131E+03  0.00000000000E+00 0. -1.
         11    1    1    2    0    0  0.49605296532E+02  0.30863872016E+02  0.20425457005E+03  0.21244574231E+03  0.00000000000E+00 0.  1.
</event>
<event>
 7    1  0.2794945E-009  0.1106633E+03  0.7561462E-02  0.1259346E+00
         -2   -1    0    0    0  501 -0.00000000000E+00  0.00000000000E+00  0.63353257165E+03  0.63353257165E+03  0.00000000000E+00 0.  1.
          2   -1    0    0  501    0  0.00000000000E+00 -0.00000000000E+00 -0.22577903547E+02  0.22577903547E+02  0.00000000000E+00 0. -1.
         25    2    1    2    0    0 -0.32054731642E+02  0.32328033829E+02  0.39406249826E+03  0.41593925999E+03  0.12509039882E+03 0.  0.
          5    1    3    3  502    0 -0.11727362953E+02  0.78830585707E+02  0.20074821341E+03  0.21603034479E+03  0.41800000000E+01 0. -1.
         -5    1    3    3    0  502 -0.20327368690E+02 -0.46502551878E+02  0.19331428485E+03  0.19990891520E+03  0.41800000000E+01 0. -1.
        -11    1    1    2    0    0  0.45429432839E+02  0.97322981275E+01  0.16799450734E+03  0.17430061816E+03  0.00000000000E+00 0.  1.
         11    1    1    2    0    0 -0.13374701197E+02 -0.42060331956E+02  0.48897662502E+02  0.65870597041E+02  0.00000000000E+00 0. -1.
</event>
<event>
 7    1  0.2794945E-009  0.1848731E+03  0.7561462E-02  0.1163168E+00
          1   -1    0    0  501    0  0.00000000000E+00  0.00000000000E+00  0.58239524594E+03  0.58239524594E+03  0.00000000000E+00 0.  1.
         -1   -1    0    0    0  501 -0.00000000000E+00 -0.00000000000E+00 -0.81976131063E+02  0.81976131063E+02  0.00000000000E+00 0. -1.
         25    2    1    2    0    0  0.82777516714E+02 -0.12451924836E+03  0.83287771930E+02  0.21199455918E+03  0.12509068583E+03 0.  0.
          5    1    3    3  502    0  0.10293264604E+02 -0.12178595762E+03  0.52492718395E+02  0.13308166160E+03  0.41800000000E+01 0. -1.
         -5    1    3    3    0  502  0.72484252110E+02 -0.27332907427E+01  0.30795053535E+02  0.78912897580E+02  0.41800000000E+01 0. -1.
        -11    1    1    2    0    0 -0.93750609730E+02  0.64526578038E+02  0.25960836008E+03  0.28345962097E+03  0.00000000000E+00 0. -1.
         11    1    1    2    0    0  0.10973093016E+02  0.59992670320E+02  0.15752298286E+03  0.16891719685E+03  0.00000000000E+00 0.  1.
</event>
<event>
 7    1  0.2794945E-009  0.9344275E+02  0.7561462E-02  0.1294722E+00
          2   -1    0    0  501    0  0.00000000000E+00  0.00000000000E+00  0.50423226972E+03  0.50423226972E+03  0.00000000000E+00 0. -1.
         -2   -1    0    0    0  501 -0.00000000000E+00 -0.00000000000E+00 -0.27357778132E+02  0.27357778132E+02  0.00000000000E+00 0.  1.
         25    2    1    2    0    0  0.35896995250E+02  0.26309651861E+02  0.28849385596E+03  0.31758382668E+03  0.12509992003E+03 0.  0.
          5    1    3    3  502    0 -0.40637382282E+02  0.20295629886E+02  0.53364619683E+02  0.70203735407E+02  0.41800000000E+01 0. -1.
         -5    1    3    3    0  502  0.76534377532E+02  0.60140219754E+01  0.23512923628E+03  0.24738009127E+03  0.41800000000E+01 0. -1.
        -11    1    1    2    0    0 -0.21039292273E+01  0.12643470625E+02 -0.50823811211E+01  0.13788200227E+02  0.00000000000E+00 0.  1.
         11    1    1    2    0    0 -0.33793066023E+02 -0.38953122486E+02  0.19346301675E+03  0.20021802094E+03  0.00000000000E+00 0. -1.
</event>
<event>
 7    1  0.2794945E-009  0.1936057E+03  0.7561462E-02  0.1155249E+00
         -1   -1    0    0    0  501 -0.00000000000E+00  0.00000000000E+00  0.77896886967E+03  0.77896886967E+03  0.00000000000E+00 0.  1.
          1   -1    0    0  501    0  0.00000000000E+00 -0.00000000000E+00 -0.51989089789E+02  0.51989089789E+02  0.00000000000E+00 0. -1.
         25    2    1    2    0    0  0.49477783299E+02 -0.15697264472E+03  0.46017051533E+03  0.50447231631E+03  0.12508777924E+03 0.  0.
          5    1    3    3  502    0 -0.36284139617E+02 -0.47556542143E+02  0.20821161985E+03  0.21667421288E+03  0.41800000000E+01 0.  1.
         -5    1    3    3    0  502  0.85761922915E+02 -0.10941610258E+03  0.25195889548E+03  0.28779810343E+03  0.41800000000E+01 0.  1.
        -11    1    1    2    0    0  0.27029835480E+02  0.35786014009E+02  0.63257176308E+02  0.77541738175E+02  0.00000000000E+00 0. -1.
         11    1    1    2    0    0 -0.76507618779E+02  0.12118663071E+03  0.20355208824E+03  0.24894390497E+03  0.00000000000E+00 0.  1.
</event>
<event>
 7    1  0.2794945E-009  0.1331598E+03  0.7561462E-02  0.1222841E+00
         -1   -1    0    0    0  501 -0.00000000000E+00  0.00000000000E+00  0.47754583295E+02  0.47754583295E+02  0.00000000000E+00 0.  1.
          1   -1    0    0  501    0  0.00000000000E+00 -0.00000000000E+00 -0.54738827014E+03  0.54738827014E+03  0.00000000000E+00 0. -1.
         25    2    1    2    0    0 -0.52586832426E+02 -0.10364603246E+03 -0.31284302142E+03  0.35640743601E+03  0.12509048487E+03 0.  0.
          5    1    3    3  502    0 -0.42090407742E+02 -0.58480469765E+02 -0.46118760968E+02  0.85650337308E+02  0.41800000000E+01 0. -1.
         -5    1    3    3    0  502 -0.10496424684E+02 -0.45165562699E+02 -0.26672426045E+03  0.27075709871E+03  0.41800000000E+01 0. -1.
        -11    1    1    2    0    0 -0.11758210911E+02  0.77085663861E+02 -0.84240255531E+02  0.11479057343E+03  0.00000000000E+00 0. -1.
         11    1    1    2    0    0  0.64345043337E+02  0.26560368604E+02 -0.10255040989E+03  0.12394484399E+03  0.00000000000E+00 0.  1.
</event>
<event>
 7    1  0.2794945E-009  0.2408075E+03  0.7561462E-02  0.1119256E+00
         -1   -1    0    0    0  501 -0.00000000000E+00  0.00000000000E+00  0.38832320297E+03  0.38832320297E+03  0.00000000000E+00 0.  1.
          1   -1    0    0  501    0  0.00000000000E+00 -0.00000000000E+00 -0.17614169605E+03  0.17614169605E+03  0.00000000000E+00 0. -1.
         25    2    1    2    0    0 -0.72574131884E+02  0.20949180916E+03  0.18370067171E+03  0.31392195452E+03  0.12508890446E+03 0.  0.
          5    1    3    3  502    0 -0.21396447053E+02 -0.12198644108E+02  0.31284894874E+02  0.40035383248E+02  0.41800000000E+01 0.  1.
         -5    1    3    3    0  502 -0.51177684830E+02  0.22169045327E+03  0.15241577684E+03  0.27388657128E+03  0.41800000000E+01 0.  1.
        -11    1    1    2    0    0  0.30640935791E+02 -0.16544520032E+03 -0.24316761014E+02  0.17000672376E+03  0.00000000000E+00 0. -1.
         11    1    1    2    0    0  0.41933196093E+02 -0.44046608838E+02  0.52797596213E+02  0.80536220736E+02  0.00000000000E+00 0.  1.
</event>
<event>
 7    1  0.2794945E-009  0.1230044E+03  0.7561462E-02  0.1238221E+00
         -2   -1    0    0    0  501 -0.00000000000E+00  0.00000000000E+00  0.86228115373E+02  0.86228115373E+02  0.00000000000E+00 0.  1.
          2   -1    0    0  501    0  0.00000000000E+00 -0.00000000000E+00 -0.26715339388E+03  0.26715339388E+03  0.00000000000E+00 0. -1.
         25    2    1    2    0    0 -0.11419030320E+02 -0.10033202081E+03 -0.12839450292E+03  0.20574237669E+03  0.12509144069E+03 0.  0.
          5    1    3    3  502    0  0.74333706368E+01  0.20720617631E+02  0.66365428611E+01  0.23369105571E+02  0.41800000000E+01 0.  1.
         -5    1    3    3    0  502 -0.18852400957E+02 -0.12105263844E+03 -0.13503104578E+03  0.18237327112E+03  0.41800000000E+01 0.  1.
        -11    1    1    2    0    0  0.68726303854E+01  0.71621464183E+02  0.15550691128E+02  0.73611759758E+02  0.00000000000E+00 0.  1.
         11    1    1    2    0    0  0.45463999345E+01  0.28710556624E+02 -0.68081466720E+02  0.74027372808E+02  0.00000000000E+00 0. -1.
</event>
<event>
 7    1  0.2794945E-009  0.1332725E+03  0.7561462E-02  0.1222679E+00
          1   -1    0    0  501    0  0.00000000000E+00  0.00000000000E+00  0.51693262689E+03  0.51693262689E+03  0.00000000000E+00 0. -1.
         -1   -1    0    0    0  501 -0.00000000000E+00 -0.00000000000E+00 -0.38659415092E+02  0.38659415092E+02  0.00000000000E+00 0.  1.
         25    2    1    2    0    0  0.85009148276E+02  0.16491422781E+02  0.31089555102E+03  0.34612410241E+03  0.12508928134E+03 0.  0.
          5    1    3    3  502    0  0.11578789730E+03  0.15552716581E+02  0.20755910512E+03  0.23821624351E+03  0.41800000000E+01 0. -1.
         -5    1    3    3    0  502 -0.30778749020E+02  0.93870620038E+00  0.10333644590E+03  0.10790785890E+03  0.41800000000E+01 0. -1.
        -11    1    1    2    0    0 -0.78027187307E+01  0.28267575809E+02  0.15142921811E+02  0.33003732254E+02  0.00000000000E+00 0.  1.
         11    1    1    2    0    0 -0.77206429545E+02 -0.44758998590E+02  0.15223473897E+03  0.17646420732E+03  0.00000000000E+00 0. -1.
</event>
<event>
 7    1  0.2794945E-009  0.8389025E+02  0.7561462E-02  0.1318360E+00
         -1   -1    0    0    0  501 -0.00000000000E+00  0.00000000000E+00  0.77519357505E+02  0.77519357505E+02  0.00000000000E+00 0.  1.
          1   -1    0    0  501    0  0.00000000000E+00 -0.00000000000E+00 -0.13344138730E+03  0.13344138730E+03  0.00000000000E+00 0. -1.
         25    2    1    2    0    0  0.14449913299E+02  0.76751964277E+01 -0.42319046784E+02  0.13312022936E+03  0.12514945110E+03 0.  0.
          5    1    3    3  502    0 -0.88328071206E+01 -0.38591886733E+02  0.25803737120E+02  0.47441094555E+02  0.41800000000E+01 0. -1.
         -5    1    3    3    0  502  0.23282720419E+02  0.46267083161E+02 -0.68122783904E+02  0.85679134806E+02  0.41800000000E+01 0. -1.
        -11    1    1    2    0    0 -0.43874241746E+02  0.46210498346E+01 -0.12815170565E+02  0.45940524453E+02  0.00000000000E+00 0. -1.
         11    1    1    2    0    0  0.29424328448E+02 -0.12296246262E+02 -0.78781244663E+00  0.31899990991E+02  0.00000000000E+00 0.  1.
</event>
<event>
 7    1  0.2794945E-009  0.9816434E+02  0.7561462E-02  0.1284204E+00
         -2   -1    0    0    0  501 -0.00000000000E+00  0.00000000000E+00  0.12259220262E+03  0.12259220262E+03  0.00000000000E+00 0.  1.
          2   -1    0    0  501    0  0.00000000000E+00 -0.00000000000E+00 -0.20889978869E+03  0.20889978869E+03  0.00000000000E+00 0. -1.
         25    2    1    2    0    0 -0.39181194173E+02  0.26822458623E+02 -0.15852142332E+03  0.20743885766E+03  0.12508887940E+03 0.  0.
          5    1    3    3  502    0 -0.36372984282E+02 -0.37801585669E+02 -0.12240063628E+03  0.13323416239E+03  0.41800000000E+01 0.  1.
         -5    1    3    3    0  502 -0.28082098917E+01  0.64624044292E+02 -0.36120787040E+02  0.74204695268E+02  0.41800000000E+01 0.  1.
        -11    1    1    2    0    0 -0.80186482248E+01  0.14226483072E+02  0.57526081658E+02  0.59799177343E+02  0.00000000000E+00 0.  1.
         11    1    1    2    0    0  0.47199842398E+02 -0.41048941695E+02  0.14687755601E+02  0.64253956309E+02  0.00000000000E+00 0. -1.
</event>
<event>
 7    1  0.2794945E-009  0.1194801E+03  0.7561462E-02  0.1243957E+00
         -3   -1    0    0    0  501 -0.00000000000E+00  0.00000000000E+00  0.22650750526E+02  0.22650750526E+02  0.00000000000E+00 0.  1.
          3   -1    0    0  501    0  0.00000000000E+00 -0.00000000000E+00 -0.72371544774E+03  0.72371544774E+03  0.00000000000E+00 0. -1.
         25    2    1    2    0    0  0.59861175100E+02 -0.26380150644E+02 -0.42015276214E+03  0.44322907280E+03  0.12507755515E+03 0.  0.
          5    1    3    3  502    0  0.90906568289E+02 -0.98497149107E+01 -0.37407444379E+03  0.38511061131E+03  0.41800000000E+01 0.  1.
         -5    1    3    3    0  502 -0.31045393188E+02 -0.16530435733E+02 -0.46078318350E+02  0.58118461488E+02  0.41800000000E+01 0.  1.
        -11    1    1    2    0    0 -0.30242601418E+02  0.60005978925E+02 -0.19479734092E+03  0.20606148712E+03  0.00000000000E+00 0. -1.
         11    1    1    2    0    0 -0.29618573683E+02 -0.33625828280E+02 -0.86114594152E+02  0.97075638347E+02  0.00000000000E+00 0.  1.
</event>
<event>
 7    1  0.2794945E-009  0.1141382E+03  0.7561462E-02  0.1253093E+00
         -1   -1    0    0    0  501 -0.00000000000E+00  0.00000000000E+00  0.12229685699E+02  0.12229685699E+02  0.00000000000E+00 0.  1.
          1   -1    0    0  501    0  0.00000000000E+00 -0.00000000000E+00 -0.14651123568E+04  0.14651123568E+04  0.00000000000E+00 0. -1.
         25    2    1    2    0    0  0.27364254312E+02 -0.71421604177E+02 -0.92332970988E+03  0.93489833479E+03  0.12508914933E+03 0.  0.
          5    1    3    3  502    0 -0.22736351130E+02  0.36035259101E+01 -0.35684718030E+02  0.42670816286E+02  0.41800000000E+01 0. -1.
         -5    1    3    3    0  502  0.50100605441E+02 -0.75025130087E+02 -0.88764499185E+03  0.89222751850E+03  0.41800000000E+01 0. -1.
        -11    1    1    2    0    0 -0.54468338810E+02  0.23101812058E+02 -0.21232354740E+03  0.22041275470E+03  0.00000000000E+00 0.  1.
         11    1    1    2    0    0  0.27104084499E+02  0.48319792119E+02 -0.31722941379E+03  0.32203095299E+03  0.00000000000E+00 0. -1.
</event>
<event>
 7    1  0.2794945E-009  0.1355831E+03  0.7561462E-02  0.1219399E+00
         -1   -1    0    0    0  501 -0.00000000000E+00  0.00000000000E+00  0.10654123020E+03  0.10654123020E+03  0.00000000000E+00 0.  1.
          1   -1    0    0  501    0  0.00000000000E+00 -0.00000000000E+00 -0.20710037928E+03  0.20710037928E+03  0.00000000000E+00 0. -1.
         25    2    1    2    0    0  0.94353120457E+02 -0.34815209255E+02 -0.76364746591E+02  0.17775379891E+03  0.12510087278E+03 0.  0.
          5    1    3    3  502    0 -0.16833694372E+01 -0.51583310539E+02  0.31563352887E+01  0.51875876005E+02  0.41800000000E+01 0. -1.
         -5    1    3    3    0  502  0.96036489894E+02  0.16768101284E+02 -0.79521081880E+02  0.12587792291E+03  0.41800000000E+01 0. -1.
        -11    1    1    2    0    0 -0.24411887851E+02  0.44934962975E+02  0.17241618589E+02  0.53966328183E+02  0.00000000000E+00 0.  1.
         11    1    1    2    0    0 -0.69941232606E+02 -0.10119753720E+02 -0.41436021079E+02  0.81921482388E+02  0.00000000000E+00 0. -1.
</event>
<event>
 7    1  0.2794945E-009  0.1202434E+03  0.7561462E-02  0.1242696E+00
         -2   -1    0    0    0  501 -0.00000000000E+00  0.00000000000E+00  0.82700414682E+02  0.82700414682E+02  0.00000000000E+00 0.  1.
          2   -1    0    0  501    0  0.00000000000E+00 -0.00000000000E+00 -0.21444622388E+03  0.21444622388E+03  0.00000000000E+00 0. -1.
         25    2    1    2    0    0 -0.37072719296E+02 -0.65052644030E+02 -0.94026247474E+02  0.17348165108E+03  0.12509482417E+03 0.  0.
          5    1    3    3  502    0 -0.66836617273E+01  0.31385069283E+02  0.39806476248E+01  0.32603862708E+02  0.41800000000E+01 0.  1.
         -5    1    3    3    0  502 -0.30389057569E+02 -0.96437713313E+02 -0.98006895099E+02  0.14087778837E+03  0.41800000000E+01 0.  1.
        -11    1    1    2    0    0  0.55630085099E+02  0.21596081525E+02 -0.46437594279E+02  0.75614464673E+02  0.00000000000E+00 0. -1.
         11    1    1    2    0    0 -0.18557365803E+02  0.43456562504E+02  0.87180325596E+01  0.48050522806E+02  0.00000000000E+00 0.  1.
</event>
<event>
 7    1  0.2794945E-009  0.1034060E+03  0.7561462E-02  0.1273292E+00
          2   -1    0    0  501    0  0.00000000000E+00  0.00000000000E+00  0.46920863672E+03  0.46920863672E+03  0.00000000000E+00 0.  1.
         -2   -1    0    0    0  501 -0.00000000000E+00 -0.00000000000E+00 -0.33827206888E+02  0.33827206888E+02  0.00000000000E+00 0. -1.
         25    2    1    2    0    0 -0.13301528359E+02  0.52404797689E+02  0.31570813012E+03  0.34386494677E+03  0.12509310421E+03 0.  0.
          5    1    3    3  502    0  0.36528104332E+02  0.51693405825E+02  0.75996140420E+02  0.98991900530E+02  0.41800000000E+01 0.  1.
         -5    1    3    3    0  502 -0.49829632691E+02  0.71139186439E+00  0.23971198970E+03  0.24487304624E+03  0.41800000000E+01 0.  1.
        -11    1    1    2    0    0  0.21276800200E+02  0.14654731872E+02  0.72033141264E+02  0.76526053298E+02  0.00000000000E+00 0.  1.
         11    1    1    2    0    0 -0.79752718407E+01 -0.67059529561E+02  0.47640158454E+02  0.82644843538E+02  0.00000000000E+00 0. -1.
</event>
<event>
 7    1  0.2794945E-009  0.1001864E+03  0.7561462E-02  0.1279904E+00
          1   -1    0    0  501    0  0.00000000000E+00  0.00000000000E+00  0.24889824163E+03  0.24889824163E+03  0.00000000000E+00 0. -1.
         -1   -1    0    0    0  501 -0.00000000000E+00 -0.00000000000E+00 -0.70080718472E+02  0.70080718472E+02  0.00000000000E+00 0.  1.
         25    2    1    2    0    0 -0.46060584498E+02  0.28208508633E+00  0.16933056187E+03  0.21550277746E+03  0.12508777276E+03 0.  0.
          5    1    3    3  502    0 -0.70170278428E+02  0.33160999096E+02  0.15256290807E+03  0.17122042271E+03  0.41800000000E+01 0. -1.
         -5    1    3    3    0  502  0.24109693930E+02 -0.32878914010E+02  0.16767653801E+02  0.44282354746E+02  0.41800000000E+01 0. -1.
        -11    1    1    2    0    0  0.21140637587E+02  0.33543765789E+02  0.36199553540E+02  0.53689090674E+02  0.00000000000E+00 0. -1.
         11    1    1    2    0    0  0.24919946912E+02 -0.33825850875E+02 -0.26712592255E+02  0.49787091966E+02  0.00000000000E+00 0.  1.
</event>
<event>
 7    1  0.2794945E-009  0.1920389E+03  0.7561462E-02  0.1156635E+00
         -2   -1    0    0    0  501 -0.00000000000E+00  0.00000000000E+00  0.60137306668E+02  0.60137306668E+02  0.00000000000E+00 0.  1.
          2   -1    0    0  501    0  0.00000000000E+00 -0.00000000000E+00 -0.79349705990E+03  0.79349705990E+03  0.00000000000E+00 0. -1.
         25    2    1    2    0    0 -0.13835035768E+03 -0.12020655022E+03 -0.47032546016E+03  0.52004271088E+03  0.12509175224E+03 0.  0.
          5    1    3    3  502    0 -0.95890297340E+02 -0.33987727146E+02 -0.12318092511E+03  0.15981591733E+03  0.41800000000E+01 0. -1.
         -5    1    3    3    0  502 -0.42460060342E+02 -0.86218823078E+02 -0.34714453506E+03  0.36022679356E+03  0.41800000000E+01 0. -1.
        -11    1    1    2    0    0  0.77829202088E+02  0.46399168872E+02 -0.19898820130E+03  0.21864713999E+03  0.00000000000E+00 0. -1.
         11    1    1    2    0    0  0.60521155594E+02  0.73807381353E+02 -0.64046091766E+02  0.11494451569E+03  0.00000000000E+00 0.  1.
</event>
<event>
 7    1  0.2794945E-009  0.1189969E+03  0.7561462E-02  0.1244761E+00
          3   -1    0    0  501    0  0.00000000000E+00  0.00000000000E+00  0.24999668893E+03  0.24999668893E+03  0.00000000000E+00 0. -1.
         -3   -1    0    0    0  501 -0.00000000000E+00 -0.00000000000E+00 -0.85504255833E+02  0.85504255833E+02  0.00000000000E+00 0.  1.
         25    2    1    2    0    0  0.58900057244E+02  0.72661817661E+02  0.55365349948E+02  0.16572893016E+03  0.12510715338E+03 0.  0.
          5    1    3    3  502    0  0.52814007594E+02 -0.88202564426E+01 -0.17172959051E+02  0.56387048552E+02  0.41800000000E+01 0.  1.
         -5    1    3    3    0  502  0.60860496499E+01  0.81482074104E+02  0.72538309000E+02  0.10934188161E+03  0.41800000000E+01 0.  1.
        -11    1    1    2    0    0 -0.12734402266E+02  0.36790158087E+01  0.71884299478E+02  0.73096187793E+02  0.00000000000E+00 0. -1.
         11    1    1    2    0    0 -0.46165654977E+02 -0.76340833470E+02  0.37242783672E+02  0.96675826813E+02  0.00000000000E+00 0.  1.
</event>
<event>
 7    1  0.2794945E-009  0.1147191E+03  0.7561462E-02  0.1252072E+00
          1   -1    0    0  501    0  0.00000000000E+00  0.00000000000E+00  0.46359159599E+03  0.46359159599E+03  0.00000000000E+00 0. -1.
         -1   -1    0    0    0  501 -0.00000000000E+00 -0.00000000000E+00 -0.57820091162E+02  0.57820091162E+02  0.00000000000E+00 0.  1.
         25    2    1    2    0    0 -0.75977306912E+02  0.28820429865E+02  0.70553208164E+02  0.16500975398E+03  0.12508914975E+03 0.  0.
          5    1    3    3  502    0 -0.69954275651E+02  0.61061056740E+02  0.87675813618E+02  0.12777548288E+03  0.41800000000E+01 0.  1.
         -5    1    3    3    0  502 -0.60230312601E+01 -0.32240626875E+02 -0.17122605454E+02  0.37234271101E+02  0.41800000000E+01 0.  1.
        -11    1    1    2    0    0  0.59174216145E+02 -0.49239719101E+02  0.31152679401E+03  0.32089730629E+03  0.00000000000E+00 0. -1.
         11    1    1    2    0    0  0.16803090767E+02  0.20419289236E+02  0.23691502651E+02  0.35504626883E+02  0.00000000000E+00 0.  1.
</event>
<event>
 7    1  0.2794945E-009  0.1536849E+03  0.7561462E-02  0.1196017E+00
         -1   -1    0    0    0  501 -0.00000000000E+00  0.00000000000E+00  0.10628642165E+04  0.10628642165E+04  0.00000000000E+00 0.  1.
          1   -1    0    0  501    0  0.00000000000E+00 -0.00000000000E+00 -0.26992568821E+02  0.26992568821E+02  0.00000000000E+00 0. -1.
         25    2    1    2    0    0 -0.11335584049E+03  0.58794412413E+02  0.62798894420E+03  0.65293475562E+03  0.12508937428E+03 0.  0.
          5    1    3    3  502    0 -0.14085335730E+03  0.47839334290E+02  0.51716203387E+03  0.53814710985E+03  0.41800000000E+01 0. -1.
         -5    1    3    3    0  502  0.27497516812E+02  0.10955078123E+02  0.11082691033E+03  0.11478764577E+03  0.41800000000E+01 0. -1.
        -11    1    1    2    0    0  0.77928382060E+02 -0.48424185470E+02  0.37929160692E+03  0.39023051847E+03  0.00000000000E+00 0.  1.
         11    1    1    2    0    0  0.35427458432E+02 -0.10370226943E+02  0.28591096554E+02  0.46691511220E+02  0.00000000000E+00 0. -1.
</event>
<event>
 7    1  0.2794945E-009  0.1334889E+03  0.7561462E-02  0.1222369E+00
          1   -1    0    0  501    0  0.00000000000E+00  0.00000000000E+00  0.14957290140E+03  0.14957290140E+03  0.00000000000E+00 0. -1.
         -1   -1    0    0    0  501 -0.00000000000E+00 -0.00000000000E+00 -0.16744271032E+03  0.16744271032E+03  0.00000000000E+00 0.  1.
         25    2    1    2    0    0 -0.11818359817E+03 -0.30336243073E+02 -0.10125466695E+02  0.17503767290E+03  0.12509201148E+03 0.  0.
          5    1    3    3  502    0 -0.62720025761E+01 -0.31944081329E+02 -0.46820385058E+02  0.57178520489E+02  0.41800000000E+01 0. -1.
         -5    1    3    3    0  502 -0.11191159560E+03  0.16078382565E+01  0.36694918363E+02  0.11785915241E+03  0.41800000000E+01 0. -1.
        -11    1    1    2    0    0  0.43460857169E+02  0.14080583225E+02  0.32017935636E+02  0.55787607336E+02  0.00000000000E+00 0. -1.
         11    1    1    2    0    0  0.74722741003E+02  0.16255659847E+02 -0.39762277869E+02  0.86190331485E+02  0.00000000000E+00 0.  1.
</event>
<event>
 7    1  0.2794945E-009  0.1135953E+03  0.7561462E-02  0.1254053E+00
         -2   -1    0    0    0  501 -0.00000000000E+00  0.00000000000E+00  0.24176615453E+02  0.24176615453E+02  0.00000000000E+00 0.  1.
          2   -1    0    0  501    0  0.00000000000E+00 -0.00000000000E+00 -0.54694230343E+03  0.54694230343E+03  0.00000000000E+00 0. -1.
         25    2    1    2    0    0  0.33738780196E+02 -0.19047222689E+02 -0.26848558319E+03  0.29871887749E+03  0.12508939766E+03 0.  0.
          5    1    3    3  502    0 -0.41332459817E+02 -0.33623565204E+02 -0.12807626871E+03  0.13878011160E+03  0.41800000000E+01 0. -1.
         -5    1    3    3    0  502  0.75071240013E+02  0.14576342515E+02 -0.14040931449E+03  0.15993876589E+03  0.41800000000E+01 0. -1.
        -11    1    1    2    0    0  0.24458259882E+02  0.29191524077E+02 -0.11383774313E+03  0.12003909078E+03  0.00000000000E+00 0. -1.
         11    1    1    2    0    0 -0.58197040078E+02 -0.10144301388E+02 -0.14044236166E+03  0.15236095062E+03  0.00000000000E+00 0.  1.
</event>
<event>
 7    1  0.3858766E-009  0.1651814E+03  0.7561462E-02  0.1182968E+00
          2   -1    0    0  501    0  0.00000000000E+00  0.00000000000E+00  0.12105054275E+04  0.12105054275E+04  0.00000000000E+00 0. -1.
         -2   -1    0    0    0  501 -0.00000000000E+00 -0.00000000000E+00 -0.23240302396E+02  0.23240302396E+02  0.00000000000E+00 0.  1.
         25    2    1    2    0    0  0.28853787836E+02 -0.12140403295E+03  0.53694045437E+03  0.56526454094E+03  0.12508984538E+03 0.  0.
          5    1    3    3  502    0  0.62451668993E+02 -0.12700478254E+03  0.45184197461E+03  0.47350719970E+03  0.41800000000E+01 0.  1.
         -5    1    3    3    0  502 -0.33597881157E+02  0.56007495907E+01  0.85098479757E+02  0.91757341239E+02  0.41800000000E+01 0.  1.
        -11    1    1    2    0    0  0.33315440983E+02  0.42617584893E+02  0.20872481612E+03  0.21562056028E+03  0.00000000000E+00 0.  1.
         11    1    1    2    0    0 -0.62169228819E+02  0.78786448059E+02  0.44159985460E+03  0.45286062867E+03  0.00000000000E+00 0. -1.
</event>
<event>
 7    1  0.2794945E-009  0.1230299E+03  0.7561462E-02  0.1238181E+00
          2   -1    0    0  501    0  0.00000000000E+00  0.00000000000E+00  0.24065079458E+03  0.24065079458E+03  0.00000000000E+00 0.  1.
         -2   -1    0    0    0  501 -0.00000000000E+00 -0.00000000000E+00 -0.87656736946E+02  0.87656736946E+02  0.00000000000E+00 0. -1.
         25    2    1    2    0    0 -0.51703249807E+02 -0.75743564576E+02  0.11256829511E+03  0.19164989266E+03  0.12509095362E+03 0.  0.
          5    1    3    3  502    0 -0.81493750807E+02 -0.17240600695E+02  0.36381115649E+02  0.90991910128E+02  0.41800000000E+01 0. -1.
         -5    1    3    3    0  502  0.29790501000E+02 -0.58502963881E+02  0.76187179466E+02  0.10065798253E+03  0.41800000000E+01 0. -1.
        -11    1    1    2    0    0  0.55459275003E+02  0.64741023047E+02 -0.91498124419E+01  0.85737100002E+02  0.00000000000E+00 0. -1.
         11    1    1    2    0    0 -0.37560251958E+01  0.11002541530E+02  0.49575574965E+02  0.50920538866E+02  0.00000000000E+00 0.  1.
</event>
<event>
 7    1  0.2794945E-009  0.1706242E+03  0.7561462E-02  0.1177199E+00
         -2   -1    0    0    0  501 -0.00000000000E+00  0.00000000000E+00  0.16598878600E+03  0.16598878600E+03  0.00000000000E+00 0.  1.
          2   -1    0    0  501    0  0.00000000000E+00 -0.00000000000E+00 -0.25353068433E+03  0.25353068433E+03  0.00000000000E+00 0. -1.
         25    2    1    2    0    0  0.12710040835E+03  0.41024456781E+02 -0.16008603531E+03  0.24313072742E+03  0.12508993587E+03 0.  0.
          5    1    3    3  502    0 -0.22789804724E+02  0.16717445211E+02 -0.41663591656E+02  0.50519060199E+02  0.41800000000E+01 0. -1.
         -5    1    3    3    0  502  0.14989021308E+03  0.24307011570E+02 -0.11842244366E+03  0.19261166722E+03  0.41800000000E+01 0. -1.
        -11    1    1    2    0    0 -0.19388086038E+02 -0.49067433953E+02  0.24694476981E+02  0.58252280198E+02  0.00000000000E+00 0. -1.
         11    1    1    2    0    0 -0.10771232232E+03  0.80429771715E+01  0.47849660000E+02  0.11813646271E+03  0.00000000000E+00 0.  1.
</event>
<event>
 7    1  0.2794945E-009  0.1170427E+03  0.7561462E-02  0.1248057E+00
         -2   -1    0    0    0  501 -0.00000000000E+00  0.00000000000E+00  0.71328029729E+02  0.71328029729E+02  0.00000000000E+00 0.  1.
          2   -1    0    0  501    0  0.00000000000E+00 -0.00000000000E+00 -0.20759056159E+03  0.20759056159E+03  0.00000000000E+00 0. -1.
         25    2    1    2    0    0 -0.44158790954E+02 -0.25845455227E+02 -0.10134632474E+03  0.16892899210E+03  0.12509172817E+03 0.  0.
          5    1    3    3  502    0 -0.83035095571E+02  0.44784842650E+01 -0.47738094436E+02  0.95975423824E+02  0.41800000000E+01 0. -1.
         -5    1    3    3    0  502  0.38876304617E+02 -0.30323939492E+02 -0.53608230309E+02  0.72953568274E+02  0.41800000000E+01 0. -1.
        -11    1    1    2    0    0 -0.20567061874E+02 -0.14417004706E+02 -0.20479774607E+02  0.32407950056E+02  0.00000000000E+00 0.  1.
         11    1    1    2    0    0  0.64725852828E+02  0.40262459934E+02 -0.14436432513E+02  0.77581649170E+02  0.00000000000E+00 0. -1.
</event>
<event>
 7    1  0.2794945E-009  0.1087600E+03  0.7561462E-02  0.1262884E+00
         -2   -1    0    0    0  501 -0.00000000000E+00  0.00000000000E+00  0.59814995500E+02  0.59814995500E+02  0.00000000000E+00 0.  1.
          2   -1    0    0  501    0  0.00000000000E+00 -0.00000000000E+00 -0.26347937539E+03  0.26347937539E+03  0.00000000000E+00 0. -1.
         25    2    1    2    0    0 -0.60574193096E+02  0.14541264974E+02 -0.98744638934E+02  0.17111020804E+03  0.12509004086E+03 0.  0.
          5    1    3    3  502    0 -0.41245847720E+02  0.51805595313E+02 -0.10908096939E+03  0.12767603512E+03  0.41800000000E+01 0. -1.
         -5    1    3    3    0  502 -0.19328345376E+02 -0.37264330339E+02  0.10336330457E+02  0.43434172927E+02  0.41800000000E+01 0. -1.
        -11    1    1    2    0    0  0.61319590867E+01  0.34903510070E+02 -0.23795611882E+02  0.42685911989E+02  0.00000000000E+00 0.  1.
         11    1    1    2    0    0  0.54442234009E+02 -0.49444775044E+02 -0.81124129079E+02  0.10949825086E+03  0.00000000000E+00 0. -1.
</event>
<event>
 7    1  0.2794945E-009  0.1040537E+03  0.7561462E-02  0.1271995E+00
          2   -1    0    0  501    0  0.00000000000E+00  0.00000000000E+00  0.15842785444E+03  0.15842785444E+03  0.00000000000E+00 0. -1.
         -2   -1    0    0    0  501 -0.00000000000E+00 -0.00000000000E+00 -0.10076493759E+03  0.10076493759E+03  0.00000000000E+00 0.  1.
         25    2    1    2    0    0  0.30521854966E+01 -0.16189054292E+02 -0.31589010828E+02  0.13006388816E+03  0.12508936039E+03 0.  0.
          5    1    3    3  502    0  0.58097690454E+02  0.16371402543E+02 -0.25585997986E+02  0.65692314240E+02  0.41800000000E+01 0. -1.
         -5    1    3    3    0  502 -0.55045504957E+02 -0.32560456835E+02 -0.60030128422E+01  0.64371573917E+02  0.41800000000E+01 0. -1.
        -11    1    1    2    0    0  0.37994156068E+02 -0.31754094335E+01  0.12794959181E+02  0.40216291485E+02  0.00000000000E+00 0.  1.
         11    1    1    2    0    0 -0.41046341564E+02  0.19364463725E+02  0.76456968494E+02  0.88912612392E+02  0.00000000000E+00 0. -1.
</event>
<event>
 6    1  0.2794945E-009  0.1162503E+03  0.7561462E-02  0.1249414E+00
          1   -1    0    0  501    0  0.00000000000E+00  0.00000000000E+00  0.22522480958E+03  0.22522480958E+03  0.00000000000E+00 0. -1.
         -1   -1    0    0    0  501 -0.00000000000E+00 -0.00000000000E+00 -0.97568794060E+02  0.97568794060E+02  0.00000000000E+00 0.  1.
          5    1    1    2  502    0 -0.16594475434E+01 -0.57958128643E+02 -0.39493214649E+02  0.70278622961E+02  0.41800000000E+01 0.  1.
         -5    1    1    2    0  502 -0.12024493086E+02 -0.39618214475E+02  0.86245953706E+02  0.95760264634E+02  0.41800000000E+01 0.  1.
        -11    1    1    2    0    0 -0.37911272655E+02  0.48379428400E+02  0.25839740731E+02  0.66674776998E+02  0.00000000000E+00 0.  1.
         11    1    1    2    0    0  0.51595213284E+02  0.49196914718E+02  0.55063535732E+02  0.90079939048E+02  0.00000000000E+00 0. -1.
</event>
<event>
 7    1  0.2794945E-009  0.1133643E+03  0.7561462E-02  0.1254464E+00
          4   -1    0    0  501    0  0.00000000000E+00  0.00000000000E+00  0.48034614004E+03  0.48034614004E+03  0.00000000000E+00 0. -1.
         -4   -1    0    0    0  501 -0.00000000000E+00 -0.00000000000E+00 -0.31355253702E+02  0.31355253702E+02  0.00000000000E+00 0.  1.
         25    2    1    2    0    0 -0.17425802862E+02  0.39260241761E+02  0.33897228435E+03  0.36386096061E+03  0.12509022306E+03 0.  0.
          5    1    3    3  502    0  0.43527508506E+02  0.53653716145E+02  0.18943492196E+03  0.20168397882E+03  0.41800000000E+01 0.  1.
         -5    1    3    3    0  502 -0.60953311368E+02 -0.14393474384E+02  0.14953736239E+03  0.16217698179E+03  0.41800000000E+01 0.  1.
        -11    1    1    2    0    0 -0.32856195109E+02 -0.28110348701E+02  0.29810898858E+02  0.52520576462E+02  0.00000000000E+00 0. -1.
         11    1    1    2    0    0  0.50281997971E+02 -0.11149893060E+02  0.80207703125E+02  0.95319856671E+02  0.00000000000E+00 0.  1.
</event>
<event>
 7    1  0.2794945E-009  0.1856220E+03  0.7561462E-02  0.1162470E+00
         -1   -1    0    0    0  501 -0.00000000000E+00  0.00000000000E+00  0.62198481261E+03  0.62198481261E+03  0.00000000000E+00 0.  1.
          1   -1    0    0  501    0  0.00000000000E+00 -0.00000000000E+00 -0.61203982998E+02  0.61203982998E+02  0.00000000000E+00 0. -1.
         25    2    1    2    0    0 -0.10749129232E+03 -0.11389987030E+03  0.24168160738E+03  0.31398465924E+03  0.12509519780E+03 0.  0.
          5    1    3    3  502    0 -0.42141292904E+02  0.13409710443E+02  0.11327059749E+03  0.12166926299E+03  0.41800000000E+01 0.  1.
         -5    1    3    3    0  502 -0.65349999411E+02 -0.12730958074E+03  0.12841100989E+03  0.19231539625E+03  0.41800000000E+01 0.  1.
        -11    1    1    2    0    0 -0.17939563082E+02  0.20711625116E+02  0.69749092344E+02  0.74938209355E+02  0.00000000000E+00 0. -1.
         11    1    1    2    0    0  0.12543085540E+03  0.93188245184E+02  0.24935012988E+03  0.29426592701E+03  0.00000000000E+00 0.  1.
</event>
<event>
 7    1  0.2794945E-009  0.1011440E+03  0.7561462E-02  0.1277909E+00
          2   -1    0    0  501    0  0.00000000000E+00  0.00000000000E+00  0.69290827008E+02  0.69290827008E+02  0.00000000000E+00 0. -1.
         -2   -1    0    0    0  501 -0.00000000000E+00 -0.00000000000E+00 -0.18255539894E+03  0.18255539894E+03  0.00000000000E+00 0.  1.
         25    2    1    2    0    0 -0.12932913269E+02 -0.12910063707E+02 -0.42893643541E+02  0.13349597435E+03  0.12508949005E+03 0.  0.
          5    1    3    3  502    0  0.28306888426E+02 -0.55426677737E+02 -0.39832152282E+01  0.62503879407E+02  0.41800000000E+01 0. -1.
         -5    1    3    3    0  502 -0.41239801695E+02  0.42516614030E+02 -0.38910428312E+02  0.70992094939E+02  0.41800000000E+01 0. -1.
        -11    1    1    2    0    0  0.14761034561E+02  0.45528978616E+02 -0.71056864888E+02  0.85672948373E+02  0.00000000000E+00 0.  1.
         11    1    1    2    0    0 -0.18281212917E+01 -0.32618914909E+02  0.68593650009E+00  0.32677303227E+02  0.00000000000E+00 0. -1.
</event>
<event>
 7    1  0.2794945E-009  0.6007968E+02  0.7561462E-02  0.1397498E+00
          1   -1    0    0  501    0  0.00000000000E+00  0.00000000000E+00  0.74989286696E+02  0.74989286696E+02  0.00000000000E+00 0. -1.
         -1   -1    0    0    0  501 -0.00000000000E+00 -0.00000000000E+00 -0.15748846396E+03  0.15748846396E+03  0.00000000000E+00 0.  1.
         25    2    1    2    0    0  0.16778328955E+01 -0.10172967708E+02 -0.45648016884E+02  0.13356094130E+03  0.12509388155E+03 0.  0.
          5    1    3    3  502    0  0.49332107515E+00  0.29873203897E+02  0.33298178770E+02  0.44932090828E+02  0.41800000000E+01 0. -1.
         -5    1    3    3    0  502  0.11845118203E+01 -0.40046171605E+02 -0.78946195654E+02  0.88628850476E+02  0.41800000000E+01 0. -1.
        -11    1    1    2    0    0 -0.24915211924E+02  0.16895019467E+01 -0.60029878960E+02  0.65016986780E+02  0.00000000000E+00 0.  1.
         11    1    1    2    0    0  0.23237379028E+02  0.84834657614E+01  0.23178718579E+02  0.33899822572E+02  0.00000000000E+00 0. -1.
</event>
<event>
 7    1  0.2794945E-009  0.1065795E+03  0.7561462E-02  0.1267038E+00
          2   -1    0    0  501    0  0.00000000000E+00  0.00000000000E+00  0.57756255900E+03  0.57756255900E+03  0.00000000000E+00 0. -1.
         -2   -1    0    0    0  501 -0.00000000000E+00 -0.00000000000E+00 -0.30685158648E+02  0.30685158648E+02  0.00000000000E+00 0.  1.
         25    2    1    2    0    0  0.56977374809E+02 -0.26070702005E+02  0.40127291703E+03  0.42496221497E+03  0.12508727941E+03 0.  0.
          5    1    3    3  502    0 -0.19206360122E+02 -0.34371808224E+02  0.42558021358E+02  0.58128848704E+02  0.41800000000E+01 0.  1.
         -5    1    3    3    0  502  0.76183734931E+02  0.83011062193E+01  0.35871489567E+03  0.36683336627E+03  0.41800000000E+01 0.  1.
        -11    1    1    2    0    0 -0.30901087932E+02  0.51713892224E+02  0.42062077735E+02  0.73473956391E+02  0.00000000000E+00 0.  1.
         11    1    1    2    0    0 -0.26076286876E+02 -0.25643190219E+02  0.10354240559E+03  0.10981154628E+03  0.00000000000E+00 0. -1.
</event>
<event>
 7    1  0.2794945E-009  0.1061953E+03  0.7561462E-02  0.1267782E+00
         -2   -1    0    0    0  501 -0.00000000000E+00  0.00000000000E+00  0.58679667064E+02  0.58679667064E+02  0.00000000000E+00 0.  1.
          2   -1    0    0  501    0  0.00000000000E+00 -0.00000000000E+00 -0.39795718269E+03  0.39795718269E+03  0.00000000000E+00 0. -1.
         25    2    1    2    0    0  0.56113436686E+02 -0.83946943132E+02 -0.23334916432E+03  0.28336104864E+03  0.12508334965E+03 0.  0.
          5    1    3    3  502    0  0.39438387527E-02 -0.39369822258E+02 -0.38997592772E+00  0.39593022130E+02  0.41800000000E+01 0.  1.
         -5    1    3    3    0  502  0.56109492847E+02 -0.44577120874E+02 -0.23295918839E+03  0.24376802651E+03  0.41800000000E+01 0.  1.
        -11    1    1    2    0    0 -0.35602205468E+02  0.50714872034E+02 -0.17171218877E+01  0.61987609949E+02  0.00000000000E+00 0.  1.
         11    1    1    2    0    0 -0.20511231218E+02  0.33232071098E+02 -0.10421122942E+03  0.11128819117E+03  0.00000000000E+00 0. -1.
</event>
<event>
 7    1  0.2852407E-009  0.1148808E+03  0.7561462E-02  0.1251789E+00
          1   -1    0    0  501    0  0.00000000000E+00  0.00000000000E+00  0.10744537098E+04  0.10744537098E+04  0.00000000000E+00 0. -1.
         -1   -1    0    0    0  501 -0.00000000000E+00 -0.00000000000E+00 -0.22870889639E+02  0.22870889639E+02  0.00000000000E+00 0.  1.
         25    2    1    2    0    0 -0.76602242155E+02 -0.23873915000E+02  0.84283756342E+03  0.85583871946E+03  0.12508752176E+03 0.  0.
          5    1    3    3  502    0 -0.53151245068E+02  0.39966042594E+02  0.23723291901E+03  0.24641280339E+03  0.41800000000E+01 0.  1.
         -5    1    3    3    0  502 -0.23450997088E+02 -0.63839957593E+02  0.60560464441E+03  0.60942591607E+03  0.41800000000E+01 0.  1.
        -11    1    1    2    0    0  0.23615518577E+02 -0.16129980190E+02  0.15041584871E+03  0.15311040631E+03  0.00000000000E+00 0. -1.
         11    1    1    2    0    0  0.52986723578E+02  0.40003895190E+02  0.58329408072E+02  0.88375473701E+02  0.00000000000E+00 0.  1.
</event>
<event>
 7    1  0.2794945E-009  0.1289786E+03  0.7561462E-02  0.1228979E+00
         -1   -1    0    0    0  501 -0.00000000000E+00  0.00000000000E+00  0.61067576217E+02  0.61067576217E+02  0.00000000000E+00 0.  1.
          1   -1    0    0  501    0  0.00000000000E+00 -0.00000000000E+00 -0.39404581290E+03  0.39404581290E+03  0.00000000000E+00 0. -1.
         25    2    1    2    0    0  0.39572415021E+02  0.10182223345E+03 -0.14732338101E+03  0.22200418945E+03  0.12509171949E+03 0.  0.
          5    1    3    3  502    0 -0.62364854945E+01  0.39973894061E+02 -0.13858668052E+03  0.14443180527E+03  0.41800000000E+01 0. -1.
         -5    1    3    3    0  502  0.45808900515E+02  0.61848339391E+02 -0.87367004943E+01  0.77572384180E+02  0.41800000000E+01 0. -1.
        -11    1    1    2    0    0 -0.50090290695E+02 -0.14352947419E+02 -0.57543613676E+02  0.77629323045E+02  0.00000000000E+00 0.  1.
         11    1    1    2    0    0  0.10517875675E+02 -0.87469286033E+02 -0.12811124199E+03  0.15547987662E+03  0.00000000000E+00 0. -1.
</event>
<event>
 7    1  0.2794945E-009  0.1287313E+03  0.7561462E-02  0.1229350E+00
          1   -1    0    0  501    0  0.00000000000E+00  0.00000000000E+00  0.35602342158E+03  0.35602342158E+03  0.00000000000E+00 0. -1.
         -1   -1    0    0    0  501 -0.00000000000E+00 -0.00000000000E+00 -0.53368644311E+02  0.53368644311E+02  0.00000000000E+00 0.  1.
         25    2    1    2    0    0  0.58780238347E+02 -0.63155389804E+02  0.15622441041E+03  0.21793842281E+03  0.12508944818E+03 0.  0.
          5    1    3    3  502    0  0.81644805647E+02 -0.73046389148E+02  0.15834009796E+03  0.19258948122E+03  0.41800000000E+01 0.  1.
         -5    1    3    3    0  502 -0.22864567300E+02  0.98909993443E+01 -0.21156875420E+01  0.25348941587E+02  0.41800000000E+01 0.  1.
        -11    1    1    2    0    0 -0.78354639918E+02  0.29671192515E+02  0.10969851932E+03  0.13803475795E+03  0.00000000000E+00 0. -1.
         11    1    1    2    0    0  0.19574401571E+02  0.33484197290E+02  0.36731847533E+02  0.53418885127E+02  0.00000000000E+00 0.  1.
</event>
<event>
 7    1  0.2794945E-009  0.1985814E+03  0.7561462E-02  0.1150941E+00
          1   -1    0    0  501    0  0.00000000000E+00  0.00000000000E+00  0.38763457418E+03  0.38763457418E+03  0.00000000000E+00 0. -1.
         -1   -1    0    0    0  501 -0.00000000000E+00 -0.00000000000E+00 -0.14253214515E+03  0.14253214515E+03  0.00000000000E+00 0.  1.
         25    2    1    2    0    0 -0.18278266908E+03  0.60633270403E+01  0.14189637904E+02  0.22202540539E+03  0.12509063420E+03 0.  0.
          5    1    3    3  502    0  0.80471016390E+01  0.28369798686E+01 -0.25348921341E+02  0.27071101062E+02  0.41800000000E+01 0.  1.
         -5    1    3    3    0  502 -0.19082977071E+03  0.32263471717E+01  0.39538559245E+02  0.19495430432E+03  0.41800000000E+01 0.  1.
        -11    1    1    2    0    0  0.11817595747E+03 -0.38732935357E+02  0.18324714278E+03  0.22146176316E+03  0.00000000000E+00 0.  1.
         11    1    1    2    0    0  0.64606711604E+02  0.32669608317E+02  0.47665648335E+02  0.86679550778E+02  0.00000000000E+00 0. -1.
</event>
<event>
 6    1  0.2794945E-009  0.8104622E+02  0.7561462E-02  0.1326108E+00
         -1   -1    0    0    0  501 -0.00000000000E+00  0.00000000000E+00  0.11664347378E+02  0.11664347378E+02  0.00000000000E+00 0.  1.
          1   -1    0    0  501    0  0.00000000000E+00 -0.00000000000E+00 -0.11675903629E+04  0.11675903629E+04  0.00000000000E+00 0. -1.
          5    1    1    2  502    0 -0.22022190089E+02  0.45844772888E+02 -0.72209702855E+03  0.72389799772E+03  0.41800000000E+01 0.  1.
         -5    1    1    2    0  502 -0.71204594578E+00 -0.11652819498E+02 -0.25932260941E+01  0.12668560820E+02  0.41800000000E+01 0.  1.
        -11    1    1    2    0    0  0.40301932479E+02  0.17594956249E+02 -0.22930309726E+03  0.23348177372E+03  0.00000000000E+00 0. -1.
         11    1    1    2    0    0 -0.17567696445E+02 -0.51786909639E+02 -0.20193266358E+03  0.20920637799E+03  0.00000000000E+00 0.  1.
</event>
<event>
 7    1  0.2794945E-009  0.1531574E+03  0.7561462E-02  0.1196646E+00
          4   -1    0    0  501    0  0.00000000000E+00  0.00000000000E+00  0.14150867300E+03  0.14150867300E+03  0.00000000000E+00 0. -1.
         -4   -1    0    0    0  501 -0.00000000000E+00 -0.00000000000E+00 -0.17586976931E+03  0.17586976931E+03  0.00000000000E+00 0.  1.
         25    2    1    2    0    0 -0.24936825683E+02 -0.10979038530E+03 -0.34648359162E+02  0.17182524816E+03  0.12509049976E+03 0.  0.
          5    1    3    3  502    0 -0.21798374849E+02 -0.13453478340E+03 -0.10337052894E+02  0.13674466773E+03  0.41800000000E+01 0.  1.
         -5    1    3    3    0  502 -0.31384508339E+01  0.24744398094E+02 -0.24311306268E+02  0.35080580427E+02  0.41800000000E+01 0.  1.
        -11    1    1    2    0    0  0.40014779168E+02  0.68070003740E+01 -0.71169281930E+01  0.41208839742E+02  0.00000000000E+00 0. -1.
         11    1    1    2    0    0 -0.15077953485E+02  0.10298338493E+03  0.74041910480E+01  0.10434435441E+03  0.00000000000E+00 0.  1.
</event>
<event>
 7    1  0.2794945E-009  0.1053528E+03  0.7561462E-02  0.1269426E+00
         -2   -1    0    0    0  501 -0.00000000000E+00  0.00000000000E+00  0.14711659995E+02  0.14711659995E+02  0.00000000000E+00 0.  1.
          2   -1    0    0  501    0  0.00000000000E+00 -0.00000000000E+00 -0.10249777989E+04  0.10249777989E+04  0.00000000000E+00 0. -1.
         25    2    1    2    0    0  0.37930978525E+02 -0.23658060125E+02 -0.72386254254E+03  0.73595026625E+03  0.12508937186E+03 0.  0.
          5    1    3    3  502    0  0.42207551754E+02  0.34750322931E+02 -0.16199087743E+03  0.17101923617E+03  0.41800000000E+01 0.  1.
         -5    1    3    3    0  502 -0.42765732288E+01 -0.58408383056E+02 -0.56187166511E+03  0.56493103008E+03  0.41800000000E+01 0.  1.
        -11    1    1    2    0    0  0.17885736670E+02  0.35816898639E+02 -0.16156364413E+03  0.16644987506E+03  0.00000000000E+00 0. -1.
         11    1    1    2    0    0 -0.55816715195E+02 -0.12158838513E+02 -0.12483995222E+03  0.13728931757E+03  0.00000000000E+00 0.  1.
</event>
<event>
 7    1  0.2794945E-009  0.2555451E+03  0.7561462E-02  0.1109850E+00
         -2   -1    0    0    0  501 -0.00000000000E+00  0.00000000000E+00  0.23826160608E+02  0.23826160608E+02  0.00000000000E+00 0.  1.
          2   -1    0    0  501    0  0.00000000000E+00 -0.00000000000E+00 -0.33913639801E+04  0.33913639801E+04  0.00000000000E+00 0. -1.
         25    2    1    2    0    0  0.18039282312E+03  0.15755626874E+03 -0.23764400111E+04  0.23917525510E+04  0.12509032827E+03 0.  0.
          5    1    3    3  502    0 -0.74395663509E+01  0.32052846490E+02 -0.61304366655E+03  0.61394034044E+03  0.41800000000E+01 0.  1.
         -5    1    3    3    0  502  0.18783238947E+03  0.12550342225E+03 -0.17633963446E+04  0.17778122105E+04  0.41800000000E+01 0.  1.
        -11    1    1    2    0    0 -0.14180085674E+03 -0.74015956204E+02 -0.70439394905E+03  0.72232726668E+03  0.00000000000E+00 0.  1.
         11    1    1    2    0    0 -0.38591966374E+02 -0.83540312538E+02 -0.28670385930E+03  0.30111032301E+03  0.00000000000E+00 0. -1.
</event>
<event>
 7    1  0.2794945E-009  0.2332757E+03  0.7561462E-02  0.1124355E+00
         -1   -1    0    0    0  501 -0.00000000000E+00  0.00000000000E+00  0.27968513752E+03  0.27968513752E+03  0.00000000000E+00 0.  1.
          1   -1    0    0  501    0  0.00000000000E+00 -0.00000000000E+00 -0.34769701184E+03  0.34769701184E+03  0.00000000000E+00 0. -1.
         25    2    1    2    0    0 -0.14243920445E+03 -0.15680072380E+03  0.16749660552E+03  0.29762105378E+03  0.12509110619E+03 0.  0.
          5    1    3    3  502    0 -0.85549666796E+02 -0.95060075180E+01  0.77075394010E+02  0.11561660101E+03  0.41800000000E+01 0. -1.
         -5    1    3    3    0  502 -0.56889537650E+02 -0.14729471628E+03  0.90421211509E+02  0.18200445277E+03  0.41800000000E+01 0. -1.
        -11    1    1    2    0    0  0.42948584137E+02  0.97638709300E+02 -0.15733325767E+03  0.19008327754E+03  0.00000000000E+00 0. -1.
         11    1    1    2    0    0  0.99490620309E+02  0.59162014497E+02 -0.78175222168E+02  0.13967781803E+03  0.00000000000E+00 0.  1.
</event>
<event>
 7    1  0.2794945E-009  0.1551424E+03  0.7561462E-02  0.1194293E+00
          2   -1    0    0  501    0  0.00000000000E+00  0.00000000000E+00  0.47403574560E+03  0.47403574560E+03  0.00000000000E+00 0. -1.
         -2   -1    0    0    0  501 -0.00000000000E+00 -0.00000000000E+00 -0.11242761276E+03  0.11242761276E+03  0.00000000000E+00 0.  1.
         25    2    1    2    0    0  0.11997082930E+03  0.66502539969E+02 -0.32157640422E+01  0.18564156057E+03  0.12504743168E+03 0.  0.
          5    1    3    3  502    0 -0.30428859804E+01 -0.13467952491E+01  0.38629916144E+02  0.38997638824E+02  0.41800000000E+01 0.  1.
         -5    1    3    3    0  502  0.12301371528E+03  0.67849335219E+02 -0.41845680187E+02  0.14664392175E+03  0.41800000000E+01 0.  1.
        -11    1    1    2    0    0 -0.63543438615E+02  0.14976777853E+02  0.17296608860E+03  0.18487655414E+03  0.00000000000E+00 0. -1.
         11    1    1    2    0    0 -0.56427390682E+02 -0.81479317822E+02  0.19185780828E+03  0.21594524364E+03  0.00000000000E+00 0.  1.
</event>
<event>
 7    1  0.2794945E-009  0.9564507E+02  0.7561462E-02  0.1289730E+00
         -3   -1    0    0    0  501 -0.00000000000E+00  0.00000000000E+00  0.30712337859E+02  0.30712337859E+02  0.00000000000E+00 0.  1.
          3   -1    0    0  501    0  0.00000000000E+00 -0.00000000000E+00 -0.41921487820E+03  0.41921487820E+03  0.00000000000E+00 0. -1.
         25    2    1    2    0    0 -0.13322481503E+02  0.15989118892E+02 -0.27778958761E+03  0.30536489384E+03  0.12509005944E+03 0.  0.
          5    1    3    3  502    0  0.27765234595E+02  0.51988714082E+02 -0.21026745971E+03  0.21841156484E+03  0.41800000000E+01 0. -1.
         -5    1    3    3    0  502 -0.41087716098E+02 -0.35999595190E+02 -0.67522127906E+02  0.86953329005E+02  0.41800000000E+01 0. -1.
        -11    1    1    2    0    0  0.41839103876E+02 -0.23419446028E+02 -0.25309437474E+02  0.54217604988E+02  0.00000000000E+00 0.  1.
         11    1    1    2    0    0 -0.28516622373E+02  0.74303271361E+01 -0.85403515254E+02  0.90344717226E+02  0.00000000000E+00 0. -1.
</event>
<event>
 7    1  0.2794945E-009  0.1301875E+03  0.7561462E-02  0.1227178E+00
         -1   -1    0    0    0  501 -0.00000000000E+00  0.00000000000E+00  0.54493640169E+02  0.54493640169E+02  0.00000000000E+00 0.  1.
          1   -1    0    0  501    0  0.00000000000E+00 -0.00000000000E+00 -0.54181419475E+03  0.54181419475E+03  0.00000000000E+00 0. -1.
         25    2    1    2    0    0  0.31377141122E+02  0.10531014915E+03 -0.38701539142E+03  0.42131146181E+03  0.12509069573E+03 0.  0.
          5    1    3    3  502    0  0.40866153944E+02  0.10121146101E+03 -0.15832165535E+03  0.19234609778E+03  0.41800000000E+01 0.  1.
         -5    1    3    3    0  502 -0.94890128223E+01  0.40986881414E+01 -0.22869373607E+03  0.22896536403E+03  0.41800000000E+01 0.  1.
        -11    1    1    2    0    0 -0.56105621519E+02 -0.36644499992E+02 -0.29185378386E+02  0.73092040998E+02  0.00000000000E+00 0.  1.
         11    1    1    2    0    0  0.24728480397E+02 -0.68665649156E+02 -0.71119784776E+02  0.10190433211E+03  0.00000000000E+00 0. -1.
</event>
<event>
 7    1  0.2794945E-009  0.1054227E+03  0.7561462E-02  0.1269289E+00
         -1   -1    0    0    0  501 -0.00000000000E+00  0.00000000000E+00  0.13890753830E+03  0.13890753830E+03  0.00000000000E+00 0.  1.
          1   -1    0    0  501    0  0.00000000000E+00 -0.00000000000E+00 -0.16862455023E+03  0.16862455023E+03  0.00000000000E+00 0. -1.
         25    2    1    2    0    0 -0.21419240106E+02  0.46964211717E+02  0.78317377651E+02  0.15634990225E+03  0.12508900536E+03 0.  0.
          5    1    3    3  502    0  0.30760504986E+02  0.44504653051E+02 -0.85185407551E+01  0.54926412106E+02  0.41800000000E+01 0.  1.
         -5    1    3    3    0  502 -0.52179745092E+02  0.24595586652E+01  0.86835918406E+02  0.10142349014E+03  0.41800000000E+01 0.  1.
        -11    1    1    2    0    0 -0.13805818131E+02 -0.63700955177E+02 -0.79796400647E+02  0.10303338226E+03  0.00000000000E+00 0. -1.
         11    1    1    2    0    0  0.35225058237E+02  0.16736743461E+02 -0.28237988936E+02  0.48148804021E+02  0.00000000000E+00 0.  1.
</event>
<event>
 7    1  0.2794945E-009  0.1075235E+03  0.7561462E-02  0.1265226E+00
          2   -1    0    0  501    0  0.00000000000E+00  0.00000000000E+00  0.25239643305E+03  0.25239643305E+03  0.00000000000E+00 0. -1.
         -2   -1    0    0    0  501 -0.00000000000E+00 -0.00000000000E+00 -0.57387209900E+02  0.57387209900E+02  0.00000000000E+00 0.  1.
         25    2    1    2    0    0  0.49328544608E+02  0.59960825909E+00  0.11825864244E+03  0.17907121179E+03  0.12509087711E+03 0.  0.
          5    1    3    3  502    0  0.45645960264E+02 -0.48752494071E+02  0.21457614675E+02  0.70272761395E+02  0.41800000000E+01 0.  1.
         -5    1    3    3    0  502  0.36825843435E+01  0.49352102330E+02  0.96801027763E+02  0.10879845039E+03  0.41800000000E+01 0.  1.
        -11    1    1    2    0    0 -0.34481922779E+02 -0.42082459939E+02  0.65673769282E+02  0.85281770647E+02  0.00000000000E+00 0.  1.
         11    1    1    2    0    0 -0.14846621829E+02  0.41482851680E+02  0.11076811428E+02  0.45430660513E+02  0.00000000000E+00 0. -1.
</event>
<event>
 7    1  0.2794945E-009  0.5976026E+02  0.7561462E-02  0.1398841E+00
          2   -1    0    0  501    0  0.00000000000E+00  0.00000000000E+00  0.35810441067E+03  0.35810441067E+03  0.00000000000E+00 0. -1.
         -2   -1    0    0    0  501 -0.00000000000E+00 -0.00000000000E+00 -0.40552409690E+02  0.40552409690E+02  0.00000000000E+00 0.  1.
         25    2    1    2    0    0  0.50604641195E+02  0.15545138377E+02  0.20362393595E+03  0.24476942149E+03  0.12508749485E+03 0.  0.
          5    1    3    3  502    0  0.18469636624E+02  0.24660631467E+02 -0.66685131965E+01  0.31799617759E+02  0.41800000000E+01 0.  1.
         -5    1    3    3    0  502  0.32135004571E+02 -0.91154930903E+01  0.21029244914E+03  0.21296980373E+03  0.41800000000E+01 0.  1.
        -11    1    1    2    0    0 -0.19961462564E+02 -0.13408960097E+02 -0.10122163282E+02  0.26090580448E+02  0.00000000000E+00 0.  1.
         11    1    1    2    0    0 -0.30643178631E+02 -0.21361782793E+01  0.12405022831E+03  0.12779681842E+03  0.00000000000E+00 0. -1.
</event>
<event>
 7    1  0.2794945E-009  0.1021780E+03  0.7561462E-02  0.1275781E+00
          3   -1    0    0  501    0  0.00000000000E+00  0.00000000000E+00  0.36395660945E+02  0.36395660945E+02  0.00000000000E+00 0. -1.
         -3   -1    0    0    0  501 -0.00000000000E+00 -0.00000000000E+00 -0.52511471331E+03  0.52511471331E+03  0.00000000000E+00 0.  1.
         25    2    1    2    0    0 -0.54303274396E+02  0.19164754138E+02 -0.39215806123E+03  0.41564170041E+03  0.12511572530E+03 0.  0.
          5    1    3    3  502    0 -0.47137239118E+02 -0.38664699095E+02 -0.30263057326E+03  0.30873874804E+03  0.41800000000E+01 0. -1.
         -5    1    3    3    0  502 -0.71660352782E+01  0.57829453232E+02 -0.89527487968E+02  0.10690295237E+03  0.41800000000E+01 0. -1.
        -11    1    1    2    0    0  0.65867564827E+02 -0.43219146179E+01 -0.10595760962E+03  0.12483681380E+03  0.00000000000E+00 0.  1.
         11    1    1    2    0    0 -0.11564290431E+02 -0.14842839520E+02  0.93966184886E+01  0.21031860051E+02  0.00000000000E+00 0. -1.
</event>
<event>
 7    1  0.2794945E-009  0.6942326E+02  0.7561462E-02  0.1362065E+00
          4   -1    0    0  501    0  0.00000000000E+00  0.00000000000E+00  0.23402955781E+03  0.23402955781E+03  0.00000000000E+00 0.  1.
         -4   -1    0    0    0  501 -0.00000000000E+00 -0.00000000000E+00 -0.74473809724E+02  0.74473809724E+02  0.00000000000E+00 0. -1.
         25    2    1    2    0    0 -0.38370787045E+02  0.33387100842E+02  0.15610129929E+03  0.20640392487E+03  0.12509176135E+03 0.  0.
          5    1    3    3  502    0 -0.26236881219E+02  0.17146159133E+02  0.17532563693E+03  0.17815419185E+03  0.41800000000E+01 0.  1.
         -5    1    3    3    0  502 -0.12133905826E+02  0.16240941708E+02 -0.19224337633E+02  0.28249733018E+02  0.41800000000E+01 0.  1.
        -11    1    1    2    0    0  0.56379778620E+02 -0.10409536659E+02  0.28141307272E+02  0.63866822887E+02  0.00000000000E+00 0.  1.
         11    1    1    2    0    0 -0.18008991576E+02 -0.22977564182E+02 -0.24686858483E+02  0.38232619778E+02  0.00000000000E+00 0. -1.
</event>
<event>
 7    1  0.2794945E-009  0.1077038E+03  0.7561462E-02  0.1264882E+00
          1   -1    0    0  501    0  0.00000000000E+00  0.00000000000E+00  0.66471299978E+03  0.66471299978E+03  0.00000000000E+00 0. -1.
         -1   -1    0    0    0  501 -0.00000000000E+00 -0.00000000000E+00 -0.24631559879E+02  0.24631559879E+02  0.00000000000E+00 0.  1.
         25    2    1    2    0    0 -0.56331802264E+02 -0.18654122329E+02  0.44880063213E+03  0.46966973394E+03  0.12508558414E+03 0.  0.
          5    1    3    3  502    0 -0.41442016645E+02 -0.66114402315E+02  0.17933405741E+03  0.19561884235E+03  0.41800000000E+01 0. -1.
         -5    1    3    3    0  502 -0.14889785619E+02  0.47460279986E+02  0.26946657472E+03  0.27405089159E+03  0.41800000000E+01 0. -1.
        -11    1    1    2    0    0 -0.88331772504E+01  0.20327300160E+02  0.55658485136E+01  0.22851757521E+02  0.00000000000E+00 0.  1.
         11    1    1    2    0    0  0.65164979515E+02 -0.16731778307E+01  0.18571495926E+03  0.19682306819E+03  0.00000000000E+00 0. -1.
</event>
<event>
 7    1  0.2794945E-009  0.1052391E+03  0.7561462E-02  0.1269649E+00
         -2   -1    0    0    0  501 -0.00000000000E+00  0.00000000000E+00  0.30923668422E+03  0.30923668422E+03  0.00000000000E+00 0. -1.
          2   -1    0    0  501    0  0.00000000000E+00 -0.00000000000E+00 -0.53173209785E+02  0.53173209785E+02  0.00000000000E+00 0.  1.
         25    2    1    2    0    0  0.55790683462E+02 -0.30531089022E+02  0.17550152521E+03  0.22469404666E+03  0.12506750776E+03 0.  0.
          5    1    3    3  502    0  0.44448296741E+02  0.24924925082E+02  0.15681272066E+03  0.16493818459E+03  0.41800000000E+01 0.  1.
         -5    1    3    3    0  502  0.11342386721E+02 -0.55456014104E+02  0.18688804544E+02  0.59755862073E+02  0.41800000000E+01 0.  1.
        -11    1    1    2    0    0 -0.34483634422E+02 -0.25340004539E+02  0.61561361569E+02  0.74973582756E+02  0.00000000000E+00 0. -1.
         11    1    1    2    0    0 -0.21307049040E+02  0.55871093561E+02  0.19000587662E+02  0.62742264590E+02  0.00000000000E+00 0.  1.
</event>
<event>
 7    1  0.2794945E-009  0.9259684E+02  0.7561462E-02  0.1296682E+00
          2   -1    0    0  501    0  0.00000000000E+00  0.00000000000E+00  0.44116394291E+03  0.44116394291E+03  0.00000000000E+00 0. -1.
         -2   -1    0    0    0  501 -0.00000000000E+00 -0.00000000000E+00 -0.43563618918E+02  0.43563618918E+02  0.00000000000E+00 0.  1.
         25    2    1    2    0    0 -0.14732694430E+02  0.14321074799E+02  0.35983965632E+03  0.38151635681E+03  0.12509199329E+03 0.  0.
          5    1    3    3  502    0 -0.66053843380E+02 -0.90801228569E+01  0.23783084115E+03  0.24703550405E+03  0.41800000000E+01 0.  1.
         -5    1    3    3    0  502  0.51321148950E+02  0.23401197656E+02  0.12200881516E+03  0.13448085276E+03  0.41800000000E+01 0.  1.
        -11    1    1    2    0    0 -0.22684127215E+02 -0.65814830998E+01 -0.22001048087E+02  0.32278966281E+02  0.00000000000E+00 0.  1.
         11    1    1    2    0    0  0.37416821644E+02 -0.77395916993E+01  0.59761715756E+02  0.70932238733E+02  0.00000000000E+00 0. -1.
</event>
<event>
 7    1  0.2794945E-009  0.1612061E+03  0.7561462E-02  0.1187342E+00
          1   -1    0    0  501    0  0.00000000000E+00  0.00000000000E+00  0.81439240131E+02  0.81439240131E+02  0.00000000000E+00 0. -1.
         -1   -1    0    0    0  501 -0.00000000000E+00 -0.00000000000E+00 -0.40986385091E+03  0.40986385091E+03  0.00000000000E+00 0.  1.
         25    2    1    2    0    0  0.34123735259E+02  0.13816259919E+03 -0.21929095526E+03  0.28980973408E+03  0.12509126982E+03 0.  0.
          5    1    3    3  502    0  0.57156414543E+02  0.32891888796E+02 -0.14354850819E+03  0.15802651258E+03  0.41800000000E+01 0. -1.
         -5    1    3    3    0  502 -0.23032679284E+02  0.10527071039E+03 -0.75742447064E+02  0.13178322150E+03  0.41800000000E+01 0. -1.
        -11    1    1    2    0    0 -0.22927938534E+02 -0.21946087903E+02  0.11362478080E+02  0.33710933654E+02  0.00000000000E+00 0.  1.
         11    1    1    2    0    0 -0.11195796725E+02 -0.11621651129E+03 -0.12049613360E+03  0.16778242331E+03  0.00000000000E+00 0. -1.
</event>
<event>
 7    1  0.2794945E-009  0.9933563E+02  0.7561462E-02  0.1281699E+00
         -2   -1    0    0    0  501 -0.00000000000E+00  0.00000000000E+00  0.26530800573E+02  0.26530800573E+02  0.00000000000E+00 0.  1.
          2   -1    0    0  501    0  0.00000000000E+00 -0.00000000000E+00 -0.50584449346E+03  0.50584449346E+03  0.00000000000E+00 0. -1.
         25    2    1    2    0    0 -0.14170951315E+02 -0.20084944638E+01 -0.22024407696E+03  0.25368993227E+03  0.12508508459E+03 0.  0.
          5    1    3    3  502    0 -0.59963264826E+02 -0.90928542764E+01 -0.18665868934E+03  0.19630897034E+03  0.41800000000E+01 0. -1.
         -5    1    3    3    0  502  0.45792313511E+02  0.70843598126E+01 -0.33585387622E+02  0.57380961933E+02  0.41800000000E+01 0. -1.
        -11    1    1    2    0    0  0.39924477476E+02  0.32472091038E+02 -0.20579018677E+03  0.21212732396E+03  0.00000000000E+00 0. -1.
         11    1    1    2    0    0 -0.25753526161E+02 -0.30463596574E+02 -0.53279429153E+02  0.66558037807E+02  0.00000000000E+00 0.  1.
</event>
<event>
 7    1  0.2794945E-009  0.1107952E+03  0.7561462E-02  0.1259104E+00
         -2   -1    0    0    0  501 -0.00000000000E+00  0.00000000000E+00  0.32983549269E+02  0.32983549269E+02  0.00000000000E+00 0.  1.
          2   -1    0    0  501    0  0.00000000000E+00 -0.00000000000E+00 -0.45951654050E+03  0.45951654050E+03  0.00000000000E+00 0. -1.
         25    2    1    2    0    0 -0.55152004871E+02  0.13189162582E+02 -0.28272906642E+03  0.31432137027E+03  0.12508597507E+03 0.  0.
          5    1    3    3  502    0  0.26481433835E+02 -0.17619883669E+02 -0.20859563773E+02  0.38266440117E+02  0.41800000000E+01 0. -1.
         -5    1    3    3    0  502 -0.81633438705E+02  0.30809046251E+02 -0.26186950265E+03  0.27605493015E+03  0.41800000000E+01 0. -1.
        -11    1    1    2    0    0  0.10740008087E+02  0.35006738920E+02 -0.32234956154E+02  0.48784341154E+02  0.00000000000E+00 0.  1.
         11    1    1    2    0    0  0.44411996783E+02 -0.48195901502E+02 -0.11156896866E+03  0.12939437834E+03  0.00000000000E+00 0. -1.
</event>
<event>
 7    1  0.2794945E-009  0.9584290E+02  0.7561462E-02  0.1289289E+00
          2   -1    0    0  501    0  0.00000000000E+00  0.00000000000E+00  0.25825804859E+03  0.25825804859E+03  0.00000000000E+00 0.  1.
         -2   -1    0    0    0  501 -0.00000000000E+00 -0.00000000000E+00 -0.61883980492E+02  0.61883980492E+02  0.00000000000E+00 0. -1.
         25    2    1    2    0    0  0.91131480911E+01 -0.17287220221E+02  0.18764715799E+03  0.22636484485E+03  0.12509072560E+03 0.  0.
          5    1    3    3  502    0  0.53068781810E+02 -0.43010751962E+01  0.28172453462E+02  0.60381738835E+02  0.41800000000E+01 0.  1.
         -5    1    3    3    0  502 -0.43955633719E+02 -0.12986145025E+02  0.15947470453E+03  0.16598310602E+03  0.41800000000E+01 0.  1.
        -11    1    1    2    0    0 -0.39756607323E+02  0.38216805630E+02  0.12285099067E+02  0.56498103663E+02  0.00000000000E+00 0.  1.
         11    1    1    2    0    0  0.30643459232E+02 -0.20929585409E+02 -0.35581889629E+01  0.37279080565E+02  0.00000000000E+00 0. -1.
</event>
<event>
 7    1  0.2794945E-009  0.7971008E+02  0.7561462E-02  0.1329876E+00
         -2   -1    0    0    0  501 -0.00000000000E+00  0.00000000000E+00  0.94858975076E+02  0.94858975076E+02  0.00000000000E+00 0.  1.
          2   -1    0    0  501    0  0.00000000000E+00 -0.00000000000E+00 -0.13849845314E+03  0.13849845314E+03  0.00000000000E+00 0. -1.
         25    2    1    2    0    0 -0.86886054404E+01  0.40974302985E+02 -0.31607477711E+02  0.13564903632E+03  0.12508894051E+03 0.  0.
          5    1    3    3  502    0 -0.18592932144E+01  0.50913851088E+02 -0.74806219198E+02  0.90604194355E+02  0.41800000000E+01 0. -1.
         -5    1    3    3    0  502 -0.68293122260E+01 -0.99395481036E+01  0.43198741488E+02  0.45044841970E+02  0.41800000000E+01 0. -1.
        -11    1    1    2    0    0  0.45664717694E+02 -0.36163357998E+02 -0.15450649265E+02  0.60264230406E+02  0.00000000000E+00 0. -1.
         11    1    1    2    0    0 -0.36976112254E+02 -0.48109449868E+01  0.34186489101E+01  0.37444161487E+02  0.00000000000E+00 0.  1.
</event>
<event>
 7    1  0.2794945E-009  0.3104674E+03  0.7561462E-02  0.1080122E+00
         -1   -1    0    0    0  501 -0.00000000000E+00  0.00000000000E+00  0.94490705758E+03  0.94490705758E+03  0.00000000000E+00 0.  1.
          1   -1    0    0  501    0  0.00000000000E+00 -0.00000000000E+00 -0.11048230713E+03  0.11048230713E+03  0.00000000000E+00 0. -1.
         25    2    1    2    0    0  0.29309033795E+03  0.48804772775E+02  0.31841979411E+03  0.45312659134E+03  0.12509472596E+03 0.  0.
          5    1    3    3  502    0  0.20018546253E+02  0.44583602257E+02  0.54338539668E+02  0.73202384371E+02  0.41800000000E+01 0.  1.
         -5    1    3    3    0  502  0.27307179169E+03  0.42211705175E+01  0.26408125444E+03  0.37992420697E+03  0.41800000000E+01 0.  1.
        -11    1    1    2    0    0 -0.19275667442E+03 -0.46974544618E+02  0.41446141718E+03  0.45949973853E+03  0.00000000000E+00 0. -1.
         11    1    1    2    0    0 -0.10033366353E+03 -0.18302281562E+01  0.10154353916E+03  0.14276303484E+03  0.00000000000E+00 0.  1.
</event>
<event>
 7    1  0.2794945E-009  0.1125346E+03  0.7561462E-02  0.1255947E+00
         -1   -1    0    0    0  501 -0.00000000000E+00  0.00000000000E+00  0.68028940378E+02  0.68028940378E+02  0.00000000000E+00 0.  1.
          1   -1    0    0  501    0  0.00000000000E+00 -0.00000000000E+00 -0.18767358828E+03  0.18767358828E+03  0.00000000000E+00 0. -1.
         25    2    1    2    0    0 -0.19394525200E+02 -0.78030505512E+01 -0.71864904054E+02  0.14577278117E+03  0.12509238222E+03 0.  0.
          5    1    3    3  502    0 -0.72770650810E+02 -0.65487170125E+01 -0.38796349796E+02  0.82831651385E+02  0.41800000000E+01 0. -1.
         -5    1    3    3    0  502  0.53376125609E+02 -0.12543335388E+01 -0.33068554258E+02  0.62941129783E+02  0.41800000000E+01 0. -1.
        -11    1    1    2    0    0  0.16221557652E+02  0.51768772193E+02 -0.32688904155E+02  0.63338054611E+02  0.00000000000E+00 0.  1.
         11    1    1    2    0    0  0.31729675479E+01 -0.43965721642E+02 -0.15090839693E+02  0.46591692878E+02  0.00000000000E+00 0. -1.
</event>
<event>
 7    1  0.2794945E-009  0.9638707E+02  0.7561462E-02  0.1288082E+00
          1   -1    0    0  501    0  0.00000000000E+00  0.00000000000E+00  0.86748356569E+03  0.86748356569E+03  0.00000000000E+00 0. -1.
         -1   -1    0    0    0  501 -0.00000000000E+00 -0.00000000000E+00 -0.15391563383E+02  0.15391563383E+02  0.00000000000E+00 0.  1.
         25    2    1    2    0    0  0.23651904123E+02 -0.21779331027E+02  0.59204408364E+03  0.60596874282E+03  0.12509263957E+03 0.  0.
          5    1    3    3  502    0  0.63942685956E+02 -0.48122417105E+02  0.33797039787E+03  0.34734118148E+03  0.41800000000E+01 0.  1.
         -5    1    3    3    0  502 -0.40290781833E+02  0.26343086078E+02  0.25407368577E+03  0.25862756134E+03  0.41800000000E+01 0.  1.
        -11    1    1    2    0    0  0.18394635180E+02  0.81311632934E+01  0.90651138955E+01  0.22060251808E+02  0.00000000000E+00 0.  1.
         11    1    1    2    0    0 -0.42046539303E+02  0.13648167734E+02  0.25098280478E+03  0.25484613445E+03  0.00000000000E+00 0. -1.
</event>
<event>
 7    1  0.2794945E-009  0.1099414E+03  0.7561462E-02  0.1260679E+00
         -3   -1    0    0    0  501 -0.00000000000E+00  0.00000000000E+00  0.20178710145E+03  0.20178710145E+03  0.00000000000E+00 0.  1.
          3   -1    0    0  501    0  0.00000000000E+00 -0.00000000000E+00 -0.73708716201E+02  0.73708716201E+02  0.00000000000E+00 0. -1.
         25    2    1    2    0    0 -0.12135039486E+02 -0.44446486069E+02  0.10529978260E+03  0.16987650281E+03  0.12508889913E+03 0.  0.
          5    1    3    3  502    0 -0.63782100355E+02 -0.46960974069E+02  0.48579578821E+02  0.93010414953E+02  0.41800000000E+01 0.  1.
         -5    1    3    3    0  502  0.51647060869E+02  0.25144880000E+01  0.56720203776E+02  0.76866087859E+02  0.41800000000E+01 0.  1.
        -11    1    1    2    0    0 -0.21283283988E+02  0.50432965022E+02  0.39762943700E+02  0.67657622113E+02  0.00000000000E+00 0.  1.
         11    1    1    2    0    0  0.33418323474E+02 -0.59864789530E+01 -0.16984341047E+02  0.37961692729E+02  0.00000000000E+00 0. -1.
</event>
<event>
 7    1  0.2794945E-009  0.1019147E+03  0.7561462E-02  0.1276320E+00
         -1   -1    0    0    0  501 -0.00000000000E+00  0.00000000000E+00  0.59942095315E+02  0.59942095315E+02  0.00000000000E+00 0.  1.
          1   -1    0    0  501    0  0.00000000000E+00 -0.00000000000E+00 -0.29091850336E+03  0.29091850336E+03  0.00000000000E+00 0. -1.
         25    2    1    2    0    0  0.53498242368E+02 -0.57218114924E+02 -0.13096277386E+03  0.19730871326E+03  0.12507400042E+03 0.  0.
          5    1    3    3  502    0  0.26606640545E+02 -0.54169729884E+02  0.30052629027E+01  0.60570429765E+02  0.41800000000E+01 0. -1.
         -5    1    3    3    0  502  0.26891601823E+02 -0.30483850400E+01 -0.13396803676E+03  0.13673828350E+03  0.41800000000E+01 0. -1.
        -11    1    1    2    0    0 -0.52423671439E+02 -0.59602121247E+01 -0.53074442695E+02  0.74837570264E+02  0.00000000000E+00 0.  1.
         11    1    1    2    0    0 -0.10745709295E+01  0.63178327048E+02 -0.46939191488E+02  0.78714315146E+02  0.00000000000E+00 0. -1.
</event>
<event>
 7    1  0.2794945E-009  0.1677433E+03  0.7561462E-02  0.1180222E+00
          1   -1    0    0  501    0  0.00000000000E+00  0.00000000000E+00  0.29180072449E+03  0.29180072449E+03  0.00000000000E+00 0. -1.
         -1   -1    0    0    0  501 -0.00000000000E+00 -0.00000000000E+00 -0.11210978162E+03  0.11210978162E+03  0.00000000000E+00 0.  1.
         25    2    1    2    0    0 -0.12937680288E+03 -0.58935622552E+02  0.12362127962E+03  0.22614873723E+03  0.12509702574E+03 0.  0.
          5    1    3    3  502    0  0.12758503616E+02 -0.10424119926E+02  0.61091389242E+02  0.63411922619E+02  0.41800000000E+01 0. -1.
         -5    1    3    3    0  502 -0.14213530650E+03 -0.48511502626E+02  0.62529890378E+02  0.16273681462E+03  0.41800000000E+01 0. -1.
        -11    1    1    2    0    0  0.36932541798E+02  0.65895015101E+02  0.31588678645E+02  0.81878020722E+02  0.00000000000E+00 0. -1.
         11    1    1    2    0    0  0.92444261085E+02 -0.69593925487E+01  0.24480984602E+02  0.95883748150E+02  0.00000000000E+00 0.  1.
</event>
<event>
 7    1  0.2794945E-009  0.7716162E+02  0.7561462E-02  0.1337305E+00
          2   -1    0    0  501    0  0.00000000000E+00  0.00000000000E+00  0.17782467407E+03  0.17782467407E+03  0.00000000000E+00 0. -1.
         -2   -1    0    0    0  501 -0.00000000000E+00 -0.00000000000E+00 -0.82788628264E+02  0.82788628264E+02  0.00000000000E+00 0.  1.
         25    2    1    2    0    0 -0.21474550548E+02 -0.35357752101E+02  0.92998807963E+02  0.16125805082E+03  0.12507619165E+03 0.  0.
          5    1    3    3  502    0 -0.31832545785E+02 -0.19616051334E+01  0.11521533103E+03  0.11962108414E+03  0.41800000000E+01 0.  1.
         -5    1    3    3    0  502  0.10357995237E+02 -0.33396146968E+02 -0.22216523066E+02  0.41636966685E+02  0.41800000000E+01 0.  1.
        -11    1    1    2    0    0 -0.12477407407E+02  0.48842610203E+02  0.24934543891E+02  0.56240712532E+02  0.00000000000E+00 0. -1.
         11    1    1    2    0    0  0.33951957955E+02 -0.13484858102E+02 -0.22897306051E+02  0.43114538979E+02  0.00000000000E+00 0.  1.
</event>
<event>
 7    1  0.2794945E-009  0.1150570E+03  0.7561462E-02  0.1251482E+00
         -2   -1    0    0    0  501 -0.00000000000E+00  0.00000000000E+00  0.11965303862E+03  0.11965303862E+03  0.00000000000E+00 0.  1.
          2   -1    0    0  501    0  0.00000000000E+00 -0.00000000000E+00 -0.17843378006E+03  0.17843378006E+03  0.00000000000E+00 0. -1.
         25    2    1    2    0    0 -0.46721012680E+02 -0.10983516253E+02 -0.11725497798E+03  0.17804424910E+03  0.12509010401E+03 0.  0.
          5    1    3    3  502    0  0.42376876293E+02  0.39005690201E+01 -0.46921469054E+02  0.63483153207E+02  0.41800000000E+01 0. -1.
         -5    1    3    3    0  502 -0.89097888973E+02 -0.14884085273E+02 -0.70333508925E+02  0.11456109589E+03  0.41800000000E+01 0. -1.
        -11    1    1    2    0    0  0.10275065678E+02  0.45549136454E+02  0.51189299725E+02  0.69286688568E+02  0.00000000000E+00 0.  1.
         11    1    1    2    0    0  0.36445947002E+02 -0.34565620201E+02  0.72849368138E+01  0.50755881010E+02  0.00000000000E+00 0. -1.
</event>
<event>
 7    1  0.2794945E-009  0.8793800E+02  0.7561462E-02  0.1307923E+00
          1   -1    0    0  501    0  0.00000000000E+00  0.00000000000E+00  0.24085731624E+03  0.24085731624E+03  0.00000000000E+00 0.  1.
         -1   -1    0    0    0  501 -0.00000000000E+00 -0.00000000000E+00 -0.59265109996E+02  0.59265109996E+02  0.00000000000E+00 0. -1.
         25    2    1    2    0    0  0.35283250212E+02  0.26534009174E+02  0.14615831258E+03  0.19737663891E+03  0.12508526638E+03 0.  0.
          5    1    3    3  502    0  0.57898947086E+02 -0.33658509976E+02  0.87265840093E+02  0.11008170881E+03  0.41800000000E+01 0.  1.
         -5    1    3    3    0  502 -0.22615696874E+02  0.60192519150E+02  0.58892472484E+02  0.87294930105E+02  0.41800000000E+01 0.  1.
        -11    1    1    2    0    0 -0.18132257136E+02 -0.11069882696E+02 -0.28052948403E+02  0.35189330284E+02  0.00000000000E+00 0. -1.
         11    1    1    2    0    0 -0.17150993076E+02 -0.15464126479E+02  0.63486842071E+02  0.67556457037E+02  0.00000000000E+00 0.  1.
</event>
<event>
 7    1  0.2794945E-009  0.1264593E+03  0.7561462E-02  0.1232806E+00
         -1   -1    0    0    0  501 -0.00000000000E+00  0.00000000000E+00  0.75734546247E+03  0.75734546247E+03  0.00000000000E+00 0.  1.
          1   -1    0    0  501    0  0.00000000000E+00 -0.00000000000E+00 -0.22805395157E+02  0.22805395157E+02  0.00000000000E+00 0. -1.
         25    2    1    2    0    0 -0.32451722692E+00  0.73397319613E+02  0.37588931529E+03  0.40288629011E+03  0.12504924456E+03 0.  0.
          5    1    3    3  502    0 -0.32113582751E+02 -0.22894384901E+02  0.68224364537E+02  0.78914329330E+02  0.41800000000E+01 0.  1.
         -5    1    3    3    0  502  0.31789065524E+02  0.96291704514E+02  0.30766495076E+03  0.32397196078E+03  0.41800000000E+01 0.  1.
        -11    1    1    2    0    0 -0.21861778220E+02 -0.84271807777E+02  0.31792237769E+03  0.32962753703E+03  0.00000000000E+00 0.  1.
         11    1    1    2    0    0  0.22186295447E+02  0.10874488164E+02  0.40728374334E+02  0.47637030495E+02  0.00000000000E+00 0. -1.
</event>
<event>
 7    1  0.2794945E-009  0.1127880E+03  0.7561462E-02  0.1255492E+00
         -2   -1    0    0    0  501 -0.00000000000E+00  0.00000000000E+00  0.50711502451E+02  0.50711502451E+02  0.00000000000E+00 0.  1.
          2   -1    0    0  501    0  0.00000000000E+00 -0.00000000000E+00 -0.62390283265E+03  0.62390283265E+03  0.00000000000E+00 0. -1.
         25    2    1    2    0    0  0.66048755454E+02 -0.85776393413E+02 -0.47313874300E+03  0.50122652521E+03  0.12509089370E+03 0.  0.
          5    1    3    3  502    0  0.42263562597E+02 -0.78218822884E+02 -0.46670578909E+03  0.47511699501E+03  0.41800000000E+01 0. -1.
         -5    1    3    3    0  502  0.23785192857E+02 -0.75575705294E+01 -0.64329539100E+01  0.26109530206E+02  0.41800000000E+01 0. -1.
        -11    1    1    2    0    0 -0.40200524162E+02  0.70735137371E+02 -0.14348922455E+02  0.82616181087E+02  0.00000000000E+00 0. -1.
         11    1    1    2    0    0 -0.25848231292E+02  0.15041256043E+02 -0.85703664751E+02  0.90771628805E+02  0.00000000000E+00 0.  1.
</event>
<event>
 7    1  0.2794945E-009  0.9841144E+02  0.7561462E-02  0.1283672E+00
         -1   -1    0    0    0  501 -0.00000000000E+00  0.00000000000E+00  0.25682793289E+03  0.25682793289E+03  0.00000000000E+00 0.  1.
          1   -1    0    0  501    0  0.00000000000E+00 -0.00000000000E+00 -0.76171024813E+02  0.76171024813E+02  0.00000000000E+00 0. -1.
         25    2    1    2    0    0 -0.59410744723E+02  0.48924820257E+01  0.17062846063E+02  0.13961424921E+03  0.12508966742E+03 0.  0.
          5    1    3    3  502    0  0.24913886237E+02 -0.15397047621E+01 -0.32739231694E+02  0.41381180627E+02  0.41800000000E+01 0. -1.
         -5    1    3    3    0  502 -0.84324630960E+02  0.64321867878E+01  0.49802077757E+02  0.98233068578E+02  0.41800000000E+01 0. -1.
        -11    1    1    2    0    0  0.68780429049E+01  0.25321723057E+02  0.96767821211E+01  0.27966716736E+02  0.00000000000E+00 0. -1.
         11    1    1    2    0    0  0.52532701818E+02 -0.30214205083E+02  0.15391727989E+03  0.16541799176E+03  0.00000000000E+00 0.  1.
</event>
<event>
 7    1  0.2794945E-009  0.1554955E+03  0.7561462E-02  0.1193878E+00
         -2   -1    0    0    0  501 -0.00000000000E+00  0.00000000000E+00  0.12797759647E+03  0.12797759647E+03  0.00000000000E+00 0.  1.
          2   -1    0    0  501    0  0.00000000000E+00 -0.00000000000E+00 -0.24943414159E+03  0.24943414159E+03  0.00000000000E+00 0. -1.
         25    2    1    2    0    0 -0.70453318306E+02 -0.12062722462E+03 -0.87413057148E+02  0.20688969771E+03  0.12509079534E+03 0.  0.
          5    1    3    3  502    0 -0.78763373058E+02 -0.11956742542E+03 -0.27007880519E+02  0.14576328813E+03  0.41800000000E+01 0.  1.
         -5    1    3    3    0  502  0.83100547519E+01 -0.10597991987E+01 -0.60405176630E+02  0.61126409579E+02  0.41800000000E+01 0.  1.
        -11    1    1    2    0    0  0.68871047031E+02  0.43958236769E+02 -0.44647272265E+02  0.93107070729E+02  0.00000000000E+00 0. -1.
         11    1    1    2    0    0  0.15822712752E+01  0.76668987849E+02  0.10603784296E+02  0.77414969622E+02  0.00000000000E+00 0.  1.
</event>
<event>
 6    1  0.2794945E-009  0.6538560E+02  0.7561462E-02  0.1376527E+00
          1   -1    0    0  501    0  0.00000000000E+00  0.00000000000E+00  0.26607836745E+03  0.26607836745E+03  0.00000000000E+00 0. -1.
         -1   -1    0    0    0  501 -0.00000000000E+00 -0.00000000000E+00 -0.53773425098E+02  0.53773425098E+02  0.00000000000E+00 0.  1.
          5    1    1    2  502    0  0.19175075062E+02  0.47835967743E+02  0.15573671628E+03  0.16409558346E+03  0.41800000000E+01 0.  1.
         -5    1    1    2    0  502 -0.18849411991E+02 -0.47115676925E+02  0.27986271190E+02  0.58102419224E+02  0.41800000000E+01 0.  1.
        -11    1    1    2    0    0  0.51415322330E+01 -0.13393015785E+02  0.60871000878E+02  0.62538683816E+02  0.00000000000E+00 0. -1.
         11    1    1    2    0    0 -0.54671953032E+01  0.12672724966E+02 -0.32289045988E+02  0.35115106057E+02  0.00000000000E+00 0.  1.
</event>
<event>
 7    1  0.2794945E-009  0.1568937E+03  0.7561462E-02  0.1192249E+00
          2   -1    0    0  501    0  0.00000000000E+00  0.00000000000E+00  0.22561858787E+03  0.22561858787E+03  0.00000000000E+00 0. -1.
         -2   -1    0    0    0  501 -0.00000000000E+00 -0.00000000000E+00 -0.13244188434E+03  0.13244188434E+03  0.00000000000E+00 0.  1.
         25    2    1    2    0    0 -0.75542402978E+02 -0.11012071289E+03  0.29936780031E+02  0.18539349483E+03  0.12506522726E+03 0.  0.
          5    1    3    3  502    0 -0.39551374209E+02 -0.11536435618E+03  0.61867412487E+02  0.13681482013E+03  0.41800000000E+01 0. -1.
         -5    1    3    3    0  502 -0.35991028769E+02  0.52436432870E+01 -0.31930632456E+02  0.48578674702E+02  0.41800000000E+01 0. -1.
        -11    1    1    2    0    0 -0.92785118078E+01  0.50806878308E+02  0.53094590442E+00  0.51649894175E+02  0.00000000000E+00 0.  1.
         11    1    1    2    0    0  0.84820914785E+02  0.59313834583E+02  0.62708977591E+02  0.12101708321E+03  0.00000000000E+00 0. -1.
</event>
<event>
 7    1  0.2794945E-009  0.1248173E+03  0.7561462E-02  0.1235355E+00
         -1   -1    0    0    0  501 -0.00000000000E+00  0.00000000000E+00  0.21657296168E+02  0.21657296168E+02  0.00000000000E+00 0.  1.
          1   -1    0    0  501    0  0.00000000000E+00 -0.00000000000E+00 -0.82881326749E+03  0.82881326749E+03  0.00000000000E+00 0. -1.
         25    2    1    2    0    0  0.57224224572E+02  0.52413121271E+02 -0.41144409898E+03  0.43698542222E+03  0.12509302735E+03 0.  0.
          5    1    3    3  502    0 -0.27462618449E+02  0.38112384163E+02 -0.24652656045E+03  0.25099714469E+03  0.41800000000E+01 0. -1.
         -5    1    3    3    0  502  0.84686843022E+02  0.14300737109E+02 -0.16491753853E+03  0.18598827753E+03  0.41800000000E+01 0. -1.
        -11    1    1    2    0    0 -0.24552627322E+02  0.23409156254E+02 -0.74977307181E+02  0.82294694222E+02  0.00000000000E+00 0.  1.
         11    1    1    2    0    0 -0.32671597250E+02 -0.75822277525E+02 -0.32073456517E+03  0.33119044722E+03  0.00000000000E+00 0. -1.
</event>
<event>
 7    1  0.2794945E-009  0.9016381E+02  0.7561462E-02  0.1302455E+00
         -3   -1    0    0    0  501 -0.00000000000E+00  0.00000000000E+00  0.73047824241E+02  0.73047824241E+02  0.00000000000E+00 0.  1.
          3   -1    0    0  501    0  0.00000000000E+00 -0.00000000000E+00 -0.16268562279E+03  0.16268562279E+03  0.00000000000E+00 0. -1.
         25    2    1    2    0    0  0.15757740024E+02 -0.21190420438E+01 -0.47425479227E+02  0.13475154673E+03  0.12512396476E+03 0.  0.
          5    1    3    3  502    0  0.73962486030E+01 -0.58346730312E+02 -0.50552417509E+02  0.77666368188E+02  0.41800000000E+01 0.  1.
         -5    1    3    3    0  502  0.83614914213E+01  0.56227688268E+02  0.31269382826E+01  0.57085178547E+02  0.41800000000E+01 0.  1.
        -11    1    1    2    0    0  0.13734707414E+02 -0.22223548631E+02  0.16510619181E+02  0.30905158910E+02  0.00000000000E+00 0.  1.
         11    1    1    2    0    0 -0.29492447439E+02  0.24342590675E+02 -0.58722938500E+02  0.70076741383E+02  0.00000000000E+00 0. -1.
</event>
<event>
 7    1  0.2794945E-009  0.1076953E+03  0.7561462E-02  0.1264898E+00
          2   -1    0    0  501    0  0.00000000000E+00  0.00000000000E+00  0.27114305195E+03  0.27114305195E+03  0.00000000000E+00 0. -1.
         -2   -1    0    0    0  501 -0.00000000000E+00 -0.00000000000E+00 -0.61765838055E+02  0.61765838055E+02  0.00000000000E+00 0.  1.
         25    2    1    2    0    0 -0.37686380124E+02 -0.52452629287E+02  0.75367206325E+02  0.15968586191E+03  0.12509123527E+03 0.  0.
          5    1    3    3  502    0 -0.63368578807E+00  0.34054061974E+02 -0.64479926808E+01  0.34916037923E+02  0.41800000000E+01 0. -1.
         -5    1    3    3    0  502 -0.37052694336E+02 -0.86506691261E+02  0.81815199006E+02  0.12476982399E+03  0.41800000000E+01 0. -1.
        -11    1    1    2    0    0 -0.26196835906E+01  0.45976922418E+02  0.12240710548E+03  0.13078317785E+03  0.00000000000E+00 0. -1.
         11    1    1    2    0    0  0.40306063715E+02  0.64757068687E+01  0.11602902095E+02  0.42439850243E+02  0.00000000000E+00 0.  1.
</event>
<event>
 7    1  0.2794945E-009  0.1297130E+03  0.7561462E-02  0.1227882E+00
          2   -1    0    0  501    0  0.00000000000E+00  0.00000000000E+00  0.69289459397E+03  0.69289459397E+03  0.00000000000E+00 0. -1.
         -2   -1    0    0    0  501 -0.00000000000E+00 -0.00000000000E+00 -0.34525218864E+02  0.34525218864E+02  0.00000000000E+00 0.  1.
         25    2    1    2    0    0 -0.13441629231E+02  0.86299611734E+02  0.54561290733E+03  0.56654115777E+03  0.12508852235E+03 0.  0.
          5    1    3    3  502    0  0.23309352618E+02 -0.25304501010E+02  0.14054042606E+03  0.14475056977E+03  0.41800000000E+01 0. -1.
         -5    1    3    3    0  502 -0.36750981849E+02  0.11160411274E+03  0.40507248127E+03  0.42179058801E+03  0.41800000000E+01 0. -1.
        -11    1    1    2    0    0  0.34940738144E+02 -0.27117962406E+02  0.76101266920E+02  0.88020690147E+02  0.00000000000E+00 0. -1.
         11    1    1    2    0    0 -0.21499108913E+02 -0.59181649329E+02  0.36655200852E+02  0.72857964910E+02  0.00000000000E+00 0.  1.
</event>
<event>
 7    1  0.2794945E-009  0.1027978E+03  0.7561462E-02  0.1274520E+00
          4   -1    0    0  501    0  0.00000000000E+00  0.00000000000E+00  0.21178412429E+03  0.21178412429E+03  0.00000000000E+00 0. -1.
         -4   -1    0    0    0  501 -0.00000000000E+00 -0.00000000000E+00 -0.11936561523E+03  0.11936561523E+03  0.00000000000E+00 0.  1.
         25    2    1    2    0    0  0.21352423822E+02  0.52361083177E+02 -0.56120321917E+02  0.14830381573E+03  0.12508765804E+03 0.  0.
          5    1    3    3  502    0  0.48577707932E+02 -0.15628687786E+01  0.18530239255E+02  0.52183124031E+02  0.41800000000E+01 0. -1.
         -5    1    3    3    0  502 -0.27225284110E+02  0.53923951955E+02 -0.74650561171E+02  0.96120691698E+02  0.41800000000E+01 0. -1.
        -11    1    1    2    0    0  0.29320834305E+02 -0.12885811548E+02  0.16536926634E+02  0.36044769470E+02  0.00000000000E+00 0.  1.
         11    1    1    2    0    0 -0.50673258127E+02 -0.39475271628E+02  0.13200190434E+03  0.14680115432E+03  0.00000000000E+00 0. -1.
</event>
<event>
 7    1  0.2794945E-009  0.9662175E+02  0.7561462E-02  0.1287565E+00
         -1   -1    0    0    0  501 -0.00000000000E+00  0.00000000000E+00  0.12014098242E+03  0.12014098242E+03  0.00000000000E+00 0.  1.
          1   -1    0    0  501    0  0.00000000000E+00 -0.00000000000E+00 -0.14283181797E+03  0.14283181797E+03  0.00000000000E+00 0. -1.
         25    2    1    2    0    0  0.54515980977E+02  0.42444190715E+02  0.48586162888E+01  0.14298176071E+03  0.12508667489E+03 0.  0.
          5    1    3    3  502    0 -0.61209523516E+01  0.51467573981E+02 -0.41074383890E+02  0.66264278772E+02  0.41800000000E+01 0.  1.
         -5    1    3    3    0  502  0.60636933329E+02 -0.90233832661E+01  0.45933000179E+02  0.76717481936E+02  0.41800000000E+01 0.  1.
        -11    1    1    2    0    0 -0.10841962790E+02 -0.33508959453E+02  0.30644450901E+02  0.46684910751E+02  0.00000000000E+00 0.  1.
         11    1    1    2    0    0 -0.43674018187E+02 -0.89352312613E+01 -0.58193902738E+02  0.73306128927E+02  0.00000000000E+00 0. -1.
</event>
<event>
 7    1  0.2794945E-009  0.1310241E+03  0.7561462E-02  0.1225944E+00
         -2   -1    0    0    0  501 -0.00000000000E+00  0.00000000000E+00  0.33619487022E+03  0.33619487022E+03  0.00000000000E+00 0.  1.
          2   -1    0    0  501    0  0.00000000000E+00 -0.00000000000E+00 -0.74080596698E+02  0.74080596698E+02  0.00000000000E+00 0. -1.
         25    2    1    2    0    0  0.82701635465E+02  0.75931941832E+02  0.11276069268E+03  0.20240451886E+03  0.12508954850E+03 0.  0.
          5    1    3    3  502    0  0.70119014763E+01  0.26027722278E+02 -0.25286953531E+02  0.37195584525E+02  0.41800000000E+01 0. -1.
         -5    1    3    3    0  502  0.75689733988E+02  0.49904219554E+02  0.13804764621E+03  0.16520893434E+03  0.41800000000E+01 0. -1.
        -11    1    1    2    0    0 -0.34322215911E+02  0.17702706004E+02  0.48488531949E+02  0.61988208843E+02  0.00000000000E+00 0.  1.
         11    1    1    2    0    0 -0.48379419554E+02 -0.93634647837E+02  0.10086504889E+03  0.14588273921E+03  0.00000000000E+00 0. -1.
</event>
<event>
 7    1  0.2794945E-009  0.6820223E+02  0.7561462E-02  0.1366315E+00
         -2   -1    0    0    0  501 -0.00000000000E+00  0.00000000000E+00  0.88089374373E+02  0.88089374373E+02  0.00000000000E+00 0.  1.
          2   -1    0    0  501    0  0.00000000000E+00 -0.00000000000E+00 -0.16371251668E+03  0.16371251668E+03  0.00000000000E+00 0. -1.
         25    2    1    2    0    0 -0.44320506599E+01 -0.13134867773E+02  0.69738841445E+01  0.12605097153E+03  0.12509214420E+03 0.  0.
          5    1    3    3  502    0  0.99626930474E+00 -0.45206515173E+02  0.52836507102E+02  0.69669149911E+02  0.41800000000E+01 0.  1.
         -5    1    3    3    0  502 -0.54283199647E+01  0.32071647400E+02 -0.45862622958E+02  0.56381821620E+02  0.41800000000E+01 0.  1.
        -11    1    1    2    0    0 -0.20764169099E+02  0.23138699446E+02 -0.91957597144E+02  0.97070849399E+02  0.00000000000E+00 0. -1.
         11    1    1    2    0    0  0.25196219759E+02 -0.10003831673E+02  0.93605706969E+01  0.28680070120E+02  0.00000000000E+00 0.  1.
</event>
<event>
 7    1  0.2794945E-009  0.8376537E+02  0.7561462E-02  0.1318693E+00
         -1   -1    0    0    0  501 -0.00000000000E+00  0.00000000000E+00  0.39163211622E+02  0.39163211622E+02  0.00000000000E+00 0.  1.
          1   -1    0    0  501    0  0.00000000000E+00 -0.00000000000E+00 -0.34753469659E+03  0.34753469659E+03  0.00000000000E+00 0. -1.
         25    2    1    2    0    0  0.27786894261E+02 -0.22923966963E+01 -0.12218126648E+03  0.17706788835E+03  0.12508960241E+03 0.  0.
          5    1    3    3  502    0  0.34902131353E+02  0.40636492293E+02 -0.12204926378E+03  0.13335283449E+03  0.41800000000E+01 0. -1.
         -5    1    3    3    0  502 -0.71152370920E+01 -0.42928888989E+02 -0.13200269807E+00  0.43715053854E+02  0.41800000000E+01 0. -1.
        -11    1    1    2    0    0 -0.43468376354E+02 -0.15701538155E+02 -0.17875118516E+03  0.18462942409E+03  0.00000000000E+00 0. -1.
         11    1    1    2    0    0  0.15681482093E+02  0.17993934851E+02 -0.74390333275E+01  0.25000595771E+02  0.00000000000E+00 0.  1.
</event>
<event>
 7    1  0.2794945E-009  0.9320345E+02  0.7561462E-02  0.1295274E+00
          3   -1    0    0  501    0  0.00000000000E+00  0.00000000000E+00  0.33146377438E+03  0.33146377438E+03  0.00000000000E+00 0. -1.
         -3   -1    0    0    0  501 -0.00000000000E+00 -0.00000000000E+00 -0.66023298125E+02  0.66023298125E+02  0.00000000000E+00 0.  1.
         25    2    1    2    0    0 -0.50192080746E+02 -0.28597064625E+02  0.33203393192E+02  0.14172993032E+03  0.12509144957E+03 0.  0.
          5    1    3    3  502    0 -0.26164805702E+02  0.15981180781E+02 -0.41264541453E+02  0.51577417325E+02  0.41800000000E+01 0. -1.
         -5    1    3    3    0  502 -0.24027275044E+02 -0.44578245407E+02  0.74467934644E+02  0.90152512997E+02  0.41800000000E+01 0. -1.
        -11    1    1    2    0    0  0.66454764775E+02 -0.56942889262E+01  0.12018332423E+03  0.13745068974E+03  0.00000000000E+00 0. -1.
         11    1    1    2    0    0 -0.16262684029E+02  0.34291353551E+02  0.11205375884E+03  0.11830645244E+03  0.00000000000E+00 0.  1.
</event>
<event>
 7    1  0.2794945E-009  0.1713978E+03  0.7561462E-02  0.1176398E+00
          1   -1    0    0  501    0  0.00000000000E+00  0.00000000000E+00  0.45594735439E+02  0.45594735439E+02  0.00000000000E+00 0. -1.
         -1   -1    0    0    0  501 -0.00000000000E+00 -0.00000000000E+00 -0.81684382401E+03  0.81684382401E+03  0.00000000000E+00 0.  1.
         25    2    1    2    0    0  0.52963204365E+02 -0.14773853419E+03 -0.47219292716E+03  0.51307400073E+03  0.12508794610E+03 0.  0.
          5    1    3    3  502    0  0.34506818598E+02 -0.25599107394E+02 -0.26710432341E+02  0.50763711695E+02  0.41800000000E+01 0. -1.
         -5    1    3    3    0  502  0.18456385766E+02 -0.12213942680E+03 -0.44548249482E+03  0.46231028903E+03  0.41800000000E+01 0. -1.
        -11    1    1    2    0    0 -0.68696996254E+02  0.75406412646E+02 -0.21073424864E+03  0.23412459912E+03  0.00000000000E+00 0.  1.
         11    1    1    2    0    0  0.15733791889E+02  0.72332121544E+02 -0.88321912765E+02  0.11523995960E+03  0.00000000000E+00 0. -1.
</event>
<event>
 7    1  0.2794945E-009  0.1601033E+03  0.7561462E-02  0.1188580E+00
          1   -1    0    0  501    0  0.00000000000E+00  0.00000000000E+00  0.14287365145E+03  0.14287365145E+03  0.00000000000E+00 0. -1.
         -1   -1    0    0    0  501 -0.00000000000E+00 -0.00000000000E+00 -0.26414080263E+03  0.26414080263E+03  0.00000000000E+00 0.  1.
         25    2    1    2    0    0  0.15138839689E+03  0.28264683423E+02 -0.15417660316E+02  0.19900176294E+03  0.12508660345E+03 0.  0.
          5    1    3    3  502    0  0.94318576164E+02  0.28501803825E+02 -0.69196294862E+02  0.12047384054E+03  0.41800000000E+01 0. -1.
         -5    1    3    3    0  502  0.57069820727E+02 -0.23712040196E+00  0.53778634546E+02  0.78527922407E+02  0.41800000000E+01 0. -1.
        -11    1    1    2    0    0 -0.72213461326E+02 -0.42686283797E+02 -0.12583115818E+02  0.84824746535E+02  0.00000000000E+00 0. -1.
         11    1    1    2    0    0 -0.79174935565E+02  0.14421600375E+02 -0.93266375048E+02  0.12318794460E+03  0.00000000000E+00 0.  1.
</event>
<event>
 7    1  0.2794945E-009  0.1233923E+03  0.7561462E-02  0.1237603E+00
         -1   -1    0    0    0  501 -0.00000000000E+00  0.00000000000E+00  0.11426393886E+03  0.11426393886E+03  0.00000000000E+00 0.  1.
          1   -1    0    0  501    0  0.00000000000E+00 -0.00000000000E+00 -0.19558410813E+03  0.19558410813E+03  0.00000000000E+00 0. -1.
         25    2    1    2    0    0  0.43044901527E+02 -0.72979945448E+02 -0.10093086331E+03  0.18170142278E+03  0.12509768938E+03 0.  0.
          5    1    3    3  502    0  0.62923894662E+02 -0.13328918326E+02 -0.20995352659E+01  0.64489976210E+02  0.41800000000E+01 0. -1.
         -5    1    3    3    0  502 -0.19878993135E+02 -0.59651027121E+02 -0.98831328041E+02  0.11721144657E+03  0.41800000000E+01 0. -1.
        -11    1    1    2    0    0  0.45934568945E+01 -0.16941319567E+02 -0.12375750834E+02  0.21477135833E+02  0.00000000000E+00 0.  1.
         11    1    1    2    0    0 -0.47638358422E+02  0.89921265015E+02  0.31986444869E+02  0.10666948838E+03  0.00000000000E+00 0. -1.
</event>
<event>
 7    1  0.2794945E-009  0.3527195E+03  0.7561462E-02  0.1061504E+00
         -2   -1    0    0    0  501 -0.00000000000E+00  0.00000000000E+00  0.12186949431E+03  0.12186949431E+03  0.00000000000E+00 0.  1.
          2   -1    0    0  501    0  0.00000000000E+00 -0.00000000000E+00 -0.16426390332E+04  0.16426390332E+04  0.00000000000E+00 0. -1.
         25    2    1    2    0    0  0.17382495250E+03 -0.29688343989E+03 -0.24629591642E+03  0.44120814374E+03  0.12509219266E+03 0.  0.
          5    1    3    3  502    0  0.78520212033E+02 -0.68938519955E+02 -0.20673066883E+02  0.10659639452E+03  0.41800000000E+01 0.  1.
         -5    1    3    3    0  502  0.95304740467E+02 -0.22794491994E+03 -0.22562284954E+03  0.33461174922E+03  0.41800000000E+01 0.  1.
        -11    1    1    2    0    0 -0.34172745589E+02  0.13828286011E+03 -0.43985264909E+03  0.46234216642E+03  0.00000000000E+00 0.  1.
         11    1    1    2    0    0 -0.13965220691E+03  0.15860057978E+03 -0.83462097334E+03  0.86095821730E+03  0.00000000000E+00 0. -1.
</event>
<event>
 7    1  0.2794945E-009  0.1026843E+03  0.7561462E-02  0.1274750E+00
          2   -1    0    0  501    0  0.00000000000E+00  0.00000000000E+00  0.57676171854E+02  0.57676171854E+02  0.00000000000E+00 0. -1.
         -2   -1    0    0    0  501 -0.00000000000E+00 -0.00000000000E+00 -0.31791535566E+03  0.31791535566E+03  0.00000000000E+00 0.  1.
         25    2    1    2    0    0 -0.23434121079E+02 -0.75740918332E+02 -0.11955302736E+03  0.19033249334E+03  0.12509071480E+03 0.  0.
          5    1    3    3  502    0 -0.49300117213E+02 -0.65774695049E+02 -0.17034492802E+02  0.84050332605E+02  0.41800000000E+01 0.  1.
         -5    1    3    3    0  502  0.25865996134E+02 -0.99662232828E+01 -0.10251853456E+03  0.10628216074E+03  0.41800000000E+01 0.  1.
        -11    1    1    2    0    0  0.39054448583E+02  0.39411736522E+02 -0.13415797970E+03  0.14517884986E+03  0.00000000000E+00 0.  1.
         11    1    1    2    0    0 -0.15620327505E+02  0.36329181810E+02 -0.65281767369E+01  0.40080184304E+02  0.00000000000E+00 0. -1.
</event>
<event>
 7    1  0.2794945E-009  0.8496329E+02  0.7561462E-02  0.1315529E+00
         -2   -1    0    0    0  501 -0.00000000000E+00  0.00000000000E+00  0.34246156511E+03  0.34246156511E+03  0.00000000000E+00 0.  1.
          2   -1    0    0  501    0  0.00000000000E+00 -0.00000000000E+00 -0.50668667154E+02  0.50668667154E+02  0.00000000000E+00 0. -1.
         25    2    1    2    0    0 -0.41547491021E+02  0.50359511352E+01  0.24542145089E+03  0.27862254350E+03  0.12508908176E+03 0.  0.
          5    1    3    3  502    0  0.23318146702E+02 -0.36834458808E+01  0.19348812248E+03  0.19496776574E+03  0.41800000000E+01 0. -1.
         -5    1    3    3    0  502 -0.64865637723E+02  0.87193970159E+01  0.51933328409E+02  0.83654777755E+02  0.41800000000E+01 0. -1.
        -11    1    1    2    0    0  0.12186444974E+02 -0.35815534949E+02  0.59042136042E+02  0.70123004879E+02  0.00000000000E+00 0.  1.
         11    1    1    2    0    0  0.29361046047E+02  0.30779583814E+02 -0.12670688972E+02  0.44384683887E+02  0.00000000000E+00 0. -1.
</event>
<event>
 7    1  0.2794945E-009  0.3995489E+03  0.7561462E-02  0.1043936E+00
          2   -1    0    0  501    0  0.00000000000E+00  0.00000000000E+00  0.26342687593E+04  0.26342687593E+04  0.00000000000E+00 0. -1.
         -2   -1    0    0    0  501 -0.00000000000E+00 -0.00000000000E+00 -0.80547141571E+02  0.80547141571E+02  0.00000000000E+00 0.  1.
         25    2    1    2    0    0 -0.27861642704E+03 -0.27930004852E+03  0.19105846336E+04  0.19548958086E+04  0.12509336443E+03 0.  0.
          5    1    3    3  502    0 -0.24814338072E+03 -0.20878030312E+03  0.13169333782E+04  0.13562799664E+04  0.41800000000E+01 0.  1.
         -5    1    3    3    0  502 -0.30473046330E+02 -0.70519745397E+02  0.59365125542E+03  0.59861584218E+03  0.41800000000E+01 0.  1.
        -11    1    1    2    0    0  0.16607692657E+03  0.13014388193E+03  0.27047209403E+03  0.34303662952E+03  0.00000000000E+00 0.  1.
         11    1    1    2    0    0  0.11253950047E+03  0.14915616659E+03  0.37266489008E+03  0.41688346273E+03  0.00000000000E+00 0. -1.
</event>
<event>
 7    1  0.2794945E-009  0.1089520E+03  0.7561462E-02  0.1262523E+00
         -1   -1    0    0    0  501 -0.00000000000E+00  0.00000000000E+00  0.11903818648E+02  0.11903818648E+02  0.00000000000E+00 0.  1.
          1   -1    0    0  501    0  0.00000000000E+00 -0.00000000000E+00 -0.12923499978E+04  0.12923499978E+04  0.00000000000E+00 0. -1.
         25    2    1    2    0    0  0.49771347530E+02  0.31395875220E+02 -0.68625870616E+03  0.70004378886E+03  0.12508959400E+03 0.  0.
          5    1    3    3  502    0 -0.85173935336E+01 -0.25541357742E+02 -0.43537106409E+03  0.43622281324E+03  0.41800000000E+01 0.  1.
         -5    1    3    3    0  502  0.58288741063E+02  0.56937232962E+02 -0.25088764207E+03  0.26382097562E+03  0.41800000000E+01 0.  1.
        -11    1    1    2    0    0  0.18814115665E+02 -0.35692670475E+02 -0.19196634473E+03  0.19616068715E+03  0.00000000000E+00 0. -1.
         11    1    1    2    0    0 -0.68585463195E+02  0.42967952546E+01 -0.40222112824E+03  0.40804934041E+03  0.00000000000E+00 0.  1.
</event>
<event>
 7    1  0.2794945E-009  0.6756232E+02  0.7561462E-02  0.1368584E+00
          1   -1    0    0  501    0  0.00000000000E+00  0.00000000000E+00  0.22631507595E+03  0.22631507595E+03  0.00000000000E+00 0. -1.
         -1   -1    0    0    0  501 -0.00000000000E+00 -0.00000000000E+00 -0.61507351085E+02  0.61507351085E+02  0.00000000000E+00 0.  1.
         25    2    1    2    0    0 -0.66163302507E+01 -0.45899899963E+02  0.10036544215E+03  0.16694665278E+03  0.12508951297E+03 0.  0.
          5    1    3    3  502    0  0.32294955490E+01 -0.30636840694E+02  0.12904826755E+03  0.13274024787E+03  0.41800000000E+01 0. -1.
         -5    1    3    3    0  502 -0.98458257998E+01 -0.15263059269E+02 -0.28682825399E+02  0.34206404909E+02  0.41800000000E+01 0. -1.
        -11    1    1    2    0    0  0.16720720802E+02  0.63193749100E+02  0.14346445521E+02  0.66924232745E+02  0.00000000000E+00 0.  1.
         11    1    1    2    0    0 -0.10104390551E+02 -0.17293849137E+02  0.50095837199E+02  0.53951541507E+02  0.00000000000E+00 0. -1.
</event>
<event>
 7    1  0.2794945E-009  0.5571420E+02  0.7561462E-02  0.1416751E+00
         -1   -1    0    0    0  501 -0.00000000000E+00  0.00000000000E+00  0.42162408463E+02  0.42162408463E+02  0.00000000000E+00 0.  1.
          1   -1    0    0  501    0  0.00000000000E+00 -0.00000000000E+00 -0.29270261785E+03  0.29270261785E+03  0.00000000000E+00 0. -1.
         25    2    1    2    0    0 -0.10684250770E+02  0.77984095811E+01 -0.19313930401E+03  0.23048988777E+03  0.12509128348E+03 0.  0.
          5    1    3    3  502    0 -0.24994392099E+02  0.14935469872E+02  0.65351477744E+01  0.30132514882E+02  0.41800000000E+01 0.  1.
         -5    1    3    3    0  502  0.14310141330E+02 -0.71370602906E+01 -0.19967445178E+03  0.20035737288E+03  0.41800000000E+01 0.  1.
        -11    1    1    2    0    0  0.34798792810E+02  0.91840360319E+01 -0.64659267262E+02  0.74000833385E+02  0.00000000000E+00 0. -1.
         11    1    1    2    0    0 -0.24114542041E+02 -0.16982445613E+02  0.72583618825E+01  0.30374305162E+02  0.00000000000E+00 0.  1.
</event>
<event>
 7    1  0.2794945E-009  0.1025792E+03  0.7561462E-02  0.1274964E+00
         -1   -1    0    0    0  501 -0.00000000000E+00  0.00000000000E+00  0.14617400576E+03  0.14617400576E+03  0.00000000000E+00 0.  1.
          1   -1    0    0  501    0  0.00000000000E+00 -0.00000000000E+00 -0.97133253577E+02  0.97133253577E+02  0.00000000000E+00 0. -1.
         25    2    1    2    0    0  0.17452802927E+02 -0.16158513273E+02  0.70502935916E+02  0.14556065826E+03  0.12510612847E+03 0.  0.
          5    1    3    3  502    0  0.52735745288E+02  0.32900173331E+02  0.54837350035E+02  0.82994503403E+02  0.41800000000E+01 0.  1.
         -5    1    3    3    0  502 -0.35282942361E+02 -0.49058686605E+02  0.15665585881E+02  0.62566154860E+02  0.41800000000E+01 0.  1.
        -11    1    1    2    0    0 -0.21267255447E+02 -0.29557216844E+02 -0.34389299260E+02  0.50085418291E+02  0.00000000000E+00 0. -1.
         11    1    1    2    0    0  0.38144525203E+01  0.45715730117E+02  0.12927115524E+02  0.47661182780E+02  0.00000000000E+00 0.  1.
</event>
<event>
 7    1  0.2794945E-009  0.8632297E+02  0.7561462E-02  0.1312009E+00
         -1   -1    0    0    0  501 -0.00000000000E+00  0.00000000000E+00  0.18364767452E+03  0.18364767452E+03  0.00000000000E+00 0.  1.
          1   -1    0    0  501    0  0.00000000000E+00 -0.00000000000E+00 -0.78726946433E+02  0.78726946433E+02  0.00000000000E+00 0. -1.
         25    2    1    2    0    0 -0.42733854137E+02  0.29784381980E+01  0.26954691421E+02  0.13494227096E+03  0.12509119760E+03 0.  0.
          5    1    3    3  502    0  0.87897677793E+01 -0.27193421009E+02  0.59987093629E+02  0.66578269471E+02  0.41800000000E+01 0. -1.
         -5    1    3    3    0  502 -0.51523621917E+02  0.30171859207E+02 -0.33032402208E+02  0.68364001485E+02  0.41800000000E+01 0. -1.
        -11    1    1    2    0    0  0.50558452568E+01 -0.34448461780E+02 -0.56214784401E+00  0.34822034697E+02  0.00000000000E+00 0. -1.
         11    1    1    2    0    0  0.37678008880E+02  0.31470023582E+02  0.78528184508E+02  0.92610315297E+02  0.00000000000E+00 0.  1.
</event>
<event>
 7    1  0.2794945E-009  0.1290168E+03  0.7561462E-02  0.1228922E+00
          1   -1    0    0  501    0  0.00000000000E+00  0.00000000000E+00  0.38977109760E+03  0.38977109760E+03  0.00000000000E+00 0. -1.
         -1   -1    0    0    0  501 -0.00000000000E+00 -0.00000000000E+00 -0.10850578783E+03  0.10850578783E+03  0.00000000000E+00 0.  1.
         25    2    1    2    0    0 -0.64218785038E+02  0.41793010052E+02  0.33638735135E+03  0.36698989975E+03  0.12511765796E+03 0.  0.
          5    1    3    3  502    0  0.21409091924E+02  0.53546703907E+02  0.10363929325E+03  0.11867676361E+03  0.41800000000E+01 0. -1.
         -5    1    3    3    0  502 -0.85627876963E+02 -0.11753693855E+02  0.23274805810E+03  0.24831313614E+03  0.41800000000E+01 0. -1.
        -11    1    1    2    0    0 -0.11018726720E+02 -0.36648598925E+02 -0.38048988102E+02  0.53965337369E+02  0.00000000000E+00 0.  1.
         11    1    1    2    0    0  0.75237511758E+02 -0.51444111272E+01 -0.17073053471E+02  0.77321648303E+02  0.00000000000E+00 0. -1.
</event>
<event>
 7    1  0.2794945E-009  0.1852921E+03  0.7561462E-02  0.1162777E+00
         -2   -1    0    0    0  501 -0.00000000000E+00  0.00000000000E+00  0.19003540263E+03  0.19003540263E+03  0.00000000000E+00 0.  1.
          2   -1    0    0  501    0  0.00000000000E+00 -0.00000000000E+00 -0.21828845611E+03  0.21828845611E+03  0.00000000000E+00 0. -1.
         25    2    1    2    0    0  0.11639245472E+03  0.11331561529E+03  0.42096015842E+02  0.20927010450E+03  0.12503707412E+03 0.  0.
          5    1    3    3  502    0  0.10233251851E+03  0.32262013396E+02  0.62723648900E+02  0.12435638457E+03  0.41800000000E+01 0.  1.
         -5    1    3    3    0  502  0.14059936206E+02  0.81053601891E+02 -0.20627633058E+02  0.84913719923E+02  0.41800000000E+01 0.  1.
        -11    1    1    2    0    0 -0.89083690003E+02 -0.12299009679E+03 -0.75551337265E+02  0.16961860834E+03  0.00000000000E+00 0. -1.
         11    1    1    2    0    0 -0.27308764714E+02  0.96744815019E+01  0.52022679508E+01  0.29435145903E+02  0.00000000000E+00 0.  1.
</event>
<event>
 7    1  0.2794945E-009  0.1762358E+03  0.7561462E-02  0.1171497E+00
         -1   -1    0    0    0  501 -0.00000000000E+00  0.00000000000E+00  0.32763151721E+02  0.32763151721E+02  0.00000000000E+00 0.  1.
          1   -1    0    0  501    0  0.00000000000E+00 -0.00000000000E+00 -0.99390347360E+03  0.99390347360E+03  0.00000000000E+00 0. -1.
         25    2    1    2    0    0  0.99736487227E+02  0.10395291569E+03 -0.50094541192E+03  0.53605361532E+03  0.12511433655E+03 0.  0.
          5    1    3    3  502    0 -0.21297837193E+02 -0.10380918173E+02 -0.55511609309E+02  0.60501012382E+02  0.41800000000E+01 0.  1.
         -5    1    3    3    0  502  0.12103432442E+03  0.11433383386E+03 -0.44543380262E+03  0.47555260294E+03  0.41800000000E+01 0.  1.
        -11    1    1    2    0    0 -0.64322692241E+02 -0.14899653358E+02 -0.26580472038E+03  0.27388237947E+03  0.00000000000E+00 0.  1.
         11    1    1    2    0    0 -0.35413794986E+02 -0.89053262328E+02 -0.19439018957E+03  0.21673063053E+03  0.00000000000E+00 0. -1.
</event>
<event>
 7    1  0.2794945E-009  0.8927876E+02  0.7561462E-02  0.1304608E+00
          1   -1    0    0  501    0  0.00000000000E+00  0.00000000000E+00  0.45181852906E+03  0.45181852906E+03  0.00000000000E+00 0. -1.
         -1   -1    0    0    0  501 -0.00000000000E+00 -0.00000000000E+00 -0.33029853036E+02  0.33029853036E+02  0.00000000000E+00 0.  1.
         25    2    1    2    0    0  0.37764030474E+02 -0.40363164138E+02  0.23868403142E+03  0.27508768156E+03  0.12509140128E+03 0.  0.
          5    1    3    3  502    0  0.54747632084E+02 -0.36133746069E+02  0.24675977498E+03  0.25536407299E+03  0.41800000000E+01 0.  1.
         -5    1    3    3    0  502 -0.16983601610E+02 -0.42294180695E+01 -0.80757435662E+01  0.19723608570E+02  0.41800000000E+01 0.  1.
        -11    1    1    2    0    0 -0.27047767823E+02  0.63672021600E+02  0.16740385556E+03  0.18113464311E+03  0.00000000000E+00 0. -1.
         11    1    1    2    0    0 -0.10716262651E+02 -0.23308857462E+02  0.12700789051E+02  0.28626057428E+02  0.00000000000E+00 0.  1.
</event>
<event>
 7    1  0.2794945E-009  0.6578680E+02  0.7561462E-02  0.1375036E+00
          2   -1    0    0  501    0  0.00000000000E+00  0.00000000000E+00  0.34637366252E+03  0.34637366252E+03  0.00000000000E+00 0. -1.
         -2   -1    0    0    0  501 -0.00000000000E+00 -0.00000000000E+00 -0.40691814398E+02  0.40691814398E+02  0.00000000000E+00 0.  1.
         25    2    1    2    0    0  0.14755228485E+02  0.22572517995E+01  0.24504149365E+03  0.27552656182E+03  0.12508693259E+03 0.  0.
          5    1    3    3  502    0  0.83846346831E+01  0.19503202635E+02 -0.70305842361E+01  0.22750352228E+02  0.41800000000E+01 0.  1.
         -5    1    3    3    0  502  0.63705938023E+01 -0.17245950836E+02  0.25207207788E+03  0.25277620959E+03  0.41800000000E+01 0.  1.
        -11    1    1    2    0    0  0.37901639847E+02  0.37383631836E+01  0.38339280549E+02  0.54040818789E+02  0.00000000000E+00 0. -1.
         11    1    1    2    0    0 -0.52656868332E+02 -0.59956149831E+01  0.22301073930E+02  0.57498096316E+02  0.00000000000E+00 0.  1.
</event>
<event>
 7    1  0.2794945E-009  0.1274199E+03  0.7561462E-02  0.1231335E+00
          2   -1    0    0  501    0  0.00000000000E+00  0.00000000000E+00  0.19129169646E+03  0.19129169646E+03  0.00000000000E+00 0. -1.
         -2   -1    0    0    0  501 -0.00000000000E+00 -0.00000000000E+00 -0.14087796162E+03  0.14087796162E+03  0.00000000000E+00 0.  1.
         25    2    1    2    0    0 -0.95371983085E+02 -0.42956792146E+02  0.87531249837E+02  0.18508176409E+03  0.12510970606E+03 0.  0.
          5    1    3    3  502    0 -0.86571151154E+02  0.10557908979E+02  0.96295438728E+02  0.12998583605E+03  0.41800000000E+01 0.  1.
         -5    1    3    3    0  502 -0.88008319306E+01 -0.53514701125E+02 -0.87641888909E+01  0.55095928035E+02  0.41800000000E+01 0.  1.
        -11    1    1    2    0    0  0.61535048943E+02  0.41925033806E+01 -0.64127572368E+02  0.88974630490E+02  0.00000000000E+00 0.  1.
         11    1    1    2    0    0  0.33836934142E+02  0.38764288765E+02  0.27010057367E+02  0.58113263499E+02  0.00000000000E+00 0. -1.
</event>
<event>
 7    1  0.2794945E-009  0.1533114E+03  0.7561462E-02  0.1196462E+00
          1   -1    0    0  501    0  0.00000000000E+00  0.00000000000E+00  0.61904501708E+03  0.61904501708E+03  0.00000000000E+00 0. -1.
         -1   -1    0    0    0  501 -0.00000000000E+00 -0.00000000000E+00 -0.10230785260E+03  0.10230785260E+03  0.00000000000E+00 0.  1.
         25    2    1    2    0    0 -0.70260655061E+02  0.92088800637E+02  0.54544263628E+03  0.57146390984E+03  0.12508566634E+03 0.  0.
          5    1    3    3  502    0  0.31239811785E+02  0.52918108866E+02  0.19415962584E+03  0.20369507798E+03  0.41800000000E+01 0.  1.
         -5    1    3    3    0  502 -0.10150046685E+03  0.39170691770E+02  0.35128301044E+03  0.36776883186E+03  0.41800000000E+01 0.  1.
        -11    1    1    2    0    0  0.60495150677E+01 -0.66907612820E+02  0.14194216259E+02  0.68663680800E+02  0.00000000000E+00 0. -1.
         11    1    1    2    0    0  0.64211139994E+02 -0.25181187817E+02 -0.42899688058E+02  0.81225279037E+02  0.00000000000E+00 0.  1.
</event>
<event>
 7    1  0.2794945E-009  0.9188315E+02  0.7561462E-02  0.1298354E+00
         -3   -1    0    0    0  501 -0.00000000000E+00  0.00000000000E+00  0.40855858023E+03  0.40855858023E+03  0.00000000000E+00 0.  1.
          3   -1    0    0  501    0  0.00000000000E+00 -0.00000000000E+00 -0.33561412236E+02  0.33561412236E+02  0.00000000000E+00 0. -1.
         25    2    1    2    0    0  0.10968792841E+01  0.22201804571E+02  0.14095837102E+03  0.18976594479E+03  0.12509087965E+03 0.  0.
          5    1    3    3  502    0 -0.19862912635E+02 -0.30314335974E+02 -0.14235097962E+01  0.36510177267E+02  0.41800000000E+01 0. -1.
         -5    1    3    3    0  502  0.20959791919E+02  0.52516140545E+02  0.14238188082E+03  0.15325576753E+03  0.41800000000E+01 0. -1.
        -11    1    1    2    0    0  0.36851373828E+02  0.12748957918E+02  0.13715144910E+03  0.14258709503E+03  0.00000000000E+00 0.  1.
         11    1    1    2    0    0 -0.37948253113E+02 -0.34950762489E+02  0.96887347875E+02  0.10976695264E+03  0.00000000000E+00 0. -1.
</event>
<event>
 7    1  0.2794945E-009  0.1224871E+03  0.7561462E-02  0.1239050E+00
          3   -1    0    0  501    0  0.00000000000E+00  0.00000000000E+00  0.25488882775E+03  0.25488882775E+03  0.00000000000E+00 0. -1.
         -3   -1    0    0    0  501 -0.00000000000E+00 -0.00000000000E+00 -0.63706707616E+02  0.63706707616E+02  0.00000000000E+00 0.  1.
         25    2    1    2    0    0  0.14666075573E+01  0.47495422343E+02  0.13249016638E+03  0.18830815229E+03  0.12509336493E+03 0.  0.
          5    1    3    3  502    0 -0.60359113393E+02  0.19806465495E+02  0.46900332791E+02  0.79073587631E+02  0.41800000000E+01 0. -1.
         -5    1    3    3    0  502  0.61825720950E+02  0.27688956848E+02  0.85589833589E+02  0.10923456466E+03  0.41800000000E+01 0. -1.
        -11    1    1    2    0    0  0.19182419890E+02 -0.75920130050E+02  0.53344492774E+02  0.94749492288E+02  0.00000000000E+00 0. -1.
         11    1    1    2    0    0 -0.20649027447E+02  0.28424707707E+02  0.53474609813E+01  0.35537890788E+02  0.00000000000E+00 0.  1.
</event>
<event>
 7    1  0.2794945E-009  0.1032424E+03  0.7561462E-02  0.1273622E+00
         -2   -1    0    0    0  501 -0.00000000000E+00  0.00000000000E+00  0.85313990149E+02  0.85313990149E+02  0.00000000000E+00 0.  1.
          2   -1    0    0  501    0  0.00000000000E+00 -0.00000000000E+00 -0.18361493677E+03  0.18361493677E+03  0.00000000000E+00 0. -1.
         25    2    1    2    0    0 -0.54936942600E+02 -0.27211076204E+02 -0.53970817566E+02  0.14938818795E+03  0.12508185808E+03 0.  0.
          5    1    3    3  502    0 -0.40204277870E+02  0.25898953597E+02 -0.75995061655E+02  0.89888050109E+02  0.41800000000E+01 0. -1.
         -5    1    3    3    0  502 -0.14732664730E+02 -0.53110029801E+02  0.22024244089E+02  0.59500137842E+02  0.41800000000E+01 0. -1.
        -11    1    1    2    0    0  0.48296796224E+02 -0.22338026882E+02 -0.44779141999E+02  0.69546671586E+02  0.00000000000E+00 0. -1.
         11    1    1    2    0    0  0.66401463762E+01  0.49549103086E+02  0.44901294603E+00  0.49994067380E+02  0.00000000000E+00 0.  1.
</event>
<event>
 7    1  0.2794945E-009  0.9229605E+02  0.7561462E-02  0.1297385E+00
          2   -1    0    0  501    0  0.00000000000E+00  0.00000000000E+00  0.84193163559E+03  0.84193163559E+03  0.00000000000E+00 0. -1.
         -2   -1    0    0    0  501 -0.00000000000E+00 -0.00000000000E+00 -0.18068363383E+02  0.18068363383E+02  0.00000000000E+00 0.  1.
         25    2    1    2    0    0  0.22615448822E+02 -0.23193215154E+02  0.62801703780E+03  0.64117323499E+03  0.12509330015E+03 0.  0.
          5    1    3    3  502    0  0.33633415940E+01 -0.53710348103E+02  0.11682322686E+03  0.12869052916E+03  0.41800000000E+01 0. -1.
         -5    1    3    3    0  502  0.19252107228E+02  0.30517132949E+02  0.51119381093E+03  0.51248270583E+03  0.41800000000E+01 0. -1.
        -11    1    1    2    0    0 -0.54848767074E+02  0.46599001011E+00  0.84884935485E+02  0.10106461630E+03  0.00000000000E+00 0.  1.
         11    1    1    2    0    0  0.32233318252E+02  0.22727225144E+02  0.11096129892E+03  0.11776214768E+03  0.00000000000E+00 0. -1.
</event>
<event>
 7    1  0.2794945E-009  0.1457559E+03  0.7561462E-02  0.1205787E+00
         -1   -1    0    0    0  501 -0.00000000000E+00  0.00000000000E+00  0.39011473059E+03  0.39011473059E+03  0.00000000000E+00 0.  1.
          1   -1    0    0  501    0  0.00000000000E+00 -0.00000000000E+00 -0.60287386029E+02  0.60287386029E+02  0.00000000000E+00 0. -1.
         25    2    1    2    0    0  0.66775529436E+02 -0.79870510631E+02  0.21975853773E+03  0.27346116593E+03  0.12509566165E+03 0.  0.
          5    1    3    3  502    0 -0.29500117116E+02 -0.37219857804E+02  0.11669310560E+03  0.12605684440E+03  0.41800000000E+01 0. -1.
         -5    1    3    3    0  502  0.96275646552E+02 -0.42650652826E+02  0.10306543213E+03  0.14740432153E+03  0.41800000000E+01 0. -1.
        -11    1    1    2    0    0 -0.11979578434E+02 -0.20703594918E+02  0.16699330119E+02  0.29172191697E+02  0.00000000000E+00 0.  1.
         11    1    1    2    0    0 -0.54795951001E+02  0.10057410555E+03  0.93369476709E+02  0.14776875899E+03  0.00000000000E+00 0. -1.
</event>
<event>
 7    1  0.2794945E-009  0.1143061E+03  0.7561462E-02  0.1252797E+00
          1   -1    0    0  501    0  0.00000000000E+00  0.00000000000E+00  0.94933726768E+03  0.94933726768E+03  0.00000000000E+00 0. -1.
         -1   -1    0    0    0  501 -0.00000000000E+00 -0.00000000000E+00 -0.13864034337E+02  0.13864034337E+02  0.00000000000E+00 0.  1.
         25    2    1    2    0    0 -0.13787774597E+02 -0.32040596813E+02  0.53116948766E+03  0.54681394795E+03  0.12509103275E+03 0.  0.
          5    1    3    3  502    0  0.55668762564E+02 -0.13517598664E+02  0.21408160198E+03  0.22165320053E+03  0.41800000000E+01 0.  1.
         -5    1    3    3    0  502 -0.69456537160E+02 -0.18522998149E+02  0.31708788568E+03  0.32516074741E+03  0.41800000000E+01 0.  1.
        -11    1    1    2    0    0 -0.37204619040E+02  0.30572366983E+02  0.17737742280E+03  0.18379772419E+03  0.00000000000E+00 0.  1.
         11    1    1    2    0    0  0.50992393636E+02  0.14682298299E+01  0.22692632289E+03  0.23258962988E+03  0.00000000000E+00 0. -1.
</event>
<event>
 7    1  0.2794945E-009  0.1601789E+03  0.7561462E-02  0.1188495E+00
          2   -1    0    0  501    0  0.00000000000E+00  0.00000000000E+00  0.14292631252E+03  0.14292631252E+03  0.00000000000E+00 0. -1.
         -2   -1    0    0    0  501 -0.00000000000E+00 -0.00000000000E+00 -0.19382929773E+03  0.19382929773E+03  0.00000000000E+00 0.  1.
         25    2    1    2    0    0 -0.83155399238E+02 -0.76277211276E+02 -0.37206000426E+01  0.16850765314E+03  0.12509177798E+03 0.  0.
          5    1    3    3  502    0 -0.68301426395E+01  0.32064344129E+02  0.11614936967E+02  0.35030731846E+02  0.41800000000E+01 0. -1.
         -5    1    3    3    0  502 -0.76325256598E+02 -0.10834155540E+03 -0.15335537009E+02  0.13347692129E+03  0.41800000000E+01 0. -1.
        -11    1    1    2    0    0 -0.25000070719E+02  0.23737307090E+02  0.88496910680E+01  0.35591857437E+02  0.00000000000E+00 0. -1.
         11    1    1    2    0    0  0.10815546996E+03  0.52539904186E+02 -0.56032076233E+02  0.13265609967E+03  0.00000000000E+00 0.  1.
</event>
<event>
 7    1  0.2794945E-009  0.1581172E+03  0.7561462E-02  0.1190839E+00
         -2   -1    0    0    0  501 -0.00000000000E+00  0.00000000000E+00  0.12076754326E+02  0.12076754326E+02  0.00000000000E+00 0. -1.
          2   -1    0    0  501    0  0.00000000000E+00 -0.00000000000E+00 -0.26698353826E+04  0.26698353826E+04  0.00000000000E+00 0.  1.
         25    2    1    2    0    0 -0.42903925185E+02 -0.12386700129E+03 -0.18072090299E+04  0.18162693190E+04  0.12508389436E+03 0.  0.
          5    1    3    3  502    0 -0.44396962107E+02 -0.13560153502E+03 -0.17854908352E+04  0.17911878354E+04  0.41800000000E+01 0.  1.
         -5    1    3    3    0  502  0.14930369225E+01  0.11734533730E+02 -0.21718194659E+02  0.25081483616E+02  0.41800000000E+01 0.  1.
        -11    1    1    2    0    0 -0.25357368232E+02  0.68524206199E+02 -0.38754460917E+03  0.39437214285E+03  0.00000000000E+00 0.  1.
         11    1    1    2    0    0  0.68261293416E+02  0.55342795093E+02 -0.46300498922E+03  0.47127067508E+03  0.00000000000E+00 0. -1.
</event>
<event>
 7    1  0.2794945E-009  0.9298471E+02  0.7561462E-02  0.1295781E+00
          1   -1    0    0  501    0  0.00000000000E+00  0.00000000000E+00  0.17416856573E+03  0.17416856573E+03  0.00000000000E+00 0. -1.
         -1   -1    0    0    0  501 -0.00000000000E+00 -0.00000000000E+00 -0.12004815852E+03  0.12004815852E+03  0.00000000000E+00 0.  1.
         25    2    1    2    0    0  0.38573154236E+02  0.10276168276E+01  0.11855221695E+03  0.17660886727E+03  0.12508844723E+03 0.  0.
          5    1    3    3  502    0  0.61545481861E+02  0.11195480181E+02  0.80497056241E+01  0.63209613783E+02  0.41800000000E+01 0. -1.
         -5    1    3    3    0  502 -0.22972327625E+02 -0.10167863353E+02  0.11050251133E+03  0.11339925349E+03  0.41800000000E+01 0. -1.
        -11    1    1    2    0    0 -0.33767579214E+02  0.42349892708E+02 -0.41983234595E+02  0.68529955534E+02  0.00000000000E+00 0.  1.
         11    1    1    2    0    0 -0.48055750214E+01 -0.43377509536E+02 -0.22448575148E+02  0.49077901453E+02  0.00000000000E+00 0. -1.
</event>
<event>
 7    1  0.2794945E-009  0.1727161E+03  0.7561462E-02  0.1175045E+00
         -2   -1    0    0    0  501 -0.00000000000E+00  0.00000000000E+00  0.10667981966E+03  0.10667981966E+03  0.00000000000E+00 0.  1.
          2   -1    0    0  501    0  0.00000000000E+00 -0.00000000000E+00 -0.35712838623E+03  0.35712838623E+03  0.00000000000E+00 0. -1.
         25    2    1    2    0    0  0.56613810609E+02  0.15067800677E+03 -0.15382561158E+03  0.25537948278E+03  0.12508947266E+03 0.  0.
          5    1    3    3  502    0  0.31261631069E+02  0.37048528247E+02  0.14410871296E+02  0.50744739963E+02  0.41800000000E+01 0. -1.
         -5    1    3    3    0  502  0.25352179540E+02  0.11362947852E+03 -0.16823648288E+03  0.20463474282E+03  0.41800000000E+01 0. -1.
        -11    1    1    2    0    0 -0.77622424066E+02 -0.12445639880E+03 -0.95068467061E+02  0.17479316162E+03  0.00000000000E+00 0. -1.
         11    1    1    2    0    0  0.21008613457E+02 -0.26221607968E+02 -0.15544879347E+01  0.33635561487E+02  0.00000000000E+00 0.  1.
</event>
<event>
 7    1  0.2794945E-009  0.1304113E+03  0.7561462E-02  0.1226847E+00
         -3   -1    0    0    0  501 -0.00000000000E+00  0.00000000000E+00  0.42753576114E+02  0.42753576114E+02  0.00000000000E+00 0.  1.
          3   -1    0    0  501    0  0.00000000000E+00 -0.00000000000E+00 -0.58075676278E+03  0.58075676278E+03  0.00000000000E+00 0. -1.
         25    2    1    2    0    0 -0.57377637442E+02  0.95691877834E+02 -0.33686057330E+03  0.37626024520E+03  0.12509035738E+03 0.  0.
          5    1    3    3  502    0  0.19509169207E+02  0.69020129110E+01 -0.17479567756E+03  0.17606602955E+03  0.41800000000E+01 0. -1.
         -5    1    3    3    0  502 -0.76886806649E+02  0.88789864923E+02 -0.16206489574E+03  0.20019421565E+03  0.41800000000E+01 0. -1.
        -11    1    1    2    0    0  0.11852514499E+02 -0.67724204651E+02 -0.17447946813E+03  0.18753702246E+03  0.00000000000E+00 0.  1.
         11    1    1    2    0    0  0.45525122943E+02 -0.27967673183E+02 -0.26663145234E+02  0.59713071233E+02  0.00000000000E+00 0. -1.
</event>
<event>
 7    1  0.3821015E-009  0.1774278E+03  0.7561462E-02  0.1170316E+00
          2   -1    0    0  501    0  0.00000000000E+00  0.00000000000E+00  0.94815209810E+03  0.94815209810E+03  0.00000000000E+00 0. -1.
         -2   -1    0    0    0  501 -0.00000000000E+00 -0.00000000000E+00 -0.40865480767E+02  0.40865480767E+02  0.00000000000E+00 0.  1.
         25    2    1    2    0    0 -0.83994322580E+02  0.14067344690E+03  0.50067669120E+03  0.54144932733E+03  0.12508461166E+03 0.  0.
          5    1    3    3  502    0  0.11490906765E+02  0.72638671656E+02  0.30078185738E+03  0.30967017242E+03  0.41800000000E+01 0. -1.
         -5    1    3    3    0  502 -0.95485229346E+02  0.68034775239E+02  0.19989483382E+03  0.23177915491E+03  0.41800000000E+01 0. -1.
        -11    1    1    2    0    0  0.36981740475E+02 -0.65220907369E+02  0.29762415118E+03  0.30692271218E+03  0.00000000000E+00 0. -1.
         11    1    1    2    0    0  0.47012582105E+02 -0.75452539526E+02  0.10898577496E+03  0.14064553935E+03  0.00000000000E+00 0.  1.
</event>
<event>
 7    1  0.2794945E-009  0.5449303E+02  0.7561462E-02  0.1422512E+00
          1   -1    0    0  501    0  0.00000000000E+00  0.00000000000E+00  0.78417729138E+02  0.78417729138E+02  0.00000000000E+00 0. -1.
         -1   -1    0    0    0  501 -0.00000000000E+00 -0.00000000000E+00 -0.22072433103E+03  0.22072433103E+03  0.00000000000E+00 0.  1.
         25    2    1    2    0    0 -0.62784907302E+01 -0.73532244973E+01 -0.16059448082E+03  0.20379368521E+03  0.12509112480E+03 0.  0.
          5    1    3    3  502    0 -0.27589692989E+02  0.11628863322E+00 -0.17465187266E+03  0.17686705093E+03  0.41800000000E+01 0. -1.
         -5    1    3    3    0  502  0.21311202259E+02 -0.74695131305E+01  0.14057391837E+02  0.26926634275E+02  0.41800000000E+01 0. -1.
        -11    1    1    2    0    0  0.31242880415E+01  0.32561230065E+02 -0.27664811697E+02  0.42840829653E+02  0.00000000000E+00 0.  1.
         11    1    1    2    0    0  0.31542026887E+01 -0.25208005567E+02  0.45952690623E+02  0.52507545313E+02  0.00000000000E+00 0. -1.
</event>
<event>
 7    1  0.2794945E-009  0.1290235E+03  0.7561462E-02  0.1228912E+00
          2   -1    0    0  501    0  0.00000000000E+00  0.00000000000E+00  0.56202698881E+02  0.56202698881E+02  0.00000000000E+00 0. -1.
         -2   -1    0    0    0  501 -0.00000000000E+00 -0.00000000000E+00 -0.31708900053E+03  0.31708900053E+03  0.00000000000E+00 0.  1.
         25    2    1    2    0    0  0.70413075057E+02  0.31816573754E+02 -0.12106947686E+03  0.19046130515E+03  0.12508954804E+03 0.  0.
          5    1    3    3  502    0 -0.22306637918E+02  0.45041928502E+02 -0.25240274330E+02  0.56399514773E+02  0.41800000000E+01 0. -1.
         -5    1    3    3    0  502  0.92719712975E+02 -0.13225354749E+02 -0.95829202527E+02  0.13406179038E+03  0.41800000000E+01 0. -1.
        -11    1    1    2    0    0 -0.25149962328E+02  0.28782194168E+02 -0.70698195742E+02  0.80368962836E+02  0.00000000000E+00 0.  1.
         11    1    1    2    0    0 -0.45263112729E+02 -0.60598767922E+02 -0.69118629048E+02  0.10246143142E+03  0.00000000000E+00 0. -1.
</event>
<event>
 7    1  0.2794945E-009  0.1287894E+03  0.7561462E-02  0.1229263E+00
          1   -1    0    0  501    0  0.00000000000E+00  0.00000000000E+00  0.28245668343E+02  0.28245668343E+02  0.00000000000E+00 0. -1.
         -1   -1    0    0    0  501 -0.00000000000E+00 -0.00000000000E+00 -0.88027097682E+03  0.88027097682E+03  0.00000000000E+00 0.  1.
         25    2    1    2    0    0  0.69827187782E+02  0.81818534144E+02 -0.43219283621E+03  0.46261234826E+03  0.12509767547E+03 0.  0.
          5    1    3    3  502    0  0.88945873834E+02  0.76434682063E+02 -0.21903493946E+03  0.24849025373E+03  0.41800000000E+01 0. -1.
         -5    1    3    3    0  502 -0.19118686052E+02  0.53838520809E+01 -0.21315789675E+03  0.21412209453E+03  0.41800000000E+01 0. -1.
        -11    1    1    2    0    0 -0.39699478254E+02 -0.84097518284E+01 -0.36939016755E+02  0.54874980257E+02  0.00000000000E+00 0.  1.
         11    1    1    2    0    0 -0.30127709529E+02 -0.73408782315E+02 -0.38289345552E+03  0.39102931665E+03  0.00000000000E+00 0. -1.
</event>
<event>
 7    1  0.2794945E-009  0.5300569E+02  0.7561462E-02  0.1429773E+00
         -4   -1    0    0    0  501 -0.00000000000E+00  0.00000000000E+00  0.21043594297E+03  0.21043594297E+03  0.00000000000E+00 0.  1.
          4   -1    0    0  501    0  0.00000000000E+00 -0.00000000000E+00 -0.60867268286E+02  0.60867268286E+02  0.00000000000E+00 0. -1.
         25    2    1    2    0    0 -0.10563118354E+02 -0.99738242334E+01  0.12459151642E+03  0.17714831847E+03  0.12508966437E+03 0.  0.
          5    1    3    3  502    0  0.65066532012E+01  0.97447789107E+01  0.14389571521E+03  0.14443249811E+03  0.41800000000E+01 0. -1.
         -5    1    3    3    0  502 -0.17069771556E+02 -0.19718603144E+02 -0.19304198792E+02  0.32715820362E+02  0.41800000000E+01 0. -1.
        -11    1    1    2    0    0  0.12331127238E+02 -0.27240194818E+02  0.43312613425E+02  0.52631429721E+02  0.00000000000E+00 0.  1.
         11    1    1    2    0    0 -0.17680088839E+01  0.37214019052E+02 -0.18335455161E+02  0.41523463070E+02  0.00000000000E+00 0. -1.
</event>
<event>
 7    1  0.2794945E-009  0.9423927E+02  0.7561462E-02  0.1292899E+00
          2   -1    0    0  501    0  0.00000000000E+00  0.00000000000E+00  0.92563323619E+02  0.92563323619E+02  0.00000000000E+00 0. -1.
         -2   -1    0    0    0  501 -0.00000000000E+00 -0.00000000000E+00 -0.19454983879E+03  0.19454983879E+03  0.00000000000E+00 0.  1.
         25    2    1    2    0    0  0.74689462714E+02  0.15164710073E+02 -0.87405072596E+02  0.17057419462E+03  0.12508966737E+03 0.  0.
          5    1    3    3  502    0  0.53794751320E+02 -0.20800638378E+01 -0.11783504539E+03  0.12961779298E+03  0.41800000000E+01 0.  1.
         -5    1    3    3    0  502  0.20894711394E+02  0.17244773911E+02  0.30429972792E+02  0.40956401644E+02  0.41800000000E+01 0.  1.
        -11    1    1    2    0    0 -0.55696640561E+02  0.26200880792E+02 -0.30010014037E+02  0.68477754538E+02  0.00000000000E+00 0.  1.
         11    1    1    2    0    0 -0.18992822153E+02 -0.41365590865E+02  0.15428571467E+02  0.48061213244E+02  0.00000000000E+00 0. -1.
</event>
<event>
 7    1  0.2794945E-009  0.2617729E+03  0.7561462E-02  0.1106083E+00
         -2   -1    0    0    0  501 -0.00000000000E+00  0.00000000000E+00  0.32651971373E+03  0.32651971373E+03  0.00000000000E+00 0.  1.
          2   -1    0    0  501    0  0.00000000000E+00 -0.00000000000E+00 -0.25146870777E+03  0.25146870777E+03  0.00000000000E+00 0. -1.
         25    2    1    2    0    0 -0.24320492960E+03 -0.65597829941E+02 -0.45257292257E+02  0.28487191117E+03  0.12510823393E+03 0.  0.
          5    1    3    3  502    0 -0.14603302801E+03  0.17776072386E+01  0.23566896159E+02  0.14799214895E+03  0.41800000000E+01 0. -1.
         -5    1    3    3    0  502 -0.97171901593E+02 -0.67375437179E+02 -0.68824188416E+02  0.13687976222E+03  0.41800000000E+01 0. -1.
        -11    1    1    2    0    0  0.16248980836E+03  0.72869955893E+02  0.47830642798E+02  0.18439289217E+03  0.00000000000E+00 0.  1.
         11    1    1    2    0    0  0.80715121241E+02 -0.72721259527E+01  0.72477655419E+02  0.10872361817E+03  0.00000000000E+00 0. -1.
</event>
<event>
 7    1  0.2794945E-009  0.1137226E+03  0.7561462E-02  0.1253827E+00
         -1   -1    0    0    0  501 -0.00000000000E+00  0.00000000000E+00  0.36018863646E+03  0.36018863646E+03  0.00000000000E+00 0.  1.
          1   -1    0    0  501    0  0.00000000000E+00 -0.00000000000E+00 -0.51946543362E+02  0.51946543362E+02  0.00000000000E+00 0. -1.
         25    2    1    2    0    0 -0.26471981704E+02 -0.79164046403E+02  0.17799026920E+03  0.23301494146E+03  0.12509082682E+03 0.  0.
          5    1    3    3  502    0 -0.55349833019E+02 -0.18801624646E+02  0.20908161701E+02  0.62223216972E+02  0.41800000000E+01 0. -1.
         -5    1    3    3    0  502  0.28877851315E+02 -0.60362421757E+02  0.15708210750E+03  0.17079172449E+03  0.41800000000E+01 0. -1.
        -11    1    1    2    0    0  0.43683504135E+02  0.69408660998E+02  0.13573823565E+03  0.15858965720E+03  0.00000000000E+00 0.  1.
         11    1    1    2    0    0 -0.17211522431E+02  0.97553854055E+01 -0.54864117514E+01  0.20530581159E+02  0.00000000000E+00 0. -1.
</event>
<event>
 7    1  0.2794945E-009  0.2172617E+03  0.7561462E-02  0.1135941E+00
          1   -1    0    0  501    0  0.00000000000E+00  0.00000000000E+00  0.12091039207E+03  0.12091039207E+03  0.00000000000E+00 0. -1.
         -1   -1    0    0    0  501 -0.00000000000E+00 -0.00000000000E+00 -0.52800038325E+03  0.52800038325E+03  0.00000000000E+00 0.  1.
         25    2    1    2    0    0  0.82665122310E+02  0.18639888345E+03 -0.79437679834E+02  0.25206327554E+03  0.12508990248E+03 0.  0.
          5    1    3    3  502    0 -0.12229855514E+02  0.64873400399E+02  0.19321139664E+02  0.68912308648E+02  0.41800000000E+01 0.  1.
         -5    1    3    3    0  502  0.94894977825E+02  0.12152548305E+03 -0.98758819498E+02  0.18315096690E+03  0.41800000000E+01 0.  1.
        -11    1    1    2    0    0 -0.68501852214E+01 -0.95589473064E+02 -0.20578856503E+03  0.22700926390E+03  0.00000000000E+00 0. -1.
         11    1    1    2    0    0 -0.75814937089E+02 -0.90809410382E+02 -0.12186374632E+03  0.16983823588E+03  0.00000000000E+00 0.  1.
</event>
<event>
 7    1  0.2794945E-009  0.1070611E+03  0.7561462E-02  0.1266111E+00
          1   -1    0    0  501    0  0.00000000000E+00  0.00000000000E+00  0.58140703698E+03  0.58140703698E+03  0.00000000000E+00 0. -1.
         -1   -1    0    0    0  501 -0.00000000000E+00 -0.00000000000E+00 -0.26093576660E+02  0.26093576660E+02  0.00000000000E+00 0.  1.
         25    2    1    2    0    0  0.11457523258E+02 -0.41369528024E+02  0.42508014605E+03  0.44517818414E+03  0.12509105634E+03 0.  0.
          5    1    3    3  502    0 -0.48876694616E+02 -0.22600653635E+02  0.30169991687E+03  0.30649638344E+03  0.41800000000E+01 0.  1.
         -5    1    3    3    0  502  0.60334217873E+02 -0.18768874388E+02  0.12338022918E+03  0.13868180070E+03  0.41800000000E+01 0.  1.
        -11    1    1    2    0    0  0.81697609136E+01 -0.25667113240E+02  0.32933449546E+02  0.42545949213E+02  0.00000000000E+00 0. -1.
         11    1    1    2    0    0 -0.19627284171E+02  0.67036641263E+02  0.97299864728E+02  0.11977648030E+03  0.00000000000E+00 0.  1.
</event>
<event>
 7    1  0.2933410E-009  0.2576418E+03  0.7561462E-02  0.1108568E+00
         -2   -1    0    0    0  501 -0.00000000000E+00  0.00000000000E+00  0.12050873768E+03  0.12050873768E+03  0.00000000000E+00 0.  1.
          2   -1    0    0  501    0  0.00000000000E+00 -0.00000000000E+00 -0.61084294922E+03  0.61084294922E+03  0.00000000000E+00 0. -1.
         25    2    1    2    0    0  0.19890405420E+03  0.14653387117E+03 -0.21869773570E+03  0.35286081396E+03  0.12508819389E+03 0.  0.
          5    1    3    3  502    0  0.91831459574E+02  0.13081335638E+03 -0.85891167708E+02  0.18149357086E+03  0.41800000000E+01 0. -1.
         -5    1    3    3    0  502  0.10707259462E+03  0.15720514796E+02 -0.13280656800E+03  0.17136724310E+03  0.41800000000E+01 0. -1.
        -11    1    1    2    0    0 -0.23055048196E+02 -0.18927833061E+02  0.10285720523E+01  0.29847212134E+02  0.00000000000E+00 0. -1.
         11    1    1    2    0    0 -0.17584900600E+03 -0.12760603811E+03 -0.27266504789E+03  0.34864366080E+03  0.00000000000E+00 0.  1.
</event>
<event>
 7    1  0.2794945E-009  0.1801920E+03  0.7561462E-02  0.1167617E+00
         -1   -1    0    0    0  501 -0.00000000000E+00  0.00000000000E+00  0.84277662326E+02  0.84277662326E+02  0.00000000000E+00 0.  1.
          1   -1    0    0  501    0  0.00000000000E+00 -0.00000000000E+00 -0.10049076237E+04  0.10049076237E+04  0.00000000000E+00 0. -1.
         25    2    1    2    0    0 -0.50682641082E+02 -0.13531357814E+03 -0.89737248616E+03  0.91749795284E+03  0.12508645015E+03 0.  0.
          5    1    3    3  502    0 -0.12432823898E+01 -0.14107335887E+03 -0.66936832010E+03  0.68408673331E+03  0.41800000000E+01 0.  1.
         -5    1    3    3    0  502 -0.49439358692E+02  0.57597807336E+01 -0.22800416607E+03  0.23341121954E+03  0.41800000000E+01 0.  1.
        -11    1    1    2    0    0  0.58347951914E+02  0.14537406036E+03 -0.25881334824E+02  0.15877009923E+03  0.00000000000E+00 0. -1.
         11    1    1    2    0    0 -0.76653108319E+01 -0.10060482223E+02  0.26238596453E+01  0.12917233920E+02  0.00000000000E+00 0.  1.
</event>
<event>
 7    1  0.2794945E-009  0.1100799E+03  0.7561462E-02  0.1260422E+00
          1   -1    0    0  501    0  0.00000000000E+00  0.00000000000E+00  0.76257655082E+02  0.76257655082E+02  0.00000000000E+00 0.  1.
         -1   -1    0    0    0  501 -0.00000000000E+00 -0.00000000000E+00 -0.19633630504E+03  0.19633630504E+03  0.00000000000E+00 0. -1.
         25    2    1    2    0    0 -0.41197330440E+02  0.13147877342E+02 -0.29095625547E+02  0.13551654919E+03  0.12509233776E+03 0.  0.
          5    1    3    3  502    0  0.24702133297E+02  0.39478355337E+02 -0.42488229682E+02  0.63177986602E+02  0.41800000000E+01 0.  1.
         -5    1    3    3    0  502 -0.65899463737E+02 -0.26330477995E+02  0.13392604136E+02  0.72338562592E+02  0.41800000000E+01 0.  1.
        -11    1    1    2    0    0  0.23000972688E+02  0.39998198033E+02 -0.36636727945E+02  0.58916469896E+02  0.00000000000E+00 0.  1.
         11    1    1    2    0    0  0.18196357752E+02 -0.53146075375E+02 -0.54346296462E+02  0.78160941028E+02  0.00000000000E+00 0. -1.
</event>
<event>
 7    1  0.2794945E-009  0.1057045E+03  0.7561462E-02  0.1268738E+00
          4   -1    0    0  501    0  0.00000000000E+00  0.00000000000E+00  0.17653811643E+03  0.17653811643E+03  0.00000000000E+00 0. -1.
         -4   -1    0    0    0  501 -0.00000000000E+00 -0.00000000000E+00 -0.74219245885E+02  0.74219245885E+02  0.00000000000E+00 0.  1.
         25    2    1    2    0    0 -0.28018906052E+02 -0.31723837080E+02  0.59136838260E+02  0.14469499527E+03  0.12509202645E+03 0.  0.
          5    1    3    3  502    0  0.39326137637E+02 -0.25471452229E+02 -0.97771340975E+01  0.48045860709E+02  0.41800000000E+01 0. -1.
         -5    1    3    3    0  502 -0.67345043689E+02 -0.62523848511E+01  0.68913972357E+02  0.96649134563E+02  0.41800000000E+01 0. -1.
        -11    1    1    2    0    0 -0.17257987821E+01  0.57330359713E+02  0.21735716661E+02  0.61336692974E+02  0.00000000000E+00 0.  1.
         11    1    1    2    0    0  0.29744704834E+02 -0.25606522633E+02  0.21446315626E+02  0.44725674069E+02  0.00000000000E+00 0. -1.
</event>
<event>
 6    1  0.2794945E-009  0.2044318E+03  0.7561462E-02  0.1146053E+00
         -2   -1    0    0    0  501 -0.00000000000E+00  0.00000000000E+00  0.11167836709E+03  0.11167836709E+03  0.00000000000E+00 0. -1.
          2   -1    0    0  501    0  0.00000000000E+00 -0.00000000000E+00 -0.50329459356E+03  0.50329459356E+03  0.00000000000E+00 0.  1.
          5    1    1    2  502    0 -0.18756474259E+03 -0.78386358082E+01 -0.14491128922E+03  0.23718923040E+03  0.41800000000E+01 0. -1.
         -5    1    1    2    0  502 -0.12836464842E+02  0.10965900825E+01  0.24520548391E+02  0.28012622741E+02  0.41800000000E+01 0. -1.
        -11    1    1    2    0    0  0.15211489154E+03 -0.18194298781E+02 -0.13918448975E+03  0.20698380353E+03  0.00000000000E+00 0. -1.
         11    1    1    2    0    0  0.48286315898E+02  0.24936344506E+02 -0.13204099590E+03  0.14278730398E+03  0.00000000000E+00 0.  1.
</event>
<event>
 7    1  0.2794945E-009  0.1025307E+03  0.7561462E-02  0.1275062E+00
         -1   -1    0    0    0  501 -0.00000000000E+00  0.00000000000E+00  0.24496088887E+03  0.24496088887E+03  0.00000000000E+00 0.  1.
          1   -1    0    0  501    0  0.00000000000E+00 -0.00000000000E+00 -0.50386839195E+02  0.50386839195E+02  0.00000000000E+00 0. -1.
         25    2    1    2    0    0 -0.23167152825E+02  0.12247127490E+02  0.12554693463E+03  0.17915591392E+03  0.12509236425E+03 0.  0.
          5    1    3    3  502    0 -0.17861390025E+02 -0.56008611785E+02  0.52107772657E+02  0.78668203354E+02  0.41800000000E+01 0.  1.
         -5    1    3    3    0  502 -0.53057628004E+01  0.68255739275E+02  0.73439161973E+02  0.10048771056E+03  0.41800000000E+01 0.  1.
        -11    1    1    2    0    0 -0.19013616337E+02  0.17563738532E+02  0.57803917626E+02  0.63334788311E+02  0.00000000000E+00 0.  1.
         11    1    1    2    0    0  0.42180769163E+02 -0.29810866022E+02  0.11223197420E+02  0.52857025838E+02  0.00000000000E+00 0. -1.
</event>
<event>
 7    1  0.2794945E-009  0.9982778E+02  0.7561462E-02  0.1280659E+00
         -1   -1    0    0    0  501 -0.00000000000E+00  0.00000000000E+00  0.23107713915E+03  0.23107713915E+03  0.00000000000E+00 0.  1.
          1   -1    0    0  501    0  0.00000000000E+00 -0.00000000000E+00 -0.64558403496E+02  0.64558403496E+02  0.00000000000E+00 0. -1.
         25    2    1    2    0    0 -0.30111396861E+02 -0.21900805907E+02  0.14233970186E+03  0.19311358511E+03  0.12508367004E+03 0.  0.
          5    1    3    3  502    0  0.42617257838E+02 -0.92959819476E+01  0.15840453923E+02  0.46594402309E+02  0.41800000000E+01 0.  1.
         -5    1    3    3    0  502 -0.72728654699E+02 -0.12604823959E+02  0.12649924794E+03  0.14651918281E+03  0.41800000000E+01 0.  1.
        -11    1    1    2    0    0 -0.12809950186E+01 -0.25237764015E+02 -0.18740804455E+02  0.31461141625E+02  0.00000000000E+00 0. -1.
         11    1    1    2    0    0  0.31392391879E+02  0.47138569921E+02  0.42919838253E+02  0.71060815910E+02  0.00000000000E+00 0.  1.
</event>
<event>
 7    1  0.2794945E-009  0.1263477E+03  0.7561462E-02  0.1232978E+00
         -2   -1    0    0    0  501 -0.00000000000E+00  0.00000000000E+00  0.30340356954E+03  0.30340356954E+03  0.00000000000E+00 0.  1.
          2   -1    0    0  501    0  0.00000000000E+00 -0.00000000000E+00 -0.89238342011E+02  0.89238342011E+02  0.00000000000E+00 0. -1.
         25    2    1    2    0    0  0.33394362258E+02  0.71365977204E+02  0.15340269228E+01  0.14783929983E+03  0.12508324909E+03 0.  0.
          5    1    3    3  502    0 -0.47106977709E+02  0.37212952524E+02  0.33931923972E+01  0.60273189223E+02  0.41800000000E+01 0. -1.
         -5    1    3    3    0  502  0.80501339967E+02  0.34153024680E+02 -0.18591654745E+01  0.87566110611E+02  0.41800000000E+01 0. -1.
        -11    1    1    2    0    0  0.21784591895E+02 -0.21176620338E+02  0.15656716189E+02  0.34178216085E+02  0.00000000000E+00 0. -1.
         11    1    1    2    0    0 -0.55178954153E+02 -0.50189356866E+02  0.19697448442E+03  0.21062439563E+03  0.00000000000E+00 0.  1.
</event>
<event>
 7    1  0.2794945E-009  0.1021357E+03  0.7561462E-02  0.1275868E+00
         -1   -1    0    0    0  501 -0.00000000000E+00  0.00000000000E+00  0.12665674385E+03  0.12665674385E+03  0.00000000000E+00 0.  1.
          1   -1    0    0  501    0  0.00000000000E+00 -0.00000000000E+00 -0.16306462869E+03  0.16306462869E+03  0.00000000000E+00 0. -1.
         25    2    1    2    0    0 -0.19900307323E+02  0.78518658416E+02 -0.68545406677E+02  0.16403642433E+03  0.12509306048E+03 0.  0.
          5    1    3    3  502    0 -0.51200746334E+02  0.18174831177E+02 -0.78132907575E+02  0.95257884501E+02  0.41800000000E+01 0. -1.
         -5    1    3    3    0  502  0.31300439012E+02  0.60343827239E+02  0.95875008981E+01  0.68778539833E+02  0.41800000000E+01 0. -1.
        -11    1    1    2    0    0  0.40498768540E+01 -0.37175084864E+02 -0.30996866653E+02  0.48571536722E+02  0.00000000000E+00 0. -1.
         11    1    1    2    0    0  0.15850430469E+02 -0.41343573552E+02  0.63134388488E+02  0.77113411478E+02  0.00000000000E+00 0.  1.
</event>
<event>
 7    1  0.2794945E-009  0.2058754E+03  0.7561462E-02  0.1144874E+00
         -1   -1    0    0    0  501 -0.00000000000E+00  0.00000000000E+00  0.49515806484E+03  0.49515806484E+03  0.00000000000E+00 0.  1.
          1   -1    0    0  501    0  0.00000000000E+00 -0.00000000000E+00 -0.98379760422E+02  0.98379760422E+02  0.00000000000E+00 0. -1.
         25    2    1    2    0    0 -0.16901165222E+03 -0.42660022091E+02  0.99395306279E+02  0.23645805134E+03  0.12509263391E+03 0.  0.
          5    1    3    3  502    0  0.18142399762E+02 -0.17659348445E+02  0.10626839156E+02  0.27774113255E+02  0.41800000000E+01 0.  1.
         -5    1    3    3    0  502 -0.18715405199E+03 -0.25000673646E+02  0.88768467123E+02  0.20868393808E+03  0.41800000000E+01 0.  1.
        -11    1    1    2    0    0  0.66198980479E+02 -0.28621540723E+02  0.97551818152E+02  0.12131716628E+03  0.00000000000E+00 0.  1.
         11    1    1    2    0    0  0.10281267174E+03  0.71281562814E+02  0.19983117998E+03  0.23576260764E+03  0.00000000000E+00 0. -1.
</event>
<event>
 7    1  0.2794945E-009  0.2741061E+03  0.7561462E-02  0.1098952E+00
         -2   -1    0    0    0  501 -0.00000000000E+00  0.00000000000E+00  0.74625768475E+02  0.74625768475E+02  0.00000000000E+00 0.  1.
          2   -1    0    0  501    0  0.00000000000E+00 -0.00000000000E+00 -0.12043823386E+04  0.12043823386E+04  0.00000000000E+00 0. -1.
         25    2    1    2    0    0 -0.25619538416E+03  0.47240310281E+02 -0.79698164881E+03  0.84775879068E+03  0.12508995501E+03 0.  0.
          5    1    3    3  502    0  0.95963267598E+01  0.10264752915E+01 -0.97138656967E+02  0.97706367326E+02  0.41800000000E+01 0. -1.
         -5    1    3    3    0  502 -0.26579171092E+03  0.46213834990E+02 -0.69984299185E+03  0.75005242335E+03  0.41800000000E+01 0. -1.
        -11    1    1    2    0    0  0.12396433176E+03 -0.54581215504E+02 -0.12183186354E+03  0.18217921838E+03  0.00000000000E+00 0. -1.
         11    1    1    2    0    0  0.13223105240E+03  0.73409052230E+01 -0.21094305781E+03  0.24907009806E+03  0.00000000000E+00 0.  1.
</event>
<event>
 7    1  0.2794945E-009  0.1095803E+03  0.7561462E-02  0.1261349E+00
          2   -1    0    0  501    0  0.00000000000E+00  0.00000000000E+00  0.22789084406E+03  0.22789084406E+03  0.00000000000E+00 0. -1.
         -2   -1    0    0    0  501 -0.00000000000E+00 -0.00000000000E+00 -0.59322393790E+02  0.59322393790E+02  0.00000000000E+00 0.  1.
         25    2    1    2    0    0 -0.44822375316E+01  0.17088097365E+02  0.13676254499E+03  0.18618941998E+03  0.12510161021E+03 0.  0.
          5    1    3    3  502    0  0.59159862963E+02  0.40148764852E+01  0.49741529564E+02  0.77509359321E+02  0.41800000000E+01 0.  1.
         -5    1    3    3    0  502 -0.63642100495E+02  0.13073220880E+02  0.87021015427E+02  0.10868006066E+03  0.41800000000E+01 0.  1.
        -11    1    1    2    0    0  0.41556836729E+02  0.16377417606E+02  0.68445458436E+01  0.45188917825E+02  0.00000000000E+00 0.  1.
         11    1    1    2    0    0 -0.37074599198E+02 -0.33465514971E+02  0.24961359436E+02  0.55834900043E+02  0.00000000000E+00 0. -1.
</event>
<event>
 7    1  0.2794945E-009  0.1017165E+03  0.7561462E-02  0.1276727E+00
          2   -1    0    0  501    0  0.00000000000E+00  0.00000000000E+00  0.20302433425E+03  0.20302433425E+03  0.00000000000E+00 0. -1.
         -2   -1    0    0    0  501 -0.00000000000E+00 -0.00000000000E+00 -0.14082792624E+03  0.14082792624E+03  0.00000000000E+00 0.  1.
         25    2    1    2    0    0 -0.15084414219E+02  0.43939582942E+02  0.15595404115E+03  0.20525405685E+03  0.12509731572E+03 0.  0.
          5    1    3    3  502    0 -0.50045052408E+02  0.66375641837E+02  0.13486131667E+03  0.15847801183E+03  0.41800000000E+01 0.  1.
         -5    1    3    3    0  502  0.34960638189E+02 -0.22436058895E+02  0.21092724477E+02  0.46776045014E+02  0.41800000000E+01 0.  1.
        -11    1    1    2    0    0  0.36620810576E+02 -0.95038153098E+01 -0.90216315421E+02  0.97828369305E+02  0.00000000000E+00 0.  1.
         11    1    1    2    0    0 -0.21536396357E+02 -0.34435767632E+02 -0.35413177166E+01  0.40769834334E+02  0.00000000000E+00 0. -1.
</event>
<event>
 7    1  0.2794945E-009  0.1171724E+03  0.7561462E-02  0.1247836E+00
         -2   -1    0    0    0  501 -0.00000000000E+00  0.00000000000E+00  0.18417947108E+02  0.18417947108E+02  0.00000000000E+00 0.  1.
          2   -1    0    0  501    0  0.00000000000E+00 -0.00000000000E+00 -0.13695581992E+04  0.13695581992E+04  0.00000000000E+00 0. -1.
         25    2    1    2    0    0 -0.61174594562E+02  0.39027374672E+02 -0.11271196146E+04  0.11363588838E+04  0.12508964814E+03 0.  0.
          5    1    3    3  502    0 -0.97767304014E+02  0.42819690755E+02 -0.88544609971E+03  0.89186559500E+03  0.41800000000E+01 0.  1.
         -5    1    3    3    0  502  0.36592709451E+02 -0.37923160831E+01 -0.24167351491E+03  0.24449328877E+03  0.41800000000E+01 0.  1.
        -11    1    1    2    0    0  0.20273973220E+02 -0.44823313176E+02 -0.19505887615E+03  0.20116691716E+03  0.00000000000E+00 0.  1.
         11    1    1    2    0    0  0.40900621342E+02  0.57959385041E+01 -0.28961761312E+02  0.50450345366E+02  0.00000000000E+00 0. -1.
</event>
<event>
 7    1  0.2794945E-009  0.9290110E+02  0.7561462E-02  0.1295975E+00
          2   -1    0    0  501    0  0.00000000000E+00  0.00000000000E+00  0.16540145899E+03  0.16540145899E+03  0.00000000000E+00 0. -1.
         -2   -1    0    0    0  501 -0.00000000000E+00 -0.00000000000E+00 -0.91879640652E+02  0.91879640652E+02  0.00000000000E+00 0.  1.
         25    2    1    2    0    0 -0.25003446752E+02 -0.53951487030E+02  0.53790285686E+02  0.14858101487E+03  0.12508792046E+03 0.  0.
          5    1    3    3  502    0 -0.37003718996E+02 -0.59070878366E+01  0.82839869226E+02  0.91016950287E+02  0.41800000000E+01 0. -1.
         -5    1    3    3    0  502  0.12000272244E+02 -0.48044399194E+02 -0.29049583539E+02  0.57564064586E+02  0.41800000000E+01 0. -1.
        -11    1    1    2    0    0 -0.28085275175E+02  0.11189910311E+02 -0.13206352337E+02  0.32990976288E+02  0.00000000000E+00 0. -1.
         11    1    1    2    0    0  0.53088721927E+02  0.42761576719E+02  0.32937884985E+02  0.75709108478E+02  0.00000000000E+00 0.  1.
</event>
<event>
 7    1  0.2794945E-009  0.1350088E+03  0.7561462E-02  0.1220207E+00
          4   -1    0    0  501    0  0.00000000000E+00  0.00000000000E+00  0.94608710236E+02  0.94608710236E+02  0.00000000000E+00 0. -1.
         -4   -1    0    0    0  501 -0.00000000000E+00 -0.00000000000E+00 -0.22517483287E+03  0.22517483287E+03  0.00000000000E+00 0.  1.
         25    2    1    2    0    0  0.23514104871E+02 -0.81530098010E+02 -0.17533126356E+02  0.15217344711E+03  0.12509707222E+03 0.  0.
          5    1    3    3  502    0  0.73265541639E+02 -0.43352240427E+02  0.50643046091E+01  0.85383698227E+02  0.41800000000E+01 0.  1.
         -5    1    3    3    0  502 -0.49751436768E+02 -0.38177857583E+02 -0.22597430965E+02  0.66789748887E+02  0.41800000000E+01 0.  1.
        -11    1    1    2    0    0 -0.51346028202E+02  0.78685603911E+02 -0.98340245940E+02  0.13600971600E+03  0.00000000000E+00 0. -1.
         11    1    1    2    0    0  0.27831923331E+02  0.28444940989E+01 -0.14692750335E+02  0.31600379988E+02  0.00000000000E+00 0.  1.
</event>
<event>
 7    1  0.2794945E-009  0.1383203E+03  0.7561462E-02  0.1215607E+00
          1   -1    0    0  501    0  0.00000000000E+00  0.00000000000E+00  0.37978635252E+03  0.37978635252E+03  0.00000000000E+00 0. -1.
         -1   -1    0    0    0  501 -0.00000000000E+00 -0.00000000000E+00 -0.52387330860E+02  0.52387330860E+02  0.00000000000E+00 0.  1.
         25    2    1    2    0    0  0.86573516197E+02 -0.66460552323E+01  0.21643896967E+03  0.26463519309E+03  0.12508722586E+03 0.  0.
          5    1    3    3  502    0  0.97309617234E+02  0.38866494662E+02  0.15869833786E+03  0.19021672075E+03  0.41800000000E+01 0. -1.
         -5    1    3    3    0  502 -0.10736101038E+02 -0.45512549895E+02  0.57740631809E+02  0.74418472338E+02  0.41800000000E+01 0. -1.
        -11    1    1    2    0    0 -0.28637403092E+02  0.46424910038E+02  0.39787335542E+02  0.67515962538E+02  0.00000000000E+00 0.  1.
         11    1    1    2    0    0 -0.57936113105E+02 -0.39778854806E+02  0.71172716450E+02  0.10002252775E+03  0.00000000000E+00 0. -1.
</event>
<event>
 7    1  0.2794945E-009  0.1588898E+03  0.7561462E-02  0.1189956E+00
         -1   -1    0    0    0  501 -0.00000000000E+00  0.00000000000E+00  0.38973815295E+02  0.38973815295E+02  0.00000000000E+00 0.  1.
          1   -1    0    0  501    0  0.00000000000E+00 -0.00000000000E+00 -0.10763718159E+04  0.10763718159E+04  0.00000000000E+00 0. -1.
         25    2    1    2    0    0 -0.19849531299E+02  0.15522851205E+03 -0.74286434244E+03  0.76940546285E+03  0.12508972842E+03 0.  0.
          5    1    3    3  502    0 -0.28072929624E+02  0.99458819266E+02 -0.21566253090E+03  0.23918182569E+03  0.41800000000E+01 0. -1.
         -5    1    3    3    0  502  0.82233983246E+01  0.55769692780E+02 -0.52720181154E+03  0.53022363716E+03  0.41800000000E+01 0. -1.
        -11    1    1    2    0    0  0.23629534668E+01 -0.96916928326E+02 -0.25637508454E+03  0.27409242697E+03  0.00000000000E+00 0. -1.
         11    1    1    2    0    0  0.17486577832E+02 -0.58311583721E+02 -0.38158573624E+02  0.71847741379E+02  0.00000000000E+00 0.  1.
</event>
<event>
 7    1  0.2794945E-009  0.8851634E+02  0.7561462E-02  0.1306485E+00
          1   -1    0    0  501    0  0.00000000000E+00  0.00000000000E+00  0.31777771917E+02  0.31777771917E+02  0.00000000000E+00 0. -1.
         -1   -1    0    0    0  501 -0.00000000000E+00 -0.00000000000E+00 -0.53713027476E+03  0.53713027476E+03  0.00000000000E+00 0.  1.
         25    2    1    2    0    0 -0.50184645266E+01  0.54977376306E+02 -0.17592313946E+03  0.22281057461E+03  0.12509158352E+03 0.  0.
          5    1    3    3  502    0  0.18095656010E+02  0.10767535671E+02  0.14507049456E+02  0.25909833553E+02  0.41800000000E+01 0. -1.
         -5    1    3    3    0  502 -0.23114120536E+02  0.44209840635E+02 -0.19043018892E+03  0.19690074106E+03  0.41800000000E+01 0. -1.
        -11    1    1    2    0    0  0.36243956828E+02 -0.63517084529E+02 -0.21051898753E+03  0.22285934700E+03  0.00000000000E+00 0.  1.
         11    1    1    2    0    0 -0.31225492301E+02  0.85397082230E+01 -0.11891037585E+03  0.12323812507E+03  0.00000000000E+00 0. -1.
</event>
<event>
 7    1  0.2794945E-009  0.1469591E+03  0.7561462E-02  0.1204260E+00
         -1   -1    0    0    0  501 -0.00000000000E+00  0.00000000000E+00  0.66095455864E+02  0.66095455864E+02  0.00000000000E+00 0.  1.
          1   -1    0    0  501    0  0.00000000000E+00 -0.00000000000E+00 -0.38114183652E+03  0.38114183652E+03  0.00000000000E+00 0. -1.
         25    2    1    2    0    0  0.10294230861E+03 -0.51757159515E+02 -0.15743756688E+03  0.23175337507E+03  0.12508843642E+03 0.  0.
          5    1    3    3  502    0  0.83541723432E+02  0.80219282508E+01 -0.14494184648E+03  0.16753859898E+03  0.41800000000E+01 0.  1.
         -5    1    3    3    0  502  0.19400585180E+02 -0.59779087766E+02 -0.12495720395E+02  0.64214776085E+02  0.41800000000E+01 0.  1.
        -11    1    1    2    0    0 -0.64319507852E+02 -0.18326408219E+02 -0.74384145930E+02  0.10002928318E+03  0.00000000000E+00 0. -1.
         11    1    1    2    0    0 -0.38622800761E+02  0.70083567734E+02 -0.83224667851E+02  0.11545463414E+03  0.00000000000E+00 0.  1.
</event>
<event>
 7    1  0.2794945E-009  0.1258951E+03  0.7561462E-02  0.1233677E+00
          3   -1    0    0  501    0  0.00000000000E+00  0.00000000000E+00  0.45319005504E+03  0.45319005504E+03  0.00000000000E+00 0. -1.
         -3   -1    0    0    0  501 -0.00000000000E+00 -0.00000000000E+00 -0.49505874879E+02  0.49505874879E+02  0.00000000000E+00 0.  1.
         25    2    1    2    0    0 -0.29254945928E+02 -0.60427885113E+02  0.35330841641E+03  0.38076412337E+03  0.12508836630E+03 0.  0.
          5    1    3    3  502    0 -0.66838914797E+02  0.35979090373E+01  0.18419534068E+03  0.19602495099E+03  0.41800000000E+01 0.  1.
         -5    1    3    3    0  502  0.37583968869E+02 -0.64025794150E+02  0.16911307572E+03  0.18473917238E+03  0.41800000000E+01 0.  1.
        -11    1    1    2    0    0  0.56264207856E+02  0.61474299315E+02  0.32100685081E+02  0.89304000720E+02  0.00000000000E+00 0.  1.
         11    1    1    2    0    0 -0.27009261928E+02 -0.10464142015E+01  0.18275078674E+02  0.32627805828E+02  0.00000000000E+00 0. -1.
</event>
<event>
 7    1  0.2794945E-009  0.9194993E+02  0.7561462E-02  0.1298197E+00
          1   -1    0    0  501    0  0.00000000000E+00  0.00000000000E+00  0.82265763404E+02  0.82265763404E+02  0.00000000000E+00 0. -1.
         -1   -1    0    0    0  501 -0.00000000000E+00 -0.00000000000E+00 -0.16906848550E+03  0.16906848550E+03  0.00000000000E+00 0.  1.
         25    2    1    2    0    0 -0.13218849965E+02 -0.13283580669E+02 -0.66172249866E+01  0.12666255791E+03  0.12509366251E+03 0.  0.
          5    1    3    3  502    0  0.19297187511E+02  0.29803057974E+02  0.41115675486E+02  0.54484629769E+02  0.41800000000E+01 0.  1.
         -5    1    3    3    0  502 -0.32516037476E+02 -0.43086638643E+02 -0.47732900473E+02  0.72177928137E+02  0.41800000000E+01 0.  1.
        -11    1    1    2    0    0  0.52569853302E+02  0.29811356812E+00 -0.55464082444E+02  0.76419518379E+02  0.00000000000E+00 0.  1.
         11    1    1    2    0    0 -0.39351003337E+02  0.12985467101E+02 -0.24721414669E+02  0.48252172622E+02  0.00000000000E+00 0. -1.
</event>
<event>
 7    1  0.2794945E-009  0.1299203E+03  0.7561462E-02  0.1227574E+00
         -2   -1    0    0    0  501 -0.00000000000E+00  0.00000000000E+00  0.13462367427E+03  0.13462367427E+03  0.00000000000E+00 0.  1.
          2   -1    0    0  501    0  0.00000000000E+00 -0.00000000000E+00 -0.19631223848E+03  0.19631223848E+03  0.00000000000E+00 0. -1.
         25    2    1    2    0    0 -0.11202625192E+03  0.17017501764E+02 -0.66755741163E+02  0.18150293210E+03  0.12509000319E+03 0.  0.
          5    1    3    3  502    0 -0.52933628228E+02  0.17160967279E+01  0.34394079139E+02  0.63287748144E+02  0.41800000000E+01 0.  1.
         -5    1    3    3    0  502 -0.59092623696E+02  0.15301405036E+02 -0.10114982030E+03  0.11821518396E+03  0.41800000000E+01 0.  1.
        -11    1    1    2    0    0  0.62930770959E+02  0.36624680450E+02  0.19319415130E+02  0.75331858815E+02  0.00000000000E+00 0.  1.
         11    1    1    2    0    0  0.49095480964E+02 -0.53642182214E+02 -0.14252238171E+02  0.74101121831E+02  0.00000000000E+00 0. -1.
</event>
<event>
 7    1  0.2794945E-009  0.2402378E+03  0.7561462E-02  0.1119635E+00
          2   -1    0    0  501    0  0.00000000000E+00  0.00000000000E+00  0.50454272695E+02  0.50454272695E+02  0.00000000000E+00 0. -1.
         -2   -1    0    0    0  501 -0.00000000000E+00 -0.00000000000E+00 -0.14689788194E+04  0.14689788194E+04  0.00000000000E+00 0.  1.
         25    2    1    2    0    0  0.60144653601E+02  0.22242044929E+03 -0.47114157229E+03  0.53917502979E+03  0.12508835274E+03 0.  0.
          5    1    3    3  502    0  0.36711165626E+02  0.99055052264E+02 -0.93340565274E+02  0.14103030379E+03  0.41800000000E+01 0. -1.
         -5    1    3    3    0  502  0.23433487975E+02  0.12336539703E+03 -0.37780100701E+03  0.39814472600E+03  0.41800000000E+01 0. -1.
        -11    1    1    2    0    0  0.23546440897E+02 -0.85114667673E+02 -0.40629936214E+03  0.41578613878E+03  0.00000000000E+00 0.  1.
         11    1    1    2    0    0 -0.83691094497E+02 -0.13730578162E+03 -0.54108361229E+03  0.56447192353E+03  0.00000000000E+00 0. -1.
</event>
<event>
 7    1  0.2794945E-009  0.1427841E+03  0.7561462E-02  0.1209631E+00
         -2   -1    0    0    0  501 -0.00000000000E+00  0.00000000000E+00  0.42753588464E+02  0.42753588464E+02  0.00000000000E+00 0.  1.
          2   -1    0    0  501    0  0.00000000000E+00 -0.00000000000E+00 -0.92360118434E+03  0.92360118434E+03  0.00000000000E+00 0. -1.
         25    2    1    2    0    0 -0.11309030606E+03  0.21857263903E+02 -0.74793738094E+03  0.76702273882E+03  0.12508556575E+03 0.  0.
          5    1    3    3  502    0 -0.34775303357E+02 -0.41352492194E+02 -0.12866751873E+03  0.13961430124E+03  0.41800000000E+01 0. -1.
         -5    1    3    3    0  502 -0.78315002701E+02  0.63209756096E+02 -0.61926986221E+03  0.62740843759E+03  0.41800000000E+01 0. -1.
        -11    1    1    2    0    0  0.88185015485E+01 -0.24813248640E+02 -0.76152074391E+02  0.80576682183E+02  0.00000000000E+00 0.  1.
         11    1    1    2    0    0  0.10427180451E+03  0.29559847373E+01 -0.56758140544E+02  0.11875535179E+03  0.00000000000E+00 0. -1.
</event>
<event>
 7    1  0.2794945E-009  0.9713579E+02  0.7561462E-02  0.1286437E+00
         -2   -1    0    0    0  501 -0.00000000000E+00  0.00000000000E+00  0.43606554439E+02  0.43606554439E+02  0.00000000000E+00 0.  1.
          2   -1    0    0  501    0  0.00000000000E+00 -0.00000000000E+00 -0.38062822935E+03  0.38062822935E+03  0.00000000000E+00 0. -1.
         25    2    1    2    0    0 -0.65721447851E+02 -0.10772110059E+02 -0.21767323894E+03  0.25973892938E+03  0.12508926982E+03 0.  0.
          5    1    3    3  502    0  0.97652698415E+00  0.42153615492E+02 -0.25366805550E+02  0.49384492787E+02  0.41800000000E+01 0.  1.
         -5    1    3    3    0  502 -0.66697974835E+02 -0.52925725550E+02 -0.19230643339E+03  0.21035443660E+03  0.41800000000E+01 0.  1.
        -11    1    1    2    0    0  0.39071712225E+02  0.77313432757E+01 -0.12975106980E+03  0.13572660933E+03  0.00000000000E+00 0. -1.
         11    1    1    2    0    0  0.26649735626E+02  0.30407667828E+01  0.10402633833E+02  0.28769245076E+02  0.00000000000E+00 0.  1.
</event>
<event>
 7    1  0.2794945E-009  0.1032436E+03  0.7561462E-02  0.1273619E+00
          1   -1    0    0  501    0  0.00000000000E+00  0.00000000000E+00  0.80016419523E+03  0.80016419523E+03  0.00000000000E+00 0. -1.
         -1   -1    0    0    0  501 -0.00000000000E+00 -0.00000000000E+00 -0.26599371908E+02  0.26599371908E+02  0.00000000000E+00 0.  1.
         25    2    1    2    0    0  0.69090355219E+02 -0.19605287794E+02  0.59991658781E+03  0.61701346730E+03  0.12509141458E+03 0.  0.
          5    1    3    3  502    0  0.92020100300E+02 -0.42725375457E+02  0.33444937217E+03  0.34952397845E+03  0.41800000000E+01 0. -1.
         -5    1    3    3    0  502 -0.22929745081E+02  0.23120087663E+02  0.26546721564E+03  0.26748948885E+03  0.41800000000E+01 0. -1.
        -11    1    1    2    0    0 -0.11012411043E+02  0.68272454109E+00 -0.10806760710E+02  0.15444267118E+02  0.00000000000E+00 0.  1.
         11    1    1    2    0    0 -0.58077944176E+02  0.18922563253E+02  0.18445499622E+03  0.19430583272E+03  0.00000000000E+00 0. -1.
</event>
<event>
 7    1  0.2794945E-009  0.1705495E+03  0.7561462E-02  0.1177276E+00
         -2   -1    0    0    0  501 -0.00000000000E+00  0.00000000000E+00  0.39049144067E+02  0.39049144067E+02  0.00000000000E+00 0.  1.
          2   -1    0    0  501    0  0.00000000000E+00 -0.00000000000E+00 -0.10715023412E+04  0.10715023412E+04  0.00000000000E+00 0. -1.
         25    2    1    2    0    0 -0.53763257887E+02 -0.14202182569E+03 -0.76124922974E+03  0.78626246556E+03  0.12509031975E+03 0.  0.
          5    1    3    3  502    0 -0.34811490527E+02 -0.72202916615E+01 -0.46654833741E+02  0.58805768389E+02  0.41800000000E+01 0.  1.
         -5    1    3    3    0  502 -0.18951767360E+02 -0.13480153402E+03 -0.71459439600E+03  0.72745669717E+03  0.41800000000E+01 0.  1.
        -11    1    1    2    0    0 -0.18795694661E+02  0.22849562064E+02 -0.16507171493E+02  0.33880190894E+02  0.00000000000E+00 0.  1.
         11    1    1    2    0    0  0.72558952548E+02  0.11917226362E+03 -0.25469679588E+03  0.29040882880E+03  0.00000000000E+00 0. -1.
</event>
<event>
 7    1  0.2794945E-009  0.8665530E+02  0.7561462E-02  0.1311160E+00
          2   -1    0    0  501    0  0.00000000000E+00  0.00000000000E+00  0.10384440193E+03  0.10384440193E+03  0.00000000000E+00 0. -1.
         -2   -1    0    0    0  501 -0.00000000000E+00 -0.00000000000E+00 -0.16847757605E+03  0.16847757605E+03  0.00000000000E+00 0.  1.
         25    2    1    2    0    0 -0.17304722704E+02  0.63800970674E+02 -0.77349263469E+02  0.16123267328E+03  0.12507217551E+03 0.  0.
          5    1    3    3  502    0 -0.16565104354E+02 -0.14001902611E+02 -0.80275516844E+02  0.83259155434E+02  0.41800000000E+01 0. -1.
         -5    1    3    3    0  502 -0.73961835008E+00  0.77802873285E+02  0.29262533753E+01  0.77973517847E+02  0.41800000000E+01 0. -1.
        -11    1    1    2    0    0  0.26505745547E+02 -0.42333951642E+02 -0.32922619654E+02  0.59821542052E+02  0.00000000000E+00 0.  1.
         11    1    1    2    0    0 -0.92010228437E+01 -0.21467019032E+02  0.45638709005E+02  0.51267762650E+02  0.00000000000E+00 0. -1.
</event>
<event>
 7    1  0.2794945E-009  0.2845836E+03  0.7561462E-02  0.1093211E+00
          2   -1    0    0  501    0  0.00000000000E+00  0.00000000000E+00  0.28313252286E+03  0.28313252286E+03  0.00000000000E+00 0. -1.
         -2   -1    0    0    0  501 -0.00000000000E+00 -0.00000000000E+00 -0.29724042346E+03  0.29724042346E+03  0.00000000000E+00 0.  1.
         25    2    1    2    0    0 -0.26572089445E+03  0.35432341204E+01 -0.46814045825E+02  0.29742535406E+03  0.12510051198E+03 0.  0.
          5    1    3    3  502    0 -0.36081546554E+02 -0.44166109131E+02 -0.23012696520E+02  0.61640731653E+02  0.41800000000E+01 0.  1.
         -5    1    3    3    0  502 -0.22963934790E+03  0.47709343252E+02 -0.23801349305E+02  0.23578462241E+03  0.41800000000E+01 0.  1.
        -11    1    1    2    0    0  0.70359983202E+02 -0.36528568477E+02  0.30115847222E+02  0.84804644949E+02  0.00000000000E+00 0. -1.
         11    1    1    2    0    0  0.19536091125E+03  0.32985334356E+02  0.25902980053E+01  0.19814294731E+03  0.00000000000E+00 0.  1.
</event>
<event>
 7    1  0.2794945E-009  0.1073382E+03  0.7561462E-02  0.1265580E+00
          2   -1    0    0  501    0  0.00000000000E+00  0.00000000000E+00  0.42876343112E+03  0.42876343112E+03  0.00000000000E+00 0.  1.
         -2   -1    0    0    0  501 -0.00000000000E+00 -0.00000000000E+00 -0.52831860576E+02  0.52831860576E+02  0.00000000000E+00 0. -1.
         25    2    1    2    0    0  0.21269572331E+02  0.25705293626E+00  0.36497733932E+03  0.38640281920E+03  0.12508484993E+03 0.  0.
          5    1    3    3  502    0 -0.47883478303E+02  0.21068856417E+02  0.12012721953E+03  0.13109060026E+03  0.41800000000E+01 0.  1.
         -5    1    3    3    0  502  0.69153050634E+02 -0.20811803481E+02  0.24485011979E+03  0.25531221894E+03  0.41800000000E+01 0.  1.
        -11    1    1    2    0    0 -0.41287808601E+02 -0.32064146404E+02 -0.83557683413E+01  0.52939696715E+02  0.00000000000E+00 0.  1.
         11    1    1    2    0    0  0.20018236270E+02  0.31807093467E+02  0.19309999566E+02  0.42252775784E+02  0.00000000000E+00 0. -1.
</event>
<event>
 7    1  0.2794945E-009  0.2664038E+03  0.7561462E-02  0.1103356E+00
         -2   -1    0    0    0  501 -0.00000000000E+00  0.00000000000E+00  0.29917438278E+03  0.29917438278E+03  0.00000000000E+00 0. -1.
          2   -1    0    0  501    0  0.00000000000E+00 -0.00000000000E+00 -0.25216462241E+03  0.25216462241E+03  0.00000000000E+00 0.  1.
         25    2    1    2    0    0 -0.25812088180E+02  0.24966360417E+03  0.37201949506E+02  0.28289651048E+03  0.12509305117E+03 0.  0.
          5    1    3    3  502    0  0.45354709966E+02  0.49205480718E+02  0.17070870218E+02  0.69188987987E+02  0.41800000000E+01 0. -1.
         -5    1    3    3    0  502 -0.71166798146E+02  0.20045812345E+03  0.20131079289E+02  0.21370752249E+03  0.41800000000E+01 0. -1.
        -11    1    1    2    0    0  0.31524392174E+02 -0.15548016888E+03  0.49339827440E+02  0.16613936556E+03  0.00000000000E+00 0.  1.
         11    1    1    2    0    0 -0.57123039939E+01 -0.94183435289E+02 -0.39532016572E+02  0.10230312915E+03  0.00000000000E+00 0. -1.
</event>
<event>
 7    1  0.2794945E-009  0.1617630E+03  0.7561462E-02  0.1186721E+00
          4   -1    0    0  501    0  0.00000000000E+00  0.00000000000E+00  0.58908824626E+02  0.58908824626E+02  0.00000000000E+00 0. -1.
         -4   -1    0    0    0  501 -0.00000000000E+00 -0.00000000000E+00 -0.44889608660E+03  0.44889608660E+03  0.00000000000E+00 0.  1.
         25    2    1    2    0    0  0.52843723237E+02  0.10898569927E+03 -0.19671045513E+03  0.26270415757E+03  0.12509248385E+03 0.  0.
          5    1    3    3  502    0  0.35846379999E+02 -0.21589788404E+02 -0.40918559476E+02  0.58676083986E+02  0.41800000000E+01 0. -1.
         -5    1    3    3    0  502  0.16997343238E+02  0.13057548767E+03 -0.15579189565E+03  0.20402807358E+03  0.41800000000E+01 0. -1.
        -11    1    1    2    0    0 -0.18264022999E+01 -0.97393413521E+02 -0.11192293664E+03  0.14837640139E+03  0.00000000000E+00 0.  1.
         11    1    1    2    0    0 -0.51017320937E+02 -0.11592285748E+02 -0.81353870201E+02  0.96724352265E+02  0.00000000000E+00 0. -1.
</event>
<event>
 7    1  0.2794945E-009  0.1093681E+03  0.7561462E-02  0.1261745E+00
         -3   -1    0    0    0  501 -0.00000000000E+00  0.00000000000E+00  0.12394723448E+03  0.12394723448E+03  0.00000000000E+00 0.  1.
          3   -1    0    0  501    0  0.00000000000E+00 -0.00000000000E+00 -0.13136853625E+03  0.13136853625E+03  0.00000000000E+00 0. -1.
         25    2    1    2    0    0  0.21563186549E+02 -0.52449810925E+02  0.32073535000E+02  0.14104052939E+03  0.12509102927E+03 0.  0.
          5    1    3    3  502    0  0.50675449010E+01  0.28341650597E+02  0.48785845025E+02  0.56801938741E+02  0.41800000000E+01 0.  1.
         -5    1    3    3    0  502  0.16495641648E+02 -0.80791461523E+02 -0.16712310025E+02  0.84238590650E+02  0.41800000000E+01 0.  1.
        -11    1    1    2    0    0 -0.57423933233E+02  0.30273603606E+02 -0.20936704526E+02  0.68208099076E+02  0.00000000000E+00 0.  1.
         11    1    1    2    0    0  0.35860746684E+02  0.22176207320E+02 -0.18558132240E+02  0.46067142261E+02  0.00000000000E+00 0. -1.
</event>
<event>
 7    1  0.2794945E-009  0.2871191E+03  0.7561462E-02  0.1091863E+00
         -2   -1    0    0    0  501 -0.00000000000E+00  0.00000000000E+00  0.82573343071E+03  0.82573343071E+03  0.00000000000E+00 0.  1.
          2   -1    0    0  501    0  0.00000000000E+00 -0.00000000000E+00 -0.20247677911E+03  0.20247677911E+03  0.00000000000E+00 0. -1.
         25    2    1    2    0    0 -0.23433140836E+03  0.13017047904E+03 -0.48061788092E+02  0.29968807470E+03  0.12508974412E+03 0.  0.
          5    1    3    3  502    0 -0.22287554853E+02 -0.24447714015E+02 -0.51865794161E+01  0.33746093521E+02  0.41800000000E+01 0.  1.
         -5    1    3    3    0  502 -0.21204385351E+03  0.15461819306E+03 -0.42875208676E+02  0.26594198118E+03  0.41800000000E+01 0.  1.
        -11    1    1    2    0    0  0.34886026644E+02 -0.55320853133E+02  0.10787738517E+03  0.12615451588E+03  0.00000000000E+00 0. -1.
         11    1    1    2    0    0  0.19944538171E+03 -0.74849625910E+02  0.56344105453E+03  0.60236761924E+03  0.00000000000E+00 0.  1.
</event>
<event>
 7    1  0.4603796E-009  0.8961484E+02  0.7561462E-02  0.1303787E+00
          3   -1    0    0  501    0  0.00000000000E+00  0.00000000000E+00  0.47268635195E+03  0.47268635195E+03  0.00000000000E+00 0. -1.
         -3   -1    0    0    0  501 -0.00000000000E+00 -0.00000000000E+00 -0.37308092413E+02  0.37308092413E+02  0.00000000000E+00 0.  1.
         25    2    1    2    0    0  0.58854756664E+02  0.20972549481E+02  0.15663546177E+03  0.20996797419E+03  0.12509257407E+03 0.  0.
          5    1    3    3  502    0  0.81408798084E+02  0.11378926523E+02  0.16445687677E+03  0.18390326014E+03  0.41800000000E+01 0. -1.
         -5    1    3    3    0  502 -0.22554041420E+02  0.95936229572E+01 -0.78214149987E+01  0.26064714048E+02  0.41800000000E+01 0. -1.
        -11    1    1    2    0    0 -0.20643052485E+02  0.99383331923E+01  0.71182955277E+01  0.23991169495E+02  0.00000000000E+00 0.  1.
         11    1    1    2    0    0 -0.38211704180E+02 -0.30910882673E+02  0.27162450224E+03  0.27603530068E+03  0.00000000000E+00 0. -1.
</event>
<event>
 7    1  0.2794945E-009  0.1769556E+03  0.7561462E-02  0.1170782E+00
          2   -1    0    0  501    0  0.00000000000E+00  0.00000000000E+00  0.14057137077E+03  0.14057137077E+03  0.00000000000E+00 0. -1.
         -2   -1    0    0    0  501 -0.00000000000E+00 -0.00000000000E+00 -0.29488062831E+03  0.29488062831E+03  0.00000000000E+00 0.  1.
         25    2    1    2    0    0  0.16790844797E+02  0.14924464230E+03 -0.16915244471E+03  0.25848856967E+03  0.12509154797E+03 0.  0.
          5    1    3    3  502    0  0.62848078210E+02  0.77318510933E+02 -0.49270447586E+02  0.11123435833E+03  0.41800000000E+01 0.  1.
         -5    1    3    3    0  502 -0.46057233413E+02  0.71926131371E+02 -0.11988199713E+03  0.14725421135E+03  0.41800000000E+01 0.  1.
        -11    1    1    2    0    0  0.22599792824E+02 -0.11402823648E+02 -0.16501498717E+02  0.30217122344E+02  0.00000000000E+00 0.  1.
         11    1    1    2    0    0 -0.39390637622E+02 -0.13784181866E+03  0.31344685888E+02  0.14674630706E+03  0.00000000000E+00 0. -1.
</event>
<event>
 7    1  0.2794945E-009  0.1018802E+03  0.7561462E-02  0.1276391E+00
          1   -1    0    0  501    0  0.00000000000E+00  0.00000000000E+00  0.55548157884E+03  0.55548157884E+03  0.00000000000E+00 0. -1.
         -1   -1    0    0    0  501 -0.00000000000E+00 -0.00000000000E+00 -0.26853876673E+02  0.26853876673E+02  0.00000000000E+00 0.  1.
         25    2    1    2    0    0  0.19340204677E+02  0.16402863063E+02  0.41194104581E+03  0.43126084755E+03  0.12508955180E+03 0.  0.
          5    1    3    3  502    0 -0.47325941096E+02  0.33837459028E+02  0.20272540564E+03  0.21094971160E+03  0.41800000000E+01 0. -1.
         -5    1    3    3    0  502  0.66666145774E+02 -0.17434595965E+02  0.20921564017E+03  0.22031113594E+03  0.41800000000E+01 0. -1.
        -11    1    1    2    0    0  0.94569978912E+01  0.24564100528E+02  0.25606835976E+01  0.26445924910E+02  0.00000000000E+00 0.  1.
         11    1    1    2    0    0 -0.28797202568E+02 -0.40966963591E+02  0.11412597276E+03  0.12462868305E+03  0.00000000000E+00 0. -1.
</event>
<event>
 7    1  0.2794945E-009  0.1217268E+03  0.7561462E-02  0.1240275E+00
         -2   -1    0    0    0  501 -0.00000000000E+00  0.00000000000E+00  0.69889408957E+02  0.69889408957E+02  0.00000000000E+00 0.  1.
          2   -1    0    0  501    0  0.00000000000E+00 -0.00000000000E+00 -0.26317376329E+03  0.26317376329E+03  0.00000000000E+00 0. -1.
         25    2    1    2    0    0 -0.59064538682E+02 -0.32674444622E+02 -0.51617020048E+02  0.15122485443E+03  0.12509356809E+03 0.  0.
          5    1    3    3  502    0 -0.16141004890E+02  0.45487179128E+02 -0.36560507033E+02  0.60693974812E+02  0.41800000000E+01 0. -1.
         -5    1    3    3    0  502 -0.42923533792E+02 -0.78161623751E+02 -0.15056513015E+02  0.90530879620E+02  0.41800000000E+01 0. -1.
        -11    1    1    2    0    0  0.66957734035E+02 -0.50951471600E+01 -0.12019317478E+03  0.13767969326E+03  0.00000000000E+00 0. -1.
         11    1    1    2    0    0 -0.78931953536E+01  0.37769591782E+02 -0.21474159499E+02  0.44158624553E+02  0.00000000000E+00 0.  1.
</event>
<event>
 7    1  0.3113164E-009  0.1616118E+03  0.7561462E-02  0.1186889E+00
         -2   -1    0    0    0  501 -0.00000000000E+00  0.00000000000E+00  0.28941546060E+03  0.28941546060E+03  0.00000000000E+00 0.  1.
          2   -1    0    0  501    0  0.00000000000E+00 -0.00000000000E+00 -0.10883260597E+03  0.10883260597E+03  0.00000000000E+00 0. -1.
         25    2    1    2    0    0  0.12137141016E+03 -0.57146407901E+02  0.14070229513E+03  0.23117492424E+03  0.12509188063E+03 0.  0.
          5    1    3    3  502    0  0.10955942055E+03 -0.55383025197E+01  0.14019912821E+03  0.17806517733E+03  0.41800000000E+01 0. -1.
         -5    1    3    3    0  502  0.11811989612E+02 -0.51608105382E+02  0.50316691820E+00  0.53109746908E+02  0.41800000000E+01 0. -1.
        -11    1    1    2    0    0 -0.44279588717E+02  0.69354836891E+02  0.33218130246E+02  0.88736799323E+02  0.00000000000E+00 0.  1.
         11    1    1    2    0    0 -0.77091821445E+02 -0.12208428989E+02  0.66624292472E+01  0.78336343006E+02  0.00000000000E+00 0. -1.
</event>
<event>
 7    1  0.2794945E-009  0.1298098E+03  0.7561462E-02  0.1227738E+00
         -2   -1    0    0    0  501 -0.00000000000E+00  0.00000000000E+00  0.23336012846E+02  0.23336012846E+02  0.00000000000E+00 0.  1.
          2   -1    0    0  501    0  0.00000000000E+00 -0.00000000000E+00 -0.98975523621E+03  0.98975523621E+03  0.00000000000E+00 0. -1.
         25    2    1    2    0    0 -0.96727329096E+02 -0.13968535642E+02 -0.66155657207E+03  0.68033533956E+03  0.12509108687E+03 0.  0.
          5    1    3    3  502    0 -0.10138431498E+03  0.35556595497E+02 -0.40928198278E+03  0.42316930965E+03  0.41800000000E+01 0.  1.
         -5    1    3    3    0  502  0.46569858817E+01 -0.49525131139E+02 -0.25227458930E+03  0.25716602990E+03  0.41800000000E+01 0.  1.
        -11    1    1    2    0    0  0.61371124586E+01  0.97144971753E+01  0.29483854586E+01  0.11862907802E+02  0.00000000000E+00 0.  1.
         11    1    1    2    0    0  0.90590216638E+02  0.42540384665E+01 -0.30781103675E+03  0.32089300170E+03  0.00000000000E+00 0. -1.
</event>
<event>
 7    1  0.2794945E-009  0.3080064E+03  0.7561462E-02  0.1081305E+00
          2   -1    0    0  501    0  0.00000000000E+00  0.00000000000E+00  0.10416251831E+04  0.10416251831E+04  0.00000000000E+00 0. -1.
         -2   -1    0    0    0  501 -0.00000000000E+00 -0.00000000000E+00 -0.99564736525E+02  0.99564736525E+02  0.00000000000E+00 0.  1.
         25    2    1    2    0    0  0.24989209369E+03 -0.16849355741E+03  0.53394517222E+03  0.62576536152E+03  0.12509477754E+03 0.  0.
          5    1    3    3  502    0  0.13871133551E+03 -0.54100757331E+02  0.36061552930E+03  0.39016504061E+03  0.41800000000E+01 0. -1.
         -5    1    3    3    0  502  0.11118075818E+03 -0.11439280008E+03  0.17332964292E+03  0.23560032091E+03  0.41800000000E+01 0. -1.
        -11    1    1    2    0    0 -0.10748542703E+03  0.10922488502E+03  0.25866557209E+03  0.30065107802E+03  0.00000000000E+00 0.  1.
         11    1    1    2    0    0 -0.14240666666E+03  0.59268672387E+02  0.14944970224E+03  0.21477348006E+03  0.00000000000E+00 0. -1.
</event>
<event>
 7    1  0.2794945E-009  0.7982246E+02  0.7561462E-02  0.1329556E+00
          1   -1    0    0  501    0  0.00000000000E+00  0.00000000000E+00  0.29634851408E+03  0.29634851408E+03  0.00000000000E+00 0. -1.
         -1   -1    0    0    0  501 -0.00000000000E+00 -0.00000000000E+00 -0.40376754441E+02  0.40376754441E+02  0.00000000000E+00 0.  1.
         25    2    1    2    0    0 -0.51846380502E+01 -0.18143577329E+02  0.11764762714E+03  0.17275342814E+03  0.12508682142E+03 0.  0.
          5    1    3    3  502    0 -0.52872248670E+02  0.18929914267E+01  0.11070358780E+02  0.54213313304E+02  0.41800000000E+01 0.  1.
         -5    1    3    3    0  502  0.47687610619E+02 -0.20036568755E+02  0.10657726836E+03  0.11854011484E+03  0.41800000000E+01 0.  1.
        -11    1    1    2    0    0 -0.23122094439E+02  0.60717508927E+01  0.12987888721E+03  0.13206067830E+03  0.00000000000E+00 0. -1.
         11    1    1    2    0    0  0.28306732489E+02  0.12071826436E+02  0.84452452969E+01  0.31911162089E+02  0.00000000000E+00 0.  1.
</event>
<event>
 7    1  0.2794945E-009  0.1372142E+03  0.7561462E-02  0.1217127E+00
          1   -1    0    0  501    0  0.00000000000E+00  0.00000000000E+00  0.24006543819E+04  0.24006543819E+04  0.00000000000E+00 0. -1.
         -1   -1    0    0    0  501 -0.00000000000E+00 -0.00000000000E+00 -0.96536265872E+01  0.96536265872E+01  0.00000000000E+00 0.  1.
         25    2    1    2    0    0  0.65010084032E+02  0.53832993762E+02  0.18010948931E+04  0.18074056616E+04  0.12509240441E+03 0.  0.
          5    1    3    3  502    0  0.70736315081E+02  0.89185982858E+02  0.12759938309E+04  0.12810681070E+04  0.41800000000E+01 0. -1.
         -5    1    3    3    0  502 -0.57262310484E+01 -0.35352989096E+02  0.52510106216E+03  0.52633755466E+03  0.41800000000E+01 0. -1.
        -11    1    1    2    0    0 -0.84619272059E+02 -0.60197075415E+02  0.49812049683E+03  0.50883016661E+03  0.00000000000E+00 0.  1.
         11    1    1    2    0    0  0.19609188026E+02  0.63640816531E+01  0.91785365424E+02  0.94072180246E+02  0.00000000000E+00 0. -1.
</event>
<event>
 7    1  0.2794945E-009  0.1360344E+03  0.7561462E-02  0.1218767E+00
          1   -1    0    0  501    0  0.00000000000E+00  0.00000000000E+00  0.10820861796E+04  0.10820861796E+04  0.00000000000E+00 0. -1.
         -1   -1    0    0    0  501 -0.00000000000E+00 -0.00000000000E+00 -0.20284279437E+02  0.20284279437E+02  0.00000000000E+00 0.  1.
         25    2    1    2    0    0  0.90128156638E+02  0.45230578803E+02  0.53219506351E+03  0.55592060914E+03  0.12508896101E+03 0.  0.
          5    1    3    3  502    0  0.26466338222E+02 -0.29156919517E+02  0.49561765512E+02  0.63438426960E+02  0.41800000000E+01 0. -1.
         -5    1    3    3    0  502  0.63661818417E+02  0.74387498320E+02  0.48263329800E+03  0.49248218218E+03  0.41800000000E+01 0. -1.
        -11    1    1    2    0    0 -0.54196623074E+01 -0.49365103815E+02  0.18311679962E+03  0.18973151693E+03  0.00000000000E+00 0.  1.
         11    1    1    2    0    0 -0.84708494331E+02  0.41345250117E+01  0.34649003703E+03  0.35671833296E+03  0.00000000000E+00 0. -1.
</event>
<event>
 7    1  0.2794945E-009  0.1006708E+03  0.7561462E-02  0.1278892E+00
         -1   -1    0    0    0  501 -0.00000000000E+00  0.00000000000E+00  0.66837727842E+02  0.66837727842E+02  0.00000000000E+00 0.  1.
          1   -1    0    0  501    0  0.00000000000E+00 -0.00000000000E+00 -0.18717908828E+03  0.18717908828E+03  0.00000000000E+00 0. -1.
         25    2    1    2    0    0  0.28067397406E+02  0.33547422157E+01 -0.59349072728E+02  0.14131199466E+03  0.12509090417E+03 0.  0.
          5    1    3    3  502    0  0.59362929787E+02 -0.31182948293E+02 -0.65842107185E+02  0.94069065987E+02  0.41800000000E+01 0.  1.
         -5    1    3    3    0  502 -0.31295532381E+02  0.34537690508E+02  0.64930344562E+01  0.47242928668E+02  0.41800000000E+01 0.  1.
        -11    1    1    2    0    0  0.37836965583E+01 -0.39216192086E+02 -0.49714110816E+02  0.63432790382E+02  0.00000000000E+00 0. -1.
         11    1    1    2    0    0 -0.31851093964E+02  0.35861449870E+02 -0.11278176898E+02  0.49272031089E+02  0.00000000000E+00 0.  1.
</event>
<event>
 7    1  0.2794945E-009  0.1318860E+03  0.7561462E-02  0.1224684E+00
          4   -1    0    0  501    0  0.00000000000E+00  0.00000000000E+00  0.19509887413E+02  0.19509887413E+02  0.00000000000E+00 0. -1.
         -4   -1    0    0    0  501 -0.00000000000E+00 -0.00000000000E+00 -0.14117916320E+04  0.14117916320E+04  0.00000000000E+00 0.  1.
         25    2    1    2    0    0  0.44901020809E+02 -0.10507009769E+03 -0.95993236173E+03  0.97476826664E+03  0.12508879822E+03 0.  0.
          5    1    3    3  502    0  0.58973681705E+02 -0.95342775664E+02 -0.94512467052E+03  0.95175955747E+03  0.41800000000E+01 0. -1.
         -5    1    3    3    0  502 -0.14072660896E+02 -0.97273220292E+01 -0.14807691210E+02  0.23008709167E+02  0.41800000000E+01 0. -1.
        -11    1    1    2    0    0 -0.41381592231E+02  0.15273655831E+02 -0.66435406834E+02  0.79745746089E+02  0.00000000000E+00 0.  1.
         11    1    1    2    0    0 -0.35194285778E+01  0.89796441862E+02 -0.36591397598E+03  0.37678750665E+03  0.00000000000E+00 0. -1.
</event>
<event>
 7    1  0.2794945E-009  0.5254729E+02  0.7561462E-02  0.1432067E+00
          2   -1    0    0  501    0  0.00000000000E+00  0.00000000000E+00  0.33921150361E+03  0.33921150361E+03  0.00000000000E+00 0. -1.
         -2   -1    0    0    0  501 -0.00000000000E+00 -0.00000000000E+00 -0.37136104924E+02  0.37136104924E+02  0.00000000000E+00 0.  1.
         25    2    1    2    0    0 -0.65063978517E+00  0.10264574348E+02  0.14616312843E+03  0.19265494366E+03  0.12508590003E+03 0.  0.
          5    1    3    3  502    0 -0.15753155055E+01  0.44834871059E+01 -0.22737140738E+02  0.23601551740E+02  0.41800000000E+01 0. -1.
         -5    1    3    3    0  502  0.92467572037E+00  0.57810872419E+01  0.16890026917E+03  0.16905339192E+03  0.41800000000E+01 0. -1.
        -11    1    1    2    0    0 -0.43381104960E+02 -0.17816700394E+02  0.49020686333E+02  0.67840863564E+02  0.00000000000E+00 0.  1.
         11    1    1    2    0    0  0.44031744745E+02  0.75521260458E+01  0.10689158392E+03  0.11585180131E+03  0.00000000000E+00 0. -1.
</event>
<event>
 6    1  0.2794945E-009  0.9791995E+02  0.7561462E-02  0.1284732E+00
         -2   -1    0    0    0  501 -0.00000000000E+00  0.00000000000E+00  0.54377155131E+02  0.54377155131E+02  0.00000000000E+00 0.  1.
          2   -1    0    0  501    0  0.00000000000E+00 -0.00000000000E+00 -0.24113680064E+03  0.24113680064E+03  0.00000000000E+00 0. -1.
          5    1    1    2  502    0  0.41871717520E+02  0.34776459710E+02 -0.34743212249E+02  0.64708624429E+02  0.41800000000E+01 0.  1.
         -5    1    1    2    0  502 -0.51020992104E+02 -0.48895542469E+02 -0.27561627542E+02  0.75967304950E+02  0.41800000000E+01 0.  1.
        -11    1    1    2    0    0  0.37864741541E+02 -0.12563654327E+01 -0.15182950734E+02  0.40814692196E+02  0.00000000000E+00 0.  1.
         11    1    1    2    0    0 -0.28715466958E+02  0.15375448191E+02 -0.10927185499E+03  0.11402333420E+03  0.00000000000E+00 0. -1.
</event>
<event>
 7    1  0.2794945E-009  0.1296612E+03  0.7561462E-02  0.1227959E+00
         -2   -1    0    0    0  501 -0.00000000000E+00  0.00000000000E+00  0.18267884840E+02  0.18267884840E+02  0.00000000000E+00 0.  1.
          2   -1    0    0  501    0  0.00000000000E+00 -0.00000000000E+00 -0.11773563014E+04  0.11773563014E+04  0.00000000000E+00 0. -1.
         25    2    1    2    0    0  0.63713272670E+02 -0.73195675805E+02 -0.61730639801E+03  0.63728551750E+03  0.12509457908E+03 0.  0.
          5    1    3    3  502    0 -0.17088750553E+02 -0.41349193642E+02 -0.70461365643E+02  0.83570674633E+02  0.41800000000E+01 0. -1.
         -5    1    3    3    0  502  0.80802023223E+02 -0.31846482163E+02 -0.54684503237E+03  0.55371484287E+03  0.41800000000E+01 0. -1.
        -11    1    1    2    0    0 -0.11004310403E+02  0.73905780659E+02 -0.40329233163E+03  0.41015590209E+03  0.00000000000E+00 0. -1.
         11    1    1    2    0    0 -0.52708962267E+02 -0.71010485357E+00 -0.13848968694E+03  0.14818276668E+03  0.00000000000E+00 0.  1.
</event>
<event>
 7    1  0.2794945E-009  0.1955016E+03  0.7561462E-02  0.1153591E+00
          2   -1    0    0  501    0  0.00000000000E+00  0.00000000000E+00  0.24314280776E+02  0.24314280776E+02  0.00000000000E+00 0. -1.
         -2   -1    0    0    0  501 -0.00000000000E+00 -0.00000000000E+00 -0.17657556150E+04  0.17657556150E+04  0.00000000000E+00 0.  1.
         25    2    1    2    0    0 -0.43139719110E+02  0.16552579911E+03 -0.11260683387E+04  0.11458347019E+04  0.12508970795E+03 0.  0.
          5    1    3    3  502    0 -0.39111892108E+02  0.18214135328E+03 -0.90032105848E+03  0.91940235666E+03  0.41800000000E+01 0.  1.
         -5    1    3    3    0  502 -0.40278270022E+01 -0.16615554162E+02 -0.22574728023E+03  0.22643234522E+03  0.41800000000E+01 0.  1.
        -11    1    1    2    0    0  0.61135154761E+02 -0.85932853272E+02 -0.40733135594E+03  0.42076216079E+03  0.00000000000E+00 0. -1.
         11    1    1    2    0    0 -0.17995435651E+02 -0.79592945843E+02 -0.20804163957E+03  0.22347303311E+03  0.00000000000E+00 0.  1.
</event>
<event>
 7    1  0.2794945E-009  0.1436619E+03  0.7561462E-02  0.1208485E+00
          1   -1    0    0  501    0  0.00000000000E+00  0.00000000000E+00  0.29535845887E+03  0.29535845887E+03  0.00000000000E+00 0. -1.
         -1   -1    0    0    0  501 -0.00000000000E+00 -0.00000000000E+00 -0.90466683857E+02  0.90466683857E+02  0.00000000000E+00 0.  1.
         25    2    1    2    0    0 -0.69236499951E+02  0.80152211181E+02  0.12561502660E+03  0.20650874334E+03  0.12509458936E+03 0.  0.
          5    1    3    3  502    0 -0.83061617045E+02  0.95545109472E+02  0.65104897512E+02  0.14242268166E+03  0.41800000000E+01 0.  1.
         -5    1    3    3    0  502  0.13825117094E+02 -0.15392898291E+02  0.60510129084E+02  0.64086061685E+02  0.41800000000E+01 0.  1.
        -11    1    1    2    0    0  0.16614194829E+02  0.20246845428E+02 -0.16468023688E+02  0.30938035229E+02  0.00000000000E+00 0.  1.
         11    1    1    2    0    0  0.52622305122E+02 -0.10039905661E+03  0.95744772105E+02  0.14837836416E+03  0.00000000000E+00 0. -1.
</event>
<event>
 7    1  0.2794945E-009  0.7132601E+02  0.7561462E-02  0.1355641E+00
          2   -1    0    0  501    0  0.00000000000E+00  0.00000000000E+00  0.33495684353E+03  0.33495684353E+03  0.00000000000E+00 0.  1.
         -2   -1    0    0    0  501 -0.00000000000E+00 -0.00000000000E+00 -0.41813158657E+02  0.41813158657E+02  0.00000000000E+00 0. -1.
         25    2    1    2    0    0 -0.74246729090E+01  0.11427229140E+01  0.25212100400E+03  0.28154507320E+03  0.12508475528E+03 0.  0.
          5    1    3    3  502    0  0.68717231732E+01 -0.26504423279E+02  0.22486394931E+00  0.27698880781E+02  0.41800000000E+01 0.  1.
         -5    1    3    3    0  502 -0.14296396082E+02  0.27647146193E+02  0.25189614005E+03  0.25384619242E+03  0.41800000000E+01 0.  1.
        -11    1    1    2    0    0  0.45018281157E+02  0.55702376442E+01  0.33278134596E+02  0.56259287482E+02  0.00000000000E+00 0. -1.
         11    1    1    2    0    0 -0.37593608248E+02 -0.67129605582E+01  0.77445462749E+01  0.38965641501E+02  0.00000000000E+00 0.  1.
</event>
<event>
 7    1  0.2794945E-009  0.1137361E+03  0.7561462E-02  0.1253804E+00
          2   -1    0    0  501    0  0.00000000000E+00  0.00000000000E+00  0.29828494620E+03  0.29828494620E+03  0.00000000000E+00 0. -1.
         -2   -1    0    0    0  501 -0.00000000000E+00 -0.00000000000E+00 -0.58733586193E+02  0.58733586193E+02  0.00000000000E+00 0.  1.
         25    2    1    2    0    0  0.52112162573E+02  0.20115848290E+02  0.64201679725E+02  0.15134072532E+03  0.12514725175E+03 0.  0.
          5    1    3    3  502    0  0.76365255824E+02 -0.23556915778E+02  0.15625752929E+02  0.81536599957E+02  0.41800000000E+01 0.  1.
         -5    1    3    3    0  502 -0.24253093251E+02  0.43672764068E+02  0.48575926796E+02  0.69804125363E+02  0.41800000000E+01 0.  1.
        -11    1    1    2    0    0 -0.71027828808E+02 -0.28620721644E+02  0.16623212702E+03  0.18302245279E+03  0.00000000000E+00 0.  1.
         11    1    1    2    0    0  0.18915666236E+02  0.85048733543E+01  0.91175532571E+01  0.22655354275E+02  0.00000000000E+00 0. -1.
</event>
<event>
 7    1  0.2794945E-009  0.1301943E+03  0.7561462E-02  0.1227168E+00
          1   -1    0    0  501    0  0.00000000000E+00  0.00000000000E+00  0.12619045357E+04  0.12619045357E+04  0.00000000000E+00 0. -1.
         -1   -1    0    0    0  501 -0.00000000000E+00 -0.00000000000E+00 -0.20628807140E+02  0.20628807140E+02  0.00000000000E+00 0.  1.
         25    2    1    2    0    0  0.10964417062E+02 -0.87562995999E+02  0.97777693145E+03  0.98968616564E+03  0.12507390643E+03 0.  0.
          5    1    3    3  502    0  0.54173936380E+02 -0.79355473793E+02  0.45542164921E+03  0.46546585006E+03  0.41800000000E+01 0.  1.
         -5    1    3    3    0  502 -0.43209519318E+02 -0.82075222064E+01  0.52235528224E+03  0.52422031557E+03  0.41800000000E+01 0.  1.
        -11    1    1    2    0    0  0.24267064896E+02 -0.14413945950E+01  0.20946439366E+02  0.32089272026E+02  0.00000000000E+00 0.  1.
         11    1    1    2    0    0 -0.35231481958E+02  0.89004390594E+02  0.24255235779E+03  0.26075790522E+03  0.00000000000E+00 0. -1.
</event>
<event>
 7    1  0.2794945E-009  0.1114204E+03  0.7561462E-02  0.1257962E+00
         -4   -1    0    0    0  501 -0.00000000000E+00  0.00000000000E+00  0.31755288691E+02  0.31755288691E+02  0.00000000000E+00 0.  1.
          4   -1    0    0  501    0  0.00000000000E+00 -0.00000000000E+00 -0.67973775921E+03  0.67973775921E+03  0.00000000000E+00 0. -1.
         25    2    1    2    0    0 -0.37920344542E+02  0.91521553769E+02 -0.40448432200E+03  0.43482567162E+03  0.12510655705E+03 0.  0.
          5    1    3    3  502    0 -0.18128091785E+02  0.79499288265E+02 -0.98506847331E+02  0.12794465959E+03  0.41800000000E+01 0.  1.
         -5    1    3    3    0  502 -0.19792252756E+02  0.12022265505E+02 -0.30597747467E+03  0.30688101203E+03  0.41800000000E+01 0.  1.
        -11    1    1    2    0    0 -0.45121118840E+01 -0.69887333260E+02 -0.20094001703E+03  0.21279447584E+03  0.00000000000E+00 0. -1.
         11    1    1    2    0    0  0.42432456425E+02 -0.21634220509E+02 -0.42558131486E+02  0.63872900442E+02  0.00000000000E+00 0.  1.
</event>
<event>
 6    1  0.2794945E-009  0.1200168E+03  0.7561462E-02  0.1243069E+00
          1   -1    0    0  501    0  0.00000000000E+00  0.00000000000E+00  0.18762028875E+02  0.18762028875E+02  0.00000000000E+00 0. -1.
         -1   -1    0    0    0  501 -0.00000000000E+00 -0.00000000000E+00 -0.81213981774E+03  0.81213981774E+03  0.00000000000E+00 0.  1.
          5    1    1    2  502    0 -0.76258043019E+01 -0.94911472683E+02 -0.23442426247E+03  0.25305838807E+03  0.41800000000E+01 0. -1.
         -5    1    1    2    0  502  0.17042821335E+02  0.33589322757E+02 -0.18933897462E+03  0.19309432947E+03  0.41800000000E+01 0. -1.
        -11    1    1    2    0    0  0.47153991731E+01 -0.21906253089E+02 -0.74360124747E+02  0.77663035391E+02  0.00000000000E+00 0.  1.
         11    1    1    2    0    0 -0.14132416206E+02  0.83228403014E+02 -0.29525442703E+03  0.30708609369E+03  0.00000000000E+00 0. -1.
</event>
<event>
 7    1  0.2794945E-009  0.3411105E+02  0.7561462E-02  0.1556639E+00
          2   -1    0    0  501    0  0.00000000000E+00  0.00000000000E+00  0.92255230124E+03  0.92255230124E+03  0.00000000000E+00 0. -1.
         -2   -1    0    0    0  501 -0.00000000000E+00 -0.00000000000E+00 -0.21669430012E+02  0.21669430012E+02  0.00000000000E+00 0.  1.
         25    2    1    2    0    0 -0.14531154799E+02  0.10513381493E+02  0.78963167686E+03  0.79967968355E+03  0.12509086913E+03 0.  0.
          5    1    3    3  502    0  0.53440553901E+01 -0.81944031832E+00 -0.24475895162E+01  0.72590291973E+01  0.41800000000E+01 0. -1.
         -5    1    3    3    0  502 -0.19875210189E+02  0.11332821812E+02  0.79207926637E+03  0.79242065436E+03  0.41800000000E+01 0. -1.
        -11    1    1    2    0    0  0.11047952456E+02 -0.22812761855E+02  0.12395497539E+03  0.12652001929E+03  0.00000000000E+00 0. -1.
         11    1    1    2    0    0  0.34832023432E+01  0.12299380361E+02 -0.12703781020E+02  0.18022028411E+02  0.00000000000E+00 0.  1.
</event>
<event>
 7    1  0.2794945E-009  0.8240758E+02  0.7561462E-02  0.1322355E+00
         -1   -1    0    0    0  501 -0.00000000000E+00  0.00000000000E+00  0.27579724095E+03  0.27579724095E+03  0.00000000000E+00 0.  1.
          1   -1    0    0  501    0  0.00000000000E+00 -0.00000000000E+00 -0.70544778231E+02  0.70544778231E+02  0.00000000000E+00 0. -1.
         25    2    1    2    0    0 -0.31554999044E+02  0.31204643181E+02  0.20516593689E+03  0.24435519136E+03  0.12508776984E+03 0.  0.
          5    1    3    3  502    0 -0.25203053685E+02 -0.15891160395E+02 -0.35147195568E+01  0.30291063819E+02  0.41800000000E+01 0.  1.
         -5    1    3    3    0  502 -0.63519453593E+01  0.47095803576E+02  0.20868065644E+03  0.21406412754E+03  0.41800000000E+01 0.  1.
        -11    1    1    2    0    0 -0.17344259956E+02  0.12547860992E+02 -0.23935599561E+02  0.32112070865E+02  0.00000000000E+00 0. -1.
         11    1    1    2    0    0  0.48899259000E+02 -0.43752504173E+02  0.24022125399E+02  0.69874756964E+02  0.00000000000E+00 0.  1.
</event>
<event>
 7    1  0.2794945E-009  0.1329970E+03  0.7561462E-02  0.1223075E+00
          2   -1    0    0  501    0  0.00000000000E+00  0.00000000000E+00  0.79850122613E+03  0.79850122613E+03  0.00000000000E+00 0. -1.
         -2   -1    0    0    0  501 -0.00000000000E+00 -0.00000000000E+00 -0.23790548083E+02  0.23790548083E+02  0.00000000000E+00 0.  1.
         25    2    1    2    0    0 -0.70453188491E+02 -0.45580219525E+02  0.46663045983E+03  0.49033915005E+03  0.12508911962E+03 0.  0.
          5    1    3    3  502    0  0.11936461299E+02  0.29652514984E+02  0.17744013988E+03  0.18034474319E+03  0.41800000000E+01 0.  1.
         -5    1    3    3    0  502 -0.82389649790E+02 -0.75232734509E+02  0.28919031995E+03  0.30999440686E+03  0.41800000000E+01 0.  1.
        -11    1    1    2    0    0  0.48680953344E+02 -0.20284566045E+02  0.10801485043E+03  0.12020194155E+03  0.00000000000E+00 0.  1.
         11    1    1    2    0    0  0.21772235147E+02  0.65864785570E+02  0.20006536778E+03  0.21175068261E+03  0.00000000000E+00 0. -1.
</event>
<event>
 7    1  0.2794945E-009  0.1134245E+03  0.7561462E-02  0.1254357E+00
         -2   -1    0    0    0  501 -0.00000000000E+00  0.00000000000E+00  0.36338963663E+02  0.36338963663E+02  0.00000000000E+00 0.  1.
          2   -1    0    0  501    0  0.00000000000E+00 -0.00000000000E+00 -0.44069839249E+03  0.44069839249E+03  0.00000000000E+00 0. -1.
         25    2    1    2    0    0  0.94987903659E+01  0.41116584122E+02 -0.12997263985E+03  0.18526006507E+03  0.12509038368E+03 0.  0.
          5    1    3    3  502    0 -0.28019336396E+02  0.74526809593E+02 -0.64043189762E+02  0.10226598220E+03  0.41800000000E+01 0. -1.
         -5    1    3    3    0  502  0.37518126761E+02 -0.33410225471E+02 -0.65929450092E+02  0.82994082868E+02  0.41800000000E+01 0. -1.
        -11    1    1    2    0    0  0.37685446537E+02 -0.66303946201E+01 -0.78022900782E+02  0.86900679284E+02  0.00000000000E+00 0.  1.
         11    1    1    2    0    0 -0.47184236903E+02 -0.34486189502E+02 -0.19636388819E+03  0.20487661181E+03  0.00000000000E+00 0. -1.
</event>
<event>
 7    1  0.2794945E-009  0.7833899E+02  0.7561462E-02  0.1333832E+00
         -2   -1    0    0    0  501 -0.00000000000E+00  0.00000000000E+00  0.26730659403E+02  0.26730659403E+02  0.00000000000E+00 0.  1.
          2   -1    0    0  501    0  0.00000000000E+00 -0.00000000000E+00 -0.58272850180E+03  0.58272850180E+03  0.00000000000E+00 0. -1.
         25    2    1    2    0    0 -0.15904392947E+02 -0.18943542363E+02 -0.17658393039E+03  0.21781137713E+03  0.12509238196E+03 0.  0.
          5    1    3    3  502    0 -0.23420808661E+02  0.12746523516E+02 -0.18246676713E+03  0.18445216628E+03  0.41800000000E+01 0.  1.
         -5    1    3    3    0  502  0.75164157140E+01 -0.31690065879E+02  0.58828367356E+01  0.33359210852E+02  0.41800000000E+01 0.  1.
        -11    1    1    2    0    0  0.19181362080E+02 -0.36541266677E+02 -0.14732463635E+03  0.15299587347E+03  0.00000000000E+00 0.  1.
         11    1    1    2    0    0 -0.32769691338E+01  0.55484809040E+02 -0.23208927566E+03  0.23865191061E+03  0.00000000000E+00 0. -1.
</event>
<event>
 7    1  0.2794945E-009  0.1088134E+03  0.7561462E-02  0.1262783E+00
          1   -1    0    0  501    0  0.00000000000E+00  0.00000000000E+00  0.58968289227E+02  0.58968289227E+02  0.00000000000E+00 0. -1.
         -1   -1    0    0    0  501 -0.00000000000E+00 -0.00000000000E+00 -0.23487916730E+03  0.23487916730E+03  0.00000000000E+00 0.  1.
         25    2    1    2    0    0 -0.17116174375E+02  0.16971458397E+02 -0.52008331413E+02  0.13759933534E+03  0.12509083389E+03 0.  0.
          5    1    3    3  502    0 -0.38083190286E+02 -0.43901265520E+02 -0.64631601769E+01  0.58625040180E+02  0.41800000000E+01 0. -1.
         -5    1    3    3    0  502  0.20967015911E+02  0.60872723916E+02 -0.45545171236E+02  0.78974295161E+02  0.41800000000E+01 0. -1.
        -11    1    1    2    0    0  0.48291403855E+01 -0.54828062463E+02 -0.78454692029E+02  0.95836192181E+02  0.00000000000E+00 0.  1.
         11    1    1    2    0    0  0.12287033990E+02  0.37856604066E+02 -0.45447854636E+02  0.60411929010E+02  0.00000000000E+00 0. -1.
</event>
<event>
 7    1  0.2794945E-009  0.1462948E+03  0.7561462E-02  0.1205101E+00
         -1   -1    0    0    0  501 -0.00000000000E+00  0.00000000000E+00  0.29862943830E+03  0.29862943830E+03  0.00000000000E+00 0.  1.
          1   -1    0    0  501    0  0.00000000000E+00 -0.00000000000E+00 -0.90062318814E+02  0.90062318814E+02  0.00000000000E+00 0. -1.
         25    2    1    2    0    0  0.11205878185E+03  0.48870197771E+02  0.97017350957E+02  0.20001403985E+03  0.12509109852E+03 0.  0.
          5    1    3    3  502    0  0.79340699940E+02  0.77341683309E+02  0.10831126055E+03  0.15500156195E+03  0.41800000000E+01 0. -1.
         -5    1    3    3    0  502  0.32718081914E+02 -0.28471485538E+02 -0.11293909596E+02  0.45012477902E+02  0.41800000000E+01 0. -1.
        -11    1    1    2    0    0 -0.57424942499E+02  0.94808170367E+01  0.93796351669E+01  0.58953265122E+02  0.00000000000E+00 0. -1.
         11    1    1    2    0    0 -0.54633839356E+02 -0.58351014808E+02  0.10217013336E+03  0.12972445214E+03  0.00000000000E+00 0.  1.
</event>
<event>
 7    1  0.2794945E-009  0.9467003E+02  0.7561462E-02  0.1291921E+00
         -2   -1    0    0    0  501 -0.00000000000E+00  0.00000000000E+00  0.11786678981E+02  0.11786678981E+02  0.00000000000E+00 0. -1.
          2   -1    0    0  501    0  0.00000000000E+00 -0.00000000000E+00 -0.19186363657E+04  0.19186363657E+04  0.00000000000E+00 0.  1.
         25    2    1    2    0    0 -0.32204895860E+02  0.34726906656E+02 -0.16138974181E+04  0.16194286529E+04  0.12506467270E+03 0.  0.
          5    1    3    3  502    0  0.23350925989E+02  0.16917404899E+02 -0.12876494521E+04  0.12879790558E+04  0.41800000000E+01 0.  1.
         -5    1    3    3    0  502 -0.55555821849E+02  0.17809501757E+02 -0.32624796599E+03  0.33144959708E+03  0.41800000000E+01 0.  1.
        -11    1    1    2    0    0  0.32805248628E+02 -0.64273120043E+02 -0.23665176786E+03  0.24740912984E+03  0.00000000000E+00 0.  1.
         11    1    1    2    0    0 -0.60035276773E+00  0.29546213388E+02 -0.56300500778E+02  0.63585261946E+02  0.00000000000E+00 0. -1.
</event>
<event>
 7    1  0.2794945E-009  0.1179325E+03  0.7561462E-02  0.1246547E+00
         -1   -1    0    0    0  501 -0.00000000000E+00  0.00000000000E+00  0.27542732045E+02  0.27542732045E+02  0.00000000000E+00 0.  1.
          1   -1    0    0  501    0  0.00000000000E+00 -0.00000000000E+00 -0.51259154442E+03  0.51259154442E+03  0.00000000000E+00 0. -1.
         25    2    1    2    0    0 -0.40654040064E+02 -0.23121146665E+02 -0.26910395348E+03  0.30041888254E+03  0.12508888366E+03 0.  0.
          5    1    3    3  502    0  0.43315806295E+02  0.47719723286E+01 -0.10864760155E+03  0.11713583788E+03  0.41800000000E+01 0.  1.
         -5    1    3    3    0  502 -0.83969846359E+02 -0.27893118994E+02 -0.16045635193E+03  0.18328304466E+03  0.41800000000E+01 0.  1.
        -11    1    1    2    0    0  0.34664337710E+02  0.58297209354E+02 -0.12925949388E+03  0.14597327730E+03  0.00000000000E+00 0. -1.
         11    1    1    2    0    0  0.59897023538E+01 -0.35176062689E+02 -0.86685365013E+02  0.93742116618E+02  0.00000000000E+00 0.  1.
</event>
<event>
 7    1  0.2794945E-009  0.5446816E+02  0.7561462E-02  0.1422631E+00
         -1   -1    0    0    0  501 -0.00000000000E+00  0.00000000000E+00  0.32552545643E+02  0.32552545643E+02  0.00000000000E+00 0.  1.
          1   -1    0    0  501    0  0.00000000000E+00 -0.00000000000E+00 -0.37753888763E+03  0.37753888763E+03  0.00000000000E+00 0. -1.
         25    2    1    2    0    0 -0.64743604151E+01 -0.91270777487E+00 -0.23137390174E+03  0.26309575381E+03  0.12507095142E+03 0.  0.
          5    1    3    3  502    0 -0.25037943636E+02 -0.16897144935E+02 -0.10369430268E+00  0.30494184380E+02  0.41800000000E+01 0. -1.
         -5    1    3    3    0  502  0.18563583221E+02  0.15984437160E+02 -0.23127020744E+03  0.23260156943E+03  0.41800000000E+01 0. -1.
        -11    1    1    2    0    0 -0.16411497864E+02 -0.17666540713E+02 -0.11498463228E+03  0.11748578461E+03  0.00000000000E+00 0. -1.
         11    1    1    2    0    0  0.22885858279E+02  0.18579248488E+02  0.13721920368E+01  0.29509894858E+02  0.00000000000E+00 0.  1.
</event>
<event>
 7    1  0.2794945E-009  0.1075942E+03  0.7561462E-02  0.1265091E+00
          4   -1    0    0  501    0  0.00000000000E+00  0.00000000000E+00  0.26353687939E+02  0.26353687939E+02  0.00000000000E+00 0.  1.
         -4   -1    0    0    0  501 -0.00000000000E+00 -0.00000000000E+00 -0.50282875673E+03  0.50282875673E+03  0.00000000000E+00 0. -1.
         25    2    1    2    0    0 -0.27939255002E+01 -0.38446212649E+02 -0.25137901588E+03  0.28342264215E+03  0.12510422525E+03 0.  0.
          5    1    3    3  502    0  0.29958352265E+02 -0.75452746624E+02 -0.15869836795E+03  0.17830665785E+03  0.41800000000E+01 0.  1.
         -5    1    3    3    0  502 -0.32752277766E+02  0.37006533975E+02 -0.92680647925E+02  0.10511598430E+03  0.41800000000E+01 0.  1.
        -11    1    1    2    0    0 -0.32608737946E+02  0.79002169651E+00 -0.31361005427E+02  0.45248940165E+02  0.00000000000E+00 0.  1.
         11    1    1    2    0    0  0.35402663446E+02  0.37656190953E+02 -0.19373504749E+03  0.20051086235E+03  0.00000000000E+00 0. -1.
</event>
<event>
 7    1  0.2794945E-009  0.8480373E+02  0.7561462E-02  0.1315947E+00
         -1   -1    0    0    0  501 -0.00000000000E+00  0.00000000000E+00  0.36308532754E+02  0.36308532754E+02  0.00000000000E+00 0.  1.
          1   -1    0    0  501    0  0.00000000000E+00 -0.00000000000E+00 -0.54524256188E+03  0.54524256188E+03  0.00000000000E+00 0. -1.
         25    2    1    2    0    0  0.82806571849E+02 -0.79366797859E+01 -0.34658559160E+03  0.37774165595E+03  0.12508903671E+03 0.  0.
          5    1    3    3  502    0  0.71775462817E+02 -0.73455019580E+01 -0.69051251885E+02  0.99956096606E+02  0.41800000000E+01 0.  1.
         -5    1    3    3    0  502  0.11031109032E+02 -0.59117782797E+00 -0.27753433972E+03  0.27778555934E+03  0.41800000000E+01 0.  1.
        -11    1    1    2    0    0 -0.24298365111E+02  0.11552756993E+02 -0.13755573454E+03  0.14016225185E+03  0.00000000000E+00 0. -1.
         11    1    1    2    0    0 -0.58508206738E+02 -0.36160772069E+01 -0.24792702988E+02  0.63647186831E+02  0.00000000000E+00 0.  1.
</event>
<event>
 7    1  0.2794945E-009  0.7217792E+02  0.7561462E-02  0.1352840E+00
         -4   -1    0    0    0  501 -0.00000000000E+00  0.00000000000E+00  0.38752787236E+02  0.38752787236E+02  0.00000000000E+00 0.  1.
          4   -1    0    0  501    0  0.00000000000E+00 -0.00000000000E+00 -0.32886236426E+03  0.32886236426E+03  0.00000000000E+00 0. -1.
         25    2    1    2    0    0  0.32301463441E+02  0.92294405449E+01 -0.14645127618E+03  0.19551037853E+03  0.12509102568E+03 0.  0.
          5    1    3    3  502    0 -0.14078774095E+02  0.24955461888E+02 -0.14336687868E+03  0.14626182435E+03  0.41800000000E+01 0.  1.
         -5    1    3    3    0  502  0.46380237537E+02 -0.15726021343E+02 -0.30843974953E+01  0.49248554183E+02  0.41800000000E+01 0.  1.
        -11    1    1    2    0    0 -0.19667769900E+02  0.23805688373E+02 -0.79820134592E+01  0.31894270812E+02  0.00000000000E+00 0.  1.
         11    1    1    2    0    0 -0.12633693542E+02 -0.33035128918E+02 -0.13567628738E+03  0.14021050215E+03  0.00000000000E+00 0. -1.
</event>
<event>
 7    1  0.2794945E-009  0.1109098E+03  0.7561462E-02  0.1258894E+00
          2   -1    0    0  501    0  0.00000000000E+00  0.00000000000E+00  0.23997320958E+03  0.23997320958E+03  0.00000000000E+00 0. -1.
         -2   -1    0    0    0  501 -0.00000000000E+00 -0.00000000000E+00 -0.55876681287E+02  0.55876681287E+02  0.00000000000E+00 0.  1.
         25    2    1    2    0    0  0.12090435839E+02  0.22095124277E+02  0.63261224047E+02  0.14242482977E+03  0.12509387080E+03 0.  0.
          5    1    3    3  502    0 -0.99078087988E+01  0.72056406308E+02  0.36249066677E+02  0.81374182639E+02  0.41800000000E+01 0. -1.
         -5    1    3    3    0  502  0.21998244638E+02 -0.49961282031E+02  0.27012157370E+02  0.61050647131E+02  0.41800000000E+01 0. -1.
        -11    1    1    2    0    0  0.37977504155E+02  0.32158163131E+01  0.42713333299E+02  0.57245621124E+02  0.00000000000E+00 0.  1.
         11    1    1    2    0    0 -0.50067939994E+02 -0.25310940590E+02  0.78121970942E+02  0.96179439969E+02  0.00000000000E+00 0. -1.
</event>
<event>
 7    1  0.2794945E-009  0.9107466E+02  0.7561462E-02  0.1300270E+00
          1   -1    0    0  501    0  0.00000000000E+00  0.00000000000E+00  0.18547922328E+02  0.18547922328E+02  0.00000000000E+00 0. -1.
         -1   -1    0    0    0  501 -0.00000000000E+00 -0.00000000000E+00 -0.65775427732E+03  0.65775427732E+03  0.00000000000E+00 0.  1.
         25    2    1    2    0    0 -0.56588840654E+01 -0.10943877508E+02 -0.31652271458E+03  0.34056682872E+03  0.12508934628E+03 0.  0.
          5    1    3    3  502    0 -0.13639477739E+02 -0.52008721807E+02 -0.27916223478E+03  0.28432370324E+03  0.41800000000E+01 0. -1.
         -5    1    3    3    0  502  0.79805936736E+01  0.41064844298E+02 -0.37360479804E+02  0.56243125480E+02  0.41800000000E+01 0. -1.
        -11    1    1    2    0    0 -0.12692095651E+01 -0.37359195665E+02 -0.20425570999E+03  0.20764805671E+03  0.00000000000E+00 0.  1.
         11    1    1    2    0    0  0.69280936305E+01  0.48303073173E+02 -0.11842793042E+03  0.12808731422E+03  0.00000000000E+00 0. -1.
</event>
<event>
 7    1  0.2794945E-009  0.1189596E+03  0.7561462E-02  0.1244823E+00
          1   -1    0    0  501    0  0.00000000000E+00  0.00000000000E+00  0.19677154051E+02  0.19677154051E+02  0.00000000000E+00 0. -1.
         -1   -1    0    0    0  501 -0.00000000000E+00 -0.00000000000E+00 -0.84179753673E+03  0.84179753673E+03  0.00000000000E+00 0.  1.
         25    2    1    2    0    0 -0.69756211002E+02  0.23945126118E+02 -0.41834141488E+03  0.44283022711E+03  0.12509905116E+03 0.  0.
          5    1    3    3  502    0  0.17765880823E+02 -0.28787249954E+02 -0.49688594961E+02  0.60255797651E+02  0.41800000000E+01 0. -1.
         -5    1    3    3    0  502 -0.87522091825E+02  0.52732376072E+02 -0.36865281992E+03  0.38257442946E+03  0.41800000000E+01 0. -1.
        -11    1    1    2    0    0  0.37729525023E+01  0.21255348418E+02 -0.33699175600E+02  0.40020737663E+02  0.00000000000E+00 0. -1.
         11    1    1    2    0    0  0.65983258500E+02 -0.45200474536E+02 -0.37007979220E+03  0.37862372601E+03  0.00000000000E+00 0.  1.
</event>
<event>
 7    1  0.2794945E-009  0.1082085E+03  0.7561462E-02  0.1263924E+00
          4   -1    0    0  501    0  0.00000000000E+00  0.00000000000E+00  0.38912694766E+02  0.38912694766E+02  0.00000000000E+00 0. -1.
         -4   -1    0    0    0  501 -0.00000000000E+00 -0.00000000000E+00 -0.61565840395E+03  0.61565840395E+03  0.00000000000E+00 0.  1.
         25    2    1    2    0    0 -0.62019446632E+02 -0.10157113513E+02 -0.48346399580E+03  0.50332258846E+03  0.12508642652E+03 0.  0.
          5    1    3    3  502    0  0.37210032313E+02 -0.15185174397E+02 -0.14992567600E+03  0.15527510022E+03  0.41800000000E+01 0. -1.
         -5    1    3    3    0  502 -0.99229478945E+02  0.50280608847E+01 -0.33353831981E+03  0.34804748824E+03  0.41800000000E+01 0. -1.
        -11    1    1    2    0    0 -0.34996373772E+01  0.10477369315E+02  0.18577236251E+02  0.21613339313E+02  0.00000000000E+00 0. -1.
         11    1    1    2    0    0  0.65519084009E+02 -0.32025580200E+00 -0.11185894964E+03  0.12963517095E+03  0.00000000000E+00 0.  1.
</event>
<event>
 7    1  0.2794945E-009  0.1133765E+03  0.7561462E-02  0.1254442E+00
          1   -1    0    0  501    0  0.00000000000E+00  0.00000000000E+00  0.30932443869E+03  0.30932443869E+03  0.00000000000E+00 0. -1.
         -1   -1    0    0    0  501 -0.00000000000E+00 -0.00000000000E+00 -0.46732916429E+02  0.46732916429E+02  0.00000000000E+00 0.  1.
         25    2    1    2    0    0  0.37904597432E+02 -0.26807679262E+02  0.11353405144E+03  0.17519157135E+03  0.12508675254E+03 0.  0.
          5    1    3    3  502    0  0.70581396239E+02 -0.50503222755E+02  0.51321489753E+02  0.10091420472E+03  0.41800000000E+01 0. -1.
         -5    1    3    3    0  502 -0.32676798807E+02  0.23695543492E+02  0.62212561684E+02  0.74277366626E+02  0.41800000000E+01 0. -1.
        -11    1    1    2    0    0 -0.62811235504E+02  0.36397004782E+02  0.12681578668E+03  0.14612404666E+03  0.00000000000E+00 0.  1.
         11    1    1    2    0    0  0.24906638071E+02 -0.95893255198E+01  0.22241684153E+02  0.34741737117E+02  0.00000000000E+00 0. -1.
</event>
<event>
 7    1  0.2794945E-009  0.1255267E+03  0.7561462E-02  0.1234248E+00
         -2   -1    0    0    0  501 -0.00000000000E+00  0.00000000000E+00  0.15417829918E+02  0.15417829918E+02  0.00000000000E+00 0. -1.
          2   -1    0    0  501    0  0.00000000000E+00 -0.00000000000E+00 -0.15319686641E+04  0.15319686641E+04  0.00000000000E+00 0.  1.
         25    2    1    2    0    0  0.67950987145E+02 -0.56378183758E+01 -0.12511483871E+04  0.12592334517E+04  0.12508987885E+03 0.  0.
          5    1    3    3  502    0  0.49204623782E+02  0.56283828400E+02 -0.54584375438E+03  0.55095538925E+03  0.41800000000E+01 0. -1.
         -5    1    3    3    0  502  0.18746363363E+02 -0.61921646775E+02 -0.70530463272E+03  0.70827806249E+03  0.41800000000E+01 0. -1.
        -11    1    1    2    0    0 -0.50202187150E+02 -0.38829647388E+02 -0.16878682057E+03  0.18032468469E+03  0.00000000000E+00 0.  1.
         11    1    1    2    0    0 -0.17748799995E+02  0.44467465764E+02 -0.96615626478E+02  0.10782835755E+03  0.00000000000E+00 0. -1.
</event>
<event>
 7    1  0.2794945E-009  0.1215004E+03  0.7561462E-02  0.1240642E+00
         -1   -1    0    0    0  501 -0.00000000000E+00  0.00000000000E+00  0.10506047267E+03  0.10506047267E+03  0.00000000000E+00 0.  1.
          1   -1    0    0  501    0  0.00000000000E+00 -0.00000000000E+00 -0.16555366434E+03  0.16555366434E+03  0.00000000000E+00 0. -1.
         25    2    1    2    0    0  0.43863538708E+02 -0.33088825154E+02 -0.84321893867E+02  0.16054920062E+03  0.12508790371E+03 0.  0.
          5    1    3    3  502    0 -0.14026807979E+02  0.39780257429E+02 -0.17280354183E+02  0.45774482672E+02  0.41800000000E+01 0.  1.
         -5    1    3    3    0  502  0.57890346687E+02 -0.72869082582E+02 -0.67041539684E+02  0.11477471794E+03  0.41800000000E+01 0.  1.
        -11    1    1    2    0    0 -0.95740073998E+01  0.61919069955E+02  0.13706652015E+02  0.64136613188E+02  0.00000000000E+00 0.  1.
         11    1    1    2    0    0 -0.34289531308E+02 -0.28830244802E+02  0.10122050187E+02  0.45928323207E+02  0.00000000000E+00 0. -1.
</event>
<event>
 7    1  0.2794945E-009  0.1180516E+03  0.7561462E-02  0.1246346E+00
         -2   -1    0    0    0  501 -0.00000000000E+00  0.00000000000E+00  0.16542743793E+02  0.16542743793E+02  0.00000000000E+00 0.  1.
          2   -1    0    0  501    0  0.00000000000E+00 -0.00000000000E+00 -0.87162210246E+03  0.87162210246E+03  0.00000000000E+00 0. -1.
         25    2    1    2    0    0  0.51832288584E+02  0.63577487749E+01 -0.47339997497E+03  0.49242451547E+03  0.12508940809E+03 0.  0.
          5    1    3    3  502    0  0.11024231456E+02  0.62435661808E+02 -0.17919217651E+03  0.19012378616E+03  0.41800000000E+01 0. -1.
         -5    1    3    3    0  502  0.40808057129E+02 -0.56077913033E+02 -0.29420779847E+03  0.30230072930E+03  0.41800000000E+01 0. -1.
        -11    1    1    2    0    0  0.10632462237E+02 -0.33374229618E+02 -0.10003904987E+03  0.10599386753E+03  0.00000000000E+00 0.  1.
         11    1    1    2    0    0 -0.62464750821E+02  0.27016480843E+02 -0.28164033382E+03  0.28974646325E+03  0.00000000000E+00 0. -1.
</event>
<event>
 7    1  0.2794945E-009  0.1762304E+03  0.7561462E-02  0.1171502E+00
         -2   -1    0    0    0  501 -0.00000000000E+00  0.00000000000E+00  0.28053997181E+03  0.28053997181E+03  0.00000000000E+00 0.  1.
          2   -1    0    0  501    0  0.00000000000E+00 -0.00000000000E+00 -0.12586801432E+03  0.12586801432E+03  0.00000000000E+00 0. -1.
         25    2    1    2    0    0  0.66038759957E+02 -0.13375831639E+03  0.11843785852E+03  0.22787620301E+03  0.12509049743E+03 0.  0.
          5    1    3    3  502    0  0.59965586707E+02 -0.15773334750E+03  0.10970466591E+03  0.20131633472E+03  0.41800000000E+01 0. -1.
         -5    1    3    3    0  502  0.60731732497E+01  0.23975031116E+02  0.87331926103E+01  0.26559868288E+02  0.41800000000E+01 0. -1.
        -11    1    1    2    0    0 -0.72789825564E+02  0.97373651862E+02 -0.68145083726E+01  0.12176380541E+03  0.00000000000E+00 0. -1.
         11    1    1    2    0    0  0.67510656069E+01  0.36384664525E+02  0.43048607346E+02  0.56767977715E+02  0.00000000000E+00 0.  1.
</event>
<event>
 7    1  0.2794945E-009  0.8428609E+02  0.7561462E-02  0.1317310E+00
          1   -1    0    0  501    0  0.00000000000E+00  0.00000000000E+00  0.20181108130E+04  0.20181108130E+04  0.00000000000E+00 0. -1.
         -1   -1    0    0    0  501 -0.00000000000E+00 -0.00000000000E+00 -0.14080900591E+02  0.14080900591E+02  0.00000000000E+00 0.  1.
         25    2    1    2    0    0  0.40802828674E+02  0.24693070465E+02  0.18187740707E+04  0.18236981654E+04  0.12514495430E+03 0.  0.
          5    1    3    3  502    0 -0.29490830432E+02  0.19316135705E+02  0.18365609934E+03  0.18705576014E+03  0.41800000000E+01 0. -1.
         -5    1    3    3    0  502  0.70293659105E+02  0.53769347597E+01  0.16351179714E+04  0.16366424052E+04  0.41800000000E+01 0. -1.
        -11    1    1    2    0    0 -0.12770176466E+02  0.11144810931E+02 -0.78705094347E+00  0.16967724268E+02  0.00000000000E+00 0.  1.
         11    1    1    2    0    0 -0.28032652208E+02 -0.35837881395E+02  0.18604289265E+03  0.19152582395E+03  0.00000000000E+00 0. -1.
</event>
<event>
 7    1  0.2794945E-009  0.1548804E+03  0.7561462E-02  0.1194601E+00
          2   -1    0    0  501    0  0.00000000000E+00  0.00000000000E+00  0.24538347405E+04  0.24538347405E+04  0.00000000000E+00 0. -1.
         -2   -1    0    0    0  501 -0.00000000000E+00 -0.00000000000E+00 -0.14884130184E+02  0.14884130184E+02  0.00000000000E+00 0.  1.
         25    2    1    2    0    0 -0.10963711323E+03 -0.71392777411E+02  0.18367787032E+04  0.18456756333E+04  0.12508122870E+03 0.  0.
          5    1    3    3  502    0 -0.99024696230E+02  0.36739037934E+01  0.80086264441E+03  0.80698069100E+03  0.41800000000E+01 0.  1.
         -5    1    3    3    0  502 -0.10612416996E+02 -0.75066681205E+02  0.10359160587E+04  0.10386949423E+04  0.41800000000E+01 0.  1.
        -11    1    1    2    0    0  0.14118250619E+02  0.24420630514E+02  0.30493706462E+02  0.41539840262E+02  0.00000000000E+00 0.  1.
         11    1    1    2    0    0  0.95518862606E+02  0.46972146897E+02  0.57167820073E+03  0.58150339715E+03  0.00000000000E+00 0. -1.
</event>
<event>
 7    1  0.2794945E-009  0.1312040E+03  0.7561462E-02  0.1225680E+00
         -1   -1    0    0    0  501 -0.00000000000E+00  0.00000000000E+00  0.86538094535E+02  0.86538094535E+02  0.00000000000E+00 0.  1.
          1   -1    0    0  501    0  0.00000000000E+00 -0.00000000000E+00 -0.28015401552E+03  0.28015401552E+03  0.00000000000E+00 0. -1.
         25    2    1    2    0    0 -0.24002216937E+02  0.10791275057E+03 -0.11954163154E+03  0.20533048889E+03  0.12509652210E+03 0.  0.
          5    1    3    3  502    0  0.38148827525E+01  0.95396510561E+02 -0.15480100880E+02  0.96809883178E+02  0.41800000000E+01 0.  1.
         -5    1    3    3    0  502 -0.27817099690E+02  0.12516240006E+02 -0.10406153066E+03  0.10852060571E+03  0.41800000000E+01 0.  1.
        -11    1    1    2    0    0  0.25174181107E+02  0.28063568053E+01  0.43172270131E+01  0.25695398071E+02  0.00000000000E+00 0.  1.
         11    1    1    2    0    0 -0.11719641695E+01 -0.11071910737E+03 -0.78391516451E+02  0.13566622309E+03  0.00000000000E+00 0. -1.
</event>
<event>
 7    1  0.2794945E-009  0.1047029E+03  0.7561462E-02  0.1270706E+00
         -1   -1    0    0    0  501 -0.00000000000E+00  0.00000000000E+00  0.73338034424E+02  0.73338034424E+02  0.00000000000E+00 0.  1.
          1   -1    0    0  501    0  0.00000000000E+00 -0.00000000000E+00 -0.24336452480E+03  0.24336452480E+03  0.00000000000E+00 0. -1.
         25    2    1    2    0    0  0.21653612978E+02 -0.48380378218E+02 -0.15804357431E+03  0.20841158844E+03  0.12509228139E+03 0.  0.
          5    1    3    3  502    0  0.37821348804E+02 -0.69837137632E+02 -0.16244449977E+03  0.18086837237E+03  0.41800000000E+01 0.  1.
         -5    1    3    3    0  502 -0.16167735825E+02  0.21456759414E+02  0.44009254683E+01  0.27543216066E+02  0.41800000000E+01 0.  1.
        -11    1    1    2    0    0 -0.42950485758E+02 -0.68482414114E+01 -0.21200636730E+02  0.48385014571E+02  0.00000000000E+00 0. -1.
         11    1    1    2    0    0  0.21296872780E+02  0.55228619629E+02  0.92177206561E+01  0.59905956218E+02  0.00000000000E+00 0.  1.
</event>
<event>
 7    1  0.2794945E-009  0.1309797E+03  0.7561462E-02  0.1226009E+00
         -2   -1    0    0    0  501 -0.00000000000E+00  0.00000000000E+00  0.35799582632E+03  0.35799582632E+03  0.00000000000E+00 0.  1.
          2   -1    0    0  501    0  0.00000000000E+00 -0.00000000000E+00 -0.75298166707E+02  0.75298166707E+02  0.00000000000E+00 0. -1.
         25    2    1    2    0    0  0.76192800768E+02 -0.85962839073E+02  0.21687293635E+03  0.27545544186E+03  0.12508747875E+03 0.  0.
          5    1    3    3  502    0  0.20883739803E+02 -0.69551174487E+01 -0.13162976329E+02  0.25985391910E+02  0.41800000000E+01 0. -1.
         -5    1    3    3    0  502  0.55309060965E+02 -0.79007721625E+02  0.23003591268E+03  0.24947004995E+03  0.41800000000E+01 0. -1.
        -11    1    1    2    0    0  0.18986062320E+02  0.11741202454E+02  0.14892329633E+02  0.26834825868E+02  0.00000000000E+00 0.  1.
         11    1    1    2    0    0 -0.95178863088E+02  0.74221636619E+02  0.50932393636E+02  0.13100372530E+03  0.00000000000E+00 0. -1.
</event>
<event>
 7    1  0.2794945E-009  0.7338482E+02  0.7561462E-02  0.1348947E+00
          4   -1    0    0  501    0  0.00000000000E+00  0.00000000000E+00  0.11183188959E+03  0.11183188959E+03  0.00000000000E+00 0. -1.
         -4   -1    0    0    0  501 -0.00000000000E+00 -0.00000000000E+00 -0.11059057291E+03  0.11059057291E+03  0.00000000000E+00 0.  1.
         25    2    1    2    0    0  0.97068865863E+01 -0.21470675206E+02 -0.27718098984E-01  0.12728921659E+03  0.12508928951E+03 0.  0.
          5    1    3    3  502    0  0.21220420655E+02 -0.59889568812E+02  0.36058176867E+02  0.73176029027E+02  0.41800000000E+01 0. -1.
         -5    1    3    3    0  502 -0.11513534069E+02  0.38418893606E+02 -0.36085894965E+02  0.54113187562E+02  0.41800000000E+01 0. -1.
        -11    1    1    2    0    0  0.79388828144E+01  0.23690476288E+02  0.43021641940E+02  0.49750640221E+02  0.00000000000E+00 0. -1.
         11    1    1    2    0    0 -0.17645769401E+02 -0.22198010824E+01 -0.41752607158E+02  0.45382605688E+02  0.00000000000E+00 0.  1.
</event>
<event>
 7    1  0.2794945E-009  0.1177838E+03  0.7561462E-02  0.1246798E+00
         -2   -1    0    0    0  501 -0.00000000000E+00  0.00000000000E+00  0.43763101550E+02  0.43763101550E+02  0.00000000000E+00 0.  1.
          2   -1    0    0  501    0  0.00000000000E+00 -0.00000000000E+00 -0.43426940150E+03  0.43426940150E+03  0.00000000000E+00 0. -1.
         25    2    1    2    0    0 -0.58666995315E+02  0.35485417570E+02 -0.12838373341E+03  0.19191246704E+03  0.12508789230E+03 0.  0.
          5    1    3    3  502    0 -0.16397957000E+02  0.72755055440E+02 -0.34374407912E+02  0.82226901956E+02  0.41800000000E+01 0. -1.
         -5    1    3    3    0  502 -0.42269038315E+02 -0.37269637870E+02 -0.94009325497E+02  0.10968556508E+03  0.41800000000E+01 0. -1.
        -11    1    1    2    0    0  0.50018949312E+02  0.15720568784E+02 -0.72224007625E+02  0.89248747053E+02  0.00000000000E+00 0.  1.
         11    1    1    2    0    0  0.86480460026E+01 -0.51205986354E+02 -0.18989855891E+03  0.19687128896E+03  0.00000000000E+00 0. -1.
</event>
<event>
 7    1  0.2794945E-009  0.9439917E+02  0.7561462E-02  0.1292535E+00
          2   -1    0    0  501    0  0.00000000000E+00  0.00000000000E+00  0.97877152429E+02  0.97877152429E+02  0.00000000000E+00 0. -1.
         -2   -1    0    0    0  501 -0.00000000000E+00 -0.00000000000E+00 -0.16645215838E+03  0.16645215838E+03  0.00000000000E+00 0.  1.
         25    2    1    2    0    0 -0.28424924680E+02  0.18970016885E+02  0.21492659433E+02  0.13144390623E+03  0.12509087973E+03 0.  0.
          5    1    3    3  502    0 -0.51360525793E+01 -0.33177502377E+02  0.55385576025E+02  0.64901156629E+02  0.41800000000E+01 0.  1.
         -5    1    3    3    0  502 -0.23288872100E+02  0.52147519262E+02 -0.33892916592E+02  0.66542749598E+02  0.41800000000E+01 0.  1.
        -11    1    1    2    0    0  0.13109564162E+02  0.37220516102E+02 -0.36918935708E+02  0.54039201560E+02  0.00000000000E+00 0.  1.
         11    1    1    2    0    0  0.15315360518E+02 -0.56190532986E+02 -0.53148729677E+02  0.78846203024E+02  0.00000000000E+00 0. -1.
</event>
<event>
 7    1  0.2794945E-009  0.3585407E+03  0.7561462E-02  0.1059163E+00
          2   -1    0    0  501    0  0.00000000000E+00  0.00000000000E+00  0.10251076097E+04  0.10251076097E+04  0.00000000000E+00 0. -1.
         -2   -1    0    0    0  501 -0.00000000000E+00 -0.00000000000E+00 -0.12938909385E+03  0.12938909385E+03  0.00000000000E+00 0.  1.
         25    2    1    2    0    0 -0.13113402160E+03 -0.31884965158E+03  0.38486939422E+03  0.53163262990E+03  0.12509024995E+03 0.  0.
          5    1    3    3  502    0  0.19076578925E+02 -0.54793585472E+02  0.33503624901E+02  0.67128370707E+02  0.41800000000E+01 0.  1.
         -5    1    3    3    0  502 -0.15021060052E+03 -0.26405606611E+03  0.35136576932E+03  0.46450425919E+03  0.41800000000E+01 0.  1.
        -11    1    1    2    0    0 -0.71090635066E+01  0.70507803644E+02  0.12406863275E+03  0.14288077124E+03  0.00000000000E+00 0.  1.
         11    1    1    2    0    0  0.13824308510E+03  0.24834184794E+03  0.38678048893E+03  0.47998330245E+03  0.00000000000E+00 0. -1.
</event>
<event>
 7    1  0.2794945E-009  0.1679180E+03  0.7561462E-02  0.1180037E+00
          1   -1    0    0  501    0  0.00000000000E+00  0.00000000000E+00  0.24327419098E+03  0.24327419098E+03  0.00000000000E+00 0. -1.
         -1   -1    0    0    0  501 -0.00000000000E+00 -0.00000000000E+00 -0.14153770257E+03  0.14153770257E+03  0.00000000000E+00 0.  1.
         25    2    1    2    0    0  0.14241742433E+03 -0.21042244539E+01  0.37136645034E+01  0.18961434654E+03  0.12511058547E+03 0.  0.
          5    1    3    3  502    0 -0.15501845924E+02 -0.24831899276E+02  0.51018570237E+01  0.30007195700E+02  0.41800000000E+01 0.  1.
         -5    1    3    3    0  502  0.15791927025E+03  0.22727674822E+02 -0.13881925203E+01  0.15960715084E+03  0.41800000000E+01 0.  1.
        -11    1    1    2    0    0 -0.12339458670E+03 -0.10506988321E+02  0.35786252441E+02  0.12890801641E+03  0.00000000000E+00 0.  1.
         11    1    1    2    0    0 -0.19022837631E+02  0.12611212775E+02  0.62236571464E+02  0.66289530597E+02  0.00000000000E+00 0. -1.
</event>
<event>
 7    1  0.2794945E-009  0.6708022E+02  0.7561462E-02  0.1370313E+00
         -3   -1    0    0    0  501 -0.00000000000E+00  0.00000000000E+00  0.61902170346E+02  0.61902170346E+02  0.00000000000E+00 0.  1.
          3   -1    0    0  501    0  0.00000000000E+00 -0.00000000000E+00 -0.21018204184E+03  0.21018204184E+03  0.00000000000E+00 0. -1.
         25    2    1    2    0    0 -0.15243806562E+01 -0.16877390720E+02 -0.12725263203E+03  0.17926221472E+03  0.12511810105E+03 0.  0.
          5    1    3    3  502    0  0.33257263161E+02 -0.38734664512E+02 -0.12810022335E+03  0.13796216659E+03  0.41800000000E+01 0.  1.
         -5    1    3    3    0  502 -0.34781643817E+02  0.21857273791E+02  0.84759131606E+00  0.41300048126E+02  0.41800000000E+01 0.  1.
        -11    1    1    2    0    0 -0.15078971169E+02 -0.33797726194E+01  0.30964011458E+02  0.34605898919E+02  0.00000000000E+00 0.  1.
         11    1    1    2    0    0  0.16603351825E+02  0.20257163340E+02 -0.51991250917E+02  0.58216098550E+02  0.00000000000E+00 0. -1.
</event>
<event>
 7    1  0.2794945E-009  0.1295133E+03  0.7561462E-02  0.1228180E+00
         -2   -1    0    0    0  501 -0.00000000000E+00  0.00000000000E+00  0.25924792252E+02  0.25924792252E+02  0.00000000000E+00 0.  1.
          2   -1    0    0  501    0  0.00000000000E+00 -0.00000000000E+00 -0.73761210376E+03  0.73761210376E+03  0.00000000000E+00 0. -1.
         25    2    1    2    0    0 -0.40431498106E+00 -0.85252114639E+02 -0.37041280688E+03  0.40015326402E+03  0.12509556621E+03 0.  0.
          5    1    3    3  502    0 -0.29050784183E+02  0.12765420132E+02 -0.27059611602E+02  0.41911800162E+02  0.41800000000E+01 0. -1.
         -5    1    3    3    0  502  0.28646469201E+02 -0.98017534771E+02 -0.34335319528E+03  0.35824146386E+03  0.41800000000E+01 0. -1.
        -11    1    1    2    0    0 -0.45247713094E+02  0.37661084383E+02 -0.16104941934E+03  0.17147194606E+03  0.00000000000E+00 0.  1.
         11    1    1    2    0    0  0.45652028075E+02  0.47591030256E+02 -0.18022508528E+03  0.19191168592E+03  0.00000000000E+00 0. -1.
</event>
<event>
 7    1  0.2794945E-009  0.1011553E+03  0.7561462E-02  0.1277885E+00
         -2   -1    0    0    0  501 -0.00000000000E+00  0.00000000000E+00  0.18719063156E+03  0.18719063156E+03  0.00000000000E+00 0. -1.
          2   -1    0    0  501    0  0.00000000000E+00 -0.00000000000E+00 -0.73457754437E+02  0.73457754437E+02  0.00000000000E+00 0.  1.
         25    2    1    2    0    0  0.10280312637E+02 -0.46048522877E+02  0.73383444510E+02  0.15251611738E+03  0.12509949978E+03 0.  0.
          5    1    3    3  502    0 -0.33016665684E+02 -0.74422999653E+02  0.49264659426E+02  0.95254197590E+02  0.41800000000E+01 0. -1.
         -5    1    3    3    0  502  0.43296978321E+02  0.28374476776E+02  0.24118785084E+02  0.57261919789E+02  0.41800000000E+01 0. -1.
        -11    1    1    2    0    0  0.31472631578E+01 -0.10379994531E+02  0.48374518204E+02  0.49575634775E+02  0.00000000000E+00 0. -1.
         11    1    1    2    0    0 -0.13427575795E+02  0.56428517408E+02 -0.80250855878E+01  0.58556633845E+02  0.00000000000E+00 0.  1.
</event>
<event>
 7    1  0.2794945E-009  0.1172942E+03  0.7561462E-02  0.1247629E+00
         -2   -1    0    0    0  501 -0.00000000000E+00  0.00000000000E+00  0.23879699950E+03  0.23879699950E+03  0.00000000000E+00 0.  1.
          2   -1    0    0  501    0  0.00000000000E+00 -0.00000000000E+00 -0.69289536692E+02  0.69289536692E+02  0.00000000000E+00 0. -1.
         25    2    1    2    0    0 -0.43105636344E+02 -0.47050507944E+02  0.12064307101E+03  0.18513452857E+03  0.12509275321E+03 0.  0.
          5    1    3    3  502    0 -0.84523555290E+02 -0.26330900365E+02  0.53704817045E+02  0.10363024407E+03  0.41800000000E+01 0. -1.
         -5    1    3    3    0  502  0.41417918946E+02 -0.20719607579E+02  0.66938253964E+02  0.81504284500E+02  0.41800000000E+01 0. -1.
        -11    1    1    2    0    0  0.65364472148E+02  0.35518118856E+02  0.59950516802E+02  0.95541171497E+02  0.00000000000E+00 0.  1.
         11    1    1    2    0    0 -0.22258835805E+02  0.11532389088E+02 -0.11086125002E+02  0.27410836124E+02  0.00000000000E+00 0. -1.
</event>
<event>
 7    1  0.2794945E-009  0.1658828E+03  0.7561462E-02  0.1182211E+00
         -2   -1    0    0    0  501 -0.00000000000E+00  0.00000000000E+00  0.23999621256E+02  0.23999621256E+02  0.00000000000E+00 0. -1.
          2   -1    0    0  501    0  0.00000000000E+00 -0.00000000000E+00 -0.17969447850E+04  0.17969447850E+04  0.00000000000E+00 0.  1.
         25    2    1    2    0    0 -0.64385457848E+02 -0.14818647309E+03 -0.12407553510E+04  0.12574680823E+04  0.12508964472E+03 0.  0.
          5    1    3    3  502    0 -0.24150209136E+02 -0.70235239313E+02 -0.96951084834E+03  0.97236051899E+03  0.41800000000E+01 0.  1.
         -5    1    3    3    0  502 -0.40235248712E+02 -0.77951233774E+02 -0.27124450261E+03  0.28510756336E+03  0.41800000000E+01 0.  1.
        -11    1    1    2    0    0  0.20435891010E+02  0.68671471474E+01 -0.17012344593E+02  0.27462760601E+02  0.00000000000E+00 0. -1.
         11    1    1    2    0    0  0.43949566838E+02  0.14131932594E+03 -0.51517746821E+03  0.53601356332E+03  0.00000000000E+00 0.  1.
</event>
<event>
 7    1  0.2794945E-009  0.1326149E+03  0.7561462E-02  0.1223626E+00
         -1   -1    0    0    0  501 -0.00000000000E+00  0.00000000000E+00  0.14623618710E+03  0.14623618710E+03  0.00000000000E+00 0.  1.
          1   -1    0    0  501    0  0.00000000000E+00 -0.00000000000E+00 -0.12369006065E+03  0.12369006065E+03  0.00000000000E+00 0. -1.
         25    2    1    2    0    0  0.74928557904E+02  0.18871334771E+02 -0.63791561470E+01  0.14717679322E+03  0.12509955541E+03 0.  0.
          5    1    3    3  502    0  0.10698264648E+03 -0.29711078941E+01 -0.11941235454E+02  0.10776910333E+03  0.41800000000E+01 0. -1.
         -5    1    3    3    0  502 -0.32054088573E+02  0.21842442665E+02  0.55620793066E+01  0.39407689885E+02  0.41800000000E+01 0. -1.
        -11    1    1    2    0    0 -0.60141477887E+02  0.30598973803E+02  0.19736031897E+02  0.70305088829E+02  0.00000000000E+00 0. -1.
         11    1    1    2    0    0 -0.14787080018E+02 -0.49470308574E+02  0.91892507004E+01  0.52444365706E+02  0.00000000000E+00 0.  1.
</event>
<event>
 7    1  0.5530830E-009  0.1022736E+03  0.7561462E-02  0.1275586E+00
         -2   -1    0    0    0  501 -0.00000000000E+00  0.00000000000E+00  0.78013671891E+02  0.78013671891E+02  0.00000000000E+00 0.  1.
          2   -1    0    0  501    0  0.00000000000E+00 -0.00000000000E+00 -0.27095025376E+03  0.27095025376E+03  0.00000000000E+00 0. -1.
         25    2    1    2    0    0 -0.86820140821E+02 -0.35168164512E+02 -0.78002502014E+02  0.17466132413E+03  0.12509057190E+03 0.  0.
          5    1    3    3  502    0 -0.93809745176E+02 -0.38675490047E+02 -0.55914719304E+01  0.10170938393E+03  0.41800000000E+01 0.  1.
         -5    1    3    3    0  502  0.69896043551E+01  0.35073255346E+01 -0.72411030084E+02  0.72951940202E+02  0.41800000000E+01 0.  1.
        -11    1    1    2    0    0  0.40075955508E+02  0.21199288237E+02 -0.11699492913E+03  0.12547232952E+03  0.00000000000E+00 0.  1.
         11    1    1    2    0    0  0.46744185313E+02  0.13968876274E+02  0.20608492729E+01  0.48830272012E+02  0.00000000000E+00 0. -1.
</event>
<event>
 7    1  0.2794945E-009  0.1637286E+03  0.7561462E-02  0.1184550E+00
         -2   -1    0    0    0  501 -0.00000000000E+00  0.00000000000E+00  0.16063158509E+03  0.16063158509E+03  0.00000000000E+00 0.  1.
          2   -1    0    0  501    0  0.00000000000E+00 -0.00000000000E+00 -0.20437592128E+03  0.20437592128E+03  0.00000000000E+00 0. -1.
         25    2    1    2    0    0 -0.11905680468E+03  0.67772302236E+02  0.23397023621E+02  0.18698299489E+03  0.12509041519E+03 0.  0.
          5    1    3    3  502    0 -0.10255448862E+02 -0.33666836919E+02  0.13206593627E+02  0.37822171470E+02  0.41800000000E+01 0. -1.
         -5    1    3    3    0  502 -0.10880135582E+03  0.10143913915E+03  0.10190429995E+02  0.14916082342E+03  0.41800000000E+01 0. -1.
        -11    1    1    2    0    0  0.51445312648E+02 -0.53265720078E+02 -0.78534242565E+02  0.10794204178E+03  0.00000000000E+00 0. -1.
         11    1    1    2    0    0  0.67611492035E+02 -0.14506582158E+02  0.11392882758E+02  0.70082469695E+02  0.00000000000E+00 0.  1.
</event>
<event>
 7    1  0.2794945E-009  0.2711868E+03  0.7561462E-02  0.1100602E+00
          1   -1    0    0  501    0  0.00000000000E+00  0.00000000000E+00  0.28294254462E+03  0.28294254462E+03  0.00000000000E+00 0.  1.
         -1   -1    0    0    0  501 -0.00000000000E+00 -0.00000000000E+00 -0.71611318994E+03  0.71611318994E+03  0.00000000000E+00 0. -1.
         25    2    1    2    0    0 -0.16343314273E+03 -0.19276743386E+03  0.17731015616E+03  0.33309989917E+03  0.12508787170E+03 0.  0.
          5    1    3    3  502    0  0.12002999680E+02 -0.51995254575E+02  0.14682800444E+02  0.55503473121E+02  0.41800000000E+01 0. -1.
         -5    1    3    3    0  502 -0.17543614241E+03 -0.14077217929E+03  0.16262735572E+03  0.27759642604E+03  0.41800000000E+01 0. -1.
        -11    1    1    2    0    0  0.37101681432E+02  0.10137871014E+03 -0.29295463229E+03  0.31221241842E+03  0.00000000000E+00 0.  1.
         11    1    1    2    0    0  0.12633146130E+03  0.91388723726E+02 -0.31752616918E+03  0.35374341697E+03  0.00000000000E+00 0. -1.
</event>
<event>
 7    1  0.2794945E-009  0.1829626E+03  0.7561462E-02  0.1164966E+00
         -1   -1    0    0    0  501 -0.00000000000E+00  0.00000000000E+00  0.21330963490E+02  0.21330963490E+02  0.00000000000E+00 0.  1.
          1   -1    0    0  501    0  0.00000000000E+00 -0.00000000000E+00 -0.16613835895E+04  0.16613835895E+04  0.00000000000E+00 0. -1.
         25    2    1    2    0    0 -0.15141349875E+03  0.26328236151E+02 -0.81594606393E+03  0.83966319656E+03  0.12508829194E+03 0.  0.
          5    1    3    3  502    0  0.74736772309E+01  0.32653704875E+02 -0.23185546531E+03  0.23430012695E+03  0.41800000000E+01 0. -1.
         -5    1    3    3    0  502 -0.15888717598E+03 -0.63254687239E+01 -0.58409059862E+03  0.60536306961E+03  0.41800000000E+01 0. -1.
        -11    1    1    2    0    0  0.62306849455E+02 -0.51135597798E+02 -0.28992957541E+03  0.30092549169E+03  0.00000000000E+00 0.  1.
         11    1    1    2    0    0  0.89106649295E+02  0.24807361647E+02 -0.53417698670E+03  0.54212586478E+03  0.00000000000E+00 0. -1.
</event>
<event>
 7    1  0.2794945E-009  0.2661305E+03  0.7561462E-02  0.1103515E+00
         -1   -1    0    0    0  501 -0.00000000000E+00  0.00000000000E+00  0.29452105296E+03  0.29452105296E+03  0.00000000000E+00 0.  1.
          1   -1    0    0  501    0  0.00000000000E+00 -0.00000000000E+00 -0.25910776993E+03  0.25910776993E+03  0.00000000000E+00 0. -1.
         25    2    1    2    0    0 -0.54787086007E+01  0.25215840655E+03  0.44655594492E+02  0.28505331030E+03  0.12508952535E+03 0.  0.
          5    1    3    3  502    0 -0.44633000653E+02  0.45450729172E+02 -0.16472663759E+02  0.65929466712E+02  0.41800000000E+01 0. -1.
         -5    1    3    3    0  502  0.39154292052E+02  0.20670767738E+03  0.61128258251E+02  0.21912384359E+03  0.41800000000E+01 0. -1.
        -11    1    1    2    0    0  0.25328938011E+02 -0.64540200740E+02  0.30541257328E+02  0.75761210468E+02  0.00000000000E+00 0.  1.
         11    1    1    2    0    0 -0.19850229410E+02 -0.18761820581E+03 -0.39783568786E+02  0.19281430212E+03  0.00000000000E+00 0. -1.
</event>
<event>
 7    1  0.2794945E-009  0.9282569E+02  0.7561462E-02  0.1296150E+00
         -1   -1    0    0    0  501 -0.00000000000E+00  0.00000000000E+00  0.14503367295E+04  0.14503367295E+04  0.00000000000E+00 0.  1.
          1   -1    0    0  501    0  0.00000000000E+00 -0.00000000000E+00 -0.13128426188E+02  0.13128426188E+02  0.00000000000E+00 0. -1.
         25    2    1    2    0    0  0.11537454759E+02  0.43657915496E+02  0.11837830262E+04  0.11912307206E+04  0.12509696342E+03 0.  0.
          5    1    3    3  502    0 -0.39924884797E+02  0.58790330412E+02  0.86638382065E+03  0.86930356980E+03  0.41800000000E+01 0. -1.
         -5    1    3    3    0  502  0.51462339556E+02 -0.15132414916E+02  0.31739920552E+03  0.32192715083E+03  0.41800000000E+01 0. -1.
        -11    1    1    2    0    0  0.30533081958E+01 -0.45809273169E+02  0.25335964851E+03  0.25748577377E+03  0.00000000000E+00 0.  1.
         11    1    1    2    0    0 -0.14590762955E+02  0.21513576730E+01  0.65628645871E-01  0.14748661314E+02  0.00000000000E+00 0. -1.
</event>
<event>
 7    1  0.3022620E-009  0.1201687E+03  0.7561462E-02  0.1242819E+00
          1   -1    0    0  501    0  0.00000000000E+00  0.00000000000E+00  0.40800466353E+03  0.40800466353E+03  0.00000000000E+00 0. -1.
         -1   -1    0    0    0  501 -0.00000000000E+00 -0.00000000000E+00 -0.37563570079E+02  0.37563570079E+02  0.00000000000E+00 0.  1.
         25    2    1    2    0    0  0.24986650963E+02  0.53731545297E+02  0.21989363830E+03  0.25982940266E+03  0.12508674843E+03 0.  0.
          5    1    3    3  502    0 -0.38413764861E+02  0.56417940988E+02  0.15270436657E+03  0.16731615991E+03  0.41800000000E+01 0.  1.
         -5    1    3    3    0  502  0.63400415825E+02 -0.26863956912E+01  0.67189271727E+02  0.92513242748E+02  0.41800000000E+01 0.  1.
        -11    1    1    2    0    0  0.34494571023E+02 -0.22433495170E+02  0.65272647950E+02  0.77159935887E+02  0.00000000000E+00 0. -1.
         11    1    1    2    0    0 -0.59481221986E+02 -0.31298050127E+02  0.85274807201E+02  0.10857889507E+03  0.00000000000E+00 0.  1.
</event>
<event>
 7    1  0.2794945E-009  0.1191831E+03  0.7561462E-02  0.1244451E+00
          1   -1    0    0  501    0  0.00000000000E+00  0.00000000000E+00  0.90200668202E+02  0.90200668202E+02  0.00000000000E+00 0. -1.
         -1   -1    0    0    0  501 -0.00000000000E+00 -0.00000000000E+00 -0.22060180678E+03  0.22060180678E+03  0.00000000000E+00 0.  1.
         25    2    1    2    0    0 -0.17845272770E+01  0.82611171469E+02 -0.10641533994E+03  0.18384162827E+03  0.12508289060E+03 0.  0.
          5    1    3    3  502    0  0.50874864380E+02  0.39654373409E+02 -0.94848021422E+02  0.11477953094E+03  0.41800000000E+01 0. -1.
         -5    1    3    3    0  502 -0.52659391657E+02  0.42956798060E+02 -0.11567318518E+02  0.69062097326E+02  0.41800000000E+01 0. -1.
        -11    1    1    2    0    0 -0.26872850987E+02 -0.11989408492E+02 -0.39427282255E+02  0.49197628217E+02  0.00000000000E+00 0.  1.
         11    1    1    2    0    0  0.28657378264E+02 -0.70621762978E+02  0.15441483613E+02  0.77763218498E+02  0.00000000000E+00 0. -1.
</event>
<event>
 7    1  0.2794945E-009  0.1081798E+03  0.7561462E-02  0.1263978E+00
         -2   -1    0    0    0  501 -0.00000000000E+00  0.00000000000E+00  0.38579282665E+02  0.38579282665E+02  0.00000000000E+00 0.  1.
          2   -1    0    0  501    0  0.00000000000E+00 -0.00000000000E+00 -0.42116797694E+03  0.42116797694E+03  0.00000000000E+00 0. -1.
         25    2    1    2    0    0  0.97387575197E+01 -0.56457452461E+02 -0.27556147297E+03  0.30799315527E+03  0.12507346231E+03 0.  0.
          5    1    3    3  502    0  0.56732937869E+02 -0.54005143936E+02 -0.10533250142E+03  0.13133008059E+03  0.41800000000E+01 0.  1.
         -5    1    3    3    0  502 -0.46994180350E+02 -0.24523085245E+01 -0.17022897155E+03  0.17666307469E+03  0.41800000000E+01 0.  1.
        -11    1    1    2    0    0 -0.34940915129E+02  0.76816102725E+01 -0.85678117942E+02  0.92847264798E+02  0.00000000000E+00 0. -1.
         11    1    1    2    0    0  0.25202157609E+02  0.48775842188E+02 -0.21349103361E+02  0.58906839532E+02  0.00000000000E+00 0.  1.
</event>
<event>
 7    1  0.2794945E-009  0.1347555E+03  0.7561462E-02  0.1220565E+00
          2   -1    0    0  501    0  0.00000000000E+00  0.00000000000E+00  0.24637553437E+03  0.24637553437E+03  0.00000000000E+00 0. -1.
         -2   -1    0    0    0  501 -0.00000000000E+00 -0.00000000000E+00 -0.94051709003E+02  0.94051709003E+02  0.00000000000E+00 0.  1.
         25    2    1    2    0    0 -0.55050714917E+02  0.62262157883E+02  0.79452527188E+01  0.15039707909E+03  0.12509595053E+03 0.  0.
          5    1    3    3  502    0 -0.39897470331E+02  0.98777311262E+02  0.20785839224E+02  0.10861992852E+03  0.41800000000E+01 0.  1.
         -5    1    3    3    0  502 -0.15153244586E+02 -0.36515153379E+02 -0.12840586505E+02  0.41777150568E+02  0.41800000000E+01 0.  1.
        -11    1    1    2    0    0 -0.63808403422E-01 -0.67755875413E+02  0.71665549898E+02  0.98624610350E+02  0.00000000000E+00 0. -1.
         11    1    1    2    0    0  0.55114523321E+02  0.54937175301E+01  0.72713022753E+02  0.91405553940E+02  0.00000000000E+00 0.  1.
</event>
<event>
 7    1  0.2794945E-009  0.1197568E+03  0.7561462E-02  0.1243499E+00
         -2   -1    0    0    0  501 -0.00000000000E+00  0.00000000000E+00  0.13497133264E+04  0.13497133264E+04  0.00000000000E+00 0.  1.
          2   -1    0    0  501    0  0.00000000000E+00 -0.00000000000E+00 -0.13610730998E+02  0.13610730998E+02  0.00000000000E+00 0. -1.
         25    2    1    2    0    0  0.51711642492E+02 -0.46049726130E+02  0.66575756250E+03  0.68093728547E+03  0.12509110069E+03 0.  0.
          5    1    3    3  502    0  0.58729980113E+02  0.60304866013E+01  0.55637199613E+03  0.55951125798E+03  0.41800000000E+01 0.  1.
         -5    1    3    3    0  502 -0.70183376207E+01 -0.52080212731E+02  0.10938556637E+03  0.12142602748E+03  0.41800000000E+01 0.  1.
        -11    1    1    2    0    0 -0.49671960724E+02 -0.25634588638E+02  0.29953575570E+03  0.30470658798E+03  0.00000000000E+00 0. -1.
         11    1    1    2    0    0 -0.20396817684E+01  0.71684314768E+02  0.37080927718E+03  0.37768018392E+03  0.00000000000E+00 0.  1.
</event>
<event>
 7    1  0.2794945E-009  0.9947322E+02  0.7561462E-02  0.1281408E+00
          2   -1    0    0  501    0  0.00000000000E+00  0.00000000000E+00  0.71178627219E+02  0.71178627219E+02  0.00000000000E+00 0. -1.
         -2   -1    0    0    0  501 -0.00000000000E+00 -0.00000000000E+00 -0.23032647019E+03  0.23032647019E+03  0.00000000000E+00 0.  1.
         25    2    1    2    0    0 -0.55705923057E+02 -0.24290523873E+01 -0.13518230064E+03  0.19243615337E+03  0.12509343930E+03 0.  0.
          5    1    3    3  502    0  0.89973526836E+01 -0.52805659827E+02 -0.41687783314E+02  0.68005394953E+02  0.41800000000E+01 0. -1.
         -5    1    3    3    0  502 -0.64703275741E+02  0.50376607440E+02 -0.93494517331E+02  0.12443075841E+03  0.41800000000E+01 0. -1.
        -11    1    1    2    0    0  0.39703957537E+02 -0.12087448675E+02 -0.56444296317E+02  0.70060468499E+02  0.00000000000E+00 0.  1.
         11    1    1    2    0    0  0.16001965520E+02  0.14516501062E+02  0.32478753989E+02  0.39008475544E+02  0.00000000000E+00 0. -1.
</event>
<event>
 7    1  0.2794945E-009  0.7423510E+02  0.7561462E-02  0.1346256E+00
         -1   -1    0    0    0  501 -0.00000000000E+00  0.00000000000E+00  0.13770568108E+03  0.13770568108E+03  0.00000000000E+00 0.  1.
          1   -1    0    0  501    0  0.00000000000E+00 -0.00000000000E+00 -0.10360136697E+03  0.10360136697E+03  0.00000000000E+00 0. -1.
         25    2    1    2    0    0  0.45273986433E+02 -0.99867567331E+00 -0.11148311157E+01  0.13303613647E+03  0.12508652829E+03 0.  0.
          5    1    3    3  502    0  0.36111667624E+02 -0.37764247528E+02 -0.49052140338E+02  0.71789802909E+02  0.41800000000E+01 0. -1.
         -5    1    3    3    0  502  0.91623188081E+01  0.36765571855E+02  0.47937309222E+02  0.61246333566E+02  0.41800000000E+01 0. -1.
        -11    1    1    2    0    0 -0.18381642424E+02 -0.17429758649E+02 -0.27620766643E+02  0.37477833645E+02  0.00000000000E+00 0. -1.
         11    1    1    2    0    0 -0.26892344009E+02  0.18428434323E+02  0.62839911876E+02  0.70793077927E+02  0.00000000000E+00 0.  1.
</event>
<event>
 7    1  0.2794945E-009  0.2009266E+03  0.7561462E-02  0.1148960E+00
          2   -1    0    0  501    0  0.00000000000E+00  0.00000000000E+00  0.42743091267E+03  0.42743091267E+03  0.00000000000E+00 0. -1.
         -2   -1    0    0    0  501 -0.00000000000E+00 -0.00000000000E+00 -0.10142338138E+03  0.10142338138E+03  0.00000000000E+00 0.  1.
         25    2    1    2    0    0 -0.11135336493E+03 -0.13731928917E+03  0.20106996174E+03  0.29552099405E+03  0.12508944539E+03 0.  0.
          5    1    3    3  502    0 -0.46610823268E+02  0.62756046283E+01  0.10727320945E+02  0.48420035871E+02  0.41800000000E+01 0.  1.
         -5    1    3    3    0  502 -0.64742541660E+02 -0.14359489380E+03  0.19034264079E+03  0.24710095817E+03  0.41800000000E+01 0.  1.
        -11    1    1    2    0    0  0.10776868017E+03  0.67517672072E+02  0.80859314569E+02  0.15070153689E+03  0.00000000000E+00 0. -1.
         11    1    1    2    0    0  0.35846847556E+01  0.69801617099E+02  0.44078254983E+02  0.82631763123E+02  0.00000000000E+00 0.  1.
</event>
<event>
 7    1  0.2794945E-009  0.7941643E+02  0.7561462E-02  0.1330716E+00
          2   -1    0    0  501    0  0.00000000000E+00  0.00000000000E+00  0.18281181410E+03  0.18281181410E+03  0.00000000000E+00 0. -1.
         -2   -1    0    0    0  501 -0.00000000000E+00 -0.00000000000E+00 -0.74797949806E+02  0.74797949806E+02  0.00000000000E+00 0.  1.
         25    2    1    2    0    0 -0.28342835893E+02 -0.16659397771E+02  0.92332907472E+02  0.15891529773E+03  0.12509138327E+03 0.  0.
          5    1    3    3  502    0 -0.10320269941E+02  0.41265431504E+02  0.88148127686E+02  0.97963812825E+02  0.41800000000E+01 0.  1.
         -5    1    3    3    0  502 -0.18022565952E+02 -0.57924829275E+02  0.41847797865E+01  0.60951484903E+02  0.41800000000E+01 0.  1.
        -11    1    1    2    0    0  0.18312007048E+02  0.32050351161E+02 -0.31206562123E+02  0.48336364481E+02  0.00000000000E+00 0.  1.
         11    1    1    2    0    0  0.10030828845E+02 -0.15390953390E+02  0.46887518945E+02  0.50358101696E+02  0.00000000000E+00 0. -1.
</event>
<event>
 7    1  0.2794945E-009  0.1419474E+03  0.7561462E-02  0.1210732E+00
         -1   -1    0    0    0  501 -0.00000000000E+00  0.00000000000E+00  0.70036773870E+02  0.70036773870E+02  0.00000000000E+00 0.  1.
          1   -1    0    0  501    0  0.00000000000E+00 -0.00000000000E+00 -0.32224702723E+03  0.32224702723E+03  0.00000000000E+00 0. -1.
         25    2    1    2    0    0  0.33139516621E+02  0.89720410644E+02 -0.18719215760E+03  0.24461581079E+03  0.12509201163E+03 0.  0.
          5    1    3    3  502    0  0.64804472881E+02  0.98687249462E+02 -0.11360941588E+03  0.16390047190E+03  0.41800000000E+01 0.  1.
         -5    1    3    3    0  502 -0.31664956260E+02 -0.89668388186E+01 -0.73582741727E+02  0.80715338898E+02  0.41800000000E+01 0.  1.
        -11    1    1    2    0    0 -0.17896097170E+02  0.17057621981E+02 -0.12039577725E+02  0.27498803490E+02  0.00000000000E+00 0.  1.
         11    1    1    2    0    0 -0.15243419451E+02 -0.10677803262E+03 -0.52978518033E+02  0.12016918682E+03  0.00000000000E+00 0. -1.
</event>
<event>
 7    1  0.2794945E-009  0.1158900E+03  0.7561462E-02  0.1250035E+00
          4   -1    0    0  501    0  0.00000000000E+00  0.00000000000E+00  0.54942758676E+03  0.54942758676E+03  0.00000000000E+00 0. -1.
         -4   -1    0    0    0  501 -0.00000000000E+00 -0.00000000000E+00 -0.31310860942E+02  0.31310860942E+02  0.00000000000E+00 0.  1.
         25    2    1    2    0    0  0.60588305681E+02  0.12988008834E+02  0.37029530115E+03  0.39573399552E+03  0.12508858461E+03 0.  0.
          5    1    3    3  502    0 -0.11927444458E+02  0.53106567630E+02  0.11515162273E+03  0.12743602345E+03  0.41800000000E+01 0.  1.
         -5    1    3    3    0  502  0.72515750139E+02 -0.40118558796E+02  0.25514367842E+03  0.26829797207E+03  0.41800000000E+01 0.  1.
        -11    1    1    2    0    0 -0.72061019762E+02  0.56963374231E+01  0.58384636672E+02  0.92919344748E+02  0.00000000000E+00 0.  1.
         11    1    1    2    0    0  0.11472714081E+02 -0.18684346257E+02  0.89436788001E+02  0.92085107435E+02  0.00000000000E+00 0. -1.
</event>
<event>
 7    1  0.2794945E-009  0.4097950E+02  0.7561462E-02  0.1501125E+00
          1   -1    0    0  501    0  0.00000000000E+00  0.00000000000E+00  0.27438633739E+03  0.27438633739E+03  0.00000000000E+00 0.  1.
         -1   -1    0    0    0  501 -0.00000000000E+00 -0.00000000000E+00 -0.48531629703E+02  0.48531629703E+02  0.00000000000E+00 0. -1.
         25    2    1    2    0    0  0.17030225259E+02 -0.17538054295E+02  0.17501032882E+03  0.21651083794E+03  0.12510282104E+03 0.  0.
          5    1    3    3  502    0  0.52996727620E+01  0.42959472678E+01 -0.19137496850E+02  0.20742658460E+02  0.41800000000E+01 0.  1.
         -5    1    3    3    0  502  0.11730552497E+02 -0.21834001563E+02  0.19414782567E+03  0.19576817948E+03  0.41800000000E+01 0.  1.
        -11    1    1    2    0    0 -0.19942217822E+02  0.30000725509E+02  0.72668217751E+02  0.81107369910E+02  0.00000000000E+00 0.  1.
         11    1    1    2    0    0  0.29119925630E+01 -0.12462671214E+02 -0.21823838877E+02  0.25299759244E+02  0.00000000000E+00 0. -1.
</event>
<event>
 7    1  0.2940805E-009  0.9243496E+02  0.7561462E-02  0.1297060E+00
          2   -1    0    0  501    0  0.00000000000E+00  0.00000000000E+00  0.31575158536E+03  0.31575158536E+03  0.00000000000E+00 0. -1.
         -2   -1    0    0    0  501 -0.00000000000E+00 -0.00000000000E+00 -0.44526933400E+02  0.44526933400E+02  0.00000000000E+00 0.  1.
         25    2    1    2    0    0 -0.44125718273E+02 -0.12580100894E+02  0.13032252825E+03  0.18637825711E+03  0.12509018908E+03 0.  0.
          5    1    3    3  502    0  0.35783775704E+02  0.13898742805E+00  0.87735382353E+02  0.94844439150E+02  0.41800000000E+01 0.  1.
         -5    1    3    3    0  502 -0.79909493977E+02 -0.12719088322E+02  0.42587145897E+02  0.91533817963E+02  0.41800000000E+01 0.  1.
        -11    1    1    2    0    0  0.51558513942E+02 -0.18453294017E+01  0.14759080714E+03  0.15634811144E+03  0.00000000000E+00 0. -1.
         11    1    1    2    0    0 -0.74327956695E+01  0.14425430295E+02 -0.66886834288E+01  0.17552150201E+02  0.00000000000E+00 0.  1.
</event>
<event>
 7    1  0.2794945E-009  0.1049400E+03  0.7561462E-02  0.1270238E+00
          2   -1    0    0  501    0  0.00000000000E+00  0.00000000000E+00  0.18392947775E+03  0.18392947775E+03  0.00000000000E+00 0. -1.
         -2   -1    0    0    0  501 -0.00000000000E+00 -0.00000000000E+00 -0.65787937255E+02  0.65787937255E+02  0.00000000000E+00 0.  1.
         25    2    1    2    0    0 -0.17403353241E+01  0.24337983735E+02  0.60982968444E+02  0.14129127584E+03  0.12509570724E+03 0.  0.
          5    1    3    3  502    0  0.56937367851E+02  0.19858453084E+02  0.61675088393E+01  0.60759629541E+02  0.41800000000E+01 0.  1.
         -5    1    3    3    0  502 -0.58677703175E+02  0.44795306519E+01  0.54815459605E+02  0.80531646304E+02  0.41800000000E+01 0.  1.
        -11    1    1    2    0    0  0.39798789553E+02 -0.32654928980E+02  0.22125951650E+02  0.56034326738E+02  0.00000000000E+00 0.  1.
         11    1    1    2    0    0 -0.38058454229E+02  0.83169452448E+01  0.35032620399E+02  0.52391812419E+02  0.00000000000E+00 0. -1.
</event>
<event>
 7    1  0.2794945E-009  0.1122402E+03  0.7561462E-02  0.1256477E+00
         -3   -1    0    0    0  501 -0.00000000000E+00  0.00000000000E+00  0.13211637556E+03  0.13211637556E+03  0.00000000000E+00 0.  1.
          3   -1    0    0  501    0  0.00000000000E+00 -0.00000000000E+00 -0.13899171179E+03  0.13899171179E+03  0.00000000000E+00 0. -1.
         25    2    1    2    0    0 -0.62811583676E+02  0.11099105723E+02  0.46899015079E+02  0.14801575821E+03  0.12506263180E+03 0.  0.
          5    1    3    3  502    0 -0.68507949040E+02 -0.35076148141E+02  0.62003138878E+02  0.98921872611E+02  0.41800000000E+01 0. -1.
         -5    1    3    3    0  502  0.56963653637E+01  0.46175253864E+02 -0.15104123800E+02  0.49093885602E+02  0.41800000000E+01 0. -1.
        -11    1    1    2    0    0 -0.24259802546E+01  0.25682471370E+02  0.69033716743E+01  0.26704517527E+02  0.00000000000E+00 0.  1.
         11    1    1    2    0    0  0.65237563931E+02 -0.36781577094E+02 -0.60677722983E+02  0.96387811613E+02  0.00000000000E+00 0. -1.
</event>
<event>
 7    1  0.2794945E-009  0.1086582E+03  0.7561462E-02  0.1263075E+00
         -2   -1    0    0    0  501 -0.00000000000E+00  0.00000000000E+00  0.26237461068E+02  0.26237461068E+02  0.00000000000E+00 0.  1.
          2   -1    0    0  501    0  0.00000000000E+00 -0.00000000000E+00 -0.11036470089E+04  0.11036470089E+04  0.00000000000E+00 0. -1.
         25    2    1    2    0    0 -0.14675813731E+02  0.79928941416E+02 -0.90802548713E+03  0.92019644239E+03  0.12508873698E+03 0.  0.
          5    1    3    3  502    0 -0.28068392751E+02  0.82074359251E+02 -0.89941124081E+03  0.90359398383E+03  0.41800000000E+01 0.  1.
         -5    1    3    3    0  502  0.13392579020E+02 -0.21454178345E+01 -0.86142463212E+01  0.16602458558E+02  0.41800000000E+01 0.  1.
        -11    1    1    2    0    0 -0.34575092407E+02 -0.26091048476E+02 -0.31065727240E+02  0.53303463626E+02  0.00000000000E+00 0.  1.
         11    1    1    2    0    0  0.49250906138E+02 -0.53837892940E+02 -0.13831833344E+03  0.15638456394E+03  0.00000000000E+00 0. -1.
</event>
<event>
 7    1  0.2794945E-009  0.1125194E+03  0.7561462E-02  0.1255974E+00
         -1   -1    0    0    0  501 -0.00000000000E+00  0.00000000000E+00  0.22199990297E+03  0.22199990297E+03  0.00000000000E+00 0.  1.
          1   -1    0    0  501    0  0.00000000000E+00 -0.00000000000E+00 -0.85264454610E+02  0.85264454610E+02  0.00000000000E+00 0. -1.
         25    2    1    2    0    0 -0.53525941972E+02  0.58685535235E+02  0.34570872107E+02  0.15215425855E+03  0.12508698848E+03 0.  0.
          5    1    3    3  502    0  0.80830321819E+01 -0.30259092838E+02  0.30320456911E+02  0.43792129612E+02  0.41800000000E+01 0.  1.
         -5    1    3    3    0  502 -0.61608974154E+02  0.88944628073E+02  0.42504151963E+01  0.10836212894E+03  0.41800000000E+01 0.  1.
        -11    1    1    2    0    0  0.29934596069E+02 -0.53040914963E+02  0.11313526213E+03  0.12848737774E+03  0.00000000000E+00 0.  1.
         11    1    1    2    0    0  0.23591345903E+02 -0.56446202721E+01 -0.10970685883E+02  0.26622721278E+02  0.00000000000E+00 0. -1.
</event>
<event>
 7    1  0.2794945E-009  0.1123422E+03  0.7561462E-02  0.1256293E+00
         -2   -1    0    0    0  501 -0.00000000000E+00  0.00000000000E+00  0.29211370368E+03  0.29211370368E+03  0.00000000000E+00 0.  1.
          2   -1    0    0  501    0  0.00000000000E+00 -0.00000000000E+00 -0.62733696580E+02  0.62733696580E+02  0.00000000000E+00 0. -1.
         25    2    1    2    0    0  0.13603546443E+02  0.74798143781E+02  0.15844734918E+03  0.21570932908E+03  0.12508050768E+03 0.  0.
          5    1    3    3  502    0 -0.51458734643E+02  0.53069237265E+02  0.58236235463E+02  0.94198072358E+02  0.41800000000E+01 0.  1.
         -5    1    3    3    0  502  0.65062281086E+02  0.21728906516E+02  0.10021111371E+03  0.12151125672E+03  0.41800000000E+01 0.  1.
        -11    1    1    2    0    0  0.94077943549E+01 -0.31699259185E+02 -0.18015425265E+02  0.37655081662E+02  0.00000000000E+00 0. -1.
         11    1    1    2    0    0 -0.23011340798E+02 -0.43098884596E+02  0.88948083191E+02  0.10148298952E+03  0.00000000000E+00 0.  1.
</event>
<event>
 7    1  0.2794945E-009  0.1014676E+03  0.7561462E-02  0.1277240E+00
         -1   -1    0    0    0  501 -0.00000000000E+00  0.00000000000E+00  0.52621642064E+02  0.52621642064E+02  0.00000000000E+00 0.  1.
          1   -1    0    0  501    0  0.00000000000E+00 -0.00000000000E+00 -0.24142243571E+03  0.24142243571E+03  0.00000000000E+00 0. -1.
         25    2    1    2    0    0  0.10768258699E+02 -0.63906873069E+01 -0.11208376602E+03  0.16842519808E+03  0.12508988952E+03 0.  0.
          5    1    3    3  502    0 -0.28144729143E+02 -0.47204000518E+02 -0.16788944947E+02  0.57616703445E+02  0.41800000000E+01 0. -1.
         -5    1    3    3    0  502  0.38912987842E+02  0.40813313211E+02 -0.95294821078E+02  0.11080849463E+03  0.41800000000E+01 0. -1.
        -11    1    1    2    0    0 -0.25175783103E+02 -0.37450044986E+02 -0.62965684949E+02  0.77466143608E+02  0.00000000000E+00 0. -1.
         11    1    1    2    0    0  0.14407524405E+02  0.43840732293E+02 -0.13751342667E+02  0.48152736086E+02  0.00000000000E+00 0.  1.
</event>
<event>
 7    1  0.2794945E-009  0.8300149E+02  0.7561462E-02  0.1320743E+00
          4   -1    0    0  501    0  0.00000000000E+00  0.00000000000E+00  0.90640515515E+02  0.90640515515E+02  0.00000000000E+00 0. -1.
         -4   -1    0    0    0  501 -0.00000000000E+00 -0.00000000000E+00 -0.16036099689E+03  0.16036099689E+03  0.00000000000E+00 0.  1.
         25    2    1    2    0    0 -0.16201834814E+02  0.47096817895E+02 -0.43614240020E+02  0.14153845029E+03  0.12510124408E+03 0.  0.
          5    1    3    3  502    0 -0.26925764317E+02  0.24486821400E+02 -0.85246359393E+02  0.92784779980E+02  0.41800000000E+01 0.  1.
         -5    1    3    3    0  502  0.10723929503E+02  0.22609996495E+02  0.41632119372E+02  0.48753670312E+02  0.41800000000E+01 0.  1.
        -11    1    1    2    0    0 -0.31002090191E+02  0.74270069969E+01 -0.18715435523E+02  0.36966979265E+02  0.00000000000E+00 0. -1.
         11    1    1    2    0    0  0.47203925006E+02 -0.54523824892E+02 -0.73908058263E+01  0.72496082843E+02  0.00000000000E+00 0.  1.
</event>
<event>
 7    1  0.2794945E-009  0.1137170E+03  0.7561462E-02  0.1253837E+00
         -1   -1    0    0    0  501 -0.00000000000E+00  0.00000000000E+00  0.23168661321E+03  0.23168661321E+03  0.00000000000E+00 0.  1.
          1   -1    0    0  501    0  0.00000000000E+00 -0.00000000000E+00 -0.10094650871E+03  0.10094650871E+03  0.00000000000E+00 0. -1.
         25    2    1    2    0    0  0.29017895614E+02  0.21645042790E+02 -0.38434381741E+02  0.13577614300E+03  0.12508962053E+03 0.  0.
          5    1    3    3  502    0  0.11769597292E+02  0.72159410733E+02 -0.37388540430E+02  0.82224566482E+02  0.41800000000E+01 0.  1.
         -5    1    3    3    0  502  0.17248298322E+02 -0.50514367943E+02 -0.10458413117E+01  0.53551576519E+02  0.41800000000E+01 0.  1.
        -11    1    1    2    0    0 -0.37504113794E+02  0.30183560697E+02  0.80504184766E+02  0.93800477892E+02  0.00000000000E+00 0.  1.
         11    1    1    2    0    0  0.84862181798E+01 -0.51828603487E+02  0.88670301480E+02  0.10305650102E+03  0.00000000000E+00 0. -1.
</event>
<event>
 7    1  0.2794945E-009  0.9047348E+02  0.7561462E-02  0.1301709E+00
         -1   -1    0    0    0  501 -0.00000000000E+00  0.00000000000E+00  0.23676548640E+03  0.23676548640E+03  0.00000000000E+00 0.  1.
          1   -1    0    0  501    0  0.00000000000E+00 -0.00000000000E+00 -0.10427768266E+03  0.10427768266E+03  0.00000000000E+00 0. -1.
         25    2    1    2    0    0  0.27935979721E+02 -0.80774404865E+02 -0.93528175130E+01  0.15178839856E+03  0.12508924533E+03 0.  0.
          5    1    3    3  502    0  0.30725754670E+02 -0.66224082579E+02 -0.62662674895E+02  0.96300489815E+02  0.41800000000E+01 0.  1.
         -5    1    3    3    0  502 -0.27897749494E+01 -0.14550322286E+02  0.53309857382E+02  0.55487908746E+02  0.41800000000E+01 0.  1.
        -11    1    1    2    0    0 -0.21319938883E+00  0.53627743291E+02  0.13674435009E+02  0.55344109689E+02  0.00000000000E+00 0. -1.
         11    1    1    2    0    0 -0.27722780332E+02  0.27146661574E+02  0.12816618624E+03  0.13391066081E+03  0.00000000000E+00 0.  1.
</event>
<event>
 7    1  0.2794945E-009  0.8869148E+02  0.7561462E-02  0.1306052E+00
          1   -1    0    0  501    0  0.00000000000E+00  0.00000000000E+00  0.87314729707E+02  0.87314729707E+02  0.00000000000E+00 0. -1.
         -1   -1    0    0    0  501 -0.00000000000E+00 -0.00000000000E+00 -0.16557695001E+03  0.16557695001E+03  0.00000000000E+00 0.  1.
         25    2    1    2    0    0  0.29863638103E+02 -0.33103845277E+02 -0.79097436854E+02  0.15456870641E+03  0.12508948409E+03 0.  0.
          5    1    3    3  502    0  0.53790340866E+02 -0.69811225843E+02 -0.59296971592E+02  0.10630433323E+03  0.41800000000E+01 0. -1.
         -5    1    3    3    0  502 -0.23926702763E+02  0.36707380566E+02 -0.19800465261E+02  0.48264373172E+02  0.41800000000E+01 0. -1.
        -11    1    1    2    0    0 -0.16629586426E+02  0.23487333015E+02  0.43766556032E+02  0.52380429396E+02  0.00000000000E+00 0. -1.
         11    1    1    2    0    0 -0.13234051677E+02  0.96165122616E+01 -0.42931339484E+02  0.45942543919E+02  0.00000000000E+00 0.  1.
</event>
<event>
 7    1  0.2794945E-009  0.7585426E+02  0.7561462E-02  0.1341246E+00
         -2   -1    0    0    0  501 -0.00000000000E+00  0.00000000000E+00  0.38166324689E+02  0.38166324689E+02  0.00000000000E+00 0.  1.
          2   -1    0    0  501    0  0.00000000000E+00 -0.00000000000E+00 -0.38465337693E+03  0.38465337693E+03  0.00000000000E+00 0. -1.
         25    2    1    2    0    0 -0.40362471507E+02  0.40805366590E+02 -0.16212401921E+03  0.21266288451E+03  0.12508835995E+03 0.  0.
          5    1    3    3  502    0 -0.13424353486E+02  0.43728434331E+01 -0.16631722257E+03  0.16696773925E+03  0.41800000000E+01 0.  1.
         -5    1    3    3    0  502 -0.26938118020E+02  0.36432523157E+02  0.41932033625E+01  0.45695145262E+02  0.41800000000E+01 0.  1.
        -11    1    1    2    0    0 -0.14786751214E+02 -0.32506531524E+02 -0.32161154720E+02  0.48058947929E+02  0.00000000000E+00 0. -1.
         11    1    1    2    0    0  0.55149222721E+02 -0.82988350667E+01 -0.15220187831E+03  0.16209786918E+03  0.00000000000E+00 0.  1.
</event>
<event>
 7    1  0.2794945E-009  0.9030885E+02  0.7561462E-02  0.1302105E+00
          1   -1    0    0  501    0  0.00000000000E+00  0.00000000000E+00  0.59983102609E+02  0.59983102609E+02  0.00000000000E+00 0. -1.
         -1   -1    0    0    0  501 -0.00000000000E+00 -0.00000000000E+00 -0.24621791260E+03  0.24621791260E+03  0.00000000000E+00 0.  1.
         25    2    1    2    0    0 -0.24660601860E+02 -0.15172435021E+02 -0.16575207087E+03  0.20966539159E+03  0.12508988513E+03 0.  0.
          5    1    3    3  502    0 -0.74605438349E+02 -0.21603895886E+02 -0.10415747546E+03  0.12999596857E+03  0.41800000000E+01 0. -1.
         -5    1    3    3    0  502  0.49944836489E+02  0.64314608643E+01 -0.61594595410E+02  0.79669423021E+02  0.41800000000E+01 0. -1.
        -11    1    1    2    0    0  0.36344905700E+02  0.47627382034E+01 -0.50666861880E+02  0.62536123467E+02  0.00000000000E+00 0.  1.
         11    1    1    2    0    0 -0.11684303840E+02  0.10409696818E+02  0.30184122760E+02  0.33999500156E+02  0.00000000000E+00 0. -1.
</event>
<event>
 7    1  0.2794945E-009  0.1267408E+03  0.7561462E-02  0.1232374E+00
          1   -1    0    0  501    0  0.00000000000E+00  0.00000000000E+00  0.10704885472E+04  0.10704885472E+04  0.00000000000E+00 0. -1.
         -1   -1    0    0    0  501 -0.00000000000E+00 -0.00000000000E+00 -0.15620707737E+02  0.15620707737E+02  0.00000000000E+00 0.  1.
         25    2    1    2    0    0  0.65161973444E+02 -0.95159187425E+01  0.47960493686E+03  0.50000523771E+03  0.12509079416E+03 0.  0.
          5    1    3    3  502    0  0.61265170045E+02 -0.62765790177E+02  0.29892718269E+03  0.31155721534E+03  0.41800000000E+01 0. -1.
         -5    1    3    3    0  502  0.38968033990E+01  0.53249871434E+02  0.18067775417E+03  0.18844802237E+03  0.41800000000E+01 0. -1.
        -11    1    1    2    0    0 -0.82067587804E+02  0.28333093387E+02  0.45506652366E+03  0.46327464220E+03  0.00000000000E+00 0.  1.
         11    1    1    2    0    0  0.16905614360E+02 -0.18817174645E+02  0.12019637890E+03  0.12282937498E+03  0.00000000000E+00 0. -1.
</event>
<event>
 7    1  0.2794945E-009  0.9714305E+02  0.7561462E-02  0.1286421E+00
         -1   -1    0    0    0  501 -0.00000000000E+00  0.00000000000E+00  0.11004923608E+03  0.11004923608E+03  0.00000000000E+00 0.  1.
          1   -1    0    0  501    0  0.00000000000E+00 -0.00000000000E+00 -0.23541983771E+03  0.23541983771E+03  0.00000000000E+00 0. -1.
         25    2    1    2    0    0 -0.88775603260E+02 -0.18239258460E+02  0.16111837016E+02  0.15531128567E+03  0.12509286903E+03 0.  0.
          5    1    3    3  502    0  0.33528072797E+01  0.74919413284E+00  0.53667941606E+02  0.53939994111E+02  0.41800000000E+01 0. -1.
         -5    1    3    3    0  502 -0.92128410540E+02 -0.18988452593E+02 -0.37556104590E+02  0.10137129156E+03  0.41800000000E+01 0. -1.
        -11    1    1    2    0    0  0.80926885683E+02  0.24634697692E+02 -0.15299652409E+03  0.17482552885E+03  0.00000000000E+00 0. -1.
         11    1    1    2    0    0  0.78487175775E+01 -0.63954392320E+01  0.11514085436E+02  0.15332259260E+02  0.00000000000E+00 0.  1.
</event>
<event>
 7    1  0.2794945E-009  0.1083185E+03  0.7561462E-02  0.1263716E+00
         -2   -1    0    0    0  501 -0.00000000000E+00  0.00000000000E+00  0.55379817200E+02  0.55379817200E+02  0.00000000000E+00 0.  1.
          2   -1    0    0  501    0  0.00000000000E+00 -0.00000000000E+00 -0.30909060693E+03  0.30909060693E+03  0.00000000000E+00 0. -1.
         25    2    1    2    0    0 -0.37712343955E+02 -0.58936746586E+02 -0.15280285592E+03  0.20950255046E+03  0.12508734904E+03 0.  0.
          5    1    3    3  502    0 -0.93600269140E+01 -0.93084368086E+02 -0.75605784881E+02  0.12035786968E+03  0.41800000000E+01 0. -1.
         -5    1    3    3    0  502 -0.28352317041E+02  0.34147621500E+02 -0.77197071039E+02  0.89144680787E+02  0.41800000000E+01 0. -1.
        -11    1    1    2    0    0  0.43493362919E+02  0.41797038891E+02 -0.11643279105E+03  0.13113069781E+03  0.00000000000E+00 0. -1.
         11    1    1    2    0    0 -0.57810189634E+01  0.17139707695E+02  0.15524857240E+02  0.23837175849E+02  0.00000000000E+00 0.  1.
</event>
<event>
 7    1  0.2794945E-009  0.1172671E+03  0.7561462E-02  0.1247675E+00
          1   -1    0    0  501    0  0.00000000000E+00  0.00000000000E+00  0.36460987066E+03  0.36460987066E+03  0.00000000000E+00 0. -1.
         -1   -1    0    0    0  501 -0.00000000000E+00 -0.00000000000E+00 -0.59632358895E+02  0.59632358895E+02  0.00000000000E+00 0.  1.
         25    2    1    2    0    0  0.18340600287E+02 -0.43971740970E+02  0.38726045492E+02  0.13934345402E+03  0.12508796886E+03 0.  0.
          5    1    3    3  502    0 -0.61377173703E+01 -0.85202411800E+02  0.28394551689E+02  0.90115734013E+02  0.41800000000E+01 0. -1.
         -5    1    3    3    0  502  0.24478317658E+02  0.41230670830E+02  0.10331493803E+02  0.49227720003E+02  0.41800000000E+01 0. -1.
        -11    1    1    2    0    0 -0.35087828837E+02  0.65077801329E+02  0.20705375758E+03  0.21985798708E+03  0.00000000000E+00 0.  1.
         11    1    1    2    0    0  0.16747228549E+02 -0.21106060360E+02  0.59197708696E+02  0.65040788455E+02  0.00000000000E+00 0. -1.
</event>
<event>
 7    1  0.2794945E-009  0.1550187E+03  0.7561462E-02  0.1194438E+00
          1   -1    0    0  501    0  0.00000000000E+00  0.00000000000E+00  0.13036881072E+04  0.13036881072E+04  0.00000000000E+00 0. -1.
         -1   -1    0    0    0  501 -0.00000000000E+00 -0.00000000000E+00 -0.21110129590E+02  0.21110129590E+02  0.00000000000E+00 0.  1.
         25    2    1    2    0    0 -0.12284991721E+03 -0.46565543978E+01  0.79545790702E+03  0.81456418614E+03  0.12509095030E+03 0.  0.
          5    1    3    3  502    0 -0.14782254918E+03 -0.13385896525E+02  0.66263946493E+03  0.67907232395E+03  0.41800000000E+01 0.  1.
         -5    1    3    3    0  502  0.24972631964E+02  0.87293421271E+01  0.13281844209E+03  0.13549186220E+03  0.41800000000E+01 0.  1.
        -11    1    1    2    0    0  0.88427027517E+02 -0.22126978645E+02  0.42284143952E+03  0.43255499692E+03  0.00000000000E+00 0. -1.
         11    1    1    2    0    0  0.34422889694E+02  0.26783533043E+02  0.64278631072E+02  0.77679053738E+02  0.00000000000E+00 0.  1.
</event>
<event>
 7    1  0.2794945E-009  0.9263634E+02  0.7561462E-02  0.1296590E+00
         -1   -1    0    0    0  501 -0.00000000000E+00  0.00000000000E+00  0.37700729753E+02  0.37700729753E+02  0.00000000000E+00 0.  1.
          1   -1    0    0  501    0  0.00000000000E+00 -0.00000000000E+00 -0.46004714761E+03  0.46004714761E+03  0.00000000000E+00 0. -1.
         25    2    1    2    0    0  0.51775242870E+02 -0.38653210347E+00 -0.33740941670E+03  0.36355718392E+03  0.12509151179E+03 0.  0.
          5    1    3    3  502    0  0.23995717652E+02  0.49443525901E+02 -0.26802099511E+03  0.27362964558E+03  0.41800000000E+01 0.  1.
         -5    1    3    3    0  502  0.27779525218E+02 -0.49830058005E+02 -0.69388421588E+02  0.89927538344E+02  0.41800000000E+01 0.  1.
        -11    1    1    2    0    0 -0.22405675222E+02  0.25759368419E+02  0.65937654804E+01  0.34771210601E+02  0.00000000000E+00 0.  1.
         11    1    1    2    0    0 -0.29369567649E+02 -0.25372836315E+02 -0.91530766639E+02  0.99419482839E+02  0.00000000000E+00 0. -1.
</event>
<event>
 7    1  0.2794945E-009  0.1146856E+03  0.7561462E-02  0.1252131E+00
         -1   -1    0    0    0  501 -0.00000000000E+00  0.00000000000E+00  0.43601782543E+02  0.43601782543E+02  0.00000000000E+00 0.  1.
          1   -1    0    0  501    0  0.00000000000E+00 -0.00000000000E+00 -0.48008325971E+03  0.48008325971E+03  0.00000000000E+00 0. -1.
         25    2    1    2    0    0 -0.90527467703E+02  0.35294252121E+02 -0.20018378266E+03  0.25526679361E+03  0.12508669968E+03 0.  0.
          5    1    3    3  502    0 -0.79136720072E+02 -0.12902261521E+02 -0.18750864521E+03  0.20397561924E+03  0.41800000000E+01 0. -1.
         -5    1    3    3    0  502 -0.11390747631E+02  0.48196513642E+02 -0.12675137451E+02  0.51291174370E+02  0.41800000000E+01 0. -1.
        -11    1    1    2    0    0  0.60818299244E+02 -0.33923478262E+02 -0.67374039992E+02  0.96896486857E+02  0.00000000000E+00 0.  1.
         11    1    1    2    0    0  0.29709168459E+02 -0.13707738593E+01 -0.16892365451E+03  0.17152176179E+03  0.00000000000E+00 0. -1.
</event>
<event>
 7    1  0.2794945E-009  0.1156028E+03  0.7561462E-02  0.1250533E+00
          1   -1    0    0  501    0  0.00000000000E+00  0.00000000000E+00  0.87638987281E+03  0.87638987281E+03  0.00000000000E+00 0. -1.
         -1   -1    0    0    0  501 -0.00000000000E+00 -0.00000000000E+00 -0.15370005580E+02  0.15370005580E+02  0.00000000000E+00 0.  1.
         25    2    1    2    0    0  0.17124508555E+02  0.40422472476E+02  0.50561959054E+03  0.52270990533E+03  0.12508896721E+03 0.  0.
          5    1    3    3  502    0 -0.47001947346E+02 -0.12270607084E+02  0.16160186073E+03  0.16879687392E+03  0.41800000000E+01 0.  1.
         -5    1    3    3    0  502  0.64126455901E+02  0.52693079560E+02  0.34401772981E+03  0.35391303141E+03  0.41800000000E+01 0.  1.
        -11    1    1    2    0    0 -0.53617473668E+02 -0.18219729090E+02  0.21056481968E+03  0.21804663560E+03  0.00000000000E+00 0. -1.
         11    1    1    2    0    0  0.36492965113E+02 -0.22202743387E+02  0.14483545701E+03  0.15100333746E+03  0.00000000000E+00 0.  1.
</event>
<event>
 7    1  0.2794945E-009  0.1121747E+03  0.7561462E-02  0.1256595E+00
          1   -1    0    0  501    0  0.00000000000E+00  0.00000000000E+00  0.12774587990E+03  0.12774587990E+03  0.00000000000E+00 0. -1.
         -1   -1    0    0    0  501 -0.00000000000E+00 -0.00000000000E+00 -0.11781709741E+03  0.11781709741E+03  0.00000000000E+00 0.  1.
         25    2    1    2    0    0  0.26697912492E+02  0.48918844984E+02 -0.96433547610E+01  0.13728239745E+03  0.12509048898E+03 0.  0.
          5    1    3    3  502    0  0.67440192560E+02  0.42005964283E+02  0.24784931679E+02  0.83333341744E+02  0.41800000000E+01 0. -1.
         -5    1    3    3    0  502 -0.40742280068E+02  0.69128807014E+01 -0.34428286440E+02  0.53949055709E+02  0.41800000000E+01 0. -1.
        -11    1    1    2    0    0 -0.34869472551E+02 -0.71330207553E+02  0.34173084254E+01  0.79470476420E+02  0.00000000000E+00 0.  1.
         11    1    1    2    0    0  0.81715600589E+01  0.22411362569E+02  0.16154828822E+02  0.28810103441E+02  0.00000000000E+00 0. -1.
</event>
<event>
 7    1  0.2794945E-009  0.8467894E+02  0.7561462E-02  0.1316274E+00
          1   -1    0    0  501    0  0.00000000000E+00  0.00000000000E+00  0.35237630030E+03  0.35237630030E+03  0.00000000000E+00 0. -1.
         -1   -1    0    0    0  501 -0.00000000000E+00 -0.00000000000E+00 -0.39290889112E+02  0.39290889112E+02  0.00000000000E+00 0.  1.
         25    2    1    2    0    0 -0.13278990131E+01 -0.30674556848E+02  0.12182827406E+03  0.17728877696E+03  0.12508593175E+03 0.  0.
          5    1    3    3  502    0 -0.31606542006E+02  0.51433913345E-01  0.12941982001E+03  0.13328892810E+03  0.41800000000E+01 0.  1.
         -5    1    3    3    0  502  0.30278642993E+02 -0.30725990761E+02 -0.75915459480E+01  0.43999848859E+02  0.41800000000E+01 0.  1.
        -11    1    1    2    0    0 -0.84167962594E+01 -0.30781893172E+02  0.90440453449E+02  0.95905385806E+02  0.00000000000E+00 0. -1.
         11    1    1    2    0    0  0.97446952724E+01  0.61456450020E+02  0.10081668368E+03  0.11847302665E+03  0.00000000000E+00 0.  1.
</event>
<event>
 7    1  0.2794945E-009  0.8766798E+02  0.7561462E-02  0.1308599E+00
          1   -1    0    0  501    0  0.00000000000E+00  0.00000000000E+00  0.25864854909E+03  0.25864854909E+03  0.00000000000E+00 0. -1.
         -1   -1    0    0    0  501 -0.00000000000E+00 -0.00000000000E+00 -0.49464143122E+02  0.49464143122E+02  0.00000000000E+00 0.  1.
         25    2    1    2    0    0 -0.21857756561E+02  0.12305576065E+02  0.13607357018E+03  0.18652858260E+03  0.12509079463E+03 0.  0.
          5    1    3    3  502    0 -0.34990765991E+02  0.39908149012E+02  0.14495555550E+03  0.15442344230E+03  0.41800000000E+01 0.  1.
         -5    1    3    3    0  502  0.13133009430E+02 -0.27602572947E+02 -0.88819853235E+01  0.32105140294E+02  0.41800000000E+01 0.  1.
        -11    1    1    2    0    0 -0.30448775057E+02  0.13036008758E+02  0.47884751835E+02  0.58223834339E+02  0.00000000000E+00 0. -1.
         11    1    1    2    0    0  0.52306531617E+02 -0.25341584823E+02  0.25226083953E+02  0.63360275274E+02  0.00000000000E+00 0.  1.
</event>
<event>
 7    1  0.2794945E-009  0.9788697E+02  0.7561462E-02  0.1284803E+00
         -3   -1    0    0    0  501 -0.00000000000E+00  0.00000000000E+00  0.34145812152E+03  0.34145812152E+03  0.00000000000E+00 0.  1.
          3   -1    0    0  501    0  0.00000000000E+00 -0.00000000000E+00 -0.34901011091E+02  0.34901011091E+02  0.00000000000E+00 0. -1.
         25    2    1    2    0    0 -0.52895461672E+01 -0.17770386178E+02  0.19287962969E+03  0.23063219952E+03  0.12507955063E+03 0.  0.
          5    1    3    3  502    0 -0.57474594005E+02 -0.37051260583E+02  0.12702746474E+03  0.14432454423E+03  0.41800000000E+01 0.  1.
         -5    1    3    3    0  502  0.52185047838E+02  0.19280874405E+02  0.65852164943E+02  0.86307655300E+02  0.41800000000E+01 0.  1.
        -11    1    1    2    0    0  0.28039716127E+01 -0.26743983548E+02  0.92574704507E+02  0.96401134990E+02  0.00000000000E+00 0.  1.
         11    1    1    2    0    0  0.24855745546E+01  0.44514369726E+02  0.21102776236E+02  0.49325798096E+02  0.00000000000E+00 0. -1.
</event>
<event>
 7    1  0.2794945E-009  0.1141551E+03  0.7561462E-02  0.1253063E+00
         -4   -1    0    0    0  501 -0.00000000000E+00  0.00000000000E+00  0.72704298171E+02  0.72704298171E+02  0.00000000000E+00 0. -1.
          4   -1    0    0  501    0  0.00000000000E+00 -0.00000000000E+00 -0.29262824843E+03  0.29262824843E+03  0.00000000000E+00 0.  1.
         25    2    1    2    0    0  0.65823489153E+02 -0.65422503129E+02 -0.82030654729E+02  0.17604545938E+03  0.12510051883E+03 0.  0.
          5    1    3    3  502    0  0.26936270503E+02  0.66744587996E+01 -0.89391764411E+02  0.93693495044E+02  0.41800000000E+01 0. -1.
         -5    1    3    3    0  502  0.38887218650E+02 -0.72096961929E+02  0.73611096823E+01  0.82351964332E+02  0.41800000000E+01 0. -1.
        -11    1    1    2    0    0 -0.59535881108E+02  0.81517970787E+02 -0.13921028312E+03  0.17195698190E+03  0.00000000000E+00 0.  1.
         11    1    1    2    0    0 -0.62876080448E+01 -0.16095467658E+02  0.13169875881E+01  0.17330105319E+02  0.00000000000E+00 0. -1.
</event>
<event>
 7    1  0.2794945E-009  0.7180736E+02  0.7561462E-02  0.1354053E+00
         -2   -1    0    0    0  501 -0.00000000000E+00  0.00000000000E+00  0.24959455153E+03  0.24959455153E+03  0.00000000000E+00 0. -1.
          2   -1    0    0  501    0  0.00000000000E+00 -0.00000000000E+00 -0.87712335432E+02  0.87712335432E+02  0.00000000000E+00 0.  1.
         25    2    1    2    0    0  0.32514510170E+02 -0.19784548514E+02  0.19303895345E+03  0.23315265805E+03  0.12508997833E+03 0.  0.
          5    1    3    3  502    0  0.33137401081E+02  0.13327513313E+02 -0.12837390381E+01  0.35983751158E+02  0.41800000000E+01 0.  1.
         -5    1    3    3    0  502 -0.62289091125E+00 -0.33112061826E+02  0.19432269249E+03  0.19716890690E+03  0.41800000000E+01 0.  1.
        -11    1    1    2    0    0 -0.50665778716E+02  0.23329669634E+02 -0.52021532493E+02  0.76272763560E+02  0.00000000000E+00 0.  1.
         11    1    1    2    0    0  0.18151268546E+02 -0.35451211206E+01  0.20864795148E+02  0.27881465352E+02  0.00000000000E+00 0. -1.
</event>
<event>
 7    1  0.2794945E-009  0.1478999E+03  0.7561462E-02  0.1203078E+00
         -2   -1    0    0    0  501 -0.00000000000E+00  0.00000000000E+00  0.63590169989E+02  0.63590169989E+02  0.00000000000E+00 0. -1.
          2   -1    0    0  501    0  0.00000000000E+00 -0.00000000000E+00 -0.61152632721E+03  0.61152632721E+03  0.00000000000E+00 0.  1.
         25    2    1    2    0    0  0.72940515931E+02  0.11144666769E+03 -0.12276047704E+03  0.22013610288E+03  0.12509632474E+03 0.  0.
          5    1    3    3  502    0  0.36831971462E+02  0.45688661319E+02  0.17187567047E+02  0.61293823146E+02  0.41800000000E+01 0.  1.
         -5    1    3    3    0  502  0.36108544469E+02  0.65758006371E+02 -0.13994804409E+03  0.15884227973E+03  0.41800000000E+01 0.  1.
        -11    1    1    2    0    0 -0.33020087617E+02  0.95856455049E+01 -0.98175780606E+02  0.10402256815E+03  0.00000000000E+00 0.  1.
         11    1    1    2    0    0 -0.39920428313E+02 -0.12103231319E+03 -0.32699989958E+03  0.35095782618E+03  0.00000000000E+00 0. -1.
</event>
<event>
 7    1  0.2794945E-009  0.1635313E+03  0.7561462E-02  0.1184767E+00
         -1   -1    0    0    0  501 -0.00000000000E+00  0.00000000000E+00  0.44815422929E+03  0.44815422929E+03  0.00000000000E+00 0.  1.
          1   -1    0    0  501    0  0.00000000000E+00 -0.00000000000E+00 -0.99438628563E+02  0.99438628563E+02  0.00000000000E+00 0. -1.
         25    2    1    2    0    0  0.83754797547E+02 -0.10999893712E+03  0.31814470478E+02  0.18913896447E+03  0.12508699000E+03 0.  0.
          5    1    3    3  502    0  0.10865097611E+03 -0.62361648034E+02  0.45784445151E+02  0.13344548540E+03  0.41800000000E+01 0. -1.
         -5    1    3    3    0  502 -0.24896178562E+02 -0.47637289089E+02 -0.13969974674E+02  0.55693479072E+02  0.41800000000E+01 0. -1.
        -11    1    1    2    0    0 -0.51350495050E+02  0.25558376122E+02  0.21353482158E+03  0.22110455436E+03  0.00000000000E+00 0.  1.
         11    1    1    2    0    0 -0.32404302497E+02  0.84440561001E+02  0.10336630867E+03  0.13734933903E+03  0.00000000000E+00 0. -1.
</event>
<event>
 7    1  0.2794945E-009  0.1821789E+03  0.7561462E-02  0.1165711E+00
          1   -1    0    0  501    0  0.00000000000E+00  0.00000000000E+00  0.17132754897E+04  0.17132754897E+04  0.00000000000E+00 0. -1.
         -1   -1    0    0    0  501 -0.00000000000E+00 -0.00000000000E+00 -0.22221932034E+02  0.22221932034E+02  0.00000000000E+00 0.  1.
         25    2    1    2    0    0 -0.14620466636E+03  0.37332894754E+02  0.11377622472E+04  0.11545207950E+04  0.12508311372E+03 0.  0.
          5    1    3    3  502    0 -0.97115527310E+02 -0.32716364751E+02  0.45546821305E+03  0.46687316443E+03  0.41800000000E+01 0.  1.
         -5    1    3    3    0  502 -0.49089139045E+02  0.70049259504E+02  0.68229403415E+03  0.68764763053E+03  0.41800000000E+01 0.  1.
        -11    1    1    2    0    0  0.56448590053E+02 -0.61221915958E+02  0.29330956730E+03  0.30490173595E+03  0.00000000000E+00 0.  1.
         11    1    1    2    0    0  0.89756076303E+02  0.23889021205E+02  0.25998174311E+03  0.27607489078E+03  0.00000000000E+00 0. -1.
</event>
<event>
 7    1  0.2794945E-009  0.5542205E+02  0.7561462E-02  0.1418113E+00
         -2   -1    0    0    0  501 -0.00000000000E+00  0.00000000000E+00  0.43070134655E+02  0.43070134655E+02  0.00000000000E+00 0.  1.
          2   -1    0    0  501    0  0.00000000000E+00 -0.00000000000E+00 -0.48558768260E+03  0.48558768260E+03  0.00000000000E+00 0. -1.
         25    2    1    2    0    0  0.80413127144E+01  0.38899711861E+02 -0.40132122602E+03  0.42223770213E+03  0.12509236726E+03 0.  0.
          5    1    3    3  502    0 -0.47327219891E+01 -0.53146237796E+00 -0.37015888170E+03  0.37021311594E+03  0.41800000000E+01 0. -1.
         -5    1    3    3    0  502  0.12774034704E+02  0.39431174239E+02 -0.31162344319E+02  0.52024586187E+02  0.41800000000E+01 0. -1.
        -11    1    1    2    0    0 -0.28392390345E+02 -0.17680194769E+02  0.19685828061E+02  0.38810423124E+02  0.00000000000E+00 0.  1.
         11    1    1    2    0    0  0.20351077630E+02 -0.21219517092E+02 -0.60882149980E+02  0.67609692001E+02  0.00000000000E+00 0. -1.
</event>
<event>
 7    1  0.2794945E-009  0.1089623E+03  0.7561462E-02  0.1262504E+00
          1   -1    0    0  501    0  0.00000000000E+00  0.00000000000E+00  0.13213128834E+03  0.13213128834E+03  0.00000000000E+00 0. -1.
         -1   -1    0    0    0  501 -0.00000000000E+00 -0.00000000000E+00 -0.11322785743E+03  0.11322785743E+03  0.00000000000E+00 0.  1.
         25    2    1    2    0    0 -0.82714435604E+01 -0.38049307482E+02 -0.31046745387E+02  0.13463662780E+03  0.12508778744E+03 0.  0.
          5    1    3    3  502    0  0.39793227739E+02 -0.61240236475E+02 -0.81104646795E+00  0.73157349145E+02  0.41800000000E+01 0.  1.
         -5    1    3    3    0  502 -0.48064671300E+02  0.23190928994E+02 -0.30235698919E+02  0.61479278654E+02  0.41800000000E+01 0.  1.
        -11    1    1    2    0    0 -0.19568854734E+02  0.55183812757E+02  0.10494865733E+02  0.59483909360E+02  0.00000000000E+00 0.  1.
         11    1    1    2    0    0  0.27840298294E+02 -0.17134505276E+02  0.39455310568E+02  0.51238608609E+02  0.00000000000E+00 0. -1.
</event>
<event>
 7    1  0.2794945E-009  0.1026919E+03  0.7561462E-02  0.1274735E+00
         -1   -1    0    0    0  501 -0.00000000000E+00  0.00000000000E+00  0.69503225668E+02  0.69503225668E+02  0.00000000000E+00 0.  1.
          1   -1    0    0  501    0  0.00000000000E+00 -0.00000000000E+00 -0.22271009960E+03  0.22271009960E+03  0.00000000000E+00 0. -1.
         25    2    1    2    0    0 -0.39882254014E+02  0.40388216122E+02 -0.11187405517E+03  0.17715864990E+03  0.12509029070E+03 0.  0.
          5    1    3    3  502    0  0.70438450981E+01 -0.19888802102E+02  0.16912896156E+02  0.27362358436E+02  0.41800000000E+01 0.  1.
         -5    1    3    3    0  502 -0.46926099112E+02  0.60277018224E+02 -0.12878695133E+03  0.14979629146E+03  0.41800000000E+01 0.  1.
        -11    1    1    2    0    0  0.18060905929E+02 -0.69035483847E+02 -0.27033151898E+02  0.76307834818E+02  0.00000000000E+00 0.  1.
         11    1    1    2    0    0  0.21821348084E+02  0.28647267726E+02 -0.14299666860E+02  0.38746840551E+02  0.00000000000E+00 0. -1.
</event>
<event>
 7    1  0.2794945E-009  0.1539125E+03  0.7561462E-02  0.1195746E+00
         -1   -1    0    0    0  501 -0.00000000000E+00  0.00000000000E+00  0.39817209771E+03  0.39817209771E+03  0.00000000000E+00 0. -1.
          1   -1    0    0  501    0  0.00000000000E+00 -0.00000000000E+00 -0.89069902264E+02  0.89069902264E+02  0.00000000000E+00 0.  1.
         25    2    1    2    0    0 -0.13496584527E+03  0.66943428932E+02  0.12516623176E+03  0.23240246214E+03  0.12508843579E+03 0.  0.
          5    1    3    3  502    0 -0.12626443396E+03  0.72192387428E+02  0.46183728759E+02  0.15265928497E+03  0.41800000000E+01 0.  1.
         -5    1    3    3    0  502 -0.87014113101E+01 -0.52489584968E+01  0.78982503004E+02  0.79743177168E+02  0.41800000000E+01 0.  1.
        -11    1    1    2    0    0  0.82711406159E+02 -0.33183836383E+02  0.39316706523E+02  0.97407120467E+02  0.00000000000E+00 0.  1.
         11    1    1    2    0    0  0.52254439114E+02 -0.33759592549E+02  0.14461925716E+03  0.15743241737E+03  0.00000000000E+00 0. -1.
</event>
<event>
 7    1  0.3335884E-009  0.9157834E+02  0.7561462E-02  0.1299074E+00
         -1   -1    0    0    0  501 -0.00000000000E+00  0.00000000000E+00  0.92613062939E+02  0.92613062939E+02  0.00000000000E+00 0.  1.
          1   -1    0    0  501    0  0.00000000000E+00 -0.00000000000E+00 -0.19474056870E+03  0.19474056870E+03  0.00000000000E+00 0. -1.
         25    2    1    2    0    0 -0.37689599738E+02  0.56565001982E+02 -0.13642666942E+02  0.14301633755E+03  0.12508974806E+03 0.  0.
          5    1    3    3  502    0  0.23348083916E+02  0.20663647528E+02 -0.53193398487E+02  0.61799105126E+02  0.41800000000E+01 0. -1.
         -5    1    3    3    0  502 -0.61037683655E+02  0.35901354454E+02  0.39550731545E+02  0.81217232428E+02  0.41800000000E+01 0. -1.
        -11    1    1    2    0    0  0.27856087266E+02 -0.50410871117E+01  0.12186498766E+02  0.30820202939E+02  0.00000000000E+00 0.  1.
         11    1    1    2    0    0  0.98335124721E+01 -0.51523914871E+02 -0.10067133759E+03  0.11351709115E+03  0.00000000000E+00 0. -1.
</event>
<event>
 7    1  0.2794945E-009  0.1832221E+03  0.7561462E-02  0.1164721E+00
          1   -1    0    0  501    0  0.00000000000E+00  0.00000000000E+00  0.61651319857E+03  0.61651319857E+03  0.00000000000E+00 0. -1.
         -1   -1    0    0    0  501 -0.00000000000E+00 -0.00000000000E+00 -0.84554356214E+02  0.84554356214E+02  0.00000000000E+00 0.  1.
         25    2    1    2    0    0 -0.14618553171E+03 -0.57360218223E+02  0.83663632392E+02  0.21746947526E+03  0.12503185581E+03 0.  0.
          5    1    3    3  502    0 -0.15407058286E+03 -0.26389632089E+02  0.36883865010E+02  0.16066128682E+03  0.41800000000E+01 0.  1.
         -5    1    3    3    0  502  0.78850511505E+01 -0.30970586134E+02  0.46779767382E+02  0.56808188436E+02  0.41800000000E+01 0.  1.
        -11    1    1    2    0    0 -0.49240656546E+01  0.22143400373E+02  0.31174180134E+02  0.38553937668E+02  0.00000000000E+00 0.  1.
         11    1    1    2    0    0  0.15110959737E+03  0.35216817849E+02  0.41712102983E+03  0.44504414186E+03  0.00000000000E+00 0. -1.
</event>
<event>
 7    1  0.2794945E-009  0.8869704E+02  0.7561462E-02  0.1306038E+00
          2   -1    0    0  501    0  0.00000000000E+00  0.00000000000E+00  0.27345789976E+03  0.27345789976E+03  0.00000000000E+00 0. -1.
         -2   -1    0    0    0  501 -0.00000000000E+00 -0.00000000000E+00 -0.52736040404E+02  0.52736040404E+02  0.00000000000E+00 0.  1.
         25    2    1    2    0    0 -0.32845459889E+02  0.35106400823E+02  0.17448901829E+03  0.22001265061E+03  0.12509142781E+03 0.  0.
          5    1    3    3  502    0 -0.71915994535E+02  0.43190312679E+02  0.15291193731E+03  0.17446158990E+03  0.41800000000E+01 0. -1.
         -5    1    3    3    0  502  0.39070534646E+02 -0.80839118560E+01  0.21577080981E+02  0.45551060713E+02  0.41800000000E+01 0. -1.
        -11    1    1    2    0    0  0.11668199529E+02 -0.28977612970E+02 -0.19516665478E+02  0.36834076140E+02  0.00000000000E+00 0.  1.
         11    1    1    2    0    0  0.21177260360E+02 -0.61287878534E+01  0.65749506548E+02  0.69347213414E+02  0.00000000000E+00 0. -1.
</event>
<event>
 7    1  0.2794945E-009  0.1573052E+03  0.7561462E-02  0.1191773E+00
         -2   -1    0    0    0  501 -0.00000000000E+00  0.00000000000E+00  0.81141590288E+03  0.81141590288E+03  0.00000000000E+00 0.  1.
          2   -1    0    0  501    0  0.00000000000E+00 -0.00000000000E+00 -0.40235873834E+02  0.40235873834E+02  0.00000000000E+00 0. -1.
         25    2    1    2    0    0 -0.11593602671E+03  0.80797225706E+02  0.47606823717E+03  0.51211137900E+03  0.12509094326E+03 0.  0.
          5    1    3    3  502    0 -0.67734476979E+02  0.18694439566E+02  0.38652442016E+03  0.39288171403E+03  0.41800000000E+01 0. -1.
         -5    1    3    3    0  502 -0.48201549735E+02  0.62102786140E+02  0.89543817015E+02  0.11922966497E+03  0.41800000000E+01 0. -1.
        -11    1    1    2    0    0  0.43606548732E+02 -0.82311661010E+02  0.19409603932E+03  0.21529053186E+03  0.00000000000E+00 0.  1.
         11    1    1    2    0    0  0.72329477982E+02  0.15144353043E+01  0.10101575256E+03  0.12424986585E+03  0.00000000000E+00 0. -1.
</event>
<event>
 7    1  0.2794945E-009  0.8229810E+02  0.7561462E-02  0.1322653E+00
         -1   -1    0    0    0  501 -0.00000000000E+00  0.00000000000E+00  0.59114198175E+02  0.59114198175E+02  0.00000000000E+00 0.  1.
          1   -1    0    0  501    0  0.00000000000E+00 -0.00000000000E+00 -0.23702344379E+03  0.23702344379E+03  0.00000000000E+00 0. -1.
         25    2    1    2    0    0 -0.55264371884E+02  0.25711945326E+02 -0.10819452612E+03  0.17626075743E+03  0.12508614710E+03 0.  0.
          5    1    3    3  502    0 -0.45352126643E+02  0.77926783926E+01  0.17074578409E+02  0.49260073643E+02  0.41800000000E+01 0.  1.
         -5    1    3    3    0  502 -0.99122452420E+01  0.17919266934E+02 -0.12526910453E+03  0.12700068378E+03  0.41800000000E+01 0.  1.
        -11    1    1    2    0    0  0.33690211438E+02 -0.52939727015E+02 -0.46320119417E+02  0.77994862049E+02  0.00000000000E+00 0.  1.
         11    1    1    2    0    0  0.21574160447E+02  0.27227781689E+02 -0.23394600082E+02  0.41882022488E+02  0.00000000000E+00 0. -1.
</event>
<event>
 7    1  0.2794945E-009  0.1020560E+03  0.7561462E-02  0.1276031E+00
         -3   -1    0    0    0  501 -0.00000000000E+00  0.00000000000E+00  0.94981997767E+02  0.94981997767E+02  0.00000000000E+00 0.  1.
          3   -1    0    0  501    0  0.00000000000E+00 -0.00000000000E+00 -0.15076566163E+03  0.15076566163E+03  0.00000000000E+00 0. -1.
         25    2    1    2    0    0 -0.36525068361E+02 -0.29149615390E+01 -0.68475223201E+02  0.14723547297E+03  0.12508737222E+03 0.  0.
          5    1    3    3  502    0 -0.71103763710E+02  0.11678349107E+02 -0.37203708905E+01  0.72273387987E+02  0.41800000000E+01 0.  1.
         -5    1    3    3    0  502  0.34578695349E+02 -0.14593310646E+02 -0.64754852311E+02  0.74962084986E+02  0.41800000000E+01 0.  1.
        -11    1    1    2    0    0 -0.28347681151E+02  0.69002585447E+01  0.16294613636E+02  0.33417346216E+02  0.00000000000E+00 0.  1.
         11    1    1    2    0    0  0.64872749511E+02 -0.39852970057E+01 -0.36030542968E+01  0.65094840208E+02  0.00000000000E+00 0. -1.
</event>
<event>
 7    1  0.2794945E-009  0.1068924E+03  0.7561462E-02  0.1266435E+00
          1   -1    0    0  501    0  0.00000000000E+00  0.00000000000E+00  0.59861336651E+03  0.59861336651E+03  0.00000000000E+00 0. -1.
         -1   -1    0    0    0  501 -0.00000000000E+00 -0.00000000000E+00 -0.22227643512E+02  0.22227643512E+02  0.00000000000E+00 0.  1.
         25    2    1    2    0    0 -0.37146097624E+01 -0.31585817051E+02  0.27220282945E+03  0.30125309968E+03  0.12509031755E+03 0.  0.
          5    1    3    3  502    0 -0.71005392778E+01  0.44669000829E+02  0.15337626913E+03  0.15996090030E+03  0.41800000000E+01 0.  1.
         -5    1    3    3    0  502  0.33859295154E+01 -0.76254817880E+02  0.11882656032E+03  0.14129219938E+03  0.41800000000E+01 0.  1.
        -11    1    1    2    0    0  0.19788974542E+02 -0.25690659017E+02  0.16609112774E+03  0.16922729150E+03  0.00000000000E+00 0. -1.
         11    1    1    2    0    0 -0.16074364779E+02  0.57276476068E+02  0.13809176581E+03  0.15036061884E+03  0.00000000000E+00 0.  1.
</event>
<event>
 7    1  0.2794945E-009  0.7652715E+02  0.7561462E-02  0.1339206E+00
          1   -1    0    0  501    0  0.00000000000E+00  0.00000000000E+00  0.93493442152E+03  0.93493442152E+03  0.00000000000E+00 0. -1.
         -1   -1    0    0    0  501 -0.00000000000E+00 -0.00000000000E+00 -0.22412230534E+02  0.22412230534E+02  0.00000000000E+00 0.  1.
         25    2    1    2    0    0 -0.30828369262E+02  0.49377692165E+01  0.78879668054E+03  0.79926379828E+03  0.12509055154E+03 0.  0.
          5    1    3    3  502    0  0.27464789696E+02  0.83345019631E+00  0.43197545104E+02  0.51366424981E+02  0.41800000000E+01 0.  1.
         -5    1    3    3    0  502 -0.58293158958E+02  0.41043190202E+01  0.74559913544E+03  0.74789737330E+03  0.41800000000E+01 0.  1.
        -11    1    1    2    0    0  0.39598412102E+02 -0.23569021679E+02  0.16575754707E+02  0.48972325532E+02  0.00000000000E+00 0.  1.
         11    1    1    2    0    0 -0.87700428403E+01  0.18631252462E+02  0.10714975573E+03  0.10911052824E+03  0.00000000000E+00 0. -1.
</event>
<event>
 7    1  0.2794945E-009  0.1296483E+03  0.7561462E-02  0.1227978E+00
         -2   -1    0    0    0  501 -0.00000000000E+00  0.00000000000E+00  0.79602557424E+03  0.79602557424E+03  0.00000000000E+00 0.  1.
          2   -1    0    0  501    0  0.00000000000E+00 -0.00000000000E+00 -0.29930707266E+02  0.29930707266E+02  0.00000000000E+00 0. -1.
         25    2    1    2    0    0 -0.66084016606E+02 -0.85587742191E+02  0.47719357194E+03  0.50502856159E+03  0.12509110302E+03 0.  0.
          5    1    3    3  502    0 -0.70555422717E+02 -0.40410718761E+02  0.12045715546E+03  0.14539082697E+03  0.41800000000E+01 0. -1.
         -5    1    3    3    0  502  0.44714061114E+01 -0.45177023431E+02  0.35673641648E+03  0.35963773462E+03  0.41800000000E+01 0. -1.
        -11    1    1    2    0    0  0.56843325963E+02  0.11963053939E+02  0.18006929952E+03  0.18920684712E+03  0.00000000000E+00 0.  1.
         11    1    1    2    0    0  0.92406906430E+01  0.73624688252E+02  0.10883199551E+03  0.13172087280E+03  0.00000000000E+00 0. -1.
</event>
<event>
 7    1  0.2794945E-009  0.1054394E+03  0.7561462E-02  0.1269256E+00
         -1   -1    0    0    0  501 -0.00000000000E+00  0.00000000000E+00  0.90156432206E+02  0.90156432206E+02  0.00000000000E+00 0.  1.
          1   -1    0    0  501    0  0.00000000000E+00 -0.00000000000E+00 -0.17320553088E+03  0.17320553088E+03  0.00000000000E+00 0. -1.
         25    2    1    2    0    0  0.41792144506E+02 -0.34407908192E+02 -0.75774586509E+02  0.15594729927E+03  0.12508910705E+03 0.  0.
          5    1    3    3  502    0 -0.33591340156E+02 -0.39022417127E+02 -0.59093223634E+02  0.78489544854E+02  0.41800000000E+01 0.  1.
         -5    1    3    3    0  502  0.75383484662E+02  0.46145089348E+01 -0.16681362874E+02  0.77457754420E+02  0.41800000000E+01 0.  1.
        -11    1    1    2    0    0 -0.14626842951E+02 -0.18811227117E+02  0.28984635427E+02  0.37522205309E+02  0.00000000000E+00 0.  1.
         11    1    1    2    0    0 -0.27165301555E+02  0.53219135309E+02 -0.36259147593E+02  0.69892458504E+02  0.00000000000E+00 0. -1.
</event>
<event>
 7    1  0.2794945E-009  0.1222313E+03  0.7561462E-02  0.1239461E+00
         -1   -1    0    0    0  501 -0.00000000000E+00  0.00000000000E+00  0.18780653738E+03  0.18780653738E+03  0.00000000000E+00 0.  1.
          1   -1    0    0  501    0  0.00000000000E+00 -0.00000000000E+00 -0.10128868897E+03  0.10128868897E+03  0.00000000000E+00 0. -1.
         25    2    1    2    0    0 -0.36389947373E+02  0.75684514730E+02  0.51296612027E+02  0.15915932655E+03  0.12509186538E+03 0.  0.
          5    1    3    3  502    0  0.27589316420E+02  0.33428720303E+02 -0.25580061994E+02  0.50502095929E+02  0.41800000000E+01 0.  1.
         -5    1    3    3    0  502 -0.63979263793E+02  0.42255794427E+02  0.76876674021E+02  0.10865723062E+03  0.41800000000E+01 0.  1.
        -11    1    1    2    0    0 -0.30277891349E+02 -0.14214227388E+02  0.25399173125E+01  0.33544688770E+02  0.00000000000E+00 0. -1.
         11    1    1    2    0    0  0.66667838722E+02 -0.61470287343E+02  0.32681319075E+02  0.96391211022E+02  0.00000000000E+00 0.  1.
</event>
<event>
 7    1  0.2794945E-009  0.7605881E+02  0.7561462E-02  0.1340623E+00
         -2   -1    0    0    0  501 -0.00000000000E+00  0.00000000000E+00  0.19189741615E+02  0.19189741615E+02  0.00000000000E+00 0.  1.
          2   -1    0    0  501    0  0.00000000000E+00 -0.00000000000E+00 -0.82868766397E+03  0.82868766397E+03  0.00000000000E+00 0. -1.
         25    2    1    2    0    0 -0.88931128408E+01  0.45304701600E+02 -0.29992883528E+03  0.32823271201E+03  0.12509118096E+03 0.  0.
          5    1    3    3  502    0  0.54814060882E+01  0.15213833427E+02 -0.29354878205E+03  0.29402358134E+03  0.41800000000E+01 0.  1.
         -5    1    3    3    0  502 -0.14374518929E+02  0.30090868173E+02 -0.63800532344E+01  0.34209130669E+02  0.41800000000E+01 0.  1.
        -11    1    1    2    0    0  0.31900127231E+02 -0.64425534581E+02 -0.36522299048E+03  0.37223124587E+03  0.00000000000E+00 0.  1.
         11    1    1    2    0    0 -0.23007014391E+02  0.19120832980E+02 -0.14434609659E+03  0.14741344771E+03  0.00000000000E+00 0. -1.
</event>
<event>
 7    1  0.2794945E-009  0.1075518E+03  0.7561462E-02  0.1265172E+00
          2   -1    0    0  501    0  0.00000000000E+00  0.00000000000E+00  0.57113003598E+03  0.57113003598E+03  0.00000000000E+00 0.  1.
         -2   -1    0    0    0  501 -0.00000000000E+00 -0.00000000000E+00 -0.26892212940E+02  0.26892212940E+02  0.00000000000E+00 0. -1.
         25    2    1    2    0    0 -0.58763031672E+02  0.37303996412E+01  0.29051463308E+03  0.32173513679E+03  0.12509091271E+03 0.  0.
          5    1    3    3  502    0 -0.89492280531E+02 -0.10388796454E+01  0.26941879929E+03  0.28392588708E+03  0.41800000000E+01 0. -1.
         -5    1    3    3    0  502  0.30729248859E+02  0.47692792866E+01  0.21095833789E+02  0.37809249710E+02  0.41800000000E+01 0. -1.
        -11    1    1    2    0    0  0.11783062052E+02  0.32650351720E+02  0.33691849434E+02  0.48373822850E+02  0.00000000000E+00 0. -1.
         11    1    1    2    0    0  0.46979969620E+02 -0.36380751362E+02  0.22003134053E+03  0.22791328928E+03  0.00000000000E+00 0.  1.
</event>
<event>
 7    1  0.2794945E-009  0.1080412E+03  0.7561462E-02  0.1264241E+00
         -4   -1    0    0    0  501 -0.00000000000E+00  0.00000000000E+00  0.12779543490E+03  0.12779543490E+03  0.00000000000E+00 0.  1.
          4   -1    0    0  501    0  0.00000000000E+00 -0.00000000000E+00 -0.12724242893E+03  0.12724242893E+03  0.00000000000E+00 0. -1.
         25    2    1    2    0    0  0.29057245155E+02  0.41812246117E+02 -0.42011374179E+02  0.14143786931E+03  0.12508848026E+03 0.  0.
          5    1    3    3  502    0  0.68874864140E+01 -0.36124462120E+02 -0.47381564614E+02  0.60124032614E+02  0.41800000000E+01 0. -1.
         -5    1    3    3    0  502  0.22169758741E+02  0.77936708237E+02  0.53701904348E+01  0.81313836699E+02  0.41800000000E+01 0. -1.
        -11    1    1    2    0    0 -0.31681214945E+02  0.19081463571E+02 -0.35739172224E+01  0.37156083172E+02  0.00000000000E+00 0. -1.
         11    1    1    2    0    0  0.26239697895E+01 -0.60893709687E+02  0.46138297371E+02  0.76443911342E+02  0.00000000000E+00 0.  1.
</event>
<event>
 7    1  0.2794945E-009  0.1243685E+03  0.7561462E-02  0.1236060E+00
         -2   -1    0    0    0  501 -0.00000000000E+00  0.00000000000E+00  0.12332063595E+03  0.12332063595E+03  0.00000000000E+00 0.  1.
          2   -1    0    0  501    0  0.00000000000E+00 -0.00000000000E+00 -0.15281185927E+03  0.15281185927E+03  0.00000000000E+00 0. -1.
         25    2    1    2    0    0  0.63032146343E+02  0.49492234922E+01 -0.71978415571E+02  0.15756302531E+03  0.12509064054E+03 0.  0.
          5    1    3    3  502    0 -0.27516447051E+02  0.34159415543E+02 -0.31060400205E+02  0.53909566771E+02  0.41800000000E+01 0.  1.
         -5    1    3    3    0  502  0.90548593395E+02 -0.29210192051E+02 -0.40918015366E+02  0.10365345854E+03  0.41800000000E+01 0.  1.
        -11    1    1    2    0    0 -0.19682918242E+02 -0.45815182999E+02  0.28273876420E+02  0.57322424509E+02  0.00000000000E+00 0. -1.
         11    1    1    2    0    0 -0.43349228101E+02  0.40865959506E+02  0.14213315831E+02  0.61247045400E+02  0.00000000000E+00 0.  1.
</event>
<event>
 7    1  0.2794945E-009  0.1149699E+03  0.7561462E-02  0.1251634E+00
          1   -1    0    0  501    0  0.00000000000E+00  0.00000000000E+00  0.38008111077E+02  0.38008111077E+02  0.00000000000E+00 0. -1.
         -1   -1    0    0    0  501 -0.00000000000E+00 -0.00000000000E+00 -0.71518349219E+03  0.71518349219E+03  0.00000000000E+00 0.  1.
         25    2    1    2    0    0  0.59488394678E+02  0.53969226937E+02 -0.59157259231E+03  0.60996556702E+03  0.12509322289E+03 0.  0.
          5    1    3    3  502    0 -0.23863010086E+02  0.53884172157E+02 -0.33474674290E+03  0.33992028704E+03  0.41800000000E+01 0.  1.
         -5    1    3    3    0  502  0.83351404764E+02  0.85054779702E-01 -0.25682584941E+03  0.27004527997E+03  0.41800000000E+01 0.  1.
        -11    1    1    2    0    0 -0.91533274824E+01 -0.30541584101E+02  0.93556085192E+01  0.33227987813E+02  0.00000000000E+00 0. -1.
         11    1    1    2    0    0 -0.50335067196E+02 -0.23427642837E+02 -0.94958397319E+02  0.10999804844E+03  0.00000000000E+00 0.  1.
</event>
<event>
 7    1  0.2794945E-009  0.1097427E+03  0.7561462E-02  0.1261047E+00
          1   -1    0    0  501    0  0.00000000000E+00  0.00000000000E+00  0.30953302330E+02  0.30953302330E+02  0.00000000000E+00 0. -1.
         -1   -1    0    0    0  501 -0.00000000000E+00 -0.00000000000E+00 -0.59483448566E+03  0.59483448566E+03  0.00000000000E+00 0.  1.
         25    2    1    2    0    0 -0.25581742678E+02 -0.10571548637E+02 -0.48503331968E+03  0.50166890923E+03  0.12509272595E+03 0.  0.
          5    1    3    3  502    0 -0.63254347950E+01 -0.66398867254E+02 -0.30171397185E+03  0.30902688218E+03  0.41800000000E+01 0.  1.
         -5    1    3    3    0  502 -0.19256307883E+02  0.55827318617E+02 -0.18331934783E+03  0.19264202705E+03  0.41800000000E+01 0.  1.
        -11    1    1    2    0    0  0.48540671193E+02 -0.22250457597E+02 -0.58451945723E+02  0.79170130617E+02  0.00000000000E+00 0.  1.
         11    1    1    2    0    0 -0.22958928515E+02  0.32822006234E+02 -0.20395917926E+02  0.44948748145E+02  0.00000000000E+00 0. -1.
</event>
<event>
 7    1  0.2794945E-009  0.8801868E+02  0.7561462E-02  0.1307722E+00
          3   -1    0    0  501    0  0.00000000000E+00  0.00000000000E+00  0.21912903269E+03  0.21912903269E+03  0.00000000000E+00 0. -1.
         -3   -1    0    0    0  501 -0.00000000000E+00 -0.00000000000E+00 -0.60676591088E+02  0.60676591088E+02  0.00000000000E+00 0.  1.
         25    2    1    2    0    0  0.19808288711E+02 -0.34941604716E+01  0.24834209857E+02  0.12910800049E+03  0.12509020886E+03 0.  0.
          5    1    3    3  502    0  0.40605313694E+02 -0.45130580662E+02 -0.20292123829E+02  0.64146734138E+02  0.41800000000E+01 0. -1.
         -5    1    3    3    0  502 -0.20797024982E+02  0.41636420191E+02  0.45126333685E+02  0.64961266354E+02  0.41800000000E+01 0. -1.
        -11    1    1    2    0    0  0.20389673041E+02  0.16475302260E+02  0.38004631190E+02  0.46168456149E+02  0.00000000000E+00 0.  1.
         11    1    1    2    0    0 -0.40197961752E+02 -0.12981141788E+02  0.95613600560E+02  0.10452916714E+03  0.00000000000E+00 0. -1.
</event>
<event>
 7    1  0.2794945E-009  0.9893733E+02  0.7561462E-02  0.1282547E+00
          2   -1    0    0  501    0  0.00000000000E+00  0.00000000000E+00  0.67653030943E+03  0.67653030943E+03  0.00000000000E+00 0. -1.
         -2   -1    0    0    0  501 -0.00000000000E+00 -0.00000000000E+00 -0.17814981088E+02  0.17814981088E+02  0.00000000000E+00 0.  1.
         25    2    1    2    0    0  0.30859077670E+01  0.13154131606E+02  0.43057554792E+03  0.44857938356E+03  0.12508240037E+03 0.  0.
          5    1    3    3  502    0 -0.15871836488E+02 -0.49337037788E+02  0.11380203694E+03  0.12511768261E+03  0.41800000000E+01 0.  1.
         -5    1    3    3    0  502  0.18957744255E+02  0.62491169394E+02  0.31677351098E+03  0.32346170095E+03  0.41800000000E+01 0.  1.
        -11    1    1    2    0    0 -0.46869302045E+01 -0.46661580600E+02  0.18644117041E+03  0.19224874627E+03  0.00000000000E+00 0. -1.
         11    1    1    2    0    0  0.16010224375E+01  0.33507448994E+02  0.41698610003E+02  0.53517160678E+02  0.00000000000E+00 0.  1.
</event>
<event>
 7    1  0.2794945E-009  0.1807714E+03  0.7561462E-02  0.1167059E+00
         -1   -1    0    0    0  501 -0.00000000000E+00  0.00000000000E+00  0.79415917217E+02  0.79415917217E+02  0.00000000000E+00 0.  1.
          1   -1    0    0  501    0  0.00000000000E+00 -0.00000000000E+00 -0.51035717458E+03  0.51035717458E+03  0.00000000000E+00 0. -1.
         25    2    1    2    0    0 -0.61548638901E+02  0.15319893943E+03 -0.28014668907E+03  0.34839678555E+03  0.12505999675E+03 0.  0.
          5    1    3    3  502    0 -0.67870471209E+02  0.15331820157E+03 -0.29057440686E+03  0.33550533545E+03  0.41800000000E+01 0.  1.
         -5    1    3    3    0  502  0.63218323077E+01 -0.11926214274E+00  0.10427717788E+02  0.12891450091E+02  0.41800000000E+01 0.  1.
        -11    1    1    2    0    0 -0.20578370321E+02 -0.51919621822E+02 -0.62949714381E+02  0.84153330272E+02  0.00000000000E+00 0. -1.
         11    1    1    2    0    0  0.82127009222E+02 -0.10127931760E+03 -0.87844853908E+02  0.15722297598E+03  0.00000000000E+00 0.  1.
</event>
<event>
 7    1  0.2794945E-009  0.1247199E+03  0.7561462E-02  0.1235508E+00
          2   -1    0    0  501    0  0.00000000000E+00  0.00000000000E+00  0.27288126721E+03  0.27288126721E+03  0.00000000000E+00 0. -1.
         -2   -1    0    0    0  501 -0.00000000000E+00 -0.00000000000E+00 -0.82392774872E+02  0.82392774872E+02  0.00000000000E+00 0.  1.
         25    2    1    2    0    0  0.91100054803E+02  0.34623687699E+02  0.12701396486E+03  0.20317032909E+03  0.12509042976E+03 0.  0.
          5    1    3    3  502    0  0.13312164407E+02 -0.35800485604E+02  0.78692473875E+02  0.87572063669E+02  0.41800000000E+01 0. -1.
         -5    1    3    3    0  502  0.77787890396E+02  0.70424173303E+02  0.48321490989E+02  0.11559826542E+03  0.41800000000E+01 0. -1.
        -11    1    1    2    0    0 -0.65821488489E+02 -0.43852362161E+02  0.86123505836E+02  0.11693056175E+03  0.00000000000E+00 0. -1.
         11    1    1    2    0    0 -0.25278566314E+02  0.92286744621E+01 -0.22648978361E+02  0.35173151239E+02  0.00000000000E+00 0.  1.
</event>
<event>
 7    1  0.2794945E-009  0.1141064E+03  0.7561462E-02  0.1253149E+00
          1   -1    0    0  501    0  0.00000000000E+00  0.00000000000E+00  0.31536070832E+03  0.31536070832E+03  0.00000000000E+00 0. -1.
         -1   -1    0    0    0  501 -0.00000000000E+00 -0.00000000000E+00 -0.57924756511E+02  0.57924756511E+02  0.00000000000E+00 0.  1.
         25    2    1    2    0    0 -0.75773912117E+02 -0.27893676141E+02  0.15799954140E+03  0.21709453719E+03  0.12508573088E+03 0.  0.
          5    1    3    3  502    0  0.56724335775E+01  0.39003275659E+02  0.66708235920E+02  0.77594414454E+02  0.41800000000E+01 0.  1.
         -5    1    3    3    0  502 -0.81446345695E+02 -0.66896951800E+02  0.91291305481E+02  0.13950012274E+03  0.41800000000E+01 0.  1.
        -11    1    1    2    0    0  0.46817784334E+02  0.27173601475E+02  0.11217121653E+03  0.12454995530E+03  0.00000000000E+00 0. -1.
         11    1    1    2    0    0  0.28956127784E+02  0.72007466573E+00 -0.12734806122E+02  0.31640972342E+02  0.00000000000E+00 0.  1.
</event>
<event>
 7    1  0.2794945E-009  0.7081169E+02  0.7561462E-02  0.1357354E+00
          2   -1    0    0  501    0  0.00000000000E+00  0.00000000000E+00  0.68180093590E+03  0.68180093590E+03  0.00000000000E+00 0. -1.
         -2   -1    0    0    0  501 -0.00000000000E+00 -0.00000000000E+00 -0.23241197240E+02  0.23241197240E+02  0.00000000000E+00 0.  1.
         25    2    1    2    0    0  0.58833891023E+02 -0.14850491023E+02  0.43563625860E+03  0.45728437774E+03  0.12509231991E+03 0.  0.
          5    1    3    3  502    0  0.23389941230E+02 -0.13159752070E+02  0.82209182196E+01  0.28378236761E+02  0.41800000000E+01 0. -1.
         -5    1    3    3    0  502  0.35443949793E+02 -0.16907389528E+01  0.42741534038E+03  0.42890614098E+03  0.41800000000E+01 0. -1.
        -11    1    1    2    0    0  0.85606922977E+01  0.66512778668E+01 -0.34865802416E+01  0.11387764998E+02  0.00000000000E+00 0.  1.
         11    1    1    2    0    0 -0.67394583320E+02  0.81992131557E+01  0.22641006030E+03  0.23636999040E+03  0.00000000000E+00 0. -1.
</event>
<event>
 7    1  0.2794945E-009  0.4393189E+03  0.7561462E-02  0.1030956E+00
         -2   -1    0    0    0  501 -0.00000000000E+00  0.00000000000E+00  0.14164057798E+03  0.14164057798E+03  0.00000000000E+00 0.  1.
          2   -1    0    0  501    0  0.00000000000E+00 -0.00000000000E+00 -0.20608232424E+04  0.20608232424E+04  0.00000000000E+00 0. -1.
         25    2    1    2    0    0 -0.62195085133E+02  0.42502662144E+03 -0.15967642359E+04  0.16582579906E+04  0.12509069117E+03 0.  0.
          5    1    3    3  502    0 -0.94158021668E+02  0.24878677453E+03 -0.87225471624E+03  0.91192453341E+03  0.41800000000E+01 0.  1.
         -5    1    3    3    0  502  0.31962936535E+02  0.17623984691E+03 -0.72450951962E+03  0.74633345723E+03  0.41800000000E+01 0.  1.
        -11    1    1    2    0    0 -0.21687528879E+01 -0.18243324027E+03 -0.95896053783E+02  0.20611318196E+03  0.00000000000E+00 0. -1.
         11    1    1    2    0    0  0.64363838021E+02 -0.24259338117E+03 -0.22652237480E+03  0.33809264783E+03  0.00000000000E+00 0.  1.
</event>
<event>
 7    1  0.2794945E-009  0.2131137E+03  0.7561462E-02  0.1139124E+00
          1   -1    0    0  501    0  0.00000000000E+00  0.00000000000E+00  0.66580806259E+03  0.66580806259E+03  0.00000000000E+00 0. -1.
         -1   -1    0    0    0  501 -0.00000000000E+00 -0.00000000000E+00 -0.81484414927E+02  0.81484414927E+02  0.00000000000E+00 0.  1.
         25    2    1    2    0    0 -0.16339020803E+03  0.12199835921E+03  0.35077266589E+03  0.42457780223E+03  0.12507952384E+03 0.  0.
          5    1    3    3  502    0 -0.10445250739E+03  0.61204961606E+02  0.91535218441E+02  0.15183063670E+03  0.41800000000E+01 0. -1.
         -5    1    3    3    0  502 -0.58937700647E+02  0.60793397602E+02  0.25923744745E+03  0.27274716554E+03  0.41800000000E+01 0. -1.
        -11    1    1    2    0    0  0.57944143517E+02 -0.95315329852E+02  0.94632814684E+02  0.14628022931E+03  0.00000000000E+00 0. -1.
         11    1    1    2    0    0  0.10544606452E+03 -0.26683029357E+02  0.13891816709E+03  0.17643444597E+03  0.00000000000E+00 0.  1.
</event>
<event>
 7    1  0.2794945E-009  0.1541171E+03  0.7561462E-02  0.1195503E+00
         -1   -1    0    0    0  501 -0.00000000000E+00  0.00000000000E+00  0.53878352653E+02  0.53878352653E+02  0.00000000000E+00 0.  1.
          1   -1    0    0  501    0  0.00000000000E+00 -0.00000000000E+00 -0.83158514888E+03  0.83158514888E+03  0.00000000000E+00 0. -1.
         25    2    1    2    0    0  0.60049167153E+02  0.12737610899E+03 -0.65151510145E+03  0.67819727183E+03  0.12509610902E+03 0.  0.
          5    1    3    3  502    0  0.59011774058E+02  0.26544632773E+02 -0.11278902552E+03  0.13009936082E+03  0.41800000000E+01 0.  1.
         -5    1    3    3    0  502  0.10373930955E+01  0.10083147621E+03 -0.53872607592E+03  0.54809791102E+03  0.41800000000E+01 0.  1.
        -11    1    1    2    0    0 -0.37222773327E+02 -0.53712071888E+02 -0.75795148728E+01  0.65787313111E+02  0.00000000000E+00 0.  1.
         11    1    1    2    0    0 -0.22826393826E+02 -0.73664037097E+02 -0.11861217990E+03  0.14147891658E+03  0.00000000000E+00 0. -1.
</event>
<event>
 7    1  0.2794945E-009  0.1308859E+03  0.7561462E-02  0.1226147E+00
          1   -1    0    0  501    0  0.00000000000E+00  0.00000000000E+00  0.56700877460E+03  0.56700877460E+03  0.00000000000E+00 0.  1.
         -1   -1    0    0    0  501 -0.00000000000E+00 -0.00000000000E+00 -0.72102991127E+02  0.72102991127E+02  0.00000000000E+00 0. -1.
         25    2    1    2    0    0 -0.91225477022E+02  0.42614204097E+02  0.41238238412E+02  0.16578311633E+03  0.12508153862E+03 0.  0.
          5    1    3    3  502    0 -0.13314549938E+02  0.71673111781E+02  0.38343163526E+02  0.82474134015E+02  0.41800000000E+01 0.  1.
         -5    1    3    3    0  502 -0.77910927085E+02 -0.29058907684E+02  0.28950748860E+01  0.83308982310E+02  0.41800000000E+01 0.  1.
        -11    1    1    2    0    0  0.82743327850E+02 -0.25818183188E+02  0.44359884134E+03  0.45198779732E+03  0.00000000000E+00 0.  1.
         11    1    1    2    0    0  0.84821491728E+01 -0.16796020909E+02  0.10068703719E+02  0.21340852081E+02  0.00000000000E+00 0. -1.
</event>
<event>
 7    1  0.3214879E-009  0.1791822E+03  0.7561462E-02  0.1168597E+00
         -2   -1    0    0    0  501 -0.00000000000E+00  0.00000000000E+00  0.99147643192E+02  0.99147643192E+02  0.00000000000E+00 0.  1.
          2   -1    0    0  501    0  0.00000000000E+00 -0.00000000000E+00 -0.47577451705E+03  0.47577451705E+03  0.00000000000E+00 0. -1.
         25    2    1    2    0    0  0.91063974938E+01 -0.17060261164E+03 -0.92435846196E+02  0.23103800874E+03  0.12508396479E+03 0.  0.
          5    1    3    3  502    0 -0.26483106997E+01 -0.11830573337E+03  0.63390472074E+01  0.11857873341E+03  0.41800000000E+01 0.  1.
         -5    1    3    3    0  502  0.11754708193E+02 -0.52296878268E+02 -0.98774893403E+02  0.11245927533E+03  0.41800000000E+01 0.  1.
        -11    1    1    2    0    0  0.29648501364E+02  0.11255842381E+03 -0.12917461462E+03  0.17388074495E+03  0.00000000000E+00 0. -1.
         11    1    1    2    0    0 -0.38754898857E+02  0.58044187825E+02 -0.15501641305E+03  0.17000340655E+03  0.00000000000E+00 0.  1.
</event>
<event>
 7    1  0.2794945E-009  0.1818585E+03  0.7561462E-02  0.1166016E+00
          1   -1    0    0  501    0  0.00000000000E+00  0.00000000000E+00  0.50103659270E+02  0.50103659270E+02  0.00000000000E+00 0. -1.
         -1   -1    0    0    0  501 -0.00000000000E+00 -0.00000000000E+00 -0.72372281878E+03  0.72372281878E+03  0.00000000000E+00 0.  1.
         25    2    1    2    0    0  0.15011770478E+03  0.37029748878E+02 -0.40092523344E+03  0.44754414477E+03  0.12509273008E+03 0.  0.
          5    1    3    3  502    0 -0.89228654237E+01 -0.18518720579E+02 -0.10434763767E+03  0.10643524993E+03  0.41800000000E+01 0.  1.
         -5    1    3    3    0  502  0.15904057021E+03  0.55548469457E+02 -0.29657759576E+03  0.34110889484E+03  0.41800000000E+01 0.  1.
        -11    1    1    2    0    0 -0.23551071658E+02 -0.41348993503E+02 -0.11196057605E+03  0.12165345384E+03  0.00000000000E+00 0.  1.
         11    1    1    2    0    0 -0.12656663312E+03  0.43192446252E+01 -0.16073335002E+03  0.20462887945E+03  0.00000000000E+00 0. -1.
</event>
<event>
 7    1  0.2794945E-009  0.1017670E+03  0.7561462E-02  0.1276623E+00
         -1   -1    0    0    0  501 -0.00000000000E+00  0.00000000000E+00  0.82852744357E+02  0.82852744357E+02  0.00000000000E+00 0.  1.
          1   -1    0    0  501    0  0.00000000000E+00 -0.00000000000E+00 -0.23166048254E+03  0.23166048254E+03  0.00000000000E+00 0. -1.
         25    2    1    2    0    0  0.42884107229E+02 -0.45791072376E+02 -0.15208456090E+02  0.14076501794E+03  0.12509046397E+03 0.  0.
          5    1    3    3  502    0  0.64611807672E+02 -0.49949299971E+02 -0.52519824856E+02  0.97187564334E+02  0.41800000000E+01 0. -1.
         -5    1    3    3    0  502 -0.21727700442E+02  0.41582275950E+01  0.37311368766E+02  0.43577453602E+02  0.41800000000E+01 0. -1.
        -11    1    1    2    0    0 -0.57053015921E+02  0.64322929018E+01 -0.11380978573E+03  0.12747191198E+03  0.00000000000E+00 0. -1.
         11    1    1    2    0    0  0.14168908691E+02  0.39358779474E+02 -0.19789496363E+02  0.46276296973E+02  0.00000000000E+00 0.  1.
</event>
<event>
 7    1  0.2794945E-009  0.1872645E+03  0.7561462E-02  0.1160952E+00
         -1   -1    0    0    0  501 -0.00000000000E+00  0.00000000000E+00  0.16874705172E+03  0.16874705172E+03  0.00000000000E+00 0.  1.
          1   -1    0    0  501    0  0.00000000000E+00 -0.00000000000E+00 -0.34512861550E+03  0.34512861550E+03  0.00000000000E+00 0. -1.
         25    2    1    2    0    0  0.18029519759E+03  0.24891525344E+02  0.31029389297E+02  0.22301972400E+03  0.12509607502E+03 0.  0.
          5    1    3    3  502    0  0.50760003574E+02  0.33886146185E+02 -0.41792769706E+02  0.74087494665E+02  0.41800000000E+01 0. -1.
         -5    1    3    3    0  502  0.12953519402E+03 -0.89946208413E+01  0.72822159002E+02  0.14893222934E+03  0.41800000000E+01 0. -1.
        -11    1    1    2    0    0 -0.11513128491E+03 -0.26950636872E+02 -0.66661342661E+02  0.13573976646E+03  0.00000000000E+00 0.  1.
         11    1    1    2    0    0 -0.65163912682E+02  0.20591115281E+01 -0.14074961042E+03  0.15511617675E+03  0.00000000000E+00 0. -1.
</event>
<event>
 7    1  0.2794945E-009  0.1384863E+03  0.7561462E-02  0.1215380E+00
          2   -1    0    0  501    0  0.00000000000E+00  0.00000000000E+00  0.16170823246E+04  0.16170823246E+04  0.00000000000E+00 0.  1.
         -2   -1    0    0    0  501 -0.00000000000E+00 -0.00000000000E+00 -0.19132203871E+02  0.19132203871E+02  0.00000000000E+00 0. -1.
         25    2    1    2    0    0 -0.28150302025E+02  0.12577168013E+03  0.10895482479E+04  0.11042522926E+04  0.12508711478E+03 0.  0.
          5    1    3    3  502    0  0.19365073253E+02  0.36675972815E+02  0.71788315831E+03  0.71909236849E+03  0.41800000000E+01 0.  1.
         -5    1    3    3    0  502 -0.47515375278E+02  0.89095707319E+02  0.37166508956E+03  0.38515992412E+03  0.41800000000E+01 0.  1.
        -11    1    1    2    0    0  0.17418306256E+02 -0.12139360623E+03  0.50529238453E+03  0.51996172830E+03  0.00000000000E+00 0.  1.
         11    1    1    2    0    0  0.10731995769E+02 -0.43780739016E+01  0.31094883409E+01  0.12000507573E+02  0.00000000000E+00 0. -1.
</event>
<event>
 7    1  0.2794945E-009  0.1230559E+03  0.7561462E-02  0.1238139E+00
          1   -1    0    0  501    0  0.00000000000E+00  0.00000000000E+00  0.35886967784E+03  0.35886967784E+03  0.00000000000E+00 0. -1.
         -1   -1    0    0    0  501 -0.00000000000E+00 -0.00000000000E+00 -0.54516854121E+02  0.54516854121E+02  0.00000000000E+00 0.  1.
         25    2    1    2    0    0 -0.33593247011E+02  0.64904034207E+02  0.82450157381E+02  0.16669736230E+03  0.12509573232E+03 0.  0.
          5    1    3    3  502    0 -0.80739999061E+02  0.43559244858E+02  0.62444165739E+02  0.11105449786E+03  0.41800000000E+01 0. -1.
         -5    1    3    3    0  502  0.47146752049E+02  0.21344789350E+02  0.20005991641E+02  0.55642864437E+02  0.41800000000E+01 0. -1.
        -11    1    1    2    0    0 -0.57131275117E+01 -0.62727858458E+02  0.96370031743E+02  0.11512865443E+03  0.00000000000E+00 0.  1.
         11    1    1    2    0    0  0.39306374523E+02 -0.21761757490E+01  0.12553263460E+03  0.13156051523E+03  0.00000000000E+00 0. -1.
</event>
<event>
 7    1  0.2794945E-009  0.7636915E+02  0.7561462E-02  0.1339683E+00
         -2   -1    0    0    0  501 -0.00000000000E+00  0.00000000000E+00  0.36146885444E+02  0.36146885444E+02  0.00000000000E+00 0. -1.
          2   -1    0    0  501    0  0.00000000000E+00 -0.00000000000E+00 -0.35845017735E+03  0.35845017735E+03  0.00000000000E+00 0.  1.
         25    2    1    2    0    0 -0.54659857427E+01  0.18344849704E+02 -0.23458681220E+03  0.26654398776E+03  0.12509322301E+03 0.  0.
          5    1    3    3  502    0 -0.40486431285E+02  0.52440760800E+02 -0.77849523445E+02  0.10230936033E+03  0.41800000000E+01 0. -1.
         -5    1    3    3    0  502  0.35020445543E+02 -0.34095911096E+02 -0.15673728875E+03  0.16423462742E+03  0.41800000000E+01 0. -1.
        -11    1    1    2    0    0  0.18311910266E+02 -0.54666048490E+01 -0.10271470798E+03  0.10447737105E+03  0.00000000000E+00 0.  1.
         11    1    1    2    0    0 -0.12845924524E+02 -0.12878244855E+02  0.14998228267E+02  0.23575703989E+02  0.00000000000E+00 0. -1.
</event>
<event>
 7    1  0.2794945E-009  0.2210666E+03  0.7561462E-02  0.1133090E+00
         -2   -1    0    0    0  501 -0.00000000000E+00  0.00000000000E+00  0.12696299388E+03  0.12696299388E+03  0.00000000000E+00 0.  1.
          2   -1    0    0  501    0  0.00000000000E+00 -0.00000000000E+00 -0.63668234280E+03  0.63668234280E+03  0.00000000000E+00 0. -1.
         25    2    1    2    0    0 -0.20274406900E+03  0.32223311362E+02 -0.48000185751E+03  0.53683673999E+03  0.12509357646E+03 0.  0.
          5    1    3    3  502    0 -0.18073349567E+03 -0.15742258992E+02 -0.41545099451E+03  0.45335352256E+03  0.41800000000E+01 0. -1.
         -5    1    3    3    0  502 -0.22010573333E+02  0.47965570354E+02 -0.64550862999E+02  0.83483217426E+02  0.41800000000E+01 0. -1.
        -11    1    1    2    0    0  0.11073556759E+03 -0.33559673696E+02 -0.59473512468E+02  0.13009887130E+03  0.00000000000E+00 0.  1.
         11    1    1    2    0    0  0.92008501410E+02  0.13363623336E+01  0.29756021056E+02  0.96709725390E+02  0.00000000000E+00 0. -1.
</event>
<event>
 7    1  0.2794945E-009  0.1653156E+03  0.7561462E-02  0.1182823E+00
         -2   -1    0    0    0  501 -0.00000000000E+00  0.00000000000E+00  0.16419374592E+03  0.16419374592E+03  0.00000000000E+00 0.  1.
          2   -1    0    0  501    0  0.00000000000E+00 -0.00000000000E+00 -0.22484109329E+03  0.22484109329E+03  0.00000000000E+00 0. -1.
         25    2    1    2    0    0 -0.67173710100E+02  0.11293809477E+03  0.57367332427E+02  0.19027631834E+03  0.12508695340E+03 0.  0.
          5    1    3    3  502    0 -0.99022477038E+02  0.11118504811E+03  0.42886907161E+02  0.15499782285E+03  0.41800000000E+01 0. -1.
         -5    1    3    3    0  502  0.31848766938E+02  0.17530466585E+01  0.14480425266E+02  0.35278495489E+02  0.41800000000E+01 0. -1.
        -11    1    1    2    0    0  0.81679710419E+02 -0.84112674579E+02 -0.11820258940E+03  0.16648834572E+03  0.00000000000E+00 0. -1.
         11    1    1    2    0    0 -0.14506000319E+02 -0.28825420193E+02  0.18790960825E+00  0.32270175156E+02  0.00000000000E+00 0.  1.
</event>
<event>
 7    1  0.2794945E-009  0.3273501E+03  0.7561462E-02  0.1072315E+00
          2   -1    0    0  501    0  0.00000000000E+00  0.00000000000E+00  0.15228620311E+04  0.15228620311E+04  0.00000000000E+00 0.  1.
         -2   -1    0    0    0  501 -0.00000000000E+00 -0.00000000000E+00 -0.86843604261E+02  0.86843604261E+02  0.00000000000E+00 0. -1.
         25    2    1    2    0    0 -0.42111989748E+02 -0.31845968542E+03  0.10199510570E+04  0.10766322147E+04  0.12508707448E+03 0.  0.
          5    1    3    3  502    0 -0.23796464138E+02 -0.10382178996E+03  0.17734437792E+03  0.20691480507E+03  0.41800000000E+01 0.  1.
         -5    1    3    3    0  502 -0.18315525610E+02 -0.21463789546E+03  0.84260667903E+03  0.86971740962E+03  0.41800000000E+01 0.  1.
        -11    1    1    2    0    0  0.67015048043E+02  0.26961884358E+03  0.33507363115E+03  0.43526965868E+03  0.00000000000E+00 0. -1.
         11    1    1    2    0    0 -0.24903058296E+02  0.48840841839E+02  0.80993738714E+02  0.97803761967E+02  0.00000000000E+00 0.  1.
</event>
<event>
 7    1  0.2794945E-009  0.1157839E+03  0.7561462E-02  0.1250219E+00
         -2   -1    0    0    0  501 -0.00000000000E+00  0.00000000000E+00  0.10844116908E+03  0.10844116908E+03  0.00000000000E+00 0.  1.
          2   -1    0    0  501    0  0.00000000000E+00 -0.00000000000E+00 -0.18626593986E+03  0.18626593986E+03  0.00000000000E+00 0. -1.
         25    2    1    2    0    0 -0.14982821256E+02 -0.80005719351E+02 -0.13481273777E+02  0.14985209579E+03  0.12509398789E+03 0.  0.
          5    1    3    3  502    0  0.25160488745E+02  0.25612925215E+02 -0.19625704070E+01  0.36199395224E+02  0.41800000000E+01 0.  1.
         -5    1    3    3    0  502 -0.40143310001E+02 -0.10561864457E+03 -0.11518703370E+02  0.11365270056E+03  0.41800000000E+01 0.  1.
        -11    1    1    2    0    0 -0.65535006685E+00  0.28944630843E+02  0.26648914921E+02  0.39349533730E+02  0.00000000000E+00 0.  1.
         11    1    1    2    0    0  0.15638171322E+02  0.51061088508E+02 -0.90992411926E+02  0.10550547943E+03  0.00000000000E+00 0. -1.
</event>
<event>
 7    1  0.2794945E-009  0.1986086E+03  0.7561462E-02  0.1150918E+00
          2   -1    0    0  501    0  0.00000000000E+00  0.00000000000E+00  0.90490593661E+03  0.90490593661E+03  0.00000000000E+00 0.  1.
         -2   -1    0    0    0  501 -0.00000000000E+00 -0.00000000000E+00 -0.59995358466E+02  0.59995358466E+02  0.00000000000E+00 0. -1.
         25    2    1    2    0    0 -0.92181110944E+02 -0.15564677883E+03  0.23401660608E+03  0.32114524980E+03  0.12508885872E+03 0.  0.
          5    1    3    3  502    0  0.14663707559E+02 -0.67840181657E+01 -0.72160905530E+01  0.18182177667E+02  0.41800000000E+01 0. -1.
         -5    1    3    3    0  502 -0.10684481850E+03 -0.14886276066E+03  0.24123269663E+03  0.30296307213E+03  0.41800000000E+01 0. -1.
        -11    1    1    2    0    0  0.10664421351E+02 -0.87180994253E+01  0.15503441541E+02  0.20738655693E+02  0.00000000000E+00 0. -1.
         11    1    1    2    0    0  0.81516689593E+02  0.16436487825E+03  0.59539053053E+03  0.62301738959E+03  0.00000000000E+00 0.  1.
</event>
<event>
 7    1  0.2902659E-009  0.1024840E+03  0.7561462E-02  0.1275158E+00
          1   -1    0    0  501    0  0.00000000000E+00  0.00000000000E+00  0.70310239954E+03  0.70310239954E+03  0.00000000000E+00 0. -1.
         -1   -1    0    0    0  501 -0.00000000000E+00 -0.00000000000E+00 -0.19059265898E+02  0.19059265898E+02  0.00000000000E+00 0.  1.
         25    2    1    2    0    0 -0.31947579584E+02 -0.16850952478E+02  0.33344098059E+03  0.35795543656E+03  0.12507839375E+03 0.  0.
          5    1    3    3  502    0 -0.85236553762E+01 -0.58324628883E+02  0.28033728400E+03  0.28649760947E+03  0.41800000000E+01 0.  1.
         -5    1    3    3    0  502 -0.23423924208E+02  0.41473676406E+02  0.53103696595E+02  0.71457827087E+02  0.41800000000E+01 0.  1.
        -11    1    1    2    0    0  0.63877350238E+02  0.52628344868E+01  0.21025970668E+03  0.21981164108E+03  0.00000000000E+00 0.  1.
         11    1    1    2    0    0 -0.31929770654E+02  0.11588117991E+02  0.14034244637E+03  0.14439458780E+03  0.00000000000E+00 0. -1.
</event>
<event>
 7    1  0.2794945E-009  0.1927728E+03  0.7561462E-02  0.1155984E+00
         -2   -1    0    0    0  501 -0.00000000000E+00  0.00000000000E+00  0.20526023053E+03  0.20526023053E+03  0.00000000000E+00 0.  1.
          2   -1    0    0  501    0  0.00000000000E+00 -0.00000000000E+00 -0.20851412510E+03  0.20851412510E+03  0.00000000000E+00 0. -1.
         25    2    1    2    0    0  0.15855203349E+03 -0.72599064355E+02  0.20527569684E+02  0.21558802440E+03  0.12508974249E+03 0.  0.
          5    1    3    3  502    0 -0.10220412224E+02 -0.64487761831E+01 -0.25490560214E+02  0.28518145106E+02  0.41800000000E+01 0.  1.
         -5    1    3    3    0  502  0.16877244572E+03 -0.66150288172E+02  0.46018129898E+02  0.18706987929E+03  0.41800000000E+01 0.  1.
        -11    1    1    2    0    0 -0.66148887868E+01  0.34048853851E+02  0.13232894780E+02  0.37123990983E+02  0.00000000000E+00 0.  1.
         11    1    1    2    0    0 -0.15193714471E+03  0.38550210504E+02 -0.37014359041E+02  0.16106234025E+03  0.00000000000E+00 0. -1.
</event>
<event>
 7    1  0.2794945E-009  0.9450321E+02  0.7561462E-02  0.1292299E+00
          1   -1    0    0  501    0  0.00000000000E+00  0.00000000000E+00  0.15987428617E+03  0.15987428617E+03  0.00000000000E+00 0. -1.
         -1   -1    0    0    0  501 -0.00000000000E+00 -0.00000000000E+00 -0.10255272937E+03  0.10255272937E+03  0.00000000000E+00 0.  1.
         25    2    1    2    0    0 -0.36796763449E+02  0.30500062911E+01 -0.25477220121E+02  0.13292023371E+03  0.12512152272E+03 0.  0.
          5    1    3    3  502    0  0.32551709539E+02  0.16158646078E+02 -0.46496401202E+02  0.59161671391E+02  0.41800000000E+01 0.  1.
         -5    1    3    3    0  502 -0.69348472988E+02 -0.13108639787E+02  0.21019181081E+02  0.73758562324E+02  0.41800000000E+01 0.  1.
        -11    1    1    2    0    0 -0.19016985521E+02 -0.15506979900E+02  0.65213313362E+02  0.69677029239E+02  0.00000000000E+00 0. -1.
         11    1    1    2    0    0  0.55813748970E+02  0.12456973609E+02  0.17585463562E+02  0.59829752584E+02  0.00000000000E+00 0.  1.
</event>
<event>
 7    1  0.2794945E-009  0.8106405E+02  0.7561462E-02  0.1326059E+00
          1   -1    0    0  501    0  0.00000000000E+00  0.00000000000E+00  0.13565204304E+04  0.13565204304E+04  0.00000000000E+00 0. -1.
         -1   -1    0    0    0  501 -0.00000000000E+00 -0.00000000000E+00 -0.10992200152E+02  0.10992200152E+02  0.00000000000E+00 0.  1.
         25    2    1    2    0    0 -0.48651650807E+02 -0.11207266268E+01  0.94238254097E+03  0.95189330374E+03  0.12509104297E+03 0.  0.
          5    1    3    3  502    0 -0.10166471169E+02 -0.16239529623E+02  0.18129493128E+02  0.26706373387E+02  0.41800000000E+01 0.  1.
         -5    1    3    3    0  502 -0.38485179637E+02  0.15118802997E+02  0.92425304784E+03  0.92518693035E+03  0.41800000000E+01 0.  1.
        -11    1    1    2    0    0  0.63561981656E+02  0.28596251024E+02  0.26960463715E+03  0.27846818751E+03  0.00000000000E+00 0.  1.
         11    1    1    2    0    0 -0.14910330849E+02 -0.27475524397E+02  0.13354105218E+03  0.13715113935E+03  0.00000000000E+00 0. -1.
</event>
<event>
 7    1  0.2794945E-009  0.1187529E+03  0.7561462E-02  0.1245169E+00
         -4   -1    0    0    0  501 -0.00000000000E+00  0.00000000000E+00  0.23992105651E+03  0.23992105651E+03  0.00000000000E+00 0.  1.
          4   -1    0    0  501    0  0.00000000000E+00 -0.00000000000E+00 -0.10694889373E+03  0.10694889373E+03  0.00000000000E+00 0. -1.
         25    2    1    2    0    0 -0.45808907534E+02  0.16978989361E+02 -0.37104347840E+02  0.13932266432E+03  0.12508928841E+03 0.  0.
          5    1    3    3  502    0  0.28677131749E+02  0.34596480058E+02 -0.43136944407E+02  0.62430462841E+02  0.41800000000E+01 0.  1.
         -5    1    3    3    0  502 -0.74486039283E+02 -0.17617490697E+02  0.60325965677E+01  0.76892201476E+02  0.41800000000E+01 0.  1.
        -11    1    1    2    0    0  0.74742462488E+02 -0.34042217185E+02  0.14073379110E+03  0.16294572166E+03  0.00000000000E+00 0.  1.
         11    1    1    2    0    0 -0.28933554954E+02  0.17063227824E+02  0.29342719518E+02  0.44601564263E+02  0.00000000000E+00 0. -1.
</event>
<event>
 7    1  0.2794945E-009  0.2307793E+03  0.7561462E-02  0.1126092E+00
          2   -1    0    0  501    0  0.00000000000E+00  0.00000000000E+00  0.63881959808E+03  0.63881959808E+03  0.00000000000E+00 0. -1.
         -2   -1    0    0    0  501 -0.00000000000E+00 -0.00000000000E+00 -0.16507891510E+03  0.16507891510E+03  0.00000000000E+00 0.  1.
         25    2    1    2    0    0 -0.19774490585E+03  0.58458367420E+02  0.52046672596E+03  0.57363193111E+03  0.12509017165E+03 0.  0.
          5    1    3    3  502    0 -0.13842021285E+03 -0.17698709169E+02  0.24881190621E+03  0.28530376216E+03  0.41800000000E+01 0.  1.
         -5    1    3    3    0  502 -0.59324693002E+02  0.76157076588E+02  0.27165481976E+03  0.28832816895E+03  0.41800000000E+01 0.  1.
        -11    1    1    2    0    0  0.90613523386E+01 -0.33848092787E+02 -0.10375191907E+02  0.36543755946E+02  0.00000000000E+00 0.  1.
         11    1    1    2    0    0  0.18868355352E+03 -0.24610274633E+02 -0.36350851077E+02  0.19372282612E+03  0.00000000000E+00 0. -1.
</event>
<event>
 7    1  0.2794945E-009  0.1077790E+03  0.7561462E-02  0.1264739E+00
          1   -1    0    0  501    0  0.00000000000E+00  0.00000000000E+00  0.70526433908E+02  0.70526433908E+02  0.00000000000E+00 0. -1.
         -1   -1    0    0    0  501 -0.00000000000E+00 -0.00000000000E+00 -0.17632391218E+03  0.17632391218E+03  0.00000000000E+00 0.  1.
         25    2    1    2    0    0  0.30801473583E+02  0.38690990583E+01 -0.64548188681E+02  0.14413913452E+03  0.12508365495E+03 0.  0.
          5    1    3    3  502    0 -0.45288945659E+02 -0.74769655880E+00 -0.47788699662E+02  0.65976358375E+02  0.41800000000E+01 0. -1.
         -5    1    3    3    0  502  0.76090419242E+02  0.46167956171E+01 -0.16759489019E+02  0.78162776143E+02  0.41800000000E+01 0. -1.
        -11    1    1    2    0    0 -0.11751476491E+02 -0.46005620201E+02 -0.16541201857E+02  0.50281464265E+02  0.00000000000E+00 0.  1.
         11    1    1    2    0    0 -0.19049997092E+02  0.42136521142E+02 -0.24708087736E+02  0.52429747308E+02  0.00000000000E+00 0. -1.
</event>
<event>
 7    1  0.2794945E-009  0.1363430E+03  0.7561462E-02  0.1218336E+00
          2   -1    0    0  501    0  0.00000000000E+00  0.00000000000E+00  0.11568630943E+04  0.11568630943E+04  0.00000000000E+00 0.  1.
         -2   -1    0    0    0  501 -0.00000000000E+00 -0.00000000000E+00 -0.19128026793E+02  0.19128026793E+02  0.00000000000E+00 0. -1.
         25    2    1    2    0    0  0.60959317573E+02  0.76086780747E+02  0.73551161288E+03  0.75241182820E+03  0.12506394339E+03 0.  0.
          5    1    3    3  502    0  0.74265608696E+02  0.64552811973E+01  0.22694908548E+03  0.23891507087E+03  0.41800000000E+01 0.  1.
         -5    1    3    3    0  502 -0.13306291123E+02  0.69631499550E+02  0.50856252740E+03  0.51349675733E+03  0.41800000000E+01 0.  1.
        -11    1    1    2    0    0  0.18040717378E+02 -0.31485271912E+02  0.17869674880E+03  0.18234395483E+03  0.00000000000E+00 0.  1.
         11    1    1    2    0    0 -0.79000034951E+02 -0.44601508836E+02  0.22352670587E+03  0.24123533810E+03  0.00000000000E+00 0. -1.
</event>
<event>
 7    1  0.2794945E-009  0.1175212E+03  0.7561462E-02  0.1247243E+00
          2   -1    0    0  501    0  0.00000000000E+00  0.00000000000E+00  0.29541422022E+02  0.29541422022E+02  0.00000000000E+00 0.  1.
         -2   -1    0    0    0  501 -0.00000000000E+00 -0.00000000000E+00 -0.13222083998E+04  0.13222083998E+04  0.00000000000E+00 0. -1.
         25    2    1    2    0    0  0.25318818491E+02  0.39802134423E+02 -0.12176215625E+04  0.12249382749E+04  0.12508499346E+03 0.  0.
          5    1    3    3  502    0 -0.28459720438E+01  0.81951824088E+02 -0.81166597512E+03  0.81580838964E+03  0.41800000000E+01 0. -1.
         -5    1    3    3    0  502  0.28164790535E+02 -0.42149689665E+02 -0.40595558734E+03  0.40912988531E+03  0.41800000000E+01 0. -1.
        -11    1    1    2    0    0  0.28816001338E+02  0.79393927643E+01 -0.25181819274E+02  0.39083499236E+02  0.00000000000E+00 0.  1.
         11    1    1    2    0    0 -0.54134819829E+02 -0.47741527187E+02 -0.49863596095E+02  0.87728047690E+02  0.00000000000E+00 0. -1.
</event>
<event>
 7    1  0.2794945E-009  0.8991623E+02  0.7561462E-02  0.1303055E+00
          2   -1    0    0  501    0  0.00000000000E+00  0.00000000000E+00  0.38196287124E+02  0.38196287124E+02  0.00000000000E+00 0. -1.
         -2   -1    0    0    0  501 -0.00000000000E+00 -0.00000000000E+00 -0.52337131570E+03  0.52337131570E+03  0.00000000000E+00 0.  1.
         25    2    1    2    0    0  0.78587366070E+02  0.18970882126E+02 -0.34548986693E+03  0.37622693962E+03  0.12509034121E+03 0.  0.
          5    1    3    3  502    0  0.76192255992E+02  0.10379126648E+02 -0.35456610177E+03  0.36283271499E+03  0.41800000000E+01 0.  1.
         -5    1    3    3    0  502  0.23951100780E+01  0.85917554781E+01  0.90762348373E+01  0.13394224625E+02  0.41800000000E+01 0.  1.
        -11    1    1    2    0    0 -0.73083031308E+02  0.14188995907E+00 -0.14698678945E+03  0.16415317807E+03  0.00000000000E+00 0.  1.
         11    1    1    2    0    0 -0.55043347621E+01 -0.19112772085E+02  0.73016278051E+01  0.21187485140E+02  0.00000000000E+00 0. -1.
</event>
<event>
 7    1  0.2794945E-009  0.1174848E+03  0.7561462E-02  0.1247305E+00
         -2   -1    0    0    0  501 -0.00000000000E+00  0.00000000000E+00  0.25779191768E+02  0.25779191768E+02  0.00000000000E+00 0. -1.
          2   -1    0    0  501    0  0.00000000000E+00 -0.00000000000E+00 -0.55257779054E+03  0.55257779054E+03  0.00000000000E+00 0.  1.
         25    2    1    2    0    0  0.75847140104E+01  0.47164609980E+02 -0.26938394260E+03  0.30082991938E+03  0.12509557764E+03 0.  0.
          5    1    3    3  502    0  0.64324438278E+02  0.14202922202E+02 -0.10811010298E+03  0.12666737198E+03  0.41800000000E+01 0. -1.
         -5    1    3    3    0  502 -0.56739724267E+02  0.32961687778E+02 -0.16127383962E+03  0.17416254740E+03  0.41800000000E+01 0. -1.
        -11    1    1    2    0    0 -0.38474270377E+02 -0.58744458771E+02 -0.18756101791E+03  0.20027560101E+03  0.00000000000E+00 0.  1.
         11    1    1    2    0    0  0.30889556367E+02  0.11579848790E+02 -0.69853638257E+02  0.77251461917E+02  0.00000000000E+00 0. -1.
</event>
<event>
 7    1  0.2794945E-009  0.1041595E+03  0.7561462E-02  0.1271784E+00
          2   -1    0    0  501    0  0.00000000000E+00  0.00000000000E+00  0.50710981837E+02  0.50710981837E+02  0.00000000000E+00 0.  1.
         -2   -1    0    0    0  501 -0.00000000000E+00 -0.00000000000E+00 -0.28568081374E+03  0.28568081374E+03  0.00000000000E+00 0. -1.
         25    2    1    2    0    0  0.22845084600E+02  0.20771985164E+02 -0.18682857881E+03  0.22694872804E+03  0.12508970398E+03 0.  0.
          5    1    3    3  502    0  0.34407764008E+02 -0.40090277634E+02 -0.36633996603E+02  0.64425512740E+02  0.41800000000E+01 0. -1.
         -5    1    3    3    0  502 -0.11562679408E+02  0.60862262798E+02 -0.15019458220E+03  0.16252321530E+03  0.41800000000E+01 0. -1.
        -11    1    1    2    0    0 -0.37660198167E+01 -0.54420137952E+02 -0.10660911321E+02  0.55582275504E+02  0.00000000000E+00 0.  1.
         11    1    1    2    0    0 -0.19079064784E+02  0.33648152788E+02 -0.37480341779E+02  0.53860792038E+02  0.00000000000E+00 0. -1.
</event>
<event>
 7    1  0.2794945E-009  0.8528822E+02  0.7561462E-02  0.1314681E+00
         -1   -1    0    0    0  501 -0.00000000000E+00  0.00000000000E+00  0.32134319401E+02  0.32134319401E+02  0.00000000000E+00 0.  1.
          1   -1    0    0  501    0  0.00000000000E+00 -0.00000000000E+00 -0.45770996073E+03  0.45770996073E+03  0.00000000000E+00 0. -1.
         25    2    1    2    0    0 -0.33915868489E+02 -0.27672937196E+02 -0.30131564276E+03  0.32918032100E+03  0.12510990996E+03 0.  0.
          5    1    3    3  502    0  0.61954398629E+01 -0.47201339547E+02 -0.27076143367E+03  0.27494649715E+03  0.41800000000E+01 0. -1.
         -5    1    3    3    0  502 -0.40111308351E+02  0.19528402351E+02 -0.30554209091E+02  0.54233823848E+02  0.41800000000E+01 0. -1.
        -11    1    1    2    0    0  0.35852152087E+02  0.46688169334E+02 -0.12827168575E+03  0.14113393401E+03  0.00000000000E+00 0. -1.
         11    1    1    2    0    0 -0.19362835985E+01 -0.19015232138E+02  0.40116871771E+01  0.19530025127E+02  0.00000000000E+00 0.  1.
</event>
<event>
 7    1  0.2794945E-009  0.1072921E+03  0.7561462E-02  0.1265668E+00
         -1   -1    0    0    0  501 -0.00000000000E+00  0.00000000000E+00  0.29392673096E+02  0.29392673096E+02  0.00000000000E+00 0.  1.
          1   -1    0    0  501    0  0.00000000000E+00 -0.00000000000E+00 -0.52960612446E+03  0.52960612446E+03  0.00000000000E+00 0. -1.
         25    2    1    2    0    0 -0.59689031523E+02  0.27923692650E+02 -0.29405915054E+03  0.32628248181E+03  0.12508781245E+03 0.  0.
          5    1    3    3  502    0 -0.65622970292E+02 -0.36455096970E+02 -0.13479684209E+03  0.15434704196E+03  0.41800000000E+01 0.  1.
         -5    1    3    3    0  502  0.59339387687E+01  0.64378789620E+02 -0.15926230845E+03  0.17193543985E+03  0.41800000000E+01 0.  1.
        -11    1    1    2    0    0  0.38464340738E+02  0.13094128410E+01 -0.20550767442E+02  0.43629738859E+02  0.00000000000E+00 0.  1.
         11    1    1    2    0    0  0.21224690785E+02 -0.29233105491E+02 -0.18560353338E+03  0.18908657688E+03  0.00000000000E+00 0. -1.
</event>
<event>
 7    1  0.2794945E-009  0.1423019E+03  0.7561462E-02  0.1210265E+00
          2   -1    0    0  501    0  0.00000000000E+00  0.00000000000E+00  0.54890631668E+03  0.54890631668E+03  0.00000000000E+00 0. -1.
         -2   -1    0    0    0  501 -0.00000000000E+00 -0.00000000000E+00 -0.42556431422E+02  0.42556431422E+02  0.00000000000E+00 0.  1.
         25    2    1    2    0    0 -0.75840512412E+01  0.95021988796E+02  0.37172087307E+03  0.40362175077E+03  0.12508962398E+03 0.  0.
          5    1    3    3  502    0 -0.26486776167E+02 -0.23916355986E+02  0.68919001504E+02  0.77722857408E+02  0.41800000000E+01 0.  1.
         -5    1    3    3    0  502  0.18902724925E+02  0.11893834478E+03  0.30280187157E+03  0.32589889336E+03  0.41800000000E+01 0.  1.
        -11    1    1    2    0    0  0.45637520130E+02 -0.36854817468E+02  0.42530009699E+02  0.72455935156E+02  0.00000000000E+00 0.  1.
         11    1    1    2    0    0 -0.38053468889E+02 -0.58167171327E+02  0.92099002488E+02  0.11538506218E+03  0.00000000000E+00 0. -1.
</event>
<event>
 7    1  0.3032769E-009  0.1000945E+03  0.7561462E-02  0.1280097E+00
          2   -1    0    0  501    0  0.00000000000E+00  0.00000000000E+00  0.24556449839E+03  0.24556449839E+03  0.00000000000E+00 0. -1.
         -2   -1    0    0    0  501 -0.00000000000E+00 -0.00000000000E+00 -0.79161012472E+02  0.79161012472E+02  0.00000000000E+00 0.  1.
         25    2    1    2    0    0  0.66922611697E+02  0.46503652063E+02  0.54798542367E+02  0.15903034378E+03  0.12508614786E+03 0.  0.
          5    1    3    3  502    0  0.49330794475E+02  0.16135412857E+02  0.93249942649E+02  0.10680310405E+03  0.41800000000E+01 0.  1.
         -5    1    3    3    0  502  0.17591817221E+02  0.30368239206E+02 -0.38451400282E+02  0.52227239724E+02  0.41800000000E+01 0.  1.
        -11    1    1    2    0    0 -0.19706825915E+02 -0.60418425606E+02  0.29726999977E+02  0.70160100257E+02  0.00000000000E+00 0.  1.
         11    1    1    2    0    0 -0.47215785781E+02  0.13914773543E+02  0.81877943570E+02  0.95535066823E+02  0.00000000000E+00 0. -1.
</event>
<event>
 7    1  0.2794945E-009  0.1479201E+03  0.7561462E-02  0.1203052E+00
         -2   -1    0    0    0  501 -0.00000000000E+00  0.00000000000E+00  0.15269233842E+02  0.15269233842E+02  0.00000000000E+00 0.  1.
          2   -1    0    0  501    0  0.00000000000E+00 -0.00000000000E+00 -0.14583780833E+04  0.14583780833E+04  0.00000000000E+00 0. -1.
         25    2    1    2    0    0  0.58800535525E+02 -0.82676752182E+02 -0.81836127993E+03  0.83405986727E+03  0.12509088445E+03 0.  0.
          5    1    3    3  502    0  0.86583857691E+01 -0.10531869870E+03 -0.52175622823E+03  0.53236644338E+03  0.41800000000E+01 0.  1.
         -5    1    3    3    0  502  0.50142149756E+02  0.22641946521E+02 -0.29660505170E+03  0.30169342389E+03  0.41800000000E+01 0.  1.
        -11    1    1    2    0    0  0.16889810543E+02  0.49432796661E+02 -0.19003814439E+03  0.19708719748E+03  0.00000000000E+00 0.  1.
         11    1    1    2    0    0 -0.75690346068E+02  0.33243955521E+02 -0.43470942513E+03  0.44250025239E+03  0.00000000000E+00 0. -1.
</event>
<event>
 7    1  0.2794945E-009  0.1426404E+03  0.7561462E-02  0.1209820E+00
          1   -1    0    0  501    0  0.00000000000E+00  0.00000000000E+00  0.23235785069E+03  0.23235785069E+03  0.00000000000E+00 0. -1.
         -1   -1    0    0    0  501 -0.00000000000E+00 -0.00000000000E+00 -0.95268416663E+02  0.95268416663E+02  0.00000000000E+00 0.  1.
         25    2    1    2    0    0  0.23721159928E+02 -0.10911469224E+03  0.81083226013E+02  0.18625575289E+03  0.12509199197E+03 0.  0.
          5    1    3    3  502    0 -0.49365476038E+02 -0.45239100380E+02  0.14970940824E+02  0.68739565730E+02  0.41800000000E+01 0.  1.
         -5    1    3    3    0  502  0.73086635965E+02 -0.63875591864E+02  0.66112285189E+02  0.11751618716E+03  0.41800000000E+01 0.  1.
        -11    1    1    2    0    0 -0.37255768679E+02  0.65324810602E+02  0.90352786640E+01  0.75742718729E+02  0.00000000000E+00 0.  1.
         11    1    1    2    0    0  0.13534608751E+02  0.43789881642E+02  0.46970929353E+02  0.65627795731E+02  0.00000000000E+00 0. -1.
</event>
<event>
 7    1  0.2794945E-009  0.1021510E+03  0.7561462E-02  0.1275837E+00
          2   -1    0    0  501    0  0.00000000000E+00  0.00000000000E+00  0.73173881170E+03  0.73173881170E+03  0.00000000000E+00 0. -1.
         -2   -1    0    0    0  501 -0.00000000000E+00 -0.00000000000E+00 -0.21169883978E+02  0.21169883978E+02  0.00000000000E+00 0.  1.
         25    2    1    2    0    0  0.36365935614E+02  0.49647736598E+02  0.43962643862E+03  0.46119793198E+03  0.12507896667E+03 0.  0.
          5    1    3    3  502    0  0.57055593214E+02 -0.25529291995E+01  0.35475366182E+03  0.35934592128E+03  0.41800000000E+01 0.  1.
         -5    1    3    3    0  502 -0.20689657600E+02  0.52200665798E+02  0.84872776800E+02  0.10185201070E+03  0.41800000000E+01 0.  1.
        -11    1    1    2    0    0 -0.36975949316E+02  0.38978797881E+01  0.19663138703E+03  0.20011575815E+03  0.00000000000E+00 0.  1.
         11    1    1    2    0    0  0.61001370138E+00 -0.53545616387E+02  0.74311102069E+02  0.91595005549E+02  0.00000000000E+00 0. -1.
</event>
<event>
 7    1  0.2794945E-009  0.7759677E+02  0.7561462E-02  0.1336013E+00
          2   -1    0    0  501    0  0.00000000000E+00  0.00000000000E+00  0.27261574346E+03  0.27261574346E+03  0.00000000000E+00 0. -1.
         -2   -1    0    0    0  501 -0.00000000000E+00 -0.00000000000E+00 -0.55040327012E+02  0.55040327012E+02  0.00000000000E+00 0.  1.
         25    2    1    2    0    0 -0.79287840973E+01  0.47903291369E+02  0.15992543114E+03  0.20876303806E+03  0.12509305174E+03 0.  0.
          5    1    3    3  502    0 -0.45366756506E+02  0.59890542695E+01  0.14257615145E+03  0.14979800643E+03  0.41800000000E+01 0. -1.
         -5    1    3    3    0  502  0.37437972408E+02  0.41914237099E+02  0.17349279690E+02  0.58965031632E+02  0.41800000000E+01 0. -1.
        -11    1    1    2    0    0 -0.58219904231E+01 -0.28605721966E+02 -0.21511025750E+02  0.36261648204E+02  0.00000000000E+00 0.  1.
         11    1    1    2    0    0  0.13750774520E+02 -0.19297569403E+02  0.79161011054E+02  0.82631384206E+02  0.00000000000E+00 0. -1.
</event>
<event>
 7    1  0.2794945E-009  0.1568137E+03  0.7561462E-02  0.1192342E+00
          3   -1    0    0  501    0  0.00000000000E+00  0.00000000000E+00  0.24726615643E+03  0.24726615643E+03  0.00000000000E+00 0. -1.
         -3   -1    0    0    0  501 -0.00000000000E+00 -0.00000000000E+00 -0.13009729946E+03  0.13009729946E+03  0.00000000000E+00 0.  1.
         25    2    1    2    0    0  0.15372314957E+02  0.12747237013E+03  0.12811313734E+03  0.22031158933E+03  0.12505481686E+03 0.  0.
          5    1    3    3  502    0  0.64787646087E+02  0.97223620646E+02  0.62092573558E+02  0.13237383272E+03  0.41800000000E+01 0.  1.
         -5    1    3    3    0  502 -0.49415331130E+02  0.30248749480E+02  0.66020563785E+02  0.87937756614E+02  0.41800000000E+01 0.  1.
        -11    1    1    2    0    0 -0.32894806640E+02 -0.55141856610E+02 -0.41660631029E+02  0.76539537704E+02  0.00000000000E+00 0.  1.
         11    1    1    2    0    0  0.17522491682E+02 -0.72330513516E+02  0.30716350654E+02  0.80512328856E+02  0.00000000000E+00 0. -1.
</event>
<event>
 7    1  0.2794945E-009  0.1128931E+03  0.7561462E-02  0.1255304E+00
          1   -1    0    0  501    0  0.00000000000E+00  0.00000000000E+00  0.15125926572E+03  0.15125926572E+03  0.00000000000E+00 0. -1.
         -1   -1    0    0    0  501 -0.00000000000E+00 -0.00000000000E+00 -0.11888413772E+03  0.11888413772E+03  0.00000000000E+00 0.  1.
         25    2    1    2    0    0 -0.32535595527E+02  0.74190005336E+02  0.14405572577E+02  0.14972604074E+03  0.12509054675E+03 0.  0.
          5    1    3    3  502    0  0.41758011895E+02  0.41876352445E+02  0.31030159108E+02  0.66915645598E+02  0.41800000000E+01 0. -1.
         -5    1    3    3    0  502 -0.74293607422E+02  0.32313652891E+02 -0.16624586531E+02  0.82810395146E+02  0.41800000000E+01 0. -1.
        -11    1    1    2    0    0  0.10723075850E+02 -0.33207759311E+01 -0.30048801942E+02  0.32077132145E+02  0.00000000000E+00 0.  1.
         11    1    1    2    0    0  0.21812519678E+02 -0.70869229405E+02  0.48018357366E+02  0.88340230559E+02  0.00000000000E+00 0. -1.
</event>
<event>
 7    1  0.2794945E-009  0.2363856E+03  0.7561462E-02  0.1122224E+00
          2   -1    0    0  501    0  0.00000000000E+00  0.00000000000E+00  0.17492875328E+04  0.17492875328E+04  0.00000000000E+00 0.  1.
         -2   -1    0    0    0  501 -0.00000000000E+00 -0.00000000000E+00 -0.35931485517E+02  0.35931485517E+02  0.00000000000E+00 0. -1.
         25    2    1    2    0    0  0.19464191775E+02 -0.22335654387E+03  0.95930991829E+03  0.99307069232E+03  0.12508749003E+03 0.  0.
          5    1    3    3  502    0  0.51351613625E+02 -0.48474692675E+02  0.17296444176E+03  0.18687149212E+03  0.41800000000E+01 0. -1.
         -5    1    3    3    0  502 -0.31887421851E+02 -0.17488185119E+03  0.78634547653E+03  0.80619920020E+03  0.41800000000E+01 0. -1.
        -11    1    1    2    0    0 -0.13037521958E+02  0.13603966167E+03  0.59603776013E+03  0.61150452004E+03  0.00000000000E+00 0.  1.
         11    1    1    2    0    0 -0.64266698165E+01  0.87316882203E+02  0.15800836888E+03  0.18064380598E+03  0.00000000000E+00 0. -1.
</event>
<event>
 7    1  0.2794945E-009  0.1932482E+03  0.7561462E-02  0.1155564E+00
          1   -1    0    0  501    0  0.00000000000E+00  0.00000000000E+00  0.74111871101E+03  0.74111871101E+03  0.00000000000E+00 0.  1.
         -1   -1    0    0    0  501 -0.00000000000E+00 -0.00000000000E+00 -0.86902686422E+02  0.86902686422E+02  0.00000000000E+00 0. -1.
         25    2    1    2    0    0  0.15293733609E+03 -0.69718275049E+02  0.58952044065E+03  0.62564466652E+03  0.12508569927E+03 0.  0.
          5    1    3    3  502    0  0.13557944392E+03 -0.89894677757E+01  0.48270796129E+03  0.50148483968E+03  0.41800000000E+01 0.  1.
         -5    1    3    3    0  502  0.17357892175E+02 -0.60728807273E+02  0.10681247936E+03  0.12415982684E+03  0.41800000000E+01 0.  1.
        -11    1    1    2    0    0 -0.11388314344E+03  0.79284042384E+01  0.17822078072E+02  0.11554157875E+03  0.00000000000E+00 0.  1.
         11    1    1    2    0    0 -0.39054192653E+02  0.61789870810E+02  0.46873505874E+02  0.86835152165E+02  0.00000000000E+00 0. -1.
</event>
<event>
 7    1  0.3791684E-009  0.1282331E+03  0.7561462E-02  0.1230101E+00
          2   -1    0    0  501    0  0.00000000000E+00  0.00000000000E+00  0.55600972316E+03  0.55600972316E+03  0.00000000000E+00 0. -1.
         -2   -1    0    0    0  501 -0.00000000000E+00 -0.00000000000E+00 -0.43927842000E+02  0.43927842000E+02  0.00000000000E+00 0.  1.
         25    2    1    2    0    0 -0.97610983182E+02  0.47354051774E+02  0.21994199126E+03  0.27530364323E+03  0.12508919297E+03 0.  0.
          5    1    3    3  502    0 -0.58522183651E+02 -0.25534660296E+02  0.16214864617E+03  0.17431729894E+03  0.41800000000E+01 0.  1.
         -5    1    3    3    0  502 -0.39088799531E+02  0.72888712071E+02  0.57793345093E+02  0.10098634429E+03  0.41800000000E+01 0.  1.
        -11    1    1    2    0    0  0.66811327028E+02 -0.23920943581E+02  0.71910933307E+02  0.10103042755E+03  0.00000000000E+00 0.  1.
         11    1    1    2    0    0  0.30799656155E+02 -0.23433108193E+02  0.22022895660E+03  0.22360349439E+03  0.00000000000E+00 0. -1.
</event>
<event>
 7    1  0.2794945E-009  0.1053072E+03  0.7561462E-02  0.1269516E+00
         -3   -1    0    0    0  501 -0.00000000000E+00  0.00000000000E+00  0.26623666740E+02  0.26623666740E+02  0.00000000000E+00 0.  1.
          3   -1    0    0  501    0  0.00000000000E+00 -0.00000000000E+00 -0.53053942351E+03  0.53053942351E+03  0.00000000000E+00 0. -1.
         25    2    1    2    0    0 -0.43017374043E+02  0.17119579162E+02 -0.24853678978E+03  0.28206740470E+03  0.12509160828E+03 0.  0.
          5    1    3    3  502    0 -0.66221344632E+02  0.52135632967E+02 -0.20369078379E+03  0.22047856701E+03  0.41800000000E+01 0. -1.
         -5    1    3    3    0  502  0.23203970589E+02 -0.35016053805E+02 -0.44846005988E+02  0.61588837692E+02  0.41800000000E+01 0. -1.
        -11    1    1    2    0    0  0.14430302593E+02 -0.43059629590E+02 -0.21293240491E+03  0.21772132278E+03  0.00000000000E+00 0. -1.
         11    1    1    2    0    0  0.28587071451E+02  0.25940050429E+02 -0.42446562084E+02  0.57374362769E+02  0.00000000000E+00 0.  1.
</event>
<event>
 7    1  0.2794945E-009  0.1541637E+03  0.7561462E-02  0.1195448E+00
         -2   -1    0    0    0  501 -0.00000000000E+00  0.00000000000E+00  0.13377917526E+03  0.13377917526E+03  0.00000000000E+00 0.  1.
          2   -1    0    0  501    0  0.00000000000E+00 -0.00000000000E+00 -0.24175499325E+03  0.24175499325E+03  0.00000000000E+00 0. -1.
         25    2    1    2    0    0 -0.13604044733E+03  0.24801379763E+02 -0.18202334978E+02  0.18735398363E+03  0.12509227968E+03 0.  0.
          5    1    3    3  502    0 -0.54978516494E+02  0.31270108039E+02 -0.67154416159E+02  0.92345248618E+02  0.41800000000E+01 0. -1.
         -5    1    3    3    0  502 -0.81061930835E+02 -0.64687282762E+01  0.48952081181E+02  0.95008735010E+02  0.41800000000E+01 0. -1.
        -11    1    1    2    0    0 -0.12676725553E+02 -0.43186676109E+01 -0.16141347298E+02  0.20973634718E+02  0.00000000000E+00 0. -1.
         11    1    1    2    0    0  0.14871717288E+03 -0.20482712152E+02 -0.73632135715E+02  0.16720655016E+03  0.00000000000E+00 0.  1.
</event>
<event>
 7    1  0.2794945E-009  0.1216877E+03  0.7561462E-02  0.1240339E+00
          2   -1    0    0  501    0  0.00000000000E+00  0.00000000000E+00  0.73369279410E+03  0.73369279410E+03  0.00000000000E+00 0. -1.
         -2   -1    0    0    0  501 -0.00000000000E+00 -0.00000000000E+00 -0.26253821439E+02  0.26253821439E+02  0.00000000000E+00 0.  1.
         25    2    1    2    0    0 -0.85805999422E+02 -0.98559157531E+01  0.38993564321E+03  0.41851750535E+03  0.12508911954E+03 0.  0.
          5    1    3    3  502    0 -0.28693564210E+02  0.52401453205E+02  0.22904727339E+03  0.23674745779E+03  0.41800000000E+01 0.  1.
         -5    1    3    3    0  502 -0.57112435212E+02 -0.62257368958E+02  0.16088836982E+03  0.18177004756E+03  0.41800000000E+01 0.  1.
        -11    1    1    2    0    0  0.79526995199E+02 -0.80395188067E+01  0.31141663486E+03  0.32151127087E+03  0.00000000000E+00 0. -1.
         11    1    1    2    0    0  0.62790042230E+01  0.17895434560E+02  0.60866945907E+01  0.19917839319E+02  0.00000000000E+00 0.  1.
</event>
<event>
 7    1  0.2794945E-009  0.1194280E+03  0.7561462E-02  0.1244044E+00
          2   -1    0    0  501    0  0.00000000000E+00  0.00000000000E+00  0.60247373587E+03  0.60247373587E+03  0.00000000000E+00 0. -1.
         -2   -1    0    0    0  501 -0.00000000000E+00 -0.00000000000E+00 -0.36745219034E+02  0.36745219034E+02  0.00000000000E+00 0.  1.
         25    2    1    2    0    0 -0.50125158860E+02 -0.82795322599E+02  0.30846423896E+03  0.34664761913E+03  0.12508712220E+03 0.  0.
          5    1    3    3  502    0 -0.13804900447E+02 -0.65225135210E+02  0.29710797238E+03  0.30452506168E+03  0.41800000000E+01 0. -1.
         -5    1    3    3    0  502 -0.36320258412E+02 -0.17570187389E+02  0.11356266582E+02  0.42122557457E+02  0.41800000000E+01 0. -1.
        -11    1    1    2    0    0 -0.20298581955E+02 -0.29739069162E+01  0.86607616601E+02  0.89004245994E+02  0.00000000000E+00 0.  1.
         11    1    1    2    0    0  0.70423740814E+02  0.85769229515E+02  0.17065666128E+03  0.20356708978E+03  0.00000000000E+00 0. -1.
</event>
<event>
 7    1  0.2794945E-009  0.9332531E+02  0.7561462E-02  0.1294993E+00
         -2   -1    0    0    0  501 -0.00000000000E+00  0.00000000000E+00  0.16473472267E+03  0.16473472267E+03  0.00000000000E+00 0.  1.
          2   -1    0    0  501    0  0.00000000000E+00 -0.00000000000E+00 -0.92934533132E+02  0.92934533132E+02  0.00000000000E+00 0. -1.
         25    2    1    2    0    0 -0.33097218407E+01 -0.32723037267E+02  0.39960439317E+01  0.12940621487E+03  0.12509296005E+03 0.  0.
          5    1    3    3  502    0 -0.36412995671E+02 -0.69952579629E+02  0.72622347514E+01  0.79306255138E+02  0.41800000000E+01 0. -1.
         -5    1    3    3    0  502  0.33103273831E+02  0.37229542362E+02 -0.32661908196E+01  0.50099959733E+02  0.41800000000E+01 0. -1.
        -11    1    1    2    0    0  0.17087457190E+02 -0.47692242648E+01  0.83486907235E+02  0.85350983433E+02  0.00000000000E+00 0.  1.
         11    1    1    2    0    0 -0.13777735349E+02  0.37492261532E+02 -0.15682761631E+02  0.42912057496E+02  0.00000000000E+00 0. -1.
</event>
<event>
 7    1  0.2794945E-009  0.9879892E+02  0.7561462E-02  0.1282842E+00
          2   -1    0    0  501    0  0.00000000000E+00  0.00000000000E+00  0.17296387255E+03  0.17296387255E+03  0.00000000000E+00 0. -1.
         -2   -1    0    0    0  501 -0.00000000000E+00 -0.00000000000E+00 -0.77150434925E+02  0.77150434925E+02  0.00000000000E+00 0.  1.
         25    2    1    2    0    0 -0.14833015556E+02 -0.20676833563E+02  0.20300167199E+02  0.12925467243E+03  0.12508846374E+03 0.  0.
          5    1    3    3  502    0  0.43740425271E+02  0.17665969443E+02  0.33345397757E+02  0.57919765459E+02  0.41800000000E+01 0. -1.
         -5    1    3    3    0  502 -0.58573440827E+02 -0.38342803006E+02 -0.13045230558E+02  0.71334906974E+02  0.41800000000E+01 0. -1.
        -11    1    1    2    0    0 -0.27163539721E+02 -0.90763227900E+01  0.60993277746E+02  0.67382619834E+02  0.00000000000E+00 0. -1.
         11    1    1    2    0    0  0.41996555277E+02  0.29753156353E+02  0.14519992680E+02  0.53477015208E+02  0.00000000000E+00 0.  1.
</event>
<event>
 7    1  0.2794945E-009  0.1745589E+03  0.7561462E-02  0.1173175E+00
          1   -1    0    0  501    0  0.00000000000E+00  0.00000000000E+00  0.13078938529E+03  0.13078938529E+03  0.00000000000E+00 0. -1.
         -1   -1    0    0    0  501 -0.00000000000E+00 -0.00000000000E+00 -0.26436001681E+03  0.26436001681E+03  0.00000000000E+00 0.  1.
         25    2    1    2    0    0 -0.84395672410E+02  0.12310978477E+03 -0.28008846151E+02  0.19674466673E+03  0.12508125277E+03 0.  0.
          5    1    3    3  502    0 -0.29990945232E+02  0.12306091531E+03  0.14523576263E+02  0.12756117098E+03  0.41800000000E+01 0.  1.
         -5    1    3    3    0  502 -0.54404727178E+02  0.48869457392E-01 -0.42532422414E+02  0.69183495748E+02  0.41800000000E+01 0.  1.
        -11    1    1    2    0    0  0.74781932324E+01  0.10951524021E+02 -0.60147482634E+01  0.14561471391E+02  0.00000000000E+00 0.  1.
         11    1    1    2    0    0  0.76917479178E+02 -0.13406130879E+03 -0.99547037106E+02  0.18384326399E+03  0.00000000000E+00 0. -1.
</event>
<event>
 7    1  0.2794945E-009  0.2024188E+03  0.7561462E-02  0.1147714E+00
          1   -1    0    0  501    0  0.00000000000E+00  0.00000000000E+00  0.70688281934E+03  0.70688281934E+03  0.00000000000E+00 0. -1.
         -1   -1    0    0    0  501 -0.00000000000E+00 -0.00000000000E+00 -0.72466933223E+02  0.72466933223E+02  0.00000000000E+00 0.  1.
         25    2    1    2    0    0 -0.75065326589E+02 -0.15148122395E+03  0.15459725227E+03  0.26102020271E+03  0.12509944584E+03 0.  0.
          5    1    3    3  502    0 -0.96688303701E+02 -0.56887471646E+02  0.95056767420E+02  0.14709885770E+03  0.41800000000E+01 0. -1.
         -5    1    3    3    0  502  0.21622977112E+02 -0.94593752301E+02  0.59540484850E+02  0.11392134501E+03  0.41800000000E+01 0. -1.
        -11    1    1    2    0    0  0.94957702653E+02  0.89988521521E+02  0.30149005179E+03  0.32865049920E+03  0.00000000000E+00 0.  1.
         11    1    1    2    0    0 -0.19892376065E+02  0.61492702426E+02  0.17832858206E+03  0.18967905066E+03  0.00000000000E+00 0. -1.
</event>
<event>
 7    1  0.2794945E-009  0.1334450E+03  0.7561462E-02  0.1222432E+00
          2   -1    0    0  501    0  0.00000000000E+00  0.00000000000E+00  0.16112760362E+04  0.16112760362E+04  0.00000000000E+00 0. -1.
         -2   -1    0    0    0  501 -0.00000000000E+00 -0.00000000000E+00 -0.21210152757E+02  0.21210152757E+02  0.00000000000E+00 0.  1.
         25    2    1    2    0    0 -0.80143098735E+02 -0.68260451858E+02  0.13087992724E+04  0.13189715104E+04  0.12509158387E+03 0.  0.
          5    1    3    3  502    0 -0.10397179160E+03 -0.77436602373E+02  0.12064425239E+04  0.12133950704E+04  0.41800000000E+01 0. -1.
         -5    1    3    3    0  502  0.23828692864E+02  0.91761505147E+01  0.10235674846E+03  0.10557644007E+03  0.41800000000E+01 0. -1.
        -11    1    1    2    0    0  0.11558028116E+02  0.31369310026E+02  0.19270094614E+03  0.19557933497E+03  0.00000000000E+00 0. -1.
         11    1    1    2    0    0  0.68585070619E+02  0.36891141832E+02  0.88565664912E+02  0.11793534355E+03  0.00000000000E+00 0.  1.
</event>
<event>
 7    1  0.2794945E-009  0.9381514E+02  0.7561462E-02  0.1293867E+00
          1   -1    0    0  501    0  0.00000000000E+00  0.00000000000E+00  0.17548584233E+02  0.17548584233E+02  0.00000000000E+00 0. -1.
         -1   -1    0    0    0  501 -0.00000000000E+00 -0.00000000000E+00 -0.71702443276E+03  0.71702443276E+03  0.00000000000E+00 0.  1.
         25    2    1    2    0    0 -0.28419951303E+01 -0.24014677883E+02 -0.44164272145E+03  0.45963996430E+03  0.12504327923E+03 0.  0.
          5    1    3    3  502    0  0.24240882001E+02 -0.55153837557E+02 -0.11064263755E+03  0.12605090956E+03  0.41800000000E+01 0.  1.
         -5    1    3    3    0  502 -0.27082877131E+02  0.31139159674E+02 -0.33100008390E+03  0.33358905474E+03  0.41800000000E+01 0.  1.
        -11    1    1    2    0    0  0.41048662974E+02  0.80706404914E+00 -0.18479274205E+03  0.18929870998E+03  0.00000000000E+00 0.  1.
         11    1    1    2    0    0 -0.38206667843E+02  0.23207613834E+02 -0.73040385023E+02  0.85634342713E+02  0.00000000000E+00 0. -1.
</event>
<event>
 7    1  0.2794945E-009  0.1137023E+03  0.7561462E-02  0.1253863E+00
          2   -1    0    0  501    0  0.00000000000E+00  0.00000000000E+00  0.16927464672E+03  0.16927464672E+03  0.00000000000E+00 0. -1.
         -2   -1    0    0    0  501 -0.00000000000E+00 -0.00000000000E+00 -0.86608370587E+02  0.86608370587E+02  0.00000000000E+00 0.  1.
         25    2    1    2    0    0  0.61382583283E+02 -0.25374727411E+02  0.27678887109E+02  0.14430975979E+03  0.12508991829E+03 0.  0.
          5    1    3    3  502    0  0.91247629820E+02  0.98247272863E+01  0.32783435788E+01  0.91928641623E+02  0.41800000000E+01 0.  1.
         -5    1    3    3    0  502 -0.29865046537E+02 -0.35199454697E+02  0.24400543531E+02  0.52381118165E+02  0.41800000000E+01 0.  1.
        -11    1    1    2    0    0 -0.31363653464E+02  0.43867194157E+02  0.53980135263E+02  0.76301143404E+02  0.00000000000E+00 0.  1.
         11    1    1    2    0    0 -0.30018929819E+02 -0.18492466746E+02  0.10072537571E+01  0.35272114112E+02  0.00000000000E+00 0. -1.
</event>
<event>
 7    1  0.2794945E-009  0.1043548E+03  0.7561462E-02  0.1271396E+00
         -2   -1    0    0    0  501 -0.00000000000E+00  0.00000000000E+00  0.26670824353E+03  0.26670824353E+03  0.00000000000E+00 0.  1.
          2   -1    0    0  501    0  0.00000000000E+00 -0.00000000000E+00 -0.56555456061E+02  0.56555456061E+02  0.00000000000E+00 0. -1.
         25    2    1    2    0    0  0.46614211263E+02 -0.33080494949E+02  0.12597276750E+03  0.18650694864E+03  0.12509396429E+03 0.  0.
          5    1    3    3  502    0  0.73986952506E+02  0.20606961298E+02  0.75649270050E+02  0.10788419928E+03  0.41800000000E+01 0. -1.
         -5    1    3    3    0  502 -0.27372741244E+02 -0.53687456246E+02  0.50323497452E+02  0.78622749362E+02  0.41800000000E+01 0. -1.
        -11    1    1    2    0    0 -0.99777976769E+01 -0.10477490177E+02  0.78199372940E+02  0.79526575275E+02  0.00000000000E+00 0.  1.
         11    1    1    2    0    0 -0.36636413586E+02  0.43557985126E+02  0.59806470263E+01  0.57230175672E+02  0.00000000000E+00 0. -1.
</event>
<event>
 7    1  0.2794945E-009  0.1175708E+03  0.7561462E-02  0.1247159E+00
          2   -1    0    0  501    0  0.00000000000E+00  0.00000000000E+00  0.58636865029E+02  0.58636865029E+02  0.00000000000E+00 0. -1.
         -2   -1    0    0    0  501 -0.00000000000E+00 -0.00000000000E+00 -0.25742984276E+03  0.25742984276E+03  0.00000000000E+00 0.  1.
         25    2    1    2    0    0 -0.41941367996E+02 -0.50640582150E+02 -0.11542029238E+03  0.18245696619E+03  0.12508058885E+03 0.  0.
          5    1    3    3  502    0 -0.54137096784E+02 -0.81496342628E+02 -0.52284552924E+02  0.11101182813E+03  0.41800000000E+01 0.  1.
         -5    1    3    3    0  502  0.12195728788E+02  0.30855760478E+02 -0.63135739456E+02  0.71445138057E+02  0.41800000000E+01 0.  1.
        -11    1    1    2    0    0 -0.23004875393E+01 -0.20157164812E+02 -0.10758974083E+02  0.22964299673E+02  0.00000000000E+00 0.  1.
         11    1    1    2    0    0  0.44241855536E+02  0.70797746962E+02 -0.72613711272E+02  0.11064544193E+03  0.00000000000E+00 0. -1.
</event>
<event>
 7    1  0.2794945E-009  0.9106714E+02  0.7561462E-02  0.1300288E+00
          2   -1    0    0  501    0  0.00000000000E+00  0.00000000000E+00  0.25002384848E+03  0.25002384848E+03  0.00000000000E+00 0. -1.
         -2   -1    0    0    0  501 -0.00000000000E+00 -0.00000000000E+00 -0.63391256760E+02  0.63391256760E+02  0.00000000000E+00 0.  1.
         25    2    1    2    0    0  0.39944187156E+01 -0.27247935384E+00  0.21316117275E+02  0.12695373626E+03  0.12508734815E+03 0.  0.
          5    1    3    3  502    0  0.60826290615E+02  0.31993893519E+01 -0.99542315389E+01  0.61859783767E+02  0.41800000000E+01 0. -1.
         -5    1    3    3    0  502 -0.56831871899E+02 -0.34718687057E+01  0.31270348814E+02  0.65093952490E+02  0.41800000000E+01 0. -1.
        -11    1    1    2    0    0 -0.15703335897E+02  0.28993810342E+02  0.21558471342E+02  0.39395475413E+02  0.00000000000E+00 0.  1.
         11    1    1    2    0    0  0.11708917181E+02 -0.28721330988E+02  0.14375800310E+03  0.14706589357E+03  0.00000000000E+00 0. -1.
</event>
<event>
 7    1  0.2794945E-009  0.2065701E+03  0.7561462E-02  0.1144311E+00
         -2   -1    0    0    0  501 -0.00000000000E+00  0.00000000000E+00  0.29773576230E+03  0.29773576230E+03  0.00000000000E+00 0.  1.
          2   -1    0    0  501    0  0.00000000000E+00 -0.00000000000E+00 -0.18321228383E+03  0.18321228383E+03  0.00000000000E+00 0. -1.
         25    2    1    2    0    0  0.73147400440E+02  0.17623954611E+03  0.13969994114E+03  0.26753363124E+03  0.12508897029E+03 0.  0.
          5    1    3    3  502    0 -0.16187722362E+02  0.31559633989E+02  0.79415435659E+02  0.87076613817E+02  0.41800000000E+01 0. -1.
         -5    1    3    3    0  502  0.89335122802E+02  0.14467991212E+03  0.60284505483E+02  0.18045701743E+03  0.41800000000E+01 0. -1.
        -11    1    1    2    0    0 -0.92872200819E+01 -0.12531097030E+03  0.64595600012E+01  0.12582057721E+03  0.00000000000E+00 0.  1.
         11    1    1    2    0    0 -0.63860180358E+02 -0.50928575815E+02 -0.31636022672E+02  0.87593837686E+02  0.00000000000E+00 0. -1.
</event>
<event>
 7    1  0.2794945E-009  0.2034032E+03  0.7561462E-02  0.1146899E+00
         -1   -1    0    0    0  501 -0.00000000000E+00  0.00000000000E+00  0.93312904425E+02  0.93312904425E+02  0.00000000000E+00 0.  1.
          1   -1    0    0  501    0  0.00000000000E+00 -0.00000000000E+00 -0.65701688085E+03  0.65701688085E+03  0.00000000000E+00 0. -1.
         25    2    1    2    0    0 -0.83353054926E+02 -0.16810587706E+03 -0.47283051708E+03  0.52384448132E+03  0.12504809098E+03 0.  0.
          5    1    3    3  502    0 -0.90370602627E+02 -0.18067312412E+03 -0.38556947492E+03  0.43530554325E+03  0.41800000000E+01 0.  1.
         -5    1    3    3    0  502  0.70175477010E+01  0.12567247058E+02 -0.87261042159E+02  0.88538938062E+02  0.41800000000E+01 0.  1.
        -11    1    1    2    0    0  0.47650957968E+02  0.64618112973E+02  0.57182516401E+01  0.80491072308E+02  0.00000000000E+00 0.  1.
         11    1    1    2    0    0  0.35702096959E+02  0.10348776409E+03 -0.96591710992E+02  0.14599423165E+03  0.00000000000E+00 0. -1.
</event>
<event>
 7    1  0.2794945E-009  0.1254255E+03  0.7561462E-02  0.1234406E+00
          1   -1    0    0  501    0  0.00000000000E+00  0.00000000000E+00  0.65605408684E+02  0.65605408684E+02  0.00000000000E+00 0. -1.
         -1   -1    0    0    0  501 -0.00000000000E+00 -0.00000000000E+00 -0.31172116683E+03  0.31172116683E+03  0.00000000000E+00 0.  1.
         25    2    1    2    0    0 -0.83279186862E+02 -0.20934167214E+01 -0.18667729023E+03  0.23965979945E+03  0.12509437808E+03 0.  0.
          5    1    3    3  502    0 -0.58576249426E+01 -0.39812241145E+02 -0.79634030124E+01  0.41233657399E+02  0.41800000000E+01 0. -1.
         -5    1    3    3    0  502 -0.77421561920E+02  0.37718824424E+02 -0.17871388721E+03  0.19842614205E+03  0.41800000000E+01 0. -1.
        -11    1    1    2    0    0  0.97292182644E+02  0.22075686470E+02 -0.48123308407E+02  0.11076532647E+03  0.00000000000E+00 0.  1.
         11    1    1    2    0    0 -0.14012995782E+02 -0.19982269749E+02 -0.11315159507E+02  0.26901449585E+02  0.00000000000E+00 0. -1.
</event>
<event>
 7    1  0.2794945E-009  0.1783124E+03  0.7561462E-02  0.1169446E+00
         -1   -1    0    0    0  501 -0.00000000000E+00  0.00000000000E+00  0.37727933350E+02  0.37727933350E+02  0.00000000000E+00 0.  1.
          1   -1    0    0  501    0  0.00000000000E+00 -0.00000000000E+00 -0.10624895318E+04  0.10624895318E+04  0.00000000000E+00 0. -1.
         25    2    1    2    0    0  0.11283924607E+03 -0.10420337145E+03 -0.34756823215E+03  0.40005250438E+03  0.12508913696E+03 0.  0.
          5    1    3    3  502    0  0.12033794300E+03 -0.35503283447E+02 -0.25729788099E+03  0.28628897223E+03  0.41800000000E+01 0. -1.
         -5    1    3    3    0  502 -0.74986969309E+01 -0.68700088006E+02 -0.90270351169E+02  0.11376353215E+03  0.41800000000E+01 0. -1.
        -11    1    1    2    0    0 -0.64769292746E+01  0.33538232069E+02 -0.53073684694E+02  0.63115605282E+02  0.00000000000E+00 0.  1.
         11    1    1    2    0    0 -0.10636231680E+03  0.70665139384E+02 -0.62411968159E+03  0.63704935547E+03  0.00000000000E+00 0. -1.
</event>
<event>
 7    1  0.3601336E-009  0.1534357E+03  0.7561462E-02  0.1196314E+00
          1   -1    0    0  501    0  0.00000000000E+00  0.00000000000E+00  0.11007189761E+03  0.11007189761E+03  0.00000000000E+00 0. -1.
         -1   -1    0    0    0  501 -0.00000000000E+00 -0.00000000000E+00 -0.24951713955E+03  0.24951713955E+03  0.00000000000E+00 0.  1.
         25    2    1    2    0    0 -0.10309934509E+03  0.69620764001E+02 -0.63198915155E+02  0.18740144536E+03  0.12509465660E+03 0.  0.
          5    1    3    3  502    0 -0.13079376860E+03  0.46503785350E+02 -0.58826545600E+02  0.15082323038E+03  0.41800000000E+01 0. -1.
         -5    1    3    3    0  502  0.27694423510E+02  0.23116978651E+02 -0.43723695554E+01  0.36578214979E+02  0.41800000000E+01 0. -1.
        -11    1    1    2    0    0  0.38021950075E+02 -0.51703116431E+02 -0.82359365969E+02  0.10441238480E+03  0.00000000000E+00 0.  1.
         11    1    1    2    0    0  0.65077395012E+02 -0.17917647571E+02  0.61130391852E+01  0.67775207001E+02  0.00000000000E+00 0. -1.
</event>
<event>
 7    1  0.2794945E-009  0.1615000E+03  0.7561462E-02  0.1187014E+00
          2   -1    0    0  501    0  0.00000000000E+00  0.00000000000E+00  0.15672072633E+04  0.15672072633E+04  0.00000000000E+00 0. -1.
         -2   -1    0    0    0  501 -0.00000000000E+00 -0.00000000000E+00 -0.22402297194E+02  0.22402297194E+02  0.00000000000E+00 0.  1.
         25    2    1    2    0    0 -0.56087897227E+02  0.12354079008E+03  0.11583753543E+04  0.11729839396E+04  0.12509868883E+03 0.  0.
          5    1    3    3  502    0 -0.94138543212E+02  0.94548529376E+02  0.93697053152E+03  0.94643158181E+03  0.41800000000E+01 0. -1.
         -5    1    3    3    0  502  0.38050645985E+02  0.28992260705E+02  0.22140482282E+03  0.22655235776E+03  0.41800000000E+01 0. -1.
        -11    1    1    2    0    0  0.50361159824E+02 -0.62876051197E+02  0.30163750145E+03  0.31220958748E+03  0.00000000000E+00 0. -1.
         11    1    1    2    0    0  0.57267374024E+01 -0.60664738884E+02  0.84792110298E+02  0.10441603341E+03  0.00000000000E+00 0.  1.
</event>
<event>
 7    1  0.2794945E-009  0.1361282E+03  0.7561462E-02  0.1218636E+00
         -1   -1    0    0    0  501 -0.00000000000E+00  0.00000000000E+00  0.25319656144E+02  0.25319656144E+02  0.00000000000E+00 0.  1.
          1   -1    0    0  501    0  0.00000000000E+00 -0.00000000000E+00 -0.78166941428E+03  0.78166941428E+03  0.00000000000E+00 0. -1.
         25    2    1    2    0    0 -0.86844369176E+01  0.88328389320E+02 -0.49768127283E+03  0.52078061499E+03  0.12509386803E+03 0.  0.
          5    1    3    3  502    0  0.19796424139E+01  0.11795009140E+03 -0.33930201489E+03  0.35924848330E+03  0.41800000000E+01 0.  1.
         -5    1    3    3    0  502 -0.10664079332E+02 -0.29621702082E+02 -0.15837925794E+03  0.16153213169E+03  0.41800000000E+01 0.  1.
        -11    1    1    2    0    0  0.40966534615E+02 -0.17363970971E+02 -0.97613509373E+02  0.10727610013E+03  0.00000000000E+00 0.  1.
         11    1    1    2    0    0 -0.32282097698E+02 -0.70964418349E+02 -0.16105497593E+03  0.17893235531E+03  0.00000000000E+00 0. -1.
</event>
<event>
 7    1  0.2794945E-009  0.3093296E+03  0.7561462E-02  0.1080668E+00
          2   -1    0    0  501    0  0.00000000000E+00  0.00000000000E+00  0.50903767352E+03  0.50903767352E+03  0.00000000000E+00 0. -1.
         -2   -1    0    0    0  501 -0.00000000000E+00 -0.00000000000E+00 -0.22928573515E+03  0.22928573515E+03  0.00000000000E+00 0.  1.
         25    2    1    2    0    0  0.24461509518E+03  0.17936901933E+03  0.20039264534E+02  0.32872279546E+03  0.12508922514E+03 0.  0.
          5    1    3    3  502    0  0.18750074927E+03  0.98203384460E+02  0.62438091991E+02  0.22071797259E+03  0.41800000000E+01 0. -1.
         -5    1    3    3    0  502  0.57114345913E+02  0.81165634865E+02 -0.42398827456E+02  0.10800482286E+03  0.41800000000E+01 0. -1.
        -11    1    1    2    0    0 -0.16711125370E+03 -0.15057542531E+03  0.14292341848E+03  0.26650747339E+03  0.00000000000E+00 0.  1.
         11    1    1    2    0    0 -0.77503841476E+02 -0.28793594019E+02  0.11678925535E+03  0.14309313983E+03  0.00000000000E+00 0. -1.
</event>
<event>
 7    1  0.2794945E-009  0.1066722E+03  0.7561462E-02  0.1266860E+00
         -2   -1    0    0    0  501 -0.00000000000E+00  0.00000000000E+00  0.48137367764E+02  0.48137367764E+02  0.00000000000E+00 0.  1.
          2   -1    0    0  501    0  0.00000000000E+00 -0.00000000000E+00 -0.30906737390E+03  0.30906737390E+03  0.00000000000E+00 0. -1.
         25    2    1    2    0    0 -0.58167207923E+02  0.71579205465E+01 -0.16054630775E+03  0.21179451589E+03  0.12508852915E+03 0.  0.
          5    1    3    3  502    0  0.43954973351E+01  0.57410361667E+02 -0.64255799150E+02  0.86380264806E+02  0.41800000000E+01 0.  1.
         -5    1    3    3    0  502 -0.62562705258E+02 -0.50252441121E+02 -0.96290508602E+02  0.12541425108E+03  0.41800000000E+01 0.  1.
        -11    1    1    2    0    0  0.30621138033E+01 -0.18708225100E+02  0.10046944559E+02  0.21454960319E+02  0.00000000000E+00 0.  1.
         11    1    1    2    0    0  0.55105094120E+02  0.11550304554E+02 -0.11043064294E+03  0.12395526545E+03  0.00000000000E+00 0. -1.
</event>
<event>
 7    1  0.2794945E-009  0.7826692E+02  0.7561462E-02  0.1334043E+00
         -4   -1    0    0    0  501 -0.00000000000E+00  0.00000000000E+00  0.67695771744E+02  0.67695771744E+02  0.00000000000E+00 0.  1.
          4   -1    0    0  501    0  0.00000000000E+00 -0.00000000000E+00 -0.22843766550E+03  0.22843766550E+03  0.00000000000E+00 0. -1.
         25    2    1    2    0    0 -0.57506532367E+02  0.22969938625E+02 -0.68114132088E+02  0.15531201043E+03  0.12509063214E+03 0.  0.
          5    1    3    3  502    0 -0.38462880051E+02  0.43570542098E+02  0.20887885003E+02  0.61899607595E+02  0.41800000000E+01 0. -1.
         -5    1    3    3    0  502 -0.19043652316E+02 -0.20600603474E+02 -0.89002017092E+02  0.93412402835E+02  0.41800000000E+01 0. -1.
        -11    1    1    2    0    0  0.22215196517E+02 -0.26330375943E+02  0.69300756343E+01  0.35140142315E+02  0.00000000000E+00 0.  1.
         11    1    1    2    0    0  0.35291335850E+02  0.33604373188E+01 -0.99557837301E+02  0.10568128450E+03  0.00000000000E+00 0. -1.
</event>
<event>
 7    1  0.2794945E-009  0.1320510E+03  0.7561462E-02  0.1224444E+00
         -1   -1    0    0    0  501 -0.00000000000E+00  0.00000000000E+00  0.93149266068E+02  0.93149266068E+02  0.00000000000E+00 0.  1.
          1   -1    0    0  501    0  0.00000000000E+00 -0.00000000000E+00 -0.22986947746E+03  0.22986947746E+03  0.00000000000E+00 0. -1.
         25    2    1    2    0    0 -0.87768849289E+02 -0.30478492707E+02 -0.39277318928E+02  0.16069618514E+03  0.12509295229E+03 0.  0.
          5    1    3    3  502    0 -0.10777223762E+03 -0.13171443102E+02 -0.62415153271E+02  0.12530549019E+03  0.41800000000E+01 0.  1.
         -5    1    3    3    0  502  0.20003388329E+02 -0.17307049605E+02  0.23137834343E+02  0.35390694946E+02  0.41800000000E+01 0.  1.
        -11    1    1    2    0    0  0.10163959522E+02 -0.29104327819E+02 -0.14551016181E+02  0.34089588482E+02  0.00000000000E+00 0.  1.
         11    1    1    2    0    0  0.77604889767E+02  0.59582820527E+02 -0.82891876282E+02  0.12823296991E+03  0.00000000000E+00 0. -1.
</event>
<event>
 7    1  0.2794945E-009  0.1237236E+03  0.7561462E-02  0.1237078E+00
         -1   -1    0    0    0  501 -0.00000000000E+00  0.00000000000E+00  0.26608547257E+02  0.26608547257E+02  0.00000000000E+00 0.  1.
          1   -1    0    0  501    0  0.00000000000E+00 -0.00000000000E+00 -0.72073387876E+03  0.72073387876E+03  0.00000000000E+00 0. -1.
         25    2    1    2    0    0 -0.46497402303E+02 -0.72242925989E+02 -0.34058873746E+03  0.37286585810E+03  0.12508881354E+03 0.  0.
          5    1    3    3  502    0  0.37470607400E+02 -0.13376247523E+02 -0.16219603303E+03  0.16705686441E+03  0.41800000000E+01 0.  1.
         -5    1    3    3    0  502 -0.83968009703E+02 -0.58866678465E+02 -0.17839270443E+03  0.20580899369E+03  0.41800000000E+01 0.  1.
        -11    1    1    2    0    0  0.53344500849E+02  0.28396886216E+02 -0.29441301166E+03  0.30055122751E+03  0.00000000000E+00 0.  1.
         11    1    1    2    0    0 -0.68470985465E+01  0.43846039772E+02 -0.59123582373E+02  0.73925340410E+02  0.00000000000E+00 0. -1.
</event>
<event>
 7    1  0.2794945E-009  0.2058665E+03  0.7561462E-02  0.1144882E+00
         -2   -1    0    0    0  501 -0.00000000000E+00  0.00000000000E+00  0.29690964283E+03  0.29690964283E+03  0.00000000000E+00 0.  1.
          2   -1    0    0  501    0  0.00000000000E+00 -0.00000000000E+00 -0.15216648273E+03  0.15216648273E+03  0.00000000000E+00 0. -1.
         25    2    1    2    0    0  0.19353843741E+02 -0.17541187009E+03  0.12045829667E+03  0.24759092690E+03  0.12508865020E+03 0.  0.
          5    1    3    3  502    0  0.69134113003E+02 -0.87729727574E+02  0.40665992162E+02  0.11894211197E+03  0.41800000000E+01 0.  1.
         -5    1    3    3    0  502 -0.49780269263E+02 -0.87682142519E+02  0.79792304512E+02  0.12864881493E+03  0.41800000000E+01 0.  1.
        -11    1    1    2    0    0 -0.38175174181E+02  0.21157659797E+02 -0.28354479502E+01  0.43738201345E+02  0.00000000000E+00 0. -1.
         11    1    1    2    0    0  0.18821330440E+02  0.15425421030E+03  0.27120311378E+02  0.15774699732E+03  0.00000000000E+00 0.  1.
</event>
<event>
 7    1  0.2794945E-009  0.1029336E+03  0.7561462E-02  0.1274245E+00
         -3   -1    0    0    0  501 -0.00000000000E+00  0.00000000000E+00  0.18075322555E+03  0.18075322555E+03  0.00000000000E+00 0.  1.
          3   -1    0    0  501    0  0.00000000000E+00 -0.00000000000E+00 -0.97734547506E+02  0.97734547506E+02  0.00000000000E+00 0. -1.
         25    2    1    2    0    0  0.15421521110E+02  0.68285073161E+02  0.12131072595E+02  0.14386919203E+03  0.12510198625E+03 0.  0.
          5    1    3    3  502    0  0.33132155862E+02 -0.10568286521E+02  0.44567553018E+02  0.56684809376E+02  0.41800000000E+01 0. -1.
         -5    1    3    3    0  502 -0.17710634752E+02  0.78853359682E+02 -0.32436480423E+02  0.87184382654E+02  0.41800000000E+01 0. -1.
        -11    1    1    2    0    0 -0.24232477925E+02 -0.34426379478E+01  0.64358299066E+02  0.68855322243E+02  0.00000000000E+00 0.  1.
         11    1    1    2    0    0  0.88109568150E+01 -0.64842435214E+02  0.65293063863E+01  0.65763258787E+02  0.00000000000E+00 0. -1.
</event>
<event>
 7    1  0.2794945E-009  0.1332274E+03  0.7561462E-02  0.1222744E+00
          2   -1    0    0  501    0  0.00000000000E+00  0.00000000000E+00  0.51158494959E+03  0.51158494959E+03  0.00000000000E+00 0. -1.
         -2   -1    0    0    0  501 -0.00000000000E+00 -0.00000000000E+00 -0.49374686635E+02  0.49374686635E+02  0.00000000000E+00 0.  1.
         25    2    1    2    0    0  0.10404696002E+03  0.39677602688E+02  0.29795937808E+03  0.34179826144E+03  0.12508468527E+03 0.  0.
          5    1    3    3  502    0  0.60799424545E+02  0.70973649245E+02  0.10090302286E+03  0.13759622573E+03  0.41800000000E+01 0.  1.
         -5    1    3    3    0  502  0.43247535473E+02 -0.31296046557E+02  0.19705635522E+03  0.20420203571E+03  0.41800000000E+01 0.  1.
        -11    1    1    2    0    0 -0.66546668481E+02 -0.25598529768E+01  0.26541993453E+02  0.71690231899E+02  0.00000000000E+00 0.  1.
         11    1    1    2    0    0 -0.37500291537E+02 -0.37117749712E+02  0.13770889141E+03  0.14747114288E+03  0.00000000000E+00 0. -1.
</event>
<event>
 7    1  0.2794945E-009  0.1086038E+03  0.7561462E-02  0.1263177E+00
          4   -1    0    0  501    0  0.00000000000E+00  0.00000000000E+00  0.29892424966E+03  0.29892424966E+03  0.00000000000E+00 0. -1.
         -4   -1    0    0    0  501 -0.00000000000E+00 -0.00000000000E+00 -0.49574810054E+02  0.49574810054E+02  0.00000000000E+00 0.  1.
         25    2    1    2    0    0  0.93909685792E+01  0.60184351133E+02  0.15790054332E+03  0.21045300077E+03  0.12509011769E+03 0.  0.
          5    1    3    3  502    0  0.26040087687E+02 -0.26265060448E+02  0.10435540833E+02  0.38656338155E+02  0.41800000000E+01 0. -1.
         -5    1    3    3    0  502 -0.16649119108E+02  0.86449411581E+02  0.14746500248E+03  0.17179666262E+03  0.41800000000E+01 0. -1.
        -11    1    1    2    0    0 -0.36085703745E+02 -0.14403571746E+02  0.71586425418E+02  0.81450949644E+02  0.00000000000E+00 0. -1.
         11    1    1    2    0    0  0.26694735166E+02 -0.45780779387E+02  0.19862470871E+02  0.56595109294E+02  0.00000000000E+00 0.  1.
</event>
<event>
 7    1  0.2794945E-009  0.1459204E+03  0.7561462E-02  0.1205577E+00
         -3   -1    0    0    0  501 -0.00000000000E+00  0.00000000000E+00  0.65282235408E+02  0.65282235408E+02  0.00000000000E+00 0.  1.
          3   -1    0    0  501    0  0.00000000000E+00 -0.00000000000E+00 -0.48100623565E+03  0.48100623565E+03  0.00000000000E+00 0. -1.
         25    2    1    2    0    0  0.32284698312E+02  0.99101670265E+02 -0.36048692654E+03  0.39555235770E+03  0.12508957063E+03 0.  0.
          5    1    3    3  502    0  0.26394371577E+02 -0.19304554222E+02 -0.30579778869E+02  0.44965808570E+02  0.41800000000E+01 0. -1.
         -5    1    3    3    0  502  0.58903267352E+01  0.11840622449E+03 -0.32990714767E+03  0.35058654913E+03  0.41800000000E+01 0. -1.
        -11    1    1    2    0    0 -0.65533061196E+02 -0.71954836557E+02 -0.38769158592E+02  0.10476224640E+03  0.00000000000E+00 0. -1.
         11    1    1    2    0    0  0.33248362884E+02 -0.27146833708E+02 -0.16467915112E+02  0.45973866957E+02  0.00000000000E+00 0.  1.
</event>
<event>
 7    1  0.2794945E-009  0.2182638E+03  0.7561462E-02  0.1135184E+00
         -2   -1    0    0    0  501 -0.00000000000E+00  0.00000000000E+00  0.34678929442E+03  0.34678929442E+03  0.00000000000E+00 0.  1.
          2   -1    0    0  501    0  0.00000000000E+00 -0.00000000000E+00 -0.23933177449E+03  0.23933177449E+03  0.00000000000E+00 0. -1.
         25    2    1    2    0    0  0.11163314939E+03  0.16855589061E+03 -0.12182687720E+03  0.26713733847E+03  0.12509005273E+03 0.  0.
          5    1    3    3  502    0  0.70301108663E+02  0.11456479226E+02 -0.60166945890E+02  0.93332901879E+02  0.41800000000E+01 0.  1.
         -5    1    3    3    0  502  0.41332040726E+02  0.15709941139E+03 -0.61659931309E+02  0.17380443659E+03  0.41800000000E+01 0.  1.
        -11    1    1    2    0    0 -0.98674371388E+01 -0.85786901749E+01  0.70421093660E+02  0.71624651294E+02  0.00000000000E+00 0.  1.
         11    1    1    2    0    0 -0.10176571225E+03 -0.15997720044E+03  0.15886330347E+03  0.24735907915E+03  0.00000000000E+00 0. -1.
</event>
<event>
 7    1  0.2794945E-009  0.6324921E+02  0.7561462E-02  0.1384681E+00
         -2   -1    0    0    0  501 -0.00000000000E+00  0.00000000000E+00  0.24986897447E+02  0.24986897447E+02  0.00000000000E+00 0. -1.
          2   -1    0    0  501    0  0.00000000000E+00 -0.00000000000E+00 -0.62013652570E+03  0.62013652570E+03  0.00000000000E+00 0.  1.
         25    2    1    2    0    0  0.29329289320E+01 -0.26513659101E+02 -0.47854893511E+03  0.49534598023E+03  0.12508789165E+03 0.  0.
          5    1    3    3  502    0 -0.14581862454E+01  0.24509555750E+01  0.71427894931E+01  0.87535896693E+01  0.41800000000E+01 0. -1.
         -5    1    3    3    0  502  0.43911151774E+01 -0.28964614676E+02 -0.48569172461E+03  0.48659239056E+03  0.41800000000E+01 0. -1.
        -11    1    1    2    0    0 -0.44546828307E+02  0.22865355362E+02 -0.79236213497E+02  0.93731648430E+02  0.00000000000E+00 0. -1.
         11    1    1    2    0    0  0.41613899375E+02  0.36483037388E+01 -0.37364479644E+02  0.56045794494E+02  0.00000000000E+00 0.  1.
</event>
<event>
 7    1  0.2794945E-009  0.1410195E+03  0.7561462E-02  0.1211964E+00
          3   -1    0    0  501    0  0.00000000000E+00  0.00000000000E+00  0.12299603257E+03  0.12299603257E+03  0.00000000000E+00 0. -1.
         -3   -1    0    0    0  501 -0.00000000000E+00 -0.00000000000E+00 -0.21863031067E+03  0.21863031067E+03  0.00000000000E+00 0.  1.
         25    2    1    2    0    0 -0.94334393924E+02  0.63360463152E+02 -0.39041122670E+01  0.16905173112E+03  0.12509883906E+03 0.  0.
          5    1    3    3  502    0 -0.12221278882E+03  0.34170501432E+02  0.65807338709E+01  0.12713916540E+03  0.41800000000E+01 0. -1.
         -5    1    3    3    0  502  0.27878394896E+02  0.29189961720E+02 -0.10484846138E+02  0.41912565726E+02  0.41800000000E+01 0. -1.
        -11    1    1    2    0    0  0.43063035556E+02 -0.20641561686E+02 -0.94393480552E+02  0.10578576592E+03  0.00000000000E+00 0.  1.
         11    1    1    2    0    0  0.51271358368E+02 -0.42718901466E+02  0.26633147122E+01  0.66788846199E+02  0.00000000000E+00 0. -1.
</event>
<event>
 7    1  0.2794945E-009  0.4743656E+02  0.7561462E-02  0.1459680E+00
          2   -1    0    0  501    0  0.00000000000E+00  0.00000000000E+00  0.21089108213E+03  0.21089108213E+03  0.00000000000E+00 0. -1.
         -2   -1    0    0    0  501 -0.00000000000E+00 -0.00000000000E+00 -0.96345712048E+02  0.96345712048E+02  0.00000000000E+00 0.  1.
         25    2    1    2    0    0 -0.27742404156E+02  0.33626459434E+01 -0.32678462793E+02  0.13227432531E+03  0.12509063446E+03 0.  0.
          5    1    3    3  502    0 -0.22838389541E+02  0.76801563186E+01 -0.80343198939E+02  0.83982610424E+02  0.41800000000E+01 0.  1.
         -5    1    3    3    0  502 -0.49040146153E+01 -0.43175103752E+01  0.47664736145E+02  0.48291714890E+02  0.41800000000E+01 0.  1.
        -11    1    1    2    0    0 -0.12239228874E+02 -0.16529668914E+02 -0.12805736452E+01  0.20607487637E+02  0.00000000000E+00 0.  1.
         11    1    1    2    0    0  0.39981633030E+02  0.13167022971E+02  0.14850440652E+03  0.15435498123E+03  0.00000000000E+00 0. -1.
</event>
<event>
 6    1  0.2794945E-009  0.1276791E+03  0.7561462E-02  0.1230941E+00
          1   -1    0    0  501    0  0.00000000000E+00  0.00000000000E+00  0.13336898707E+03  0.13336898707E+03  0.00000000000E+00 0. -1.
         -1   -1    0    0    0  501 -0.00000000000E+00 -0.00000000000E+00 -0.15248657057E+03  0.15248657057E+03  0.00000000000E+00 0.  1.
          5    1    1    2  502    0 -0.90675932789E+02  0.50171343915E+02  0.19192379804E+02  0.10547562932E+03  0.41800000000E+01 0. -1.
         -5    1    1    2    0  502  0.18434171312E+01 -0.32113578030E+02 -0.38443713091E+02  0.50299816668E+02  0.41800000000E+01 0. -1.
        -11    1    1    2    0    0  0.78919568831E+01 -0.35534777852E+02  0.24364013005E+02  0.43801924046E+02  0.00000000000E+00 0. -1.
         11    1    1    2    0    0  0.80940558774E+02  0.17477011968E+02 -0.24230263213E+02  0.86278187611E+02  0.00000000000E+00 0.  1.
</event>
<event>
 7    1  0.2794945E-009  0.1098828E+03  0.7561462E-02  0.1260787E+00
          3   -1    0    0  501    0  0.00000000000E+00  0.00000000000E+00  0.35745215572E+02  0.35745215572E+02  0.00000000000E+00 0. -1.
         -3   -1    0    0    0  501 -0.00000000000E+00 -0.00000000000E+00 -0.39841340034E+03  0.39841340034E+03  0.00000000000E+00 0.  1.
         25    2    1    2    0    0  0.30910024121E+01 -0.47911949465E+02 -0.19037236856E+03  0.23281610630E+03  0.12512630198E+03 0.  0.
          5    1    3    3  502    0  0.59618662387E+02 -0.77266440028E+01 -0.59742456161E+02  0.84857052745E+02  0.41800000000E+01 0. -1.
         -5    1    3    3    0  502 -0.56527659975E+02 -0.40185305463E+02 -0.13062991240E+03  0.14795905356E+03  0.41800000000E+01 0. -1.
        -11    1    1    2    0    0  0.34285544128E+02  0.77350656059E+01 -0.12180190604E+03  0.12677158235E+03  0.00000000000E+00 0.  1.
         11    1    1    2    0    0 -0.37376546540E+02  0.40176883859E+02 -0.50493910165E+02  0.74570927255E+02  0.00000000000E+00 0. -1.
</event>
<event>
 7    1  0.2794945E-009  0.1065926E+03  0.7561462E-02  0.1267013E+00
          1   -1    0    0  501    0  0.00000000000E+00  0.00000000000E+00  0.76868042931E+03  0.76868042931E+03  0.00000000000E+00 0. -1.
         -1   -1    0    0    0  501 -0.00000000000E+00 -0.00000000000E+00 -0.17654717825E+02  0.17654717825E+02  0.00000000000E+00 0.  1.
         25    2    1    2    0    0 -0.14582761400E+02 -0.35572319116E+02  0.36240136158E+03  0.38530633783E+03  0.12509268673E+03 0.  0.
          5    1    3    3  502    0  0.48430312767E+02 -0.21246310569E+02  0.83051310525E+02  0.98548939555E+02  0.41800000000E+01 0. -1.
         -5    1    3    3    0  502 -0.63013074167E+02 -0.14326008547E+02  0.27935005106E+03  0.28675739827E+03  0.41800000000E+01 0. -1.
        -11    1    1    2    0    0 -0.16181215243E+02  0.56104946766E+02  0.18254582176E+03  0.19165743873E+03  0.00000000000E+00 0.  1.
         11    1    1    2    0    0  0.30763976643E+02 -0.20532627650E+02  0.20607852814E+03  0.20937137058E+03  0.00000000000E+00 0. -1.
</event>
<event>
 7    1  0.2794945E-009  0.1282410E+03  0.7561462E-02  0.1230089E+00
         -1   -1    0    0    0  501 -0.00000000000E+00  0.00000000000E+00  0.39770984578E+02  0.39770984578E+02  0.00000000000E+00 0.  1.
          1   -1    0    0  501    0  0.00000000000E+00 -0.00000000000E+00 -0.72698903598E+03  0.72698903598E+03  0.00000000000E+00 0. -1.
         25    2    1    2    0    0 -0.96842471754E+02 -0.14902538230E+02 -0.55744894136E+03  0.57965371957E+03  0.12509421409E+03 0.  0.
          5    1    3    3  502    0  0.29782036282E+02 -0.65858550132E+01 -0.13890341725E+03  0.14227429457E+03  0.41800000000E+01 0. -1.
         -5    1    3    3    0  502 -0.12662450804E+03 -0.83166832165E+01 -0.41854552412E+03  0.43737942500E+03  0.41800000000E+01 0. -1.
        -11    1    1    2    0    0  0.27311528925E+02  0.97802295193E+01 -0.11124880106E+03  0.11496898816E+03  0.00000000000E+00 0. -1.
         11    1    1    2    0    0  0.69530942829E+02  0.51223087105E+01 -0.18520308973E+02  0.72137312826E+02  0.00000000000E+00 0.  1.
</event>
<event>
 7    1  0.2794945E-009  0.1027537E+03  0.7561462E-02  0.1274610E+00
          1   -1    0    0  501    0  0.00000000000E+00  0.00000000000E+00  0.15303355504E+03  0.15303355504E+03  0.00000000000E+00 0. -1.
         -1   -1    0    0    0  501 -0.00000000000E+00 -0.00000000000E+00 -0.10026727980E+03  0.10026727980E+03  0.00000000000E+00 0.  1.
         25    2    1    2    0    0  0.30112812416E+02  0.66625304019E+01 -0.19798422260E+02  0.13035518341E+03  0.12509726429E+03 0.  0.
          5    1    3    3  502    0 -0.30369802141E+02 -0.35382044217E+02 -0.30397749673E+02  0.55818541007E+02  0.41800000000E+01 0. -1.
         -5    1    3    3    0  502  0.60482614557E+02  0.42044574619E+02  0.10599327413E+02  0.74536642399E+02  0.41800000000E+01 0. -1.
        -11    1    1    2    0    0  0.24987195658E+02  0.10642562487E+02 -0.35607750766E+01  0.27391663007E+02  0.00000000000E+00 0. -1.
         11    1    1    2    0    0 -0.55100008074E+02 -0.17305092889E+02  0.76125472579E+02  0.95553988431E+02  0.00000000000E+00 0.  1.
</event>
<event>
 7    1  0.2794945E-009  0.6984310E+02  0.7561462E-02  0.1360627E+00
          2   -1    0    0  501    0  0.00000000000E+00  0.00000000000E+00  0.43993553638E+03  0.43993553638E+03  0.00000000000E+00 0.  1.
         -2   -1    0    0    0  501 -0.00000000000E+00 -0.00000000000E+00 -0.27260680842E+02  0.27260680842E+02  0.00000000000E+00 0. -1.
         25    2    1    2    0    0  0.59740522372E+01  0.97775871880E+01  0.23790619131E+03  0.26903134642E+03  0.12508884436E+03 0.  0.
          5    1    3    3  502    0 -0.26686209104E+02 -0.96247214868E+01  0.61450316574E+00  0.28681684647E+02  0.41800000000E+01 0.  1.
         -5    1    3    3    0  502  0.32660261341E+02  0.19402308675E+02  0.23729168815E+03  0.24034966178E+03  0.41800000000E+01 0.  1.
        -11    1    1    2    0    0 -0.31778547895E+02 -0.27057616089E+02  0.15685476448E+03  0.16231268538E+03  0.00000000000E+00 0.  1.
         11    1    1    2    0    0  0.25804495658E+02  0.17280028901E+02  0.17913899740E+02  0.35852185413E+02  0.00000000000E+00 0. -1.
</event>
<event>
 7    1  0.2794945E-009  0.8956056E+02  0.7561462E-02  0.1303919E+00
          1   -1    0    0  501    0  0.00000000000E+00  0.00000000000E+00  0.27172992423E+02  0.27172992423E+02  0.00000000000E+00 0. -1.
         -1   -1    0    0    0  501 -0.00000000000E+00 -0.00000000000E+00 -0.52705277068E+03  0.52705277068E+03  0.00000000000E+00 0.  1.
         25    2    1    2    0    0  0.24336970468E+02 -0.17911150258E+02 -0.38779250613E+03  0.40858809870E+03  0.12509240244E+03 0.  0.
          5    1    3    3  502    0  0.12225680669E+02  0.43676287496E+02 -0.28082352606E+03  0.28449325220E+03  0.41800000000E+01 0.  1.
         -5    1    3    3    0  502  0.12111289799E+02 -0.61587437753E+02 -0.10696898007E+03  0.12409484650E+03  0.41800000000E+01 0.  1.
        -11    1    1    2    0    0 -0.70942514273E+01 -0.24170744358E+02 -0.92940921004E+02  0.96294174711E+02  0.00000000000E+00 0.  1.
         11    1    1    2    0    0 -0.17242719041E+02  0.42081894616E+02 -0.19146351123E+02  0.49343489699E+02  0.00000000000E+00 0. -1.
</event>
<event>
 7    1  0.2794945E-009  0.1970831E+03  0.7561462E-02  0.1152224E+00
          3   -1    0    0  501    0  0.00000000000E+00  0.00000000000E+00  0.63320047670E+03  0.63320047670E+03  0.00000000000E+00 0. -1.
         -3   -1    0    0    0  501 -0.00000000000E+00 -0.00000000000E+00 -0.65207214807E+02  0.65207214807E+02  0.00000000000E+00 0.  1.
         25    2    1    2    0    0  0.10378535467E+03 -0.13538876727E+03  0.32105864405E+03  0.38448435320E+03  0.12509215320E+03 0.  0.
          5    1    3    3  502    0  0.87276252945E+02 -0.15796712958E+03  0.25315788054E+03  0.31092948273E+03  0.41800000000E+01 0. -1.
         -5    1    3    3    0  502  0.16509101725E+02  0.22578362307E+02  0.67900763510E+02  0.73554870467E+02  0.41800000000E+01 0. -1.
        -11    1    1    2    0    0 -0.25244604897E+02 -0.38147941534E+01  0.74748944540E+02  0.78988907074E+02  0.00000000000E+00 0. -1.
         11    1    1    2    0    0 -0.78540749773E+02  0.13920356142E+03  0.17218567331E+03  0.23493443124E+03  0.00000000000E+00 0.  1.
</event>
<event>
 7    1  0.2794945E-009  0.1393723E+03  0.7561462E-02  0.1214176E+00
          1   -1    0    0  501    0  0.00000000000E+00  0.00000000000E+00  0.11170233471E+04  0.11170233471E+04  0.00000000000E+00 0. -1.
         -1   -1    0    0    0  501 -0.00000000000E+00 -0.00000000000E+00 -0.18371749412E+02  0.18371749412E+02  0.00000000000E+00 0.  1.
         25    2    1    2    0    0  0.90352750904E+01 -0.93012001841E+02  0.57287903622E+03  0.59377797741E+03  0.12509607364E+03 0.  0.
          5    1    3    3  502    0 -0.16901326971E+02  0.23668124394E+02  0.55977773162E+02  0.63220395870E+02  0.41800000000E+01 0.  1.
         -5    1    3    3    0  502  0.25936602062E+02 -0.11668012624E+03  0.51690126305E+03  0.53055758154E+03  0.41800000000E+01 0.  1.
        -11    1    1    2    0    0  0.13310672536E+02  0.10400816774E+03  0.40999366510E+03  0.42318988455E+03  0.00000000000E+00 0.  1.
         11    1    1    2    0    0 -0.22345947626E+02 -0.10996165894E+02  0.11577889642E+03  0.11842723460E+03  0.00000000000E+00 0. -1.
</event>
<event>
 7    1  0.2794945E-009  0.1342309E+03  0.7561462E-02  0.1221310E+00
          2   -1    0    0  501    0  0.00000000000E+00  0.00000000000E+00  0.23343072622E+03  0.23343072622E+03  0.00000000000E+00 0.  1.
         -2   -1    0    0    0  501 -0.00000000000E+00 -0.00000000000E+00 -0.13564469672E+03  0.13564469672E+03  0.00000000000E+00 0. -1.
         25    2    1    2    0    0  0.91177087730E+02  0.62758878652E+02  0.14265579201E+03  0.21965839791E+03  0.12508876289E+03 0.  0.
          5    1    3    3  502    0  0.29678727021E+02  0.70351032205E+02  0.13750663501E+03  0.15733925652E+03  0.41800000000E+01 0.  1.
         -5    1    3    3    0  502  0.61498360710E+02 -0.75921535526E+01  0.51491569983E+01  0.62319141388E+02  0.41800000000E+01 0.  1.
        -11    1    1    2    0    0 -0.33357759418E+02 -0.63870017261E+02  0.61229127069E+01  0.72316037490E+02  0.00000000000E+00 0.  1.
         11    1    1    2    0    0 -0.57819328312E+02  0.11111386087E+01 -0.50992675210E+02  0.77100987546E+02  0.00000000000E+00 0. -1.
</event>
<event>
 7    1  0.2794945E-009  0.8763713E+02  0.7561462E-02  0.1308677E+00
         -2   -1    0    0    0  501 -0.00000000000E+00  0.00000000000E+00  0.21393791471E+02  0.21393791471E+02  0.00000000000E+00 0.  1.
          2   -1    0    0  501    0  0.00000000000E+00 -0.00000000000E+00 -0.68801308098E+03  0.68801308098E+03  0.00000000000E+00 0. -1.
         25    2    1    2    0    0  0.34037157725E+02 -0.43638755312E+01 -0.25028952765E+03  0.28190553590E+03  0.12509321327E+03 0.  0.
          5    1    3    3  502    0  0.43342220657E+02  0.24155537606E+02 -0.24638458790E+03  0.25136601927E+03  0.41800000000E+01 0. -1.
         -5    1    3    3    0  502 -0.93050629314E+01 -0.28519413138E+02 -0.39049397527E+01  0.30539516636E+02  0.41800000000E+01 0. -1.
        -11    1    1    2    0    0 -0.64314509302E+02 -0.15871553569E+01 -0.31804996169E+03  0.32449137631E+03  0.00000000000E+00 0. -1.
         11    1    1    2    0    0  0.30277351577E+02  0.59510308880E+01 -0.98279800170E+02  0.10300996024E+03  0.00000000000E+00 0.  1.
</event>
<event>
 7    1  0.2794945E-009  0.1606211E+03  0.7561462E-02  0.1187997E+00
         -1   -1    0    0    0  501 -0.00000000000E+00  0.00000000000E+00  0.21575795712E+02  0.21575795712E+02  0.00000000000E+00 0.  1.
          1   -1    0    0  501    0  0.00000000000E+00 -0.00000000000E+00 -0.15750835404E+04  0.15750835404E+04  0.00000000000E+00 0. -1.
         25    2    1    2    0    0  0.13032396185E+03  0.69070309074E+02 -0.73256181970E+03  0.75765975899E+03  0.12508576295E+03 0.  0.
          5    1    3    3  502    0  0.18028892030E+02 -0.45895328557E+01 -0.78878643110E+01  0.20634814345E+02  0.41800000000E+01 0.  1.
         -5    1    3    3    0  502  0.11229506982E+03  0.73659841930E+02 -0.72467395539E+03  0.73702494465E+03  0.41800000000E+01 0.  1.
        -11    1    1    2    0    0 -0.31860651429E+02 -0.61246365919E+02 -0.24063433176E+03  0.25034196626E+03  0.00000000000E+00 0.  1.
         11    1    1    2    0    0 -0.98463310426E+02 -0.78239431549E+01 -0.58031159324E+03  0.58865761087E+03  0.00000000000E+00 0. -1.
</event>
<event>
 7    1  0.2794945E-009  0.1170081E+03  0.7561462E-02  0.1248116E+00
         -1   -1    0    0    0  501 -0.00000000000E+00  0.00000000000E+00  0.15796635996E+03  0.15796635996E+03  0.00000000000E+00 0.  1.
          1   -1    0    0  501    0  0.00000000000E+00 -0.00000000000E+00 -0.21709573899E+03  0.21709573899E+03  0.00000000000E+00 0. -1.
         25    2    1    2    0    0 -0.14371647281E+02  0.81554162826E+02 -0.15302782483E+03  0.21429377173E+03  0.12508668878E+03 0.  0.
          5    1    3    3  502    0  0.33152324522E+02 -0.15542130470E+02 -0.65420401632E+02  0.75086189079E+02  0.41800000000E+01 0.  1.
         -5    1    3    3    0  502 -0.47523971804E+02  0.97096293296E+02 -0.87607423196E+02  0.13920758265E+03  0.41800000000E+01 0.  1.
        -11    1    1    2    0    0 -0.60805647216E+01 -0.55622017441E+02  0.11045884461E+03  0.12382220497E+03  0.00000000000E+00 0.  1.
         11    1    1    2    0    0  0.20452212003E+02 -0.25932145385E+02 -0.16560398810E+02  0.36946122244E+02  0.00000000000E+00 0. -1.
</event>
<event>
 6    1  0.2794945E-009  0.1247295E+03  0.7561462E-02  0.1235493E+00
          3   -1    0    0  501    0  0.00000000000E+00  0.00000000000E+00  0.26059643596E+03  0.26059643596E+03  0.00000000000E+00 0. -1.
         -3   -1    0    0    0  501 -0.00000000000E+00 -0.00000000000E+00 -0.89393044590E+02  0.89393044590E+02  0.00000000000E+00 0.  1.
          5    1    1    2  502    0  0.11545585764E+03 -0.36182180886E+02  0.13047374231E+03  0.17798897469E+03  0.41800000000E+01 0. -1.
         -5    1    1    2    0  502 -0.21766959996E+02  0.25822271054E+02  0.22057187195E+02  0.40553447902E+02  0.41800000000E+01 0. -1.
        -11    1    1    2    0    0 -0.47928352695E+02  0.75272219560E+01  0.54715913551E+02  0.73127404290E+02  0.00000000000E+00 0. -1.
         11    1    1    2    0    0 -0.45760544949E+02  0.28326878765E+01 -0.36043451688E+02  0.58319653670E+02  0.00000000000E+00 0.  1.
</event>
<event>
 7    1  0.2794945E-009  0.9730766E+02  0.7561462E-02  0.1286062E+00
          1   -1    0    0  501    0  0.00000000000E+00  0.00000000000E+00  0.16583525743E+03  0.16583525743E+03  0.00000000000E+00 0.  1.
         -1   -1    0    0    0  501 -0.00000000000E+00 -0.00000000000E+00 -0.89328460232E+02  0.89328460232E+02  0.00000000000E+00 0. -1.
         25    2    1    2    0    0 -0.33493855253E+02 -0.46721941644E+02  0.52268253451E+02  0.14725972174E+03  0.12509467278E+03 0.  0.
          5    1    3    3  502    0 -0.80704386227E+02 -0.22614806622E+02  0.25361878778E+02  0.87665983882E+02  0.41800000000E+01 0.  1.
         -5    1    3    3    0  502  0.47210530974E+02 -0.24107135021E+02  0.26906374673E+02  0.59593737857E+02  0.41800000000E+01 0.  1.
        -11    1    1    2    0    0  0.18086501516E+02  0.26985608641E+02 -0.32459549030E+02  0.45923490003E+02  0.00000000000E+00 0. -1.
         11    1    1    2    0    0  0.15407353737E+02  0.19736333003E+02  0.56698092777E+02  0.61980505921E+02  0.00000000000E+00 0.  1.
</event>
<event>
 7    1  0.2794945E-009  0.1076486E+03  0.7561462E-02  0.1264987E+00
          1   -1    0    0  501    0  0.00000000000E+00  0.00000000000E+00  0.60036290020E+02  0.60036290020E+02  0.00000000000E+00 0. -1.
         -1   -1    0    0    0  501 -0.00000000000E+00 -0.00000000000E+00 -0.27610797099E+03  0.27610797099E+03  0.00000000000E+00 0.  1.
         25    2    1    2    0    0 -0.19317626651E+01 -0.15487216146E+01 -0.30756566654E+02  0.12883528217E+03  0.12508570379E+03 0.  0.
          5    1    3    3  502    0 -0.52359799286E+02  0.34527637693E+02 -0.12800997955E+02  0.64148611010E+02  0.41800000000E+01 0. -1.
         -5    1    3    3    0  502  0.50428036621E+02 -0.36076359307E+02 -0.17955568699E+02  0.64686671159E+02  0.41800000000E+01 0. -1.
        -11    1    1    2    0    0  0.38827069827E+02 -0.23789939370E+02 -0.11790648506E+03  0.12639399426E+03  0.00000000000E+00 0.  1.
         11    1    1    2    0    0 -0.36895307162E+02  0.25338660984E+02 -0.67408629255E+02  0.80914984577E+02  0.00000000000E+00 0. -1.
</event>
<event>
 7    1  0.2794945E-009  0.8537342E+02  0.7561462E-02  0.1314459E+00
         -2   -1    0    0    0  501 -0.00000000000E+00  0.00000000000E+00  0.20624976956E+02  0.20624976956E+02  0.00000000000E+00 0.  1.
          2   -1    0    0  501    0  0.00000000000E+00 -0.00000000000E+00 -0.71030036623E+03  0.71030036623E+03  0.00000000000E+00 0. -1.
         25    2    1    2    0    0 -0.55281132455E+02 -0.51318622548E+01 -0.45990126646E+03  0.47983366424E+03  0.12509528700E+03 0.  0.
          5    1    3    3  502    0 -0.73202658816E+01  0.41213059789E+02 -0.53913629477E+02  0.68383144364E+02  0.41800000000E+01 0.  1.
         -5    1    3    3    0  502 -0.47960866573E+02 -0.46344922044E+02 -0.40598763698E+03  0.41145051988E+03  0.41800000000E+01 0.  1.
        -11    1    1    2    0    0  0.12758884922E+02 -0.10527753853E+02  0.35329856383E+00  0.16545318538E+02  0.00000000000E+00 0. -1.
         11    1    1    2    0    0  0.42522247533E+02  0.15659616107E+02 -0.23012742138E+03  0.23454636041E+03  0.00000000000E+00 0.  1.
</event>
<event>
 7    1  0.2794945E-009  0.2109392E+03  0.7561462E-02  0.1140824E+00
         -2   -1    0    0    0  501 -0.00000000000E+00  0.00000000000E+00  0.65590006994E+02  0.65590006994E+02  0.00000000000E+00 0.  1.
          2   -1    0    0  501    0  0.00000000000E+00 -0.00000000000E+00 -0.76730174392E+03  0.76730174392E+03  0.00000000000E+00 0. -1.
         25    2    1    2    0    0  0.33879126213E+02 -0.18775759154E+03 -0.29089200920E+03  0.36968572515E+03  0.12509462813E+03 0.  0.
          5    1    3    3  502    0  0.44411094652E+02 -0.27421307503E+02 -0.13900175923E+03  0.14853698159E+03  0.41800000000E+01 0.  1.
         -5    1    3    3    0  502 -0.10531968439E+02 -0.16033628404E+03 -0.15189024997E+03  0.22114874355E+03  0.41800000000E+01 0.  1.
        -11    1    1    2    0    0  0.98832956224E+01  0.15185267033E+03 -0.24952306766E+03  0.29226473327E+03  0.00000000000E+00 0.  1.
         11    1    1    2    0    0 -0.43762421835E+02  0.35904921211E+02 -0.16129666006E+03  0.17094129249E+03  0.00000000000E+00 0. -1.
</event>
<event>
 7    1  0.2794945E-009  0.8584920E+02  0.7561462E-02  0.1313227E+00
          1   -1    0    0  501    0  0.00000000000E+00  0.00000000000E+00  0.20886882904E+04  0.20886882904E+04  0.00000000000E+00 0. -1.
         -1   -1    0    0    0  501 -0.00000000000E+00 -0.00000000000E+00 -0.82013647375E+01  0.82013647375E+01  0.00000000000E+00 0.  1.
         25    2    1    2    0    0  0.31420093807E+02 -0.42607846611E+02  0.15579266887E+04  0.15638363654E+04  0.12508380996E+03 0.  0.
          5    1    3    3  502    0 -0.42393609406E+01 -0.27579992168E+02  0.14262178662E+04  0.14264969339E+04  0.41800000000E+01 0. -1.
         -5    1    3    3    0  502  0.35659454748E+02 -0.15027854444E+02  0.13170882243E+03  0.13733943144E+03  0.41800000000E+01 0. -1.
        -11    1    1    2    0    0 -0.28368103495E+01 -0.28126979316E+02  0.16983404991E+03  0.17217078430E+03  0.00000000000E+00 0.  1.
         11    1    1    2    0    0 -0.28583283458E+02  0.70734825927E+02  0.35272618705E+03  0.36088250542E+03  0.00000000000E+00 0. -1.
</event>
<event>
 7    1  0.2794945E-009  0.2210997E+03  0.7561462E-02  0.1133066E+00
          1   -1    0    0  501    0  0.00000000000E+00  0.00000000000E+00  0.30038314113E+04  0.30038314113E+04  0.00000000000E+00 0. -1.
         -1   -1    0    0    0  501 -0.00000000000E+00 -0.00000000000E+00 -0.25525908605E+02  0.25525908605E+02  0.00000000000E+00 0.  1.
         25    2    1    2    0    0 -0.77934177301E+02  0.19687184516E+03  0.23038944436E+04  0.23169829287E+04  0.12509206679E+03 0.  0.
          5    1    3    3  502    0 -0.71711690621E+02  0.69512214821E+02  0.59549295287E+03  0.60382434855E+03  0.41800000000E+01 0. -1.
         -5    1    3    3    0  502 -0.62224866799E+01  0.12735963034E+03  0.17084014908E+04  0.17131585802E+04  0.41800000000E+01 0. -1.
        -11    1    1    2    0    0  0.46876554693E+02 -0.15853920893E+03  0.38812643003E+03  0.42186990629E+03  0.00000000000E+00 0.  1.
         11    1    1    2    0    0  0.31057622608E+02 -0.38332636232E+02  0.28628462907E+03  0.29050448493E+03  0.00000000000E+00 0. -1.
</event>
<event>
 7    1  0.2794945E-009  0.1951518E+03  0.7561462E-02  0.1153895E+00
         -2   -1    0    0    0  501 -0.00000000000E+00  0.00000000000E+00  0.26087486829E+02  0.26087486829E+02  0.00000000000E+00 0. -1.
          2   -1    0    0  501    0  0.00000000000E+00 -0.00000000000E+00 -0.18167330335E+04  0.18167330335E+04  0.00000000000E+00 0.  1.
         25    2    1    2    0    0  0.10750565929E+03 -0.15180274271E+03 -0.83254461055E+03  0.86219462355E+03  0.12508997098E+03 0.  0.
          5    1    3    3  502    0  0.87156073487E+02 -0.12571893393E+03 -0.80359190631E+03  0.81803352974E+03  0.41800000000E+01 0. -1.
         -5    1    3    3    0  502  0.20349585801E+02 -0.26083808789E+02 -0.28952704241E+02  0.44161093806E+02  0.41800000000E+01 0. -1.
        -11    1    1    2    0    0 -0.80602181375E+02  0.42026618330E+02 -0.53607023516E+03  0.54372258121E+03  0.00000000000E+00 0.  1.
         11    1    1    2    0    0 -0.26903477914E+02  0.10977612438E+03 -0.42203070096E+03  0.43690331557E+03  0.00000000000E+00 0. -1.
</event>
<event>
 7    1  0.2794945E-009  0.8254386E+02  0.7561462E-02  0.1321983E+00
          1   -1    0    0  501    0  0.00000000000E+00  0.00000000000E+00  0.15840128351E+03  0.15840128351E+03  0.00000000000E+00 0. -1.
         -1   -1    0    0    0  501 -0.00000000000E+00 -0.00000000000E+00 -0.15857885740E+03  0.15857885740E+03  0.00000000000E+00 0.  1.
         25    2    1    2    0    0  0.13417574226E+02 -0.28210594985E+02 -0.11131795947E+03  0.17033265772E+03  0.12508260158E+03 0.  0.
          5    1    3    3  502    0 -0.42512539081E+02 -0.15575058743E+02 -0.10254770341E+03  0.11217576525E+03  0.41800000000E+01 0. -1.
         -5    1    3    3    0  502  0.55930113307E+02 -0.12635536242E+02 -0.87702560525E+01  0.58156892471E+02  0.41800000000E+01 0. -1.
        -11    1    1    2    0    0  0.18871105529E+01  0.41690345260E+02  0.11797444193E+03  0.12513838349E+03  0.00000000000E+00 0. -1.
         11    1    1    2    0    0 -0.15304684778E+02 -0.13479750275E+02 -0.68340563482E+01  0.21509099698E+02  0.00000000000E+00 0.  1.
</event>
<event>
 7    1  0.2794945E-009  0.1890748E+03  0.7561462E-02  0.1159298E+00
         -2   -1    0    0    0  501 -0.00000000000E+00  0.00000000000E+00  0.48912991356E+02  0.48912991356E+02  0.00000000000E+00 0.  1.
          2   -1    0    0  501    0  0.00000000000E+00 -0.00000000000E+00 -0.81465144677E+03  0.81465144677E+03  0.00000000000E+00 0. -1.
         25    2    1    2    0    0  0.56776965075E+02  0.14942248672E+03 -0.29370631053E+03  0.35701734242E+03  0.12508909879E+03 0.  0.
          5    1    3    3  502    0  0.37464053654E+02 -0.55848235302E+01 -0.23180972034E+02  0.44604657094E+02  0.41800000000E+01 0. -1.
         -5    1    3    3    0  502  0.19312911422E+02  0.15500731025E+03 -0.27052533850E+03  0.31241268532E+03  0.41800000000E+01 0. -1.
        -11    1    1    2    0    0 -0.75116588416E+01 -0.13094984176E+03 -0.33784633807E+03  0.36241472683E+03  0.00000000000E+00 0.  1.
         11    1    1    2    0    0 -0.49265306234E+02 -0.18472644964E+02 -0.13418580680E+03  0.14413236887E+03  0.00000000000E+00 0. -1.
</event>
<event>
 7    1  0.2805097E-009  0.2246809E+03  0.7561462E-02  0.1130441E+00
          1   -1    0    0  501    0  0.00000000000E+00  0.00000000000E+00  0.27224408454E+03  0.27224408454E+03  0.00000000000E+00 0. -1.
         -1   -1    0    0    0  501 -0.00000000000E+00 -0.00000000000E+00 -0.20118240427E+03  0.20118240427E+03  0.00000000000E+00 0.  1.
         25    2    1    2    0    0  0.18867687339E+03  0.67515465546E+02  0.89015780899E+02  0.25244489252E+03  0.12508922364E+03 0.  0.
          5    1    3    3  502    0  0.85020512163E+02  0.95849968234E+02  0.40233969628E+02  0.13435754021E+03  0.41800000000E+01 0. -1.
         -5    1    3    3    0  502  0.10365636122E+03 -0.28334502688E+02  0.48781811271E+02  0.11808735231E+03  0.41800000000E+01 0. -1.
        -11    1    1    2    0    0 -0.13137043608E+03 -0.89256135801E+01 -0.37137614544E+02  0.13681030834E+03  0.00000000000E+00 0. -1.
         11    1    1    2    0    0 -0.57306437307E+02 -0.58589851966E+02  0.19183513918E+02  0.84171287957E+02  0.00000000000E+00 0.  1.
</event>
<event>
 7    1  0.2794945E-009  0.8513848E+02  0.7561462E-02  0.1315071E+00
         -2   -1    0    0    0  501 -0.00000000000E+00  0.00000000000E+00  0.17723013300E+02  0.17723013300E+02  0.00000000000E+00 0.  1.
          2   -1    0    0  501    0  0.00000000000E+00 -0.00000000000E+00 -0.73775941243E+03  0.73775941243E+03  0.00000000000E+00 0. -1.
         25    2    1    2    0    0 -0.21838131147E+02  0.20697413975E+02 -0.33970219822E+03  0.36325025902E+03  0.12509148766E+03 0.  0.
          5    1    3    3  502    0  0.95776441716E+01  0.39436278294E+02 -0.28235938252E+02  0.49615440364E+02  0.41800000000E+01 0. -1.
         -5    1    3    3    0  502 -0.31415775319E+02 -0.18738864318E+02 -0.31146625997E+03  0.31363481865E+03  0.41800000000E+01 0. -1.
        -11    1    1    2    0    0  0.20829097707E+02 -0.54758147557E+02 -0.18847955999E+03  0.19737489853E+03  0.00000000000E+00 0.  1.
         11    1    1    2    0    0  0.10090334403E+01  0.34060733582E+02 -0.19185464092E+03  0.19485726818E+03  0.00000000000E+00 0. -1.
</event>
<event>
 7    1  0.2794945E-009  0.1075986E+03  0.7561462E-02  0.1265083E+00
         -1   -1    0    0    0  501 -0.00000000000E+00  0.00000000000E+00  0.71353196243E+02  0.71353196243E+02  0.00000000000E+00 0.  1.
          1   -1    0    0  501    0  0.00000000000E+00 -0.00000000000E+00 -0.24504901099E+03  0.24504901099E+03  0.00000000000E+00 0. -1.
         25    2    1    2    0    0  0.47551620041E+02  0.54972377421E+02 -0.11868757594E+03  0.18713149010E+03  0.12509330540E+03 0.  0.
          5    1    3    3  502    0  0.33866348644E+02  0.74998620062E+02 -0.19145585020E+02  0.84591656843E+02  0.41800000000E+01 0.  1.
         -5    1    3    3    0  502  0.13685271397E+02 -0.20026242641E+02 -0.99541990917E+02  0.10253983325E+03  0.41800000000E+01 0.  1.
        -11    1    1    2    0    0 -0.61193626619E+02 -0.11034712749E+02 -0.55373450148E+02  0.83262499395E+02  0.00000000000E+00 0. -1.
         11    1    1    2    0    0  0.13642006578E+02 -0.43937664672E+02  0.36521134160E+00  0.46008217741E+02  0.00000000000E+00 0.  1.
</event>
<event>
 7    1  0.2794945E-009  0.1095437E+03  0.7561462E-02  0.1261417E+00
         -1   -1    0    0    0  501 -0.00000000000E+00  0.00000000000E+00  0.67376599439E+02  0.67376599439E+02  0.00000000000E+00 0.  1.
          1   -1    0    0  501    0  0.00000000000E+00 -0.00000000000E+00 -0.28940157416E+03  0.28940157416E+03  0.00000000000E+00 0. -1.
         25    2    1    2    0    0 -0.13107003929E+02  0.81780483158E+02 -0.15599535793E+03  0.21642982507E+03  0.12508987372E+03 0.  0.
          5    1    3    3  502    0  0.36983332367E+02  0.72767013444E+02 -0.14139374109E+03  0.16331707669E+03  0.41800000000E+01 0.  1.
         -5    1    3    3    0  502 -0.50090336296E+02  0.90134697134E+01 -0.14601616837E+02  0.53112748383E+02  0.41800000000E+01 0.  1.
        -11    1    1    2    0    0 -0.29557337269E+01 -0.54861811715E+02  0.12018434320E+02  0.56240532625E+02  0.00000000000E+00 0.  1.
         11    1    1    2    0    0  0.16062737656E+02 -0.26918671443E+02 -0.78048051114E+02  0.84107815902E+02  0.00000000000E+00 0. -1.
</event>
<event>
 7    1  0.2794945E-009  0.8075371E+02  0.7561462E-02  0.1326926E+00
          1   -1    0    0  501    0  0.00000000000E+00  0.00000000000E+00  0.44507457026E+03  0.44507457026E+03  0.00000000000E+00 0. -1.
         -1   -1    0    0    0  501 -0.00000000000E+00 -0.00000000000E+00 -0.52229411994E+02  0.52229411994E+02  0.00000000000E+00 0.  1.
         25    2    1    2    0    0 -0.41232513976E+02  0.85403145953E+01  0.38262965791E+03  0.40475329069E+03  0.12508682596E+03 0.  0.
          5    1    3    3  502    0 -0.60801406710E-01  0.25574595035E+02  0.34586984119E+03  0.34683927553E+03  0.41800000000E+01 0. -1.
         -5    1    3    3    0  502 -0.41171712569E+02 -0.17034280439E+02  0.36759816721E+02  0.57914015154E+02  0.41800000000E+01 0. -1.
        -11    1    1    2    0    0  0.62146407901E+02  0.99351160855E+01  0.30178851093E+00  0.62936266357E+02  0.00000000000E+00 0.  1.
         11    1    1    2    0    0 -0.20913893925E+02 -0.18475430681E+02  0.99137118435E+01  0.29614425209E+02  0.00000000000E+00 0. -1.
</event>
<event>
 7    1  0.2794945E-009  0.1341344E+03  0.7561462E-02  0.1221447E+00
          2   -1    0    0  501    0  0.00000000000E+00  0.00000000000E+00  0.67170980634E+03  0.67170980634E+03  0.00000000000E+00 0. -1.
         -2   -1    0    0    0  501 -0.00000000000E+00 -0.00000000000E+00 -0.30571449323E+02  0.30571449323E+02  0.00000000000E+00 0.  1.
         25    2    1    2    0    0 -0.84903242943E+02 -0.27553396813E+02  0.39942699411E+03  0.42797051413E+03  0.12509631090E+03 0.  0.
          5    1    3    3  502    0  0.25099982090E+02  0.28113275024E+01  0.22357758990E+02  0.33989034265E+02  0.41800000000E+01 0.  1.
         -5    1    3    3    0  502 -0.11000322503E+03 -0.30364724315E+02  0.37706923512E+03  0.39398147986E+03  0.41800000000E+01 0.  1.
        -11    1    1    2    0    0  0.13328262783E+02  0.51346863160E+02  0.11872482218E+03  0.13003740365E+03  0.00000000000E+00 0.  1.
         11    1    1    2    0    0  0.71574980160E+02 -0.23793466347E+02  0.12298654072E+03  0.14427333789E+03  0.00000000000E+00 0. -1.
</event>
<event>
 7    1  0.2794945E-009  0.1965326E+03  0.7561462E-02  0.1152698E+00
         -2   -1    0    0    0  501 -0.00000000000E+00  0.00000000000E+00  0.17251199484E+03  0.17251199484E+03  0.00000000000E+00 0.  1.
          2   -1    0    0  501    0  0.00000000000E+00 -0.00000000000E+00 -0.23663730208E+03  0.23663730208E+03  0.00000000000E+00 0. -1.
         25    2    1    2    0    0 -0.12672606306E+02  0.16891616533E+03 -0.45253903712E+02  0.21537411121E+03  0.12507927933E+03 0.  0.
          5    1    3    3  502    0 -0.48334612177E+02  0.16676920822E+03 -0.29782458921E+02  0.17621768017E+03  0.41800000000E+01 0. -1.
         -5    1    3    3    0  502  0.35662005870E+02  0.21469571039E+01 -0.15471444791E+02  0.39156431035E+02  0.41800000000E+01 0. -1.
        -11    1    1    2    0    0 -0.24229168493E+02 -0.11839758929E+03  0.16395800986E+02  0.12195845213E+03  0.00000000000E+00 0.  1.
         11    1    1    2    0    0  0.36901774800E+02 -0.50518576032E+02 -0.35267204513E+02  0.71816733578E+02  0.00000000000E+00 0. -1.
</event>
<event>
 7    1  0.2794945E-009  0.1070946E+03  0.7561462E-02  0.1266047E+00
         -1   -1    0    0    0  501 -0.00000000000E+00  0.00000000000E+00  0.24477583350E+02  0.24477583350E+02  0.00000000000E+00 0.  1.
          1   -1    0    0  501    0  0.00000000000E+00 -0.00000000000E+00 -0.57885960031E+03  0.57885960031E+03  0.00000000000E+00 0. -1.
         25    2    1    2    0    0 -0.10161829112E+02  0.11018264895E+02 -0.19109493898E+03  0.22888832272E+03  0.12509166095E+03 0.  0.
          5    1    3    3  502    0 -0.66835216463E+02  0.50117843002E+01 -0.12165703549E+03  0.13896032105E+03  0.41800000000E+01 0. -1.
         -5    1    3    3    0  502  0.56673387351E+02  0.60064805945E+01 -0.69437903488E+02  0.89928001667E+02  0.41800000000E+01 0. -1.
        -11    1    1    2    0    0  0.40077354719E+02 -0.33689734219E+02 -0.18578436406E+03  0.19302078251E+03  0.00000000000E+00 0.  1.
         11    1    1    2    0    0 -0.29915525607E+02  0.22671469325E+02 -0.17750271392E+03  0.18142807843E+03  0.00000000000E+00 0. -1.
</event>
<event>
 7    1  0.2794945E-009  0.8832459E+02  0.7561462E-02  0.1306960E+00
         -1   -1    0    0    0  501 -0.00000000000E+00  0.00000000000E+00  0.15973126603E+03  0.15973126603E+03  0.00000000000E+00 0.  1.
          1   -1    0    0  501    0  0.00000000000E+00 -0.00000000000E+00 -0.11543230903E+03  0.11543230903E+03  0.00000000000E+00 0. -1.
         25    2    1    2    0    0  0.31661605551E+02 -0.40107749101E+02 -0.40663524411E+02  0.14110962577E+03  0.12508923001E+03 0.  0.
          5    1    3    3  502    0 -0.14319407725E+02 -0.50798615326E+02 -0.68169265739E+02  0.86313764534E+02  0.41800000000E+01 0.  1.
         -5    1    3    3    0  502  0.45981013276E+02  0.10690866225E+02  0.27505741328E+02  0.54795861236E+02  0.41800000000E+01 0.  1.
        -11    1    1    2    0    0  0.16626249881E+02  0.10854193696E+02 -0.11012117107E+02  0.22704898791E+02  0.00000000000E+00 0. -1.
         11    1    1    2    0    0 -0.48287855433E+02  0.29253555405E+02  0.95974598516E+02  0.11134905050E+03  0.00000000000E+00 0.  1.
</event>
<event>
 7    1  0.2794945E-009  0.7901648E+02  0.7561462E-02  0.1331866E+00
         -1   -1    0    0    0  501 -0.00000000000E+00  0.00000000000E+00  0.21591980644E+03  0.21591980644E+03  0.00000000000E+00 0.  1.
          1   -1    0    0  501    0  0.00000000000E+00 -0.00000000000E+00 -0.11574890225E+03  0.11574890225E+03  0.00000000000E+00 0. -1.
         25    2    1    2    0    0  0.46394939605E+02  0.16111752561E+02  0.16140840538E+03  0.21002512979E+03  0.12508318362E+03 0.  0.
          5    1    3    3  502    0  0.26627785953E+02 -0.45547592626E+01 -0.15057057770E+02  0.31208527767E+02  0.41800000000E+01 0.  1.
         -5    1    3    3    0  502  0.19767153652E+02  0.20666511823E+02  0.17646546315E+03  0.17881660202E+03  0.41800000000E+01 0.  1.
        -11    1    1    2    0    0 -0.30115082765E+02  0.36153483039E+02 -0.43552923749E+02  0.64115908423E+02  0.00000000000E+00 0.  1.
         11    1    1    2    0    0 -0.16279856840E+02 -0.52265235599E+02 -0.17684577442E+02  0.57527670475E+02  0.00000000000E+00 0. -1.
</event>
<event>
 7    1  0.2794945E-009  0.1142624E+03  0.7561462E-02  0.1252874E+00
         -2   -1    0    0    0  501 -0.00000000000E+00  0.00000000000E+00  0.26970831924E+02  0.26970831924E+02  0.00000000000E+00 0.  1.
          2   -1    0    0  501    0  0.00000000000E+00 -0.00000000000E+00 -0.84343005978E+03  0.84343005978E+03  0.00000000000E+00 0. -1.
         25    2    1    2    0    0 -0.86946419824E+02 -0.36557221138E+02 -0.57194698113E+03  0.59301488778E+03  0.12508875876E+03 0.  0.
          5    1    3    3  502    0 -0.49766586796E+02 -0.60534548541E+02 -0.15527256503E+03  0.17397754619E+03  0.41800000000E+01 0.  1.
         -5    1    3    3    0  502 -0.37179833027E+02  0.23977327403E+02 -0.41667441610E+03  0.41903734159E+03  0.41800000000E+01 0.  1.
        -11    1    1    2    0    0  0.40127486068E+02 -0.80681446584E+01 -0.23702391542E+02  0.47298133802E+02  0.00000000000E+00 0.  1.
         11    1    1    2    0    0  0.46818933756E+02  0.44625365796E+02 -0.22080985518E+03  0.23008787012E+03  0.00000000000E+00 0. -1.
</event>
<event>
 7    1  0.2794945E-009  0.1477023E+03  0.7561462E-02  0.1203325E+00
         -1   -1    0    0    0  501 -0.00000000000E+00  0.00000000000E+00  0.35357957259E+02  0.35357957259E+02  0.00000000000E+00 0.  1.
          1   -1    0    0  501    0  0.00000000000E+00 -0.00000000000E+00 -0.65230290475E+03  0.65230290475E+03  0.00000000000E+00 0. -1.
         25    2    1    2    0    0 -0.33661059202E+02 -0.97868455316E+02 -0.27927076020E+03  0.32303405536E+03  0.12509013537E+03 0.  0.
          5    1    3    3  502    0 -0.66717004638E+02 -0.10454510234E+03 -0.24574619493E+03  0.27529893181E+03  0.41800000000E+01 0.  1.
         -5    1    3    3    0  502  0.33055945436E+02  0.66766470207E+01 -0.33524565274E+02  0.47735123556E+02  0.41800000000E+01 0.  1.
        -11    1    1    2    0    0  0.47981856993E+02  0.10914262340E+02 -0.13168174041E+03  0.14057546187E+03  0.00000000000E+00 0. -1.
         11    1    1    2    0    0 -0.14320797791E+02  0.86954192976E+02 -0.20599244688E+03  0.22405134478E+03  0.00000000000E+00 0.  1.
</event>
<event>
 7    1  0.2794945E-009  0.1191994E+03  0.7561462E-02  0.1244424E+00
          1   -1    0    0  501    0  0.00000000000E+00  0.00000000000E+00  0.13360631965E+03  0.13360631965E+03  0.00000000000E+00 0. -1.
         -1   -1    0    0    0  501 -0.00000000000E+00 -0.00000000000E+00 -0.21948606935E+03  0.21948606935E+03  0.00000000000E+00 0.  1.
         25    2    1    2    0    0 -0.79776378141E+02  0.62473654890E+02 -0.13379011288E+03  0.20932440533E+03  0.12509869822E+03 0.  0.
          5    1    3    3  502    0 -0.33144922152E+02  0.48977894041E+02 -0.14728154604E+03  0.15876632569E+03  0.41800000000E+01 0. -1.
         -5    1    3    3    0  502 -0.46631455989E+02  0.13495760849E+02  0.13491433155E+02  0.50558079642E+02  0.41800000000E+01 0. -1.
        -11    1    1    2    0    0  0.87419347172E+02 -0.23294476219E+02  0.50780961408E+02  0.10374719718E+03  0.00000000000E+00 0. -1.
         11    1    1    2    0    0 -0.76429690308E+01 -0.39179178671E+02 -0.28705982324E+01  0.40020786488E+02  0.00000000000E+00 0.  1.
</event>
<event>
 7    1  0.2794945E-009  0.1107316E+03  0.7561462E-02  0.1259221E+00
         -2   -1    0    0    0  501 -0.00000000000E+00  0.00000000000E+00  0.50522454217E+02  0.50522454217E+02  0.00000000000E+00 0.  1.
          2   -1    0    0  501    0  0.00000000000E+00 -0.00000000000E+00 -0.26044892318E+03  0.26044892318E+03  0.00000000000E+00 0. -1.
         25    2    1    2    0    0 -0.32252332307E+02  0.10996030371E+02 -0.15005752189E+03  0.19830752950E+03  0.12508993067E+03 0.  0.
          5    1    3    3  502    0  0.44947063176E+02  0.21958487670E+02 -0.45051707657E+02  0.67450296009E+02  0.41800000000E+01 0.  1.
         -5    1    3    3    0  502 -0.77199395484E+02 -0.10962457298E+02 -0.10500581424E+03  0.13085723349E+03  0.41800000000E+01 0.  1.
        -11    1    1    2    0    0  0.29917772170E+02  0.35612730354E+02 -0.42076863949E+02  0.62720029773E+02  0.00000000000E+00 0.  1.
         11    1    1    2    0    0  0.23345601378E+01 -0.46608760725E+02 -0.17792083124E+02  0.49943818129E+02  0.00000000000E+00 0. -1.
</event>
<event>
 7    1  0.2794945E-009  0.1053795E+03  0.7561462E-02  0.1269374E+00
          1   -1    0    0  501    0  0.00000000000E+00  0.00000000000E+00  0.59210274670E+03  0.59210274670E+03  0.00000000000E+00 0. -1.
         -1   -1    0    0    0  501 -0.00000000000E+00 -0.00000000000E+00 -0.30410176082E+02  0.30410176082E+02  0.00000000000E+00 0.  1.
         25    2    1    2    0    0  0.14692939172E+02 -0.75993534097E+02  0.26516527601E+03  0.30323089250E+03  0.12508177677E+03 0.  0.
          5    1    3    3  502    0  0.50406215253E+02 -0.56565023649E+01  0.18005786267E+03  0.18711250323E+03  0.41800000000E+01 0. -1.
         -5    1    3    3    0  502 -0.35713276081E+02 -0.70337031732E+02  0.85107413334E+02  0.11611838927E+03  0.41800000000E+01 0. -1.
        -11    1    1    2    0    0  0.51726317775E+00  0.54695150372E+02  0.28581638833E+03  0.29100315268E+03  0.00000000000E+00 0. -1.
         11    1    1    2    0    0 -0.15210202350E+02  0.21298383725E+02  0.10710906282E+02  0.28278877598E+02  0.00000000000E+00 0.  1.
</event>
<event>
 7    1  0.2794945E-009  0.1242427E+03  0.7561462E-02  0.1236258E+00
          1   -1    0    0  501    0  0.00000000000E+00  0.00000000000E+00  0.13533336129E+03  0.13533336129E+03  0.00000000000E+00 0. -1.
         -1   -1    0    0    0  501 -0.00000000000E+00 -0.00000000000E+00 -0.13861564455E+03  0.13861564455E+03  0.00000000000E+00 0.  1.
         25    2    1    2    0    0 -0.73678809431E+02  0.55583688666E+01  0.37494755624E+02  0.15004115387E+03  0.12508808389E+03 0.  0.
          5    1    3    3  502    0 -0.10695231465E+03  0.19072888264E+02  0.23236130384E+02  0.11117536971E+03  0.41800000000E+01 0. -1.
         -5    1    3    3    0  502  0.33273505219E+02 -0.13514519397E+02  0.14258625240E+02  0.38865784153E+02  0.41800000000E+01 0. -1.
        -11    1    1    2    0    0  0.85840169509E+02 -0.16311281298E+02 -0.54219154326E+02  0.10283146063E+03  0.00000000000E+00 0.  1.
         11    1    1    2    0    0 -0.12161360079E+02  0.10752912431E+02  0.13442115446E+02  0.21076391351E+02  0.00000000000E+00 0. -1.
</event>
<event>
 7    1  0.2794945E-009  0.2828092E+03  0.7561462E-02  0.1094164E+00
         -2   -1    0    0    0  501 -0.00000000000E+00  0.00000000000E+00  0.18352895654E+03  0.18352895654E+03  0.00000000000E+00 0.  1.
          2   -1    0    0  501    0  0.00000000000E+00 -0.00000000000E+00 -0.46994427436E+03  0.46994427436E+03  0.00000000000E+00 0. -1.
         25    2    1    2    0    0 -0.68641196257E+02 -0.26323283384E+03 -0.14270300924E+03  0.33168807438E+03  0.12509872582E+03 0.  0.
          5    1    3    3  502    0  0.83586618850E+01 -0.72035974512E+00 -0.37338647805E+02  0.38497183878E+02  0.41800000000E+01 0.  1.
         -5    1    3    3    0  502 -0.76999858142E+02 -0.26251247410E+03 -0.10536436144E+03  0.29319089050E+03  0.41800000000E+01 0.  1.
        -11    1    1    2    0    0  0.78593263458E+00  0.15430522490E+03 -0.10873649097E+03  0.18877061369E+03  0.00000000000E+00 0.  1.
         11    1    1    2    0    0  0.67855263622E+02  0.10892760894E+03 -0.34975817597E+02  0.13301454284E+03  0.00000000000E+00 0. -1.
</event>
<event>
 7    1  0.2794945E-009  0.8085506E+02  0.7561462E-02  0.1326642E+00
         -2   -1    0    0    0  501 -0.00000000000E+00  0.00000000000E+00  0.28138703578E+02  0.28138703578E+02  0.00000000000E+00 0.  1.
          2   -1    0    0  501    0  0.00000000000E+00 -0.00000000000E+00 -0.48674214657E+03  0.48674214657E+03  0.00000000000E+00 0. -1.
         25    2    1    2    0    0  0.31891001569E+02  0.37364346736E+02 -0.25465048183E+03  0.28792663615E+03  0.12506698015E+03 0.  0.
          5    1    3    3  502    0 -0.76904873125E+01  0.90924529961E-01  0.12504200541E+02  0.15263659245E+02  0.41800000000E+01 0. -1.
         -5    1    3    3    0  502  0.39581488881E+02  0.37273422206E+02 -0.26715468237E+03  0.27266297691E+03  0.41800000000E+01 0. -1.
        -11    1    1    2    0    0  0.21662539077E+02  0.12704810168E+02 -0.68075006397E+02  0.72559522439E+02  0.00000000000E+00 0. -1.
         11    1    1    2    0    0 -0.53553540646E+02 -0.50069156904E+02 -0.13587795477E+03  0.15439469156E+03  0.00000000000E+00 0.  1.
</event>
<event>
 7    1  0.2794945E-009  0.1105117E+03  0.7561462E-02  0.1259625E+00
         -2   -1    0    0    0  501 -0.00000000000E+00  0.00000000000E+00  0.84920088201E+02  0.84920088201E+02  0.00000000000E+00 0.  1.
          2   -1    0    0  501    0  0.00000000000E+00 -0.00000000000E+00 -0.22862355835E+03  0.22862355835E+03  0.00000000000E+00 0. -1.
         25    2    1    2    0    0  0.83302314564E+02 -0.17080209308E+02 -0.10068823527E+03  0.18170463120E+03  0.12508974025E+03 0.  0.
          5    1    3    3  502    0  0.83609318178E+02 -0.47642645307E+02 -0.24324444472E+02  0.99345310593E+02  0.41800000000E+01 0. -1.
         -5    1    3    3    0  502 -0.30700361391E+00  0.30562435999E+02 -0.76363790798E+02  0.82359320605E+02  0.41800000000E+01 0. -1.
        -11    1    1    2    0    0 -0.15262257792E+01  0.11809555195E+02 -0.48277598359E+02  0.49724455375E+02  0.00000000000E+00 0. -1.
         11    1    1    2    0    0 -0.81776088785E+02  0.52706541134E+01  0.52623634758E+01  0.82114559982E+02  0.00000000000E+00 0.  1.
</event>
<event>
 7    1  0.2794945E-009  0.1465785E+03  0.7561462E-02  0.1204741E+00
         -1   -1    0    0    0  501 -0.00000000000E+00  0.00000000000E+00  0.35486951754E+03  0.35486951754E+03  0.00000000000E+00 0. -1.
          1   -1    0    0  501    0  0.00000000000E+00 -0.00000000000E+00 -0.72907529614E+02  0.72907529614E+02  0.00000000000E+00 0.  1.
         25    2    1    2    0    0  0.10742389337E+03  0.20686059653E+02  0.17058790238E+03  0.23815013322E+03  0.12508975811E+03 0.  0.
          5    1    3    3  502    0  0.38786546761E+02  0.70538328546E+02  0.72668910533E+02  0.10852785339E+03  0.41800000000E+01 0.  1.
         -5    1    3    3    0  502  0.68637346610E+02 -0.49852268893E+02  0.97918991842E+02  0.12962227982E+03  0.41800000000E+01 0.  1.
        -11    1    1    2    0    0 -0.35433242997E+02  0.24080432553E+02  0.93700419262E+02  0.10302985252E+03  0.00000000000E+00 0. -1.
         11    1    1    2    0    0 -0.71990650374E+02 -0.44766492207E+02  0.17673666289E+02  0.86597061415E+02  0.00000000000E+00 0.  1.
</event>
<event>
 7    1  0.2794945E-009  0.1057702E+03  0.7561462E-02  0.1268610E+00
          4   -1    0    0  501    0  0.00000000000E+00  0.00000000000E+00  0.14081862126E+03  0.14081862126E+03  0.00000000000E+00 0. -1.
         -4   -1    0    0    0  501 -0.00000000000E+00 -0.00000000000E+00 -0.19465929901E+03  0.19465929901E+03  0.00000000000E+00 0.  1.
         25    2    1    2    0    0 -0.80288814919E+02  0.86202513893E+01  0.67248204817E+02  0.16337062439E+03  0.12508811825E+03 0.  0.
          5    1    3    3  502    0 -0.29865502247E+02 -0.25898821734E+02  0.89717411092E+02  0.98129421911E+02  0.41800000000E+01 0.  1.
         -5    1    3    3    0  502 -0.50423312672E+02  0.34519073123E+02 -0.22469206275E+02  0.65241202477E+02  0.41800000000E+01 0.  1.
        -11    1    1    2    0    0  0.69665261542E+02 -0.37959429780E+02 -0.48224364896E+02  0.92842642921E+02  0.00000000000E+00 0. -1.
         11    1    1    2    0    0  0.10623553376E+02  0.29339178391E+02 -0.72864517665E+02  0.79264652964E+02  0.00000000000E+00 0.  1.
</event>
<event>
 7    1  0.2794945E-009  0.1596105E+03  0.7561462E-02  0.1189137E+00
          2   -1    0    0  501    0  0.00000000000E+00  0.00000000000E+00  0.48512507673E+03  0.48512507673E+03  0.00000000000E+00 0. -1.
         -2   -1    0    0    0  501 -0.00000000000E+00 -0.00000000000E+00 -0.69760851204E+02  0.69760851204E+02  0.00000000000E+00 0.  1.
         25    2    1    2    0    0  0.13919625532E+03 -0.46883418384E+02  0.25533111648E+03  0.32002156452E+03  0.12508465253E+03 0.  0.
          5    1    3    3  502    0  0.11954334883E+03 -0.41508831449E+02  0.94857277241E+02  0.15820547014E+03  0.41800000000E+01 0.  1.
         -5    1    3    3    0  502  0.19652906493E+02 -0.53745869351E+01  0.16047383924E+03  0.16181609438E+03  0.41800000000E+01 0.  1.
        -11    1    1    2    0    0 -0.49651162175E+02 -0.26277432537E+02  0.48697881747E+02  0.74345309554E+02  0.00000000000E+00 0.  1.
         11    1    1    2    0    0 -0.89545093149E+02  0.73160850921E+02  0.11133522730E+03  0.16051905386E+03  0.00000000000E+00 0. -1.
</event>
<event>
 6    1  0.2794945E-009  0.1534052E+03  0.7561462E-02  0.1196350E+00
         -1   -1    0    0    0  501 -0.00000000000E+00  0.00000000000E+00  0.24976268931E+02  0.24976268931E+02  0.00000000000E+00 0.  1.
          1   -1    0    0  501    0  0.00000000000E+00 -0.00000000000E+00 -0.10394711760E+04  0.10394711760E+04  0.00000000000E+00 0. -1.
          5    1    1    2  502    0  0.82380426427E+02 -0.17439156525E+02 -0.15313026019E+03  0.17480562870E+03  0.41800000000E+01 0. -1.
         -5    1    1    2    0  502  0.16674253437E+02  0.74334328812E+02 -0.29086091132E+03  0.30070112288E+03  0.41800000000E+01 0. -1.
        -11    1    1    2    0    0 -0.27492510178E+02  0.25202077041E+02 -0.14715789324E+03  0.15181050143E+03  0.00000000000E+00 0. -1.
         11    1    1    2    0    0 -0.71562169686E+02 -0.82097249328E+02 -0.42334584234E+03  0.43713019194E+03  0.00000000000E+00 0.  1.
</event>
<event>
 7    1  0.2794945E-009  0.9339122E+02  0.7561462E-02  0.1294841E+00
          2   -1    0    0  501    0  0.00000000000E+00  0.00000000000E+00  0.34249454879E+03  0.34249454879E+03  0.00000000000E+00 0. -1.
         -2   -1    0    0    0  501 -0.00000000000E+00 -0.00000000000E+00 -0.47381520895E+02  0.47381520895E+02  0.00000000000E+00 0.  1.
         25    2    1    2    0    0 -0.28267114819E+02 -0.18687664631E+02  0.24852340155E+03  0.28028555714E+03  0.12509138193E+03 0.  0.
          5    1    3    3  502    0 -0.11207249878E+02 -0.50953585720E+02  0.23559732156E+03  0.24134092209E+03  0.41800000000E+01 0. -1.
         -5    1    3    3    0  502 -0.17059864942E+02  0.32265921088E+02  0.12926079991E+02  0.38944635053E+02  0.41800000000E+01 0. -1.
        -11    1    1    2    0    0  0.58035064154E+02  0.30642519050E+02  0.39951817159E+02  0.76832156936E+02  0.00000000000E+00 0.  1.
         11    1    1    2    0    0 -0.29767949335E+02 -0.11954854419E+02  0.66378091918E+01  0.32758355616E+02  0.00000000000E+00 0. -1.
</event>
<event>
 7    1  0.2794945E-009  0.9553675E+02  0.7561462E-02  0.1289972E+00
          1   -1    0    0  501    0  0.00000000000E+00  0.00000000000E+00  0.68685582758E+02  0.68685582758E+02  0.00000000000E+00 0. -1.
         -1   -1    0    0    0  501 -0.00000000000E+00 -0.00000000000E+00 -0.22905043854E+03  0.22905043854E+03  0.00000000000E+00 0.  1.
         25    2    1    2    0    0 -0.42146134970E+02 -0.32208380658E+02 -0.13237197065E+03  0.18969169142E+03  0.12508766008E+03 0.  0.
          5    1    3    3  502    0  0.30728719898E+02  0.27210536396E+02 -0.33102739984E+02  0.52895475345E+02  0.41800000000E+01 0.  1.
         -5    1    3    3    0  502 -0.72874854868E+02 -0.59418917054E+02 -0.99269230670E+02  0.13679621608E+03  0.41800000000E+01 0.  1.
        -11    1    1    2    0    0  0.35224062435E+02  0.17267803200E+02  0.28958899217E+02  0.48759916383E+02  0.00000000000E+00 0. -1.
         11    1    1    2    0    0  0.69220725347E+01  0.14940577459E+02 -0.56951784348E+02  0.59284413495E+02  0.00000000000E+00 0.  1.
</event>
<event>
 7    1  0.2794945E-009  0.9755958E+02  0.7561462E-02  0.1285513E+00
          2   -1    0    0  501    0  0.00000000000E+00  0.00000000000E+00  0.22010517155E+03  0.22010517155E+03  0.00000000000E+00 0. -1.
         -2   -1    0    0    0  501 -0.00000000000E+00 -0.00000000000E+00 -0.55071141206E+02  0.55071141206E+02  0.00000000000E+00 0.  1.
         25    2    1    2    0    0  0.79260026548E+01  0.13853599148E+02  0.71221434484E+02  0.14482496510E+03  0.12508810519E+03 0.  0.
          5    1    3    3  502    0  0.45436546980E+02 -0.34739128117E+02  0.58644738783E+02  0.82024170893E+02  0.41800000000E+01 0. -1.
         -5    1    3    3    0  502 -0.37510544325E+02  0.48592727265E+02  0.12576695702E+02  0.62800794210E+02  0.41800000000E+01 0. -1.
        -11    1    1    2    0    0  0.25315381340E+02  0.17318278114E+02  0.57644871157E+01  0.31209303115E+02  0.00000000000E+00 0.  1.
         11    1    1    2    0    0 -0.33241383995E+02 -0.31171877262E+02  0.88048108740E+02  0.99142044535E+02  0.00000000000E+00 0. -1.
</event>
<event>
 7    1  0.2794945E-009  0.9589794E+02  0.7561462E-02  0.1289166E+00
          2   -1    0    0  501    0  0.00000000000E+00  0.00000000000E+00  0.16032881105E+03  0.16032881105E+03  0.00000000000E+00 0.  1.
         -2   -1    0    0    0  501 -0.00000000000E+00 -0.00000000000E+00 -0.12022310877E+03  0.12022310877E+03  0.00000000000E+00 0. -1.
         25    2    1    2    0    0  0.52923098405E+02  0.87447724444E+01  0.97573621233E+02  0.16746504102E+03  0.12508638220E+03 0.  0.
          5    1    3    3  502    0  0.68066755934E+02  0.34345138745E+02  0.11086852371E+03  0.13461788056E+03  0.41800000000E+01 0.  1.
         -5    1    3    3    0  502 -0.15143657529E+02 -0.25600366301E+02 -0.13294902473E+02  0.32847160453E+02  0.41800000000E+01 0.  1.
        -11    1    1    2    0    0 -0.56927350263E+02 -0.29603506627E+02 -0.64238058575E+02  0.90794377481E+02  0.00000000000E+00 0.  1.
         11    1    1    2    0    0  0.40042518580E+01  0.20858734183E+02  0.67701396242E+01  0.22292501322E+02  0.00000000000E+00 0. -1.
</event>
<event>
 7    1  0.2794945E-009  0.9268502E+02  0.7561462E-02  0.1296477E+00
         -4   -1    0    0    0  501 -0.00000000000E+00  0.00000000000E+00  0.22165071746E+03  0.22165071746E+03  0.00000000000E+00 0.  1.
          4   -1    0    0  501    0  0.00000000000E+00 -0.00000000000E+00 -0.81125365907E+02  0.81125365907E+02  0.00000000000E+00 0. -1.
         25    2    1    2    0    0  0.31676559664E+02  0.56442183207E+02  0.26705415609E+02  0.14334931602E+03  0.12508686063E+03 0.  0.
          5    1    3    3  502    0  0.35365799592E+02  0.69917550545E+02  0.65305910815E+02  0.10208593460E+03  0.41800000000E+01 0. -1.
         -5    1    3    3    0  502 -0.36892399281E+01 -0.13475367338E+02 -0.38600495205E+02  0.41263381421E+02  0.41800000000E+01 0. -1.
        -11    1    1    2    0    0  0.12434415662E+02  0.75893631080E+01 -0.66736280208E+01  0.16023433971E+02  0.00000000000E+00 0. -1.
         11    1    1    2    0    0 -0.44110975326E+02 -0.64031546315E+02  0.12049356397E+03  0.14340333338E+03  0.00000000000E+00 0.  1.
</event>
<event>
 7    1  0.2794945E-009  0.7599430E+02  0.7561462E-02  0.1340819E+00
          3   -1    0    0  501    0  0.00000000000E+00  0.00000000000E+00  0.37191606935E+03  0.37191606935E+03  0.00000000000E+00 0. -1.
         -3   -1    0    0    0  501 -0.00000000000E+00 -0.00000000000E+00 -0.41571489526E+02  0.41571489526E+02  0.00000000000E+00 0.  1.
         25    2    1    2    0    0 -0.33617947267E+02 -0.31522463445E+02  0.12240367717E+03  0.18098086839E+03  0.12509029722E+03 0.  0.
          5    1    3    3  502    0 -0.22023912949E+02 -0.12727065195E+02  0.14607903211E+03  0.14833606086E+03  0.41800000000E+01 0. -1.
         -5    1    3    3    0  502 -0.11594034317E+02 -0.18795398250E+02 -0.23675354938E+02  0.32644807528E+02  0.41800000000E+01 0. -1.
        -11    1    1    2    0    0  0.37494617517E+02 -0.26289640335E+02  0.83332865029E+02  0.95086055369E+02  0.00000000000E+00 0. -1.
         11    1    1    2    0    0 -0.38766702507E+01  0.57812103779E+02  0.12460803763E+03  0.13742063512E+03  0.00000000000E+00 0.  1.
</event>
<event>
 7    1  0.2794945E-009  0.7823067E+02  0.7561462E-02  0.1334149E+00
         -2   -1    0    0    0  501 -0.00000000000E+00  0.00000000000E+00  0.69325276079E+02  0.69325276079E+02  0.00000000000E+00 0.  1.
          2   -1    0    0  501    0  0.00000000000E+00 -0.00000000000E+00 -0.17155523082E+03  0.17155523082E+03  0.00000000000E+00 0. -1.
         25    2    1    2    0    0 -0.17409828727E+02  0.96710439267E+01 -0.40279108413E+02  0.13291008742E+03  0.12508418580E+03 0.  0.
          5    1    3    3  502    0 -0.48554441987E+02  0.53731503155E+02 -0.22772594222E+02  0.76030728758E+02  0.41800000000E+01 0. -1.
         -5    1    3    3    0  502  0.31144613259E+02 -0.44060459228E+02 -0.17506514192E+02  0.56879358661E+02  0.41800000000E+01 0. -1.
        -11    1    1    2    0    0  0.14181385405E+02  0.48034053712E+01  0.19834489835E+02  0.24851385921E+02  0.00000000000E+00 0.  1.
         11    1    1    2    0    0  0.32284433218E+01 -0.14474449298E+02 -0.81785336162E+02  0.83119033560E+02  0.00000000000E+00 0. -1.
</event>
<event>
 7    1  0.2794945E-009  0.1194604E+03  0.7561462E-02  0.1243990E+00
          1   -1    0    0  501    0  0.00000000000E+00  0.00000000000E+00  0.90042890203E+02  0.90042890203E+02  0.00000000000E+00 0. -1.
         -1   -1    0    0    0  501 -0.00000000000E+00 -0.00000000000E+00 -0.17325658593E+03  0.17325658593E+03  0.00000000000E+00 0.  1.
         25    2    1    2    0    0  0.67147927700E+02 -0.17294923059E+02 -0.44887097609E+02  0.14990152291E+03  0.12509059310E+03 0.  0.
          5    1    3    3  502    0  0.74170259915E+02 -0.59285046746E+02 -0.48989964589E+02  0.10692723345E+03  0.41800000000E+01 0. -1.
         -5    1    3    3    0  502 -0.70223322151E+01  0.41990123688E+02  0.41028669794E+01  0.42974289459E+02  0.41800000000E+01 0. -1.
        -11    1    1    2    0    0 -0.80930349598E+02  0.26292530695E+01 -0.14588588534E+02  0.82276736525E+02  0.00000000000E+00 0. -1.
         11    1    1    2    0    0  0.13782421899E+02  0.14665669989E+02 -0.23738009585E+02  0.31121216696E+02  0.00000000000E+00 0.  1.
</event>
<event>
 7    1  0.2794945E-009  0.1205198E+03  0.7561462E-02  0.1242242E+00
         -2   -1    0    0    0  501 -0.00000000000E+00  0.00000000000E+00  0.64819271160E+03  0.64819271160E+03  0.00000000000E+00 0.  1.
          2   -1    0    0  501    0  0.00000000000E+00 -0.00000000000E+00 -0.27962550356E+02  0.27962550356E+02  0.00000000000E+00 0. -1.
         25    2    1    2    0    0 -0.14023478028E+02  0.76544937370E+02  0.31638489166E+03  0.34900673920E+03  0.12510203420E+03 0.  0.
          5    1    3    3  502    0 -0.88887630727E+01  0.97416860159E+02  0.31156271326E+03  0.32658513660E+03  0.41800000000E+01 0.  1.
         -5    1    3    3    0  502 -0.51347149548E+01 -0.20871922790E+02  0.48221784010E+01  0.22421602600E+02  0.41800000000E+01 0.  1.
        -11    1    1    2    0    0 -0.36314290481E+02 -0.56257060924E+02  0.17137023509E+03  0.18398734215E+03  0.00000000000E+00 0. -1.
         11    1    1    2    0    0  0.50337768509E+02 -0.20287876446E+02  0.13247503449E+03  0.14316118060E+03  0.00000000000E+00 0.  1.
</event>
<event>
 7    1  0.2794945E-009  0.1620045E+03  0.7561462E-02  0.1186452E+00
          1   -1    0    0  501    0  0.00000000000E+00  0.00000000000E+00  0.27685066305E+03  0.27685066305E+03  0.00000000000E+00 0. -1.
         -1   -1    0    0    0  501 -0.00000000000E+00 -0.00000000000E+00 -0.13632237296E+03  0.13632237296E+03  0.00000000000E+00 0.  1.
         25    2    1    2    0    0 -0.12128272551E+03 -0.81172563428E+02  0.14631958495E+03  0.24156895186E+03  0.12509057919E+03 0.  0.
          5    1    3    3  502    0 -0.82531434595E+02 -0.84551486927E+02  0.34584192719E+02  0.12318250860E+03  0.41800000000E+01 0.  1.
         -5    1    3    3    0  502 -0.38751290915E+02  0.33789234987E+01  0.11173539223E+03  0.11838644326E+03  0.41800000000E+01 0.  1.
        -11    1    1    2    0    0  0.48690118546E+01 -0.14928971214E+02  0.11778224801E+02  0.19629264821E+02  0.00000000000E+00 0. -1.
         11    1    1    2    0    0  0.11641371366E+03  0.96101534642E+02 -0.17569519658E+02  0.15197481932E+03  0.00000000000E+00 0.  1.
</event>
<event>
 7    1  0.2794945E-009  0.1822059E+03  0.7561462E-02  0.1165685E+00
          1   -1    0    0  501    0  0.00000000000E+00  0.00000000000E+00  0.37980184211E+03  0.37980184211E+03  0.00000000000E+00 0. -1.
         -1   -1    0    0    0  501 -0.00000000000E+00 -0.00000000000E+00 -0.12865532196E+03  0.12865532196E+03  0.00000000000E+00 0.  1.
         25    2    1    2    0    0  0.95000648953E+02 -0.14239605563E+03  0.23009979279E+03  0.31288805898E+03  0.12510500730E+03 0.  0.
          5    1    3    3  502    0  0.10598919138E+03 -0.12504849303E+03  0.12625749360E+03  0.20695231670E+03  0.41800000000E+01 0. -1.
         -5    1    3    3    0  502 -0.10988542422E+02 -0.17347562601E+02  0.10384229919E+03  0.10593574228E+03  0.41800000000E+01 0. -1.
        -11    1    1    2    0    0 -0.22386154483E+02  0.82091357199E+02 -0.27504918672E+02  0.89423997845E+02  0.00000000000E+00 0.  1.
         11    1    1    2    0    0 -0.72614494470E+02  0.60304698427E+02  0.48551646035E+02  0.10614510725E+03  0.00000000000E+00 0. -1.
</event>
<event>
 7    1  0.2794945E-009  0.1011660E+03  0.7561462E-02  0.1277863E+00
          4   -1    0    0  501    0  0.00000000000E+00  0.00000000000E+00  0.74964063841E+02  0.74964063841E+02  0.00000000000E+00 0. -1.
         -4   -1    0    0    0  501 -0.00000000000E+00 -0.00000000000E+00 -0.19474231206E+03  0.19474231206E+03  0.00000000000E+00 0.  1.
         25    2    1    2    0    0 -0.49918111592E+02 -0.13230305829E+02 -0.75795215683E+02  0.15511117695E+03  0.12509078159E+03 0.  0.
          5    1    3    3  502    0 -0.69130522141E+02  0.56079107299E+01  0.51838377335E+01  0.69676555081E+02  0.41800000000E+01 0. -1.
         -5    1    3    3    0  502  0.19212410550E+02 -0.18838216559E+02 -0.80979053416E+02  0.85434621872E+02  0.41800000000E+01 0. -1.
        -11    1    1    2    0    0 -0.26008312641E+02  0.14308660710E+02 -0.15564133123E+02  0.33517343832E+02  0.00000000000E+00 0. -1.
         11    1    1    2    0    0  0.75926424232E+02 -0.10783548805E+01 -0.28418899410E+02  0.81077855112E+02  0.00000000000E+00 0.  1.
</event>
<event>
 7    1  0.2794945E-009  0.7556991E+02  0.7561462E-02  0.1342115E+00
          2   -1    0    0  501    0  0.00000000000E+00  0.00000000000E+00  0.12666686534E+04  0.12666686534E+04  0.00000000000E+00 0. -1.
         -2   -1    0    0    0  501 -0.00000000000E+00 -0.00000000000E+00 -0.14579498629E+02  0.14579498629E+02  0.00000000000E+00 0.  1.
         25    2    1    2    0    0  0.19133971776E+01  0.27881331512E+02  0.10539052542E+04  0.10616710823E+04  0.12509265487E+03 0.  0.
          5    1    3    3  502    0  0.21781147670E+02  0.36584323959E+02  0.10218312543E+04  0.10227264618E+04  0.41800000000E+01 0. -1.
         -5    1    3    3    0  502 -0.19867750492E+02 -0.87029924470E+01  0.32073999983E+02  0.38944620451E+02  0.41800000000E+01 0. -1.
        -11    1    1    2    0    0  0.26620920843E+02 -0.45512556321E+02  0.73473004192E+02  0.90434222252E+02  0.00000000000E+00 0.  1.
         11    1    1    2    0    0 -0.28534318020E+02  0.17631224809E+02  0.12471089632E+03  0.12914284747E+03  0.00000000000E+00 0. -1.
</event>
<event>
 7    1  0.2794945E-009  0.1006074E+03  0.7561462E-02  0.1279024E+00
         -1   -1    0    0    0  501 -0.00000000000E+00  0.00000000000E+00  0.13114778557E+02  0.13114778557E+02  0.00000000000E+00 0.  1.
          1   -1    0    0  501    0  0.00000000000E+00 -0.00000000000E+00 -0.12493869277E+04  0.12493869277E+04  0.00000000000E+00 0. -1.
         25    2    1    2    0    0 -0.25932859826E+02 -0.55203042880E+02 -0.81673592020E+03  0.82850782722E+03  0.12509103590E+03 0.  0.
          5    1    3    3  502    0 -0.35315920616E+02 -0.16991654296E+00 -0.67758158138E+03  0.67851419657E+03  0.41800000000E+01 0. -1.
         -5    1    3    3    0  502  0.93830607900E+01 -0.55033126337E+02 -0.13915433882E+03  0.14999363066E+03  0.41800000000E+01 0. -1.
        -11    1    1    2    0    0 -0.34264670876E+02  0.15881264790E+02 -0.11324950154E+03  0.11938061752E+03  0.00000000000E+00 0.  1.
         11    1    1    2    0    0  0.60197530701E+02  0.39321778090E+02 -0.30628672745E+03  0.31461326155E+03  0.00000000000E+00 0. -1.
</event>
<event>
 7    1  0.2794945E-009  0.1115651E+03  0.7561462E-02  0.1257699E+00
          1   -1    0    0  501    0  0.00000000000E+00  0.00000000000E+00  0.35317770055E+03  0.35317770055E+03  0.00000000000E+00 0. -1.
         -1   -1    0    0    0  501 -0.00000000000E+00 -0.00000000000E+00 -0.39663317182E+02  0.39663317182E+02  0.00000000000E+00 0.  1.
         25    2    1    2    0    0 -0.43015604178E+02  0.13817182454E+02  0.19654214895E+03  0.23731356530E+03  0.12509058809E+03 0.  0.
          5    1    3    3  502    0 -0.78332604976E+02 -0.92494680558E+01  0.16958804958E+03  0.18708054046E+03  0.41800000000E+01 0.  1.
         -5    1    3    3    0  502  0.35317000798E+02  0.23066650509E+02  0.26954099373E+02  0.50233024835E+02  0.41800000000E+01 0.  1.
        -11    1    1    2    0    0 -0.68968423522E+01 -0.43258586200E+02  0.41195605089E+02  0.60132766385E+02  0.00000000000E+00 0.  1.
         11    1    1    2    0    0  0.49912446530E+02  0.29441403746E+02  0.75776629329E+02  0.95394686045E+02  0.00000000000E+00 0. -1.
</event>
<event>
 7    1  0.2794945E-009  0.1107668E+03  0.7561462E-02  0.1259156E+00
         -1   -1    0    0    0  501 -0.00000000000E+00  0.00000000000E+00  0.37586919290E+02  0.37586919290E+02  0.00000000000E+00 0.  1.
          1   -1    0    0  501    0  0.00000000000E+00 -0.00000000000E+00 -0.44031100826E+03  0.44031100826E+03  0.00000000000E+00 0. -1.
         25    2    1    2    0    0 -0.43556725249E+02 -0.13803367889E+02 -0.31947120991E+03  0.34611690768E+03  0.12508932224E+03 0.  0.
          5    1    3    3  502    0  0.38848293776E+02  0.87228064577E+01 -0.54095350365E+02  0.67298266047E+02  0.41800000000E+01 0.  1.
         -5    1    3    3    0  502 -0.82405019025E+02 -0.22526174347E+02 -0.26537585955E+03  0.27881864163E+03  0.41800000000E+01 0.  1.
        -11    1    1    2    0    0  0.26549599888E+02  0.49644023999E+02 -0.70268080493E+02  0.90038955509E+02  0.00000000000E+00 0. -1.
         11    1    1    2    0    0  0.17007125361E+02 -0.35840656110E+02 -0.12984798566E+02  0.41742064362E+02  0.00000000000E+00 0.  1.
</event>
<event>
 7    1  0.2794945E-009  0.1233540E+03  0.7561462E-02  0.1237664E+00
         -2   -1    0    0    0  501 -0.00000000000E+00  0.00000000000E+00  0.21089628715E+02  0.21089628715E+02  0.00000000000E+00 0. -1.
          2   -1    0    0  501    0  0.00000000000E+00 -0.00000000000E+00 -0.11405384853E+04  0.11405384853E+04  0.00000000000E+00 0.  1.
         25    2    1    2    0    0 -0.79390781024E+02 -0.50911498760E+02 -0.81732615398E+03  0.83220437178E+03  0.12508875894E+03 0.  0.
          5    1    3    3  502    0 -0.40544284213E+02 -0.67724655936E+02 -0.73776204242E+03  0.74198434730E+03  0.41800000000E+01 0. -1.
         -5    1    3    3    0  502 -0.38846496811E+02  0.16813157177E+02 -0.79564111557E+02  0.90220024477E+02  0.41800000000E+01 0. -1.
        -11    1    1    2    0    0  0.73726477386E+02 -0.17817060539E+00 -0.22474024569E+03  0.23652442421E+03  0.00000000000E+00 0.  1.
         11    1    1    2    0    0  0.56643036374E+01  0.51089669365E+02 -0.77382456899E+02  0.92899318013E+02  0.00000000000E+00 0. -1.
</event>
<event>
 7    1  0.2794945E-009  0.1404342E+03  0.7561462E-02  0.1212746E+00
         -2   -1    0    0    0  501 -0.00000000000E+00  0.00000000000E+00  0.71884846698E+03  0.71884846698E+03  0.00000000000E+00 0.  1.
          2   -1    0    0  501    0  0.00000000000E+00 -0.00000000000E+00 -0.41651244218E+02  0.41651244218E+02  0.00000000000E+00 0. -1.
         25    2    1    2    0    0 -0.82829597822E+02  0.33851181473E+02  0.13881117884E+03  0.20717798138E+03  0.12509007889E+03 0.  0.
          5    1    3    3  502    0 -0.56536295242E+02  0.81345873834E+02  0.94607454689E+02  0.13704578342E+03  0.41800000000E+01 0.  1.
         -5    1    3    3    0  502 -0.26293302580E+02 -0.47494692361E+02  0.44203724147E+02  0.70132197966E+02  0.41800000000E+01 0.  1.
        -11    1    1    2    0    0  0.92049305128E+02  0.14069981278E+00  0.40875310688E+03  0.41898949480E+03  0.00000000000E+00 0.  1.
         11    1    1    2    0    0 -0.92197073063E+01 -0.33991881286E+02  0.12963293704E+03  0.13433223501E+03  0.00000000000E+00 0. -1.
</event>
<event>
 7    1  0.2794945E-009  0.1052512E+03  0.7561462E-02  0.1269626E+00
          3   -1    0    0  501    0  0.00000000000E+00  0.00000000000E+00  0.53955537333E+02  0.53955537333E+02  0.00000000000E+00 0. -1.
         -3   -1    0    0    0  501 -0.00000000000E+00 -0.00000000000E+00 -0.34559404659E+03  0.34559404659E+03  0.00000000000E+00 0.  1.
         25    2    1    2    0    0  0.58932019629E+02 -0.48520699503E+02 -0.20080168193E+03  0.24858798562E+03  0.12508968746E+03 0.  0.
          5    1    3    3  502    0  0.67389475937E+02 -0.38961666382E+02 -0.40728669445E+02  0.87952543051E+02  0.41800000000E+01 0.  1.
         -5    1    3    3    0  502 -0.84574563085E+01 -0.95590331207E+01 -0.16007301249E+03  0.16063544257E+03  0.41800000000E+01 0.  1.
        -11    1    1    2    0    0 -0.47035380692E+02 -0.18874239737E+02 -0.27243378031E+02  0.57539252767E+02  0.00000000000E+00 0. -1.
         11    1    1    2    0    0 -0.11896638937E+02  0.67394939240E+02 -0.63593449295E+02  0.93422345541E+02  0.00000000000E+00 0.  1.
</event>
<event>
 7    1  0.2794945E-009  0.2091004E+03  0.7561462E-02  0.1142280E+00
         -2   -1    0    0    0  501 -0.00000000000E+00  0.00000000000E+00  0.84633609888E+02  0.84633609888E+02  0.00000000000E+00 0.  1.
          2   -1    0    0  501    0  0.00000000000E+00 -0.00000000000E+00 -0.56070414682E+03  0.56070414682E+03  0.00000000000E+00 0. -1.
         25    2    1    2    0    0  0.95823041738E+02  0.16203140154E+03 -0.23544935352E+03  0.32637326006E+03  0.12508747499E+03 0.  0.
          5    1    3    3  502    0  0.11968417943E+03  0.15108535409E+03 -0.22836429774E+03  0.29886253012E+03  0.41800000000E+01 0. -1.
         -5    1    3    3    0  502 -0.23861137689E+02  0.10946047456E+02 -0.70850557738E+01  0.27510729944E+02  0.41800000000E+01 0. -1.
        -11    1    1    2    0    0 -0.40681130923E+02 -0.17783532062E+02 -0.10280668068E+03  0.11198402573E+03  0.00000000000E+00 0. -1.
         11    1    1    2    0    0 -0.55141910816E+02 -0.14424786948E+03 -0.13781450273E+03  0.20698047092E+03  0.00000000000E+00 0.  1.
</event>
<event>
 7    1  0.2794945E-009  0.1731558E+03  0.7561462E-02  0.1174596E+00
         -2   -1    0    0    0  501 -0.00000000000E+00  0.00000000000E+00  0.75683770150E+02  0.75683770150E+02  0.00000000000E+00 0.  1.
          2   -1    0    0  501    0  0.00000000000E+00 -0.00000000000E+00 -0.45763955804E+03  0.45763955804E+03  0.00000000000E+00 0. -1.
         25    2    1    2    0    0  0.10004249200E+03 -0.10991706775E+03 -0.23584903343E+03  0.30555392388E+03  0.12509265304E+03 0.  0.
          5    1    3    3  502    0  0.80265632725E+02  0.21334398623E+01 -0.96943729055E+02  0.12594714116E+03  0.41800000000E+01 0.  1.
         -5    1    3    3    0  502  0.19776859276E+02 -0.11205050761E+03 -0.13890530437E+03  0.17960678273E+03  0.41800000000E+01 0.  1.
        -11    1    1    2    0    0 -0.43994235468E+02  0.25895787074E+02 -0.11082146795E+01  0.51061851536E+02  0.00000000000E+00 0.  1.
         11    1    1    2    0    0 -0.56048256533E+02  0.84021280675E+02 -0.14499853978E+03  0.17670755277E+03  0.00000000000E+00 0. -1.
</event>
<event>
 7    1  0.2794945E-009  0.8438509E+02  0.7561462E-02  0.1317048E+00
         -1   -1    0    0    0  501 -0.00000000000E+00  0.00000000000E+00  0.68605855225E+02  0.68605855225E+02  0.00000000000E+00 0.  1.
          1   -1    0    0  501    0  0.00000000000E+00 -0.00000000000E+00 -0.25024043008E+03  0.25024043008E+03  0.00000000000E+00 0. -1.
         25    2    1    2    0    0  0.57199084046E+02  0.25674729260E+02 -0.14540358051E+03  0.20179144826E+03  0.12508661171E+03 0.  0.
          5    1    3    3  502    0  0.21904156441E+02  0.50082930344E+02 -0.14876467858E+03  0.15854492731E+03  0.41800000000E+01 0. -1.
         -5    1    3    3    0  502  0.35294927605E+02 -0.24408201084E+02  0.33610980703E+01  0.43246520959E+02  0.41800000000E+01 0. -1.
        -11    1    1    2    0    0 -0.38361423897E+02  0.76295893231E+00  0.26356569816E+02  0.46549433103E+02  0.00000000000E+00 0.  1.
         11    1    1    2    0    0 -0.18837660149E+02 -0.26437688192E+02 -0.62587564166E+02  0.70505403942E+02  0.00000000000E+00 0. -1.
</event>
<event>
 7    1  0.2794945E-009  0.8334011E+02  0.7561462E-02  0.1319831E+00
          1   -1    0    0  501    0  0.00000000000E+00  0.00000000000E+00  0.56788818302E+02  0.56788818302E+02  0.00000000000E+00 0. -1.
         -1   -1    0    0    0  501 -0.00000000000E+00 -0.00000000000E+00 -0.24584787009E+03  0.24584787009E+03  0.00000000000E+00 0.  1.
         25    2    1    2    0    0 -0.25442371203E+02  0.12594776240E+02 -0.13832491852E+03  0.18864605652E+03  0.12509040297E+03 0.  0.
          5    1    3    3  502    0  0.43170638484E+02  0.42778408843E+01 -0.10096162593E+03  0.10996693257E+03  0.41800000000E+01 0.  1.
         -5    1    3    3    0  502 -0.68613009687E+02  0.83169353553E+01 -0.37363292598E+02  0.78679123952E+02  0.41800000000E+01 0.  1.
        -11    1    1    2    0    0  0.35027315783E+02 -0.21226444682E+02 -0.75598160480E+02  0.85979978325E+02  0.00000000000E+00 0.  1.
         11    1    1    2    0    0 -0.95849445806E+01  0.86316684421E+01  0.24864027214E+02  0.28010653545E+02  0.00000000000E+00 0. -1.
</event>
<event>
 7    1  0.2794945E-009  0.1710362E+03  0.7561462E-02  0.1176772E+00
         -2   -1    0    0    0  501 -0.00000000000E+00  0.00000000000E+00  0.63000297313E+02  0.63000297313E+02  0.00000000000E+00 0.  1.
          2   -1    0    0  501    0  0.00000000000E+00 -0.00000000000E+00 -0.55041415337E+03  0.55041415337E+03  0.00000000000E+00 0. -1.
         25    2    1    2    0    0 -0.66617364514E+02  0.13475283203E+03 -0.25932185090E+03  0.32479466832E+03  0.12509018836E+03 0.  0.
          5    1    3    3  502    0 -0.71392275977E+02  0.34400579501E+02 -0.18001304164E+03  0.19672931784E+03  0.41800000000E+01 0.  1.
         -5    1    3    3    0  502  0.47749114636E+01  0.10035225253E+03 -0.79308809261E+02  0.12806535048E+03  0.41800000000E+01 0.  1.
        -11    1    1    2    0    0  0.33099274587E+02 -0.12181712693E+03 -0.11793944234E+03  0.17275614736E+03  0.00000000000E+00 0.  1.
         11    1    1    2    0    0  0.33518089927E+02 -0.12935705101E+02 -0.11015256282E+03  0.11586363500E+03  0.00000000000E+00 0. -1.
</event>
<event>
 7    1  0.2794945E-009  0.1068171E+03  0.7561462E-02  0.1266580E+00
          1   -1    0    0  501    0  0.00000000000E+00  0.00000000000E+00  0.25250607151E+02  0.25250607151E+02  0.00000000000E+00 0. -1.
         -1   -1    0    0    0  501 -0.00000000000E+00 -0.00000000000E+00 -0.84341495473E+03  0.84341495473E+03  0.00000000000E+00 0.  1.
         25    2    1    2    0    0 -0.16092129200E+02  0.87794234393E+02 -0.33089499217E+03  0.36483792558E+03  0.12509369244E+03 0.  0.
          5    1    3    3  502    0  0.13930788511E+01  0.53300832420E+02 -0.29767547174E+02  0.61208648654E+02  0.41800000000E+01 0.  1.
         -5    1    3    3    0  502 -0.17485208051E+02  0.34493401973E+02 -0.30112744499E+03  0.30362927693E+03  0.41800000000E+01 0.  1.
        -11    1    1    2    0    0  0.29547511061E+02 -0.99267347822E+02 -0.45854875920E+03  0.47010001735E+03  0.00000000000E+00 0.  1.
         11    1    1    2    0    0 -0.13455381861E+02  0.11473113429E+02 -0.28720596217E+02  0.33727618947E+02  0.00000000000E+00 0. -1.
</event>
<event>
 7    1  0.2966680E-009  0.1043771E+03  0.7561462E-02  0.1271352E+00
         -1   -1    0    0    0  501 -0.00000000000E+00  0.00000000000E+00  0.47308941049E+02  0.47308941049E+02  0.00000000000E+00 0.  1.
          1   -1    0    0  501    0  0.00000000000E+00 -0.00000000000E+00 -0.45761750531E+03  0.45761750531E+03  0.00000000000E+00 0. -1.
         25    2    1    2    0    0  0.10795725024E+02 -0.66031609188E+02 -0.97732682742E+02  0.17226930821E+03  0.12509322997E+03 0.  0.
          5    1    3    3  502    0 -0.58144030204E+01  0.18980828455E+02 -0.81570550529E+02  0.84055376062E+02  0.41800000000E+01 0.  1.
         -5    1    3    3    0  502  0.16610128044E+02 -0.85012437643E+02 -0.16162132213E+02  0.88213932150E+02  0.41800000000E+01 0.  1.
        -11    1    1    2    0    0 -0.37640379543E+02  0.89825400936E+01 -0.19924940671E+03  0.20297243723E+03  0.00000000000E+00 0. -1.
         11    1    1    2    0    0  0.26844654519E+02  0.57049069094E+02 -0.11332647481E+03  0.12968470092E+03  0.00000000000E+00 0.  1.
</event>
<event>
 7    1  0.2794945E-009  0.1216331E+03  0.7561462E-02  0.1240427E+00
          1   -1    0    0  501    0  0.00000000000E+00  0.00000000000E+00  0.83765218005E+03  0.83765218005E+03  0.00000000000E+00 0. -1.
         -1   -1    0    0    0  501 -0.00000000000E+00 -0.00000000000E+00 -0.21618537545E+02  0.21618537545E+02  0.00000000000E+00 0.  1.
         25    2    1    2    0    0 -0.21940603040E+02 -0.93316765532E+02  0.44483313281E+03  0.47192664115E+03  0.12509528284E+03 0.  0.
          5    1    3    3  502    0  0.66708446808E+00 -0.11112938477E+03  0.41734616899E+03  0.43190911350E+03  0.41800000000E+01 0. -1.
         -5    1    3    3    0  502 -0.22607687508E+02  0.17812619238E+02  0.27486963830E+02  0.40017527649E+02  0.41800000000E+01 0. -1.
        -11    1    1    2    0    0  0.30379199652E+02  0.47492004910E+02  0.27151461464E+03  0.27730591819E+03  0.00000000000E+00 0. -1.
         11    1    1    2    0    0 -0.84385966122E+01  0.45824760622E+02  0.99685895053E+02  0.11003815825E+03  0.00000000000E+00 0.  1.
</event>
<event>
 7    1  0.2794945E-009  0.9376983E+02  0.7561462E-02  0.1293971E+00
          1   -1    0    0  501    0  0.00000000000E+00  0.00000000000E+00  0.71402125304E+02  0.71402125304E+02  0.00000000000E+00 0. -1.
         -1   -1    0    0    0  501 -0.00000000000E+00 -0.00000000000E+00 -0.23915361888E+03  0.23915361888E+03  0.00000000000E+00 0.  1.
         25    2    1    2    0    0  0.12206908491E+02  0.62588004315E+01 -0.17946657154E+03  0.21918625174E+03  0.12508469711E+03 0.  0.
          5    1    3    3  502    0  0.41440950107E+02  0.38654401294E+02 -0.31728759372E+02  0.65082268372E+02  0.41800000000E+01 0. -1.
         -5    1    3    3    0  502 -0.29234041616E+02 -0.32395600863E+02 -0.14773781217E+03  0.15410398337E+03  0.41800000000E+01 0. -1.
        -11    1    1    2    0    0 -0.49231187027E+02  0.55152424839E+00  0.19451295723E+02  0.52937386225E+02  0.00000000000E+00 0.  1.
         11    1    1    2    0    0  0.37024278536E+02 -0.68103246799E+01 -0.77362177574E+01  0.38432106220E+02  0.00000000000E+00 0. -1.
</event>
<event>
 7    1  0.2794945E-009  0.1078672E+03  0.7561462E-02  0.1264571E+00
          1   -1    0    0  501    0  0.00000000000E+00  0.00000000000E+00  0.22725548980E+02  0.22725548980E+02  0.00000000000E+00 0. -1.
         -1   -1    0    0    0  501 -0.00000000000E+00 -0.00000000000E+00 -0.68108120375E+03  0.68108120375E+03  0.00000000000E+00 0.  1.
         25    2    1    2    0    0  0.52510974432E+02  0.60936921075E+01 -0.45216828937E+03  0.47212042612E+03  0.12508796636E+03 0.  0.
          5    1    3    3  502    0 -0.26705615079E+02  0.14755885628E+02 -0.31886022966E+02  0.44329639046E+02  0.41800000000E+01 0. -1.
         -5    1    3    3    0  502  0.79216589511E+02 -0.86621935208E+01 -0.42028226640E+03  0.42779078707E+03  0.41800000000E+01 0. -1.
        -11    1    1    2    0    0 -0.56607091539E+02 -0.41062485746E+02 -0.14770881581E+03  0.16342700149E+03  0.00000000000E+00 0.  1.
         11    1    1    2    0    0  0.40961171067E+01  0.34968793638E+02 -0.58478549591E+02  0.68259325122E+02  0.00000000000E+00 0. -1.
</event>
<event>
 7    1  0.2794945E-009  0.7813828E+02  0.7561462E-02  0.1334419E+00
          1   -1    0    0  501    0  0.00000000000E+00  0.00000000000E+00  0.76176246789E+02  0.76176246789E+02  0.00000000000E+00 0. -1.
         -1   -1    0    0    0  501 -0.00000000000E+00 -0.00000000000E+00 -0.16307085211E+03  0.16307085211E+03  0.00000000000E+00 0.  1.
         25    2    1    2    0    0 -0.16022755766E+02 -0.19188487295E+02 -0.64883881034E+02  0.14311521116E+03  0.12508844431E+03 0.  0.
          5    1    3    3  502    0  0.24598737809E+02 -0.62710965543E+02 -0.39994502115E+02  0.78452506018E+02  0.41800000000E+01 0.  1.
         -5    1    3    3    0  502 -0.40621493575E+02  0.43522478248E+02 -0.24889378918E+02  0.64662705140E+02  0.41800000000E+01 0.  1.
        -11    1    1    2    0    0  0.10315630296E+02  0.13858056566E+01 -0.56205039088E+02  0.57160642968E+02  0.00000000000E+00 0.  1.
         11    1    1    2    0    0  0.57071254704E+01  0.17802681638E+02  0.34194314798E+02  0.38971244773E+02  0.00000000000E+00 0. -1.
</event>
<event>
 7    1  0.2794945E-009  0.2550258E+03  0.7561462E-02  0.1110169E+00
          2   -1    0    0  501    0  0.00000000000E+00  0.00000000000E+00  0.10573622176E+04  0.10573622176E+04  0.00000000000E+00 0. -1.
         -2   -1    0    0    0  501 -0.00000000000E+00 -0.00000000000E+00 -0.66119431030E+02  0.66119431030E+02  0.00000000000E+00 0.  1.
         25    2    1    2    0    0 -0.22019600208E+03 -0.97797985062E+02  0.50317753128E+03  0.57173982866E+03  0.12509227987E+03 0.  0.
          5    1    3    3  502    0 -0.16187319777E+03 -0.12369133960E+03  0.42001768188E+03  0.46683487995E+03  0.41800000000E+01 0.  1.
         -5    1    3    3    0  502 -0.58322804311E+02  0.25893354541E+02  0.83159849399E+02  0.10490494871E+03  0.41800000000E+01 0.  1.
        -11    1    1    2    0    0  0.12729175572E+03  0.70476691983E+02  0.19642303420E+03  0.24444255676E+03  0.00000000000E+00 0.  1.
         11    1    1    2    0    0  0.92904246360E+02  0.27321293080E+02  0.29164222108E+03  0.30729926320E+03  0.00000000000E+00 0. -1.
</event>
<event>
 7    1  0.2794945E-009  0.1092128E+03  0.7561462E-02  0.1262035E+00
         -1   -1    0    0    0  501 -0.00000000000E+00  0.00000000000E+00  0.42597787554E+03  0.42597787554E+03  0.00000000000E+00 0.  1.
          1   -1    0    0  501    0  0.00000000000E+00 -0.00000000000E+00 -0.40311505031E+02  0.40311505031E+02  0.00000000000E+00 0. -1.
         25    2    1    2    0    0 -0.69178914246E+02 -0.22668869815E+02  0.21142231620E+03  0.25621516266E+03  0.12508882425E+03 0.  0.
          5    1    3    3  502    0 -0.18841747047E+02 -0.42809739778E+02  0.19326146538E+03  0.19888476978E+03  0.41800000000E+01 0.  1.
         -5    1    3    3    0  502 -0.50337167199E+02  0.20140869963E+02  0.18160850822E+02  0.57330392874E+02  0.41800000000E+01 0.  1.
        -11    1    1    2    0    0  0.31958799427E+02  0.57710506486E+02  0.10502424223E+03  0.12402402540E+03  0.00000000000E+00 0.  1.
         11    1    1    2    0    0  0.37220114819E+02 -0.35041636671E+02  0.69219812071E+02  0.86050192510E+02  0.00000000000E+00 0. -1.
</event>
<event>
 7    1  0.2794945E-009  0.1119041E+03  0.7561462E-02  0.1257084E+00
          1   -1    0    0  501    0  0.00000000000E+00  0.00000000000E+00  0.12259483271E+03  0.12259483271E+03  0.00000000000E+00 0. -1.
         -1   -1    0    0    0  501 -0.00000000000E+00 -0.00000000000E+00 -0.20274004767E+03  0.20274004767E+03  0.00000000000E+00 0.  1.
         25    2    1    2    0    0  0.94295932283E+02 -0.18297726930E+02 -0.11424919802E+03  0.19476017416E+03  0.12510841911E+03 0.  0.
          5    1    3    3  502    0 -0.11047613434E+02 -0.18010426841E+02  0.16260971564E+02  0.26987345809E+02  0.41800000000E+01 0. -1.
         -5    1    3    3    0  502  0.10534354572E+03 -0.28730008867E+00 -0.13051016959E+03  0.16777282835E+03  0.41800000000E+01 0. -1.
        -11    1    1    2    0    0 -0.13825890573E+02 -0.16871342203E+01  0.44853404231E+02  0.46966259625E+02  0.00000000000E+00 0. -1.
         11    1    1    2    0    0 -0.80470041710E+02  0.19984861150E+02 -0.10749421165E+02  0.83608446603E+02  0.00000000000E+00 0.  1.
</event>
<event>
 7    1  0.3486455E-009  0.1061459E+03  0.7561462E-02  0.1267878E+00
         -2   -1    0    0    0  501 -0.00000000000E+00  0.00000000000E+00  0.53706988443E+02  0.53706988443E+02  0.00000000000E+00 0.  1.
          2   -1    0    0  501    0  0.00000000000E+00 -0.00000000000E+00 -0.31632290863E+03  0.31632290863E+03  0.00000000000E+00 0. -1.
         25    2    1    2    0    0  0.22513056827E+02  0.60683197761E+02 -0.19135802771E+03  0.23760333888E+03  0.12509262032E+03 0.  0.
          5    1    3    3  502    0  0.58948036423E+02  0.62728650087E+02 -0.17931244042E+03  0.19894767712E+03  0.41800000000E+01 0. -1.
         -5    1    3    3    0  502 -0.36434979596E+02 -0.20454523252E+01 -0.12045587291E+02  0.38655661765E+02  0.41800000000E+01 0. -1.
        -11    1    1    2    0    0 -0.42844011855E+02 -0.29006638015E+02  0.11157482432E+00  0.51739799475E+02  0.00000000000E+00 0.  1.
         11    1    1    2    0    0  0.20330955028E+02 -0.31676559747E+02 -0.71369467303E+02  0.80686758721E+02  0.00000000000E+00 0. -1.
</event>
<event>
 7    1  0.2794945E-009  0.1233069E+03  0.7561462E-02  0.1237739E+00
          1   -1    0    0  501    0  0.00000000000E+00  0.00000000000E+00  0.79290858256E+02  0.79290858256E+02  0.00000000000E+00 0. -1.
         -1   -1    0    0    0  501 -0.00000000000E+00 -0.00000000000E+00 -0.20152246895E+03  0.20152246895E+03  0.00000000000E+00 0.  1.
         25    2    1    2    0    0 -0.13419459907E+02  0.64327841278E+02 -0.64099678720E+02  0.15515685692E+03  0.12508688329E+03 0.  0.
          5    1    3    3  502    0 -0.59860056908E+02  0.51723266245E+01 -0.50537575454E+02  0.78622505101E+02  0.41800000000E+01 0.  1.
         -5    1    3    3    0  502  0.46440597001E+02  0.59155514653E+02 -0.13562103266E+02  0.76534351821E+02  0.41800000000E+01 0.  1.
        -11    1    1    2    0    0 -0.21146727463E+02  0.14058169485E+02 -0.92687881670E+01  0.27031956011E+02  0.00000000000E+00 0.  1.
         11    1    1    2    0    0  0.34566187370E+02 -0.78386010763E+02 -0.48863143805E+02  0.98624514271E+02  0.00000000000E+00 0. -1.
</event>
<event>
 7    1  0.2794945E-009  0.1224868E+03  0.7561462E-02  0.1239050E+00
         -2   -1    0    0    0  501 -0.00000000000E+00  0.00000000000E+00  0.30060486967E+02  0.30060486967E+02  0.00000000000E+00 0.  1.
          2   -1    0    0  501    0  0.00000000000E+00 -0.00000000000E+00 -0.82637447494E+03  0.82637447494E+03  0.00000000000E+00 0. -1.
         25    2    1    2    0    0  0.10670109998E+03 -0.42630950877E+02 -0.54376182556E+03  0.56967189376E+03  0.12508645369E+03 0.  0.
          5    1    3    3  502    0  0.30675221548E+02 -0.43649213893E+02 -0.61875722269E+02  0.81806481998E+02  0.41800000000E+01 0. -1.
         -5    1    3    3    0  502  0.76025878428E+02  0.10182630168E+01 -0.48188610329E+03  0.48786541176E+03  0.41800000000E+01 0. -1.
        -11    1    1    2    0    0 -0.79130512888E+02  0.26945738534E+02 -0.97180016777E+02  0.12818606225E+03  0.00000000000E+00 0.  1.
         11    1    1    2    0    0 -0.27570587088E+02  0.15685212343E+02 -0.15537214564E+03  0.15857700589E+03  0.00000000000E+00 0. -1.
</event>
<event>
 7    1  0.2794945E-009  0.9160175E+02  0.7561462E-02  0.1299019E+00
          1   -1    0    0  501    0  0.00000000000E+00  0.00000000000E+00  0.13031811849E+03  0.13031811849E+03  0.00000000000E+00 0. -1.
         -1   -1    0    0    0  501 -0.00000000000E+00 -0.00000000000E+00 -0.98677067539E+02  0.98677067539E+02  0.00000000000E+00 0.  1.
         25    2    1    2    0    0  0.20636722775E+02  0.18440127677E+02  0.37070520142E+02  0.13336706975E+03  0.12508652683E+03 0.  0.
          5    1    3    3  502    0 -0.30208592343E+02  0.25368630997E+02  0.63975379422E+02  0.75275813261E+02  0.41800000000E+01 0.  1.
         -5    1    3    3    0  502  0.50845315118E+02 -0.69285033209E+01 -0.26904859280E+02  0.58091256490E+02  0.41800000000E+01 0.  1.
        -11    1    1    2    0    0 -0.54168365774E+02 -0.21714371785E+02 -0.15650479622E+02  0.60420719170E+02  0.00000000000E+00 0. -1.
         11    1    1    2    0    0  0.33531642999E+02  0.32742441089E+01  0.10221010428E+02  0.35207397104E+02  0.00000000000E+00 0.  1.
</event>
<event>
 7    1  0.2794945E-009  0.1479996E+03  0.7561462E-02  0.1202953E+00
          1   -1    0    0  501    0  0.00000000000E+00  0.00000000000E+00  0.32177220254E+03  0.32177220254E+03  0.00000000000E+00 0. -1.
         -1   -1    0    0    0  501 -0.00000000000E+00 -0.00000000000E+00 -0.12805649183E+03  0.12805649183E+03  0.00000000000E+00 0.  1.
         25    2    1    2    0    0  0.31610468225E+02  0.12964710623E+03  0.21981458324E+03  0.28596136062E+03  0.12509138622E+03 0.  0.
          5    1    3    3  502    0  0.33364545947E+02  0.82138496573E+02  0.22106922232E+03  0.23822048401E+03  0.41800000000E+01 0.  1.
         -5    1    3    3    0  502 -0.17540777213E+01  0.47508609660E+02 -0.12546390748E+01  0.47740876612E+02  0.41800000000E+01 0.  1.
        -11    1    1    2    0    0 -0.11545766075E+02 -0.13749224708E+03 -0.31776203165E+02  0.14158795786E+03  0.00000000000E+00 0.  1.
         11    1    1    2    0    0 -0.20064702150E+02  0.78451408510E+01  0.56773306370E+01  0.22279375900E+02  0.00000000000E+00 0. -1.
</event>
<event>
 7    1  0.2794945E-009  0.9102077E+02  0.7561462E-02  0.1300398E+00
         -1   -1    0    0    0  501 -0.00000000000E+00  0.00000000000E+00  0.13101600542E+04  0.13101600542E+04  0.00000000000E+00 0.  1.
          1   -1    0    0  501    0  0.00000000000E+00 -0.00000000000E+00 -0.11345112924E+02  0.11345112924E+02  0.00000000000E+00 0. -1.
         25    2    1    2    0    0 -0.50554434431E+01 -0.91873784359E+01  0.10147744798E+04  0.10225094401E+04  0.12509334474E+03 0.  0.
          5    1    3    3  502    0 -0.26860559253E+02  0.35461313696E+02  0.15557668484E+03  0.16186590648E+03  0.41800000000E+01 0. -1.
         -5    1    3    3    0  502  0.21805115810E+02 -0.44648692132E+02  0.85919779495E+03  0.86064353366E+03  0.41800000000E+01 0. -1.
        -11    1    1    2    0    0  0.38238878379E+02 -0.20132208220E+02  0.88281606690E+02  0.98291198524E+02  0.00000000000E+00 0. -1.
         11    1    1    2    0    0 -0.33183434936E+02  0.29319586656E+02  0.19575885477E+03  0.20070452844E+03  0.00000000000E+00 0.  1.
</event>
<event>
 7    1  0.2794945E-009  0.7792605E+02  0.7561462E-02  0.1335042E+00
          2   -1    0    0  501    0  0.00000000000E+00  0.00000000000E+00  0.77703122532E+02  0.77703122532E+02  0.00000000000E+00 0. -1.
         -2   -1    0    0    0  501 -0.00000000000E+00 -0.00000000000E+00 -0.16172807148E+03  0.16172807148E+03  0.00000000000E+00 0.  1.
         25    2    1    2    0    0  0.49767759005E+01 -0.30368261067E+02 -0.65380562486E+02  0.14445462696E+03  0.12508205995E+03 0.  0.
          5    1    3    3  502    0 -0.28928837095E+02  0.27671695348E+02 -0.65766631885E+02  0.77105918116E+02  0.41800000000E+01 0.  1.
         -5    1    3    3    0  502  0.33905612995E+02 -0.58039956416E+02  0.38606939856E+00  0.67348708844E+02  0.41800000000E+01 0.  1.
        -11    1    1    2    0    0  0.12555799250E+02 -0.70557930266E+00 -0.47470548804E+02  0.49108033363E+02  0.00000000000E+00 0.  1.
         11    1    1    2    0    0 -0.17532575150E+02  0.31073840370E+02  0.28826162347E+02  0.45868533685E+02  0.00000000000E+00 0. -1.
</event>
<event>
 7    1  0.2794945E-009  0.1190976E+03  0.7561462E-02  0.1244593E+00
         -2   -1    0    0    0  501 -0.00000000000E+00  0.00000000000E+00  0.11846621974E+03  0.11846621974E+03  0.00000000000E+00 0.  1.
          2   -1    0    0  501    0  0.00000000000E+00 -0.00000000000E+00 -0.13876836488E+03  0.13876836488E+03  0.00000000000E+00 0. -1.
         25    2    1    2    0    0  0.34564304316E+02  0.60109477087E+02 -0.36372365280E+01  0.14306878801E+03  0.12509040029E+03 0.  0.
          5    1    3    3  502    0  0.41641934349E+02 -0.18904901750E+02 -0.34918852277E+02  0.57690940804E+02  0.41800000000E+01 0. -1.
         -5    1    3    3    0  502 -0.70776300327E+01  0.79014378837E+02  0.31281615749E+02  0.85377847207E+02  0.41800000000E+01 0. -1.
        -11    1    1    2    0    0 -0.64959275946E+02 -0.43693017257E+02 -0.13893394705E+02  0.79509834014E+02  0.00000000000E+00 0.  1.
         11    1    1    2    0    0  0.30394971630E+02 -0.16416459830E+02 -0.27715139077E+01  0.34655962591E+02  0.00000000000E+00 0. -1.
</event>
<event>
 7    1  0.2794945E-009  0.8016421E+02  0.7561462E-02  0.1328586E+00
          2   -1    0    0  501    0  0.00000000000E+00  0.00000000000E+00  0.49330081240E+03  0.49330081240E+03  0.00000000000E+00 0. -1.
         -2   -1    0    0    0  501 -0.00000000000E+00 -0.00000000000E+00 -0.26971285238E+02  0.26971285238E+02  0.00000000000E+00 0.  1.
         25    2    1    2    0    0 -0.17614090207E+02 -0.25386500401E+02  0.32315820258E+03  0.34789804086E+03  0.12508833823E+03 0.  0.
          5    1    3    3  502    0  0.20486521023E+02  0.20299329240E+01 -0.31585292585E+00  0.21009291620E+02  0.41800000000E+01 0. -1.
         -5    1    3    3    0  502 -0.38100611230E+02 -0.27416433326E+02  0.32347405551E+03  0.32688874924E+03  0.41800000000E+01 0. -1.
        -11    1    1    2    0    0  0.47043319874E+02  0.37709013356E+02  0.68988592135E+02  0.91621337459E+02  0.00000000000E+00 0.  1.
         11    1    1    2    0    0 -0.29429229668E+02 -0.12322512954E+02  0.74182732444E+02  0.80752719317E+02  0.00000000000E+00 0. -1.
</event>
<event>
 7    1  0.2794945E-009  0.1216549E+03  0.7561462E-02  0.1240392E+00
         -1   -1    0    0    0  501 -0.00000000000E+00  0.00000000000E+00  0.15960527754E+02  0.15960527754E+02  0.00000000000E+00 0.  1.
          1   -1    0    0  501    0  0.00000000000E+00 -0.00000000000E+00 -0.97551443993E+03  0.97551443993E+03  0.00000000000E+00 0. -1.
         25    2    1    2    0    0  0.60012529293E+00 -0.59472581838E+02 -0.58313317609E+03  0.59935732764E+03  0.12509019547E+03 0.  0.
          5    1    3    3  502    0  0.28732752454E+02 -0.89690876853E+02 -0.34564298349E+03  0.35826885001E+03  0.41800000000E+01 0. -1.
         -5    1    3    3    0  502 -0.28132627161E+02  0.30218295016E+02 -0.23749019260E+03  0.24108847763E+03  0.41800000000E+01 0. -1.
        -11    1    1    2    0    0 -0.24180254784E+02 -0.15649436424E+02 -0.68913690006E+02  0.74690603506E+02  0.00000000000E+00 0.  1.
         11    1    1    2    0    0  0.23580129491E+02  0.75122018262E+02 -0.30750704608E+03  0.31742703653E+03  0.00000000000E+00 0. -1.
</event>
<event>
 7    1  0.2794945E-009  0.1079537E+03  0.7561462E-02  0.1264407E+00
         -1   -1    0    0    0  501 -0.00000000000E+00  0.00000000000E+00  0.16974240808E+02  0.16974240808E+02  0.00000000000E+00 0.  1.
          1   -1    0    0  501    0  0.00000000000E+00 -0.00000000000E+00 -0.96923162574E+03  0.96923162574E+03  0.00000000000E+00 0. -1.
         25    2    1    2    0    0 -0.23806676957E+02 -0.81810610150E+01 -0.79360829582E+03  0.80380038288E+03  0.12508893115E+03 0.  0.
          5    1    3    3  502    0  0.50056221122E+02  0.10295436784E+02 -0.30623945022E+03  0.31050232618E+03  0.41800000000E+01 0.  1.
         -5    1    3    3    0  502 -0.73862898079E+02 -0.18476497799E+02 -0.48736884559E+03  0.49329805669E+03  0.41800000000E+01 0.  1.
        -11    1    1    2    0    0  0.25010927235E+02  0.45030569995E+02 -0.74929654206E+02  0.90927178526E+02  0.00000000000E+00 0.  1.
         11    1    1    2    0    0 -0.12042502781E+01 -0.36849508980E+02 -0.83719434908E+02  0.91478305145E+02  0.00000000000E+00 0. -1.
</event>
<event>
 7    1  0.2794945E-009  0.1898917E+03  0.7561462E-02  0.1158559E+00
          2   -1    0    0  501    0  0.00000000000E+00  0.00000000000E+00  0.61513749426E+02  0.61513749426E+02  0.00000000000E+00 0. -1.
         -2   -1    0    0    0  501 -0.00000000000E+00 -0.00000000000E+00 -0.71175832865E+03  0.71175832865E+03  0.00000000000E+00 0.  1.
         25    2    1    2    0    0 -0.11752770642E+03  0.13513980071E+03 -0.39424842507E+03  0.45072718646E+03  0.12509056092E+03 0.  0.
          5    1    3    3  502    0 -0.68284279973E+02  0.11670091829E+03 -0.15498130726E+03  0.20571466944E+03  0.41800000000E+01 0.  1.
         -5    1    3    3    0  502 -0.49243426448E+02  0.18438882421E+02 -0.23926711781E+03  0.24501251702E+03  0.41800000000E+01 0.  1.
        -11    1    1    2    0    0  0.64574876575E+02 -0.12067651233E+03 -0.14920539435E+03  0.20247218331E+03  0.00000000000E+00 0.  1.
         11    1    1    2    0    0  0.52952829847E+02 -0.14463288386E+02 -0.10679075980E+03  0.12007270830E+03  0.00000000000E+00 0. -1.
</event>
<event>
 7    1  0.2794945E-009  0.1162538E+03  0.7561462E-02  0.1249408E+00
          1   -1    0    0  501    0  0.00000000000E+00  0.00000000000E+00  0.45004065189E+03  0.45004065189E+03  0.00000000000E+00 0. -1.
         -1   -1    0    0    0  501 -0.00000000000E+00 -0.00000000000E+00 -0.36922562853E+02  0.36922562853E+02  0.00000000000E+00 0.  1.
         25    2    1    2    0    0 -0.18486651280E+02  0.52754921473E+02  0.14925664175E+03  0.20260739552E+03  0.12508946237E+03 0.  0.
          5    1    3    3  502    0 -0.53991044632E+02  0.68676128552E+02  0.62689197844E+02  0.10760507172E+03  0.41800000000E+01 0.  1.
         -5    1    3    3    0  502  0.35504393352E+02 -0.15921207079E+02  0.86567443908E+02  0.95002323798E+02  0.41800000000E+01 0.  1.
        -11    1    1    2    0    0  0.42070566084E+02  0.61001466428E+01  0.11142952398E+03  0.11926308370E+03  0.00000000000E+00 0.  1.
         11    1    1    2    0    0 -0.23583914804E+02 -0.58855068116E+02  0.15243192330E+03  0.16509273552E+03  0.00000000000E+00 0. -1.
</event>
<event>
 7    1  0.2794945E-009  0.1096210E+03  0.7561462E-02  0.1261273E+00
         -1   -1    0    0    0  501 -0.00000000000E+00  0.00000000000E+00  0.38125127644E+02  0.38125127644E+02  0.00000000000E+00 0.  1.
          1   -1    0    0  501    0  0.00000000000E+00 -0.00000000000E+00 -0.44600648985E+03  0.44600648985E+03  0.00000000000E+00 0. -1.
         25    2    1    2    0    0  0.12764116710E+02 -0.67726576027E+02 -0.20835416402E+03  0.25260492032E+03  0.12509187155E+03 0.  0.
          5    1    3    3  502    0  0.15338997066E+02 -0.91861701496E+02 -0.82896043052E+02  0.12475208770E+03  0.41800000000E+01 0. -1.
         -5    1    3    3    0  502 -0.25748803569E+01  0.24135125469E+02 -0.12545812097E+03  0.12785283262E+03  0.41800000000E+01 0. -1.
        -11    1    1    2    0    0  0.29017521104E+02  0.45750237147E+02 -0.46541713812E+02  0.71422908472E+02  0.00000000000E+00 0.  1.
         11    1    1    2    0    0 -0.41781637814E+02  0.21976338881E+02 -0.15298548437E+03  0.16010378871E+03  0.00000000000E+00 0. -1.
</event>
<event>
 6    1  0.2794945E-009  0.1432825E+03  0.7561462E-02  0.1208979E+00
         -1   -1    0    0    0  501 -0.00000000000E+00  0.00000000000E+00  0.49119134298E+02  0.49119134298E+02  0.00000000000E+00 0.  1.
          1   -1    0    0  501    0  0.00000000000E+00 -0.00000000000E+00 -0.49482066787E+03  0.49482066787E+03  0.00000000000E+00 0. -1.
          5    1    1    2  502    0 -0.17785263514E+02  0.98501246844E+02 -0.13879956247E+03  0.17117710761E+03  0.41800000000E+01 0. -1.
         -5    1    1    2    0  502 -0.63584811246E+02 -0.21280021088E+02 -0.11095128312E+03  0.12970554015E+03  0.41800000000E+01 0. -1.
        -11    1    1    2    0    0  0.28186226853E+02 -0.36509126816E+01 -0.12401545833E+03  0.12723060344E+03  0.00000000000E+00 0. -1.
         11    1    1    2    0    0  0.53183847907E+02 -0.73570313074E+02 -0.71935229653E+02  0.11582655097E+03  0.00000000000E+00 0.  1.
</event>
<event>
 6    1  0.2794945E-009  0.1148791E+03  0.7561462E-02  0.1251792E+00
          3   -1    0    0  501    0  0.00000000000E+00  0.00000000000E+00  0.25642877415E+03  0.25642877415E+03  0.00000000000E+00 0. -1.
         -3   -1    0    0    0  501 -0.00000000000E+00 -0.00000000000E+00 -0.69026812030E+02  0.69026812030E+02  0.00000000000E+00 0.  1.
          5    1    1    2  502    0 -0.42796345448E+02  0.95151441475E+01  0.14586426792E+02  0.46392902457E+02  0.41800000000E+01 0. -1.
         -5    1    1    2    0  502  0.91567082372E+02  0.17386277432E+02  0.29727438955E+02  0.97918365202E+02  0.41800000000E+01 0. -1.
        -11    1    1    2    0    0 -0.30798051321E+02 -0.52664403943E+02  0.38974807067E+02  0.72395407270E+02  0.00000000000E+00 0.  1.
         11    1    1    2    0    0 -0.17972685602E+02  0.25762982363E+02  0.10411328931E+03  0.10874891125E+03  0.00000000000E+00 0. -1.
</event>
<event>
 7    1  0.2794945E-009  0.1339730E+03  0.7561462E-02  0.1221677E+00
         -1   -1    0    0    0  501 -0.00000000000E+00  0.00000000000E+00  0.32068363339E+03  0.32068363339E+03  0.00000000000E+00 0.  1.
          1   -1    0    0  501    0  0.00000000000E+00 -0.00000000000E+00 -0.85918114812E+02  0.85918114812E+02  0.00000000000E+00 0. -1.
         25    2    1    2    0    0  0.86014422677E+02  0.55314753541E+02  0.35689510129E+02  0.16546760180E+03  0.12509030036E+03 0.  0.
          5    1    3    3  502    0  0.66806576088E+02 -0.65017287515E+01 -0.29559273520E+02  0.73461650787E+02  0.41800000000E+01 0. -1.
         -5    1    3    3    0  502  0.19207846589E+02  0.61816482293E+02  0.65248783649E+02  0.92005951011E+02  0.41800000000E+01 0. -1.
        -11    1    1    2    0    0 -0.15541097019E+02 -0.63043791169E+02  0.88020518848E+02  0.10937850355E+03  0.00000000000E+00 0.  1.
         11    1    1    2    0    0 -0.70473325658E+02  0.77290376278E+01  0.11105548960E+03  0.13175564285E+03  0.00000000000E+00 0. -1.
</event>
<event>
 7    1  0.2794945E-009  0.7639208E+02  0.7561462E-02  0.1339614E+00
          1   -1    0    0  501    0  0.00000000000E+00  0.00000000000E+00  0.90558653223E+03  0.90558653223E+03  0.00000000000E+00 0. -1.
         -1   -1    0    0    0  501 -0.00000000000E+00 -0.00000000000E+00 -0.15770644999E+02  0.15770644999E+02  0.00000000000E+00 0.  1.
         25    2    1    2    0    0  0.36265895402E+02 -0.13639175794E+02  0.60548821128E+03  0.61948749693E+03  0.12509013779E+03 0.  0.
          5    1    3    3  502    0  0.43447174844E+01  0.98372835394E+01  0.55523612010E+03  0.55535598510E+03  0.41800000000E+01 0. -1.
         -5    1    3    3    0  502  0.31921177918E+02 -0.23476459333E+02  0.50252091177E+02  0.64131511834E+02  0.41800000000E+01 0. -1.
        -11    1    1    2    0    0 -0.70805233403E+01  0.52403204180E+02  0.14700296703E+03  0.15622452411E+03  0.00000000000E+00 0. -1.
         11    1    1    2    0    0 -0.29185372062E+02 -0.38764028386E+02  0.13732470892E+03  0.14564515619E+03  0.00000000000E+00 0.  1.
</event>
<event>
 7    1  0.2794945E-009  0.6958052E+02  0.7561462E-02  0.1361525E+00
         -1   -1    0    0    0  501 -0.00000000000E+00  0.00000000000E+00  0.22932716160E+02  0.22932716160E+02  0.00000000000E+00 0.  1.
          1   -1    0    0  501    0  0.00000000000E+00 -0.00000000000E+00 -0.35815154047E+03  0.35815154047E+03  0.00000000000E+00 0. -1.
         25    2    1    2    0    0 -0.11603021951E+02  0.94294814048E+01 -0.22311327583E+03  0.25622157022E+03  0.12508562649E+03 0.  0.
          5    1    3    3  502    0 -0.46520865092E+02  0.25867887271E+02 -0.20770185215E+03  0.21445482104E+03  0.41800000000E+01 0. -1.
         -5    1    3    3    0  502  0.34917843141E+02 -0.16438405866E+02 -0.15411423681E+02  0.41766749178E+02  0.41800000000E+01 0. -1.
        -11    1    1    2    0    0  0.16289859457E+02 -0.25472012612E+02 -0.99318939139E+02  0.10381924012E+03  0.00000000000E+00 0. -1.
         11    1    1    2    0    0 -0.46868375057E+01  0.16042531207E+02 -0.12786609337E+02  0.21043446288E+02  0.00000000000E+00 0.  1.
</event>
<event>
 7    1  0.2794945E-009  0.1545142E+03  0.7561462E-02  0.1195033E+00
         -2   -1    0    0    0  501 -0.00000000000E+00  0.00000000000E+00  0.37962593738E+02  0.37962593738E+02  0.00000000000E+00 0.  1.
          2   -1    0    0  501    0  0.00000000000E+00 -0.00000000000E+00 -0.70981718286E+03  0.70981718286E+03  0.00000000000E+00 0. -1.
         25    2    1    2    0    0  0.11808115457E+03  0.14779638748E+02 -0.28470355725E+03  0.33296484738E+03  0.12509147569E+03 0.  0.
          5    1    3    3  502    0 -0.26113755137E+02  0.26465261501E+00 -0.30930965624E+02  0.40696379235E+02  0.41800000000E+01 0. -1.
         -5    1    3    3    0  502  0.14419490971E+03  0.14514986133E+02 -0.25377259163E+03  0.29226846814E+03  0.41800000000E+01 0. -1.
        -11    1    1    2    0    0 -0.60109164318E+02 -0.42223622223E+02 -0.12550193072E+03  0.14541898268E+03  0.00000000000E+00 0.  1.
         11    1    1    2    0    0 -0.57971990250E+02  0.27443983474E+02 -0.26164910114E+03  0.26939594654E+03  0.00000000000E+00 0. -1.
</event>
<event>
 7    1  0.2794945E-009  0.9187352E+02  0.7561462E-02  0.1298377E+00
          2   -1    0    0  501    0  0.00000000000E+00  0.00000000000E+00  0.89919789252E+02  0.89919789252E+02  0.00000000000E+00 0. -1.
         -2   -1    0    0    0  501 -0.00000000000E+00 -0.00000000000E+00 -0.16992048657E+03  0.16992048657E+03  0.00000000000E+00 0.  1.
         25    2    1    2    0    0 -0.45013270297E+02  0.37064916536E+02 -0.45062062763E+02  0.14518335530E+03  0.12509042576E+03 0.  0.
          5    1    3    3  502    0  0.18056537015E+02  0.37669037268E+02 -0.66322291410E+02  0.78492761676E+02  0.41800000000E+01 0. -1.
         -5    1    3    3    0  502 -0.63069807311E+02 -0.60412073186E+00  0.21260228647E+02  0.66690593627E+02  0.41800000000E+01 0. -1.
        -11    1    1    2    0    0 -0.11800326489E+02 -0.25322141936E+01  0.23320034791E+02  0.26258024233E+02  0.00000000000E+00 0. -1.
         11    1    1    2    0    0  0.56813596786E+02 -0.34532702343E+02 -0.58258669348E+02  0.88398896289E+02  0.00000000000E+00 0.  1.
</event>
<event>
 7    1  0.2794945E-009  0.9161002E+02  0.7561462E-02  0.1298999E+00
          2   -1    0    0  501    0  0.00000000000E+00  0.00000000000E+00  0.27146406498E+03  0.27146406498E+03  0.00000000000E+00 0. -1.
         -2   -1    0    0    0  501 -0.00000000000E+00 -0.00000000000E+00 -0.43637069473E+02  0.43637069473E+02  0.00000000000E+00 0.  1.
         25    2    1    2    0    0  0.39703478736E+01  0.86585842743E+01  0.14937669152E+03  0.19507780626E+03  0.12510483516E+03 0.  0.
          5    1    3    3  502    0 -0.38228150070E+02  0.27949267709E+02  0.13960496161E+03  0.14747735667E+03  0.41800000000E+01 0. -1.
         -5    1    3    3    0  502  0.42198497944E+02 -0.19290683435E+02  0.97717299117E+01  0.47600449594E+02  0.41800000000E+01 0. -1.
        -11    1    1    2    0    0  0.19807830347E+02  0.34520859736E+02  0.23571243342E+02  0.46256279710E+02  0.00000000000E+00 0.  1.
         11    1    1    2    0    0 -0.23778178220E+02 -0.43179444010E+02  0.54879060640E+02  0.73767048479E+02  0.00000000000E+00 0. -1.
</event>
<event>
 7    1  0.2794945E-009  0.1081120E+03  0.7561462E-02  0.1264107E+00
          1   -1    0    0  501    0  0.00000000000E+00  0.00000000000E+00  0.80383574691E+03  0.80383574691E+03  0.00000000000E+00 0. -1.
         -1   -1    0    0    0  501 -0.00000000000E+00 -0.00000000000E+00 -0.19435749105E+02  0.19435749105E+02  0.00000000000E+00 0.  1.
         25    2    1    2    0    0  0.99068751523E+01  0.53978251034E+02  0.33485879910E+03  0.36166834735E+03  0.12514703504E+03 0.  0.
          5    1    3    3  502    0 -0.20638089006E+02  0.73241283018E+02  0.30572984289E+03  0.31508479096E+03  0.41800000000E+01 0. -1.
         -5    1    3    3    0  502  0.30544964158E+02 -0.19263031985E+02  0.29128956206E+02  0.46583556394E+02  0.41800000000E+01 0. -1.
        -11    1    1    2    0    0 -0.48602763332E+02 -0.38429042069E+02  0.30147081963E+03  0.30777211532E+03  0.00000000000E+00 0.  1.
         11    1    1    2    0    0  0.38695888180E+02 -0.15549208964E+02  0.14807037908E+03  0.15383103335E+03  0.00000000000E+00 0. -1.
</event>
<event>
 7    1  0.2794945E-009  0.8783467E+02  0.7561462E-02  0.1308182E+00
         -2   -1    0    0    0  501 -0.00000000000E+00  0.00000000000E+00  0.11804469996E+03  0.11804469996E+03  0.00000000000E+00 0.  1.
          2   -1    0    0  501    0  0.00000000000E+00 -0.00000000000E+00 -0.10448913256E+03  0.10448913256E+03  0.00000000000E+00 0. -1.
         25    2    1    2    0    0  0.15989719019E+02 -0.14794364961E+02  0.80099891288E+01  0.12722550528E+03  0.12509046694E+03 0.  0.
          5    1    3    3  502    0  0.16406576095E+02 -0.67804029302E+02 -0.11015353263E+02  0.70748657487E+02  0.41800000000E+01 0. -1.
         -5    1    3    3    0  502 -0.41685707546E+00  0.53009664341E+02  0.19025342392E+02  0.56476847792E+02  0.41800000000E+01 0. -1.
        -11    1    1    2    0    0  0.15393654266E+02  0.14611011358E+02 -0.36871291905E+02  0.42543370944E+02  0.00000000000E+00 0. -1.
         11    1    1    2    0    0 -0.31383373285E+02  0.18335360280E+00  0.42416870178E+02  0.52764956297E+02  0.00000000000E+00 0.  1.
</event>
<event>
 7    1  0.2794945E-009  0.1044341E+03  0.7561462E-02  0.1271239E+00
         -2   -1    0    0    0  501 -0.00000000000E+00  0.00000000000E+00  0.40264324628E+02  0.40264324628E+02  0.00000000000E+00 0.  1.
          2   -1    0    0  501    0  0.00000000000E+00 -0.00000000000E+00 -0.30933690681E+03  0.30933690681E+03  0.00000000000E+00 0. -1.
         25    2    1    2    0    0  0.22941099737E+02  0.50997145218E+01 -0.17990296147E+03  0.22037896921E+03  0.12509801508E+03 0.  0.
          5    1    3    3  502    0 -0.26758852349E+02  0.51123822155E+02 -0.10014108385E+03  0.11565202309E+03  0.41800000000E+01 0.  1.
         -5    1    3    3    0  502  0.49699952086E+02 -0.46024107633E+02 -0.79761877629E+02  0.10472694612E+03  0.41800000000E+01 0.  1.
        -11    1    1    2    0    0  0.29670289034E+02 -0.70646596593E+01 -0.63938664679E+02  0.70840583767E+02  0.00000000000E+00 0. -1.
         11    1    1    2    0    0 -0.52611388771E+02  0.19649451375E+01 -0.25230956028E+02  0.58381678461E+02  0.00000000000E+00 0.  1.
</event>
<event>
 7    1  0.2794945E-009  0.1050004E+03  0.7561462E-02  0.1270119E+00
          2   -1    0    0  501    0  0.00000000000E+00  0.00000000000E+00  0.96736700020E+03  0.96736700020E+03  0.00000000000E+00 0. -1.
         -2   -1    0    0    0  501 -0.00000000000E+00 -0.00000000000E+00 -0.36305519703E+02  0.36305519703E+02  0.00000000000E+00 0.  1.
         25    2    1    2    0    0 -0.72006556715E+02  0.16488354399E+02  0.85275138284E+03  0.86503660269E+03  0.12508634224E+03 0.  0.
          5    1    3    3  502    0 -0.69989656383E+02  0.34443714746E+02  0.83719169268E+03  0.84082835595E+03  0.41800000000E+01 0.  1.
         -5    1    3    3    0  502 -0.20169003321E+01 -0.17955360347E+02  0.15559690166E+02  0.24208246740E+02  0.41800000000E+01 0.  1.
        -11    1    1    2    0    0 -0.18546772941E+02  0.69395636552E+01  0.21361865251E+02  0.29128501803E+02  0.00000000000E+00 0.  1.
         11    1    1    2    0    0  0.90553329656E+02 -0.23427918054E+02  0.56948232406E+02  0.10950741541E+03  0.00000000000E+00 0. -1.
</event>
<event>
 7    1  0.2794945E-009  0.1024264E+03  0.7561462E-02  0.1275275E+00
         -1   -1    0    0    0  501 -0.00000000000E+00  0.00000000000E+00  0.34855835073E+02  0.34855835073E+02  0.00000000000E+00 0.  1.
          1   -1    0    0  501    0  0.00000000000E+00 -0.00000000000E+00 -0.58861576887E+03  0.58861576887E+03  0.00000000000E+00 0. -1.
         25    2    1    2    0    0 -0.38092306551E+02 -0.84922798112E+02 -0.30528718532E+03  0.34280456442E+03  0.12510714772E+03 0.  0.
          5    1    3    3  502    0  0.17732209464E+01  0.11068866822E+01  0.11336459046E+02  0.12262023257E+02  0.41800000000E+01 0. -1.
         -5    1    3    3    0  502 -0.39865527498E+02 -0.86029684794E+02 -0.31662364436E+03  0.33054254116E+03  0.41800000000E+01 0. -1.
        -11    1    1    2    0    0  0.10081947796E+02 -0.48791922557E+01  0.34779819097E+01  0.11728109251E+02  0.00000000000E+00 0.  1.
         11    1    1    2    0    0  0.28010358755E+02  0.89801990368E+02 -0.25195073039E+03  0.26893893027E+03  0.00000000000E+00 0. -1.
</event>
<event>
 7    1  0.3392801E-009  0.1004549E+03  0.7561462E-02  0.1279342E+00
          2   -1    0    0  501    0  0.00000000000E+00  0.00000000000E+00  0.80510075108E+03  0.80510075108E+03  0.00000000000E+00 0. -1.
         -2   -1    0    0    0  501 -0.00000000000E+00 -0.00000000000E+00 -0.18458724328E+02  0.18458724328E+02  0.00000000000E+00 0.  1.
         25    2    1    2    0    0  0.52683859292E+02 -0.19575743950E+01  0.38858457098E+03  0.41161267367E+03  0.12509038012E+03 0.  0.
          5    1    3    3  502    0 -0.28466380954E+02 -0.19317812176E+02  0.22982706386E+03  0.23242518020E+03  0.41800000000E+01 0. -1.
         -5    1    3    3    0  502  0.81150240246E+02  0.17360237781E+02  0.15875750712E+03  0.17918749347E+03  0.41800000000E+01 0. -1.
        -11    1    1    2    0    0  0.11227003386E+02 -0.13351245478E+02  0.14168698228E+02  0.22473392497E+02  0.00000000000E+00 0.  1.
         11    1    1    2    0    0 -0.63910862679E+02  0.15308819873E+02  0.38388875755E+03  0.38947340924E+03  0.00000000000E+00 0. -1.
</event>
<event>
 7    1  0.2794945E-009  0.7686822E+02  0.7561462E-02  0.1338181E+00
          2   -1    0    0  501    0  0.00000000000E+00  0.00000000000E+00  0.50372452355E+02  0.50372452355E+02  0.00000000000E+00 0. -1.
         -2   -1    0    0    0  501 -0.00000000000E+00 -0.00000000000E+00 -0.28454912873E+03  0.28454912873E+03  0.00000000000E+00 0.  1.
         25    2    1    2    0    0 -0.70865295443E+01  0.42815665774E+02 -0.80332773921E+02  0.15486370359E+03  0.12508401971E+03 0.  0.
          5    1    3    3  502    0  0.23913569063E+02 -0.19480892101E+02 -0.79253200555E+02  0.85146380666E+02  0.41800000000E+01 0. -1.
         -5    1    3    3    0  502 -0.31000098607E+02  0.62296557875E+02 -0.10795733664E+01  0.69717322922E+02  0.41800000000E+01 0. -1.
        -11    1    1    2    0    0 -0.11014651565E+02 -0.25822406134E+02 -0.15264071512E+03  0.15520086057E+03  0.00000000000E+00 0.  1.
         11    1    1    2    0    0  0.18101181110E+02 -0.16993259641E+02 -0.12031873280E+01  0.24857016927E+02  0.00000000000E+00 0. -1.
</event>
<event>
 7    1  0.2794945E-009  0.9673568E+02  0.7561462E-02  0.1287314E+00
         -2   -1    0    0    0  501 -0.00000000000E+00  0.00000000000E+00  0.54463914673E+02  0.54463914673E+02  0.00000000000E+00 0.  1.
          2   -1    0    0  501    0  0.00000000000E+00 -0.00000000000E+00 -0.40193200542E+03  0.40193200542E+03  0.00000000000E+00 0. -1.
         25    2    1    2    0    0  0.90412977055E+01  0.80299531166E+02 -0.95965691295E+02  0.17716445907E+03  0.12509225349E+03 0.  0.
          5    1    3    3  502    0  0.11194626530E+02  0.15229574750E+01 -0.97491525160E+02  0.98232932057E+02  0.41800000000E+01 0. -1.
         -5    1    3    3    0  502 -0.21533288241E+01  0.78776573691E+02  0.15258338649E+01  0.78931527013E+02  0.41800000000E+01 0. -1.
        -11    1    1    2    0    0 -0.34946446559E+02 -0.60636050179E+02 -0.87551341250E+02  0.11208577993E+03  0.00000000000E+00 0.  1.
         11    1    1    2    0    0  0.25905148854E+02 -0.19663480987E+02 -0.16395105821E+03  0.16714568110E+03  0.00000000000E+00 0. -1.
</event>
<event>
 7    1  0.2794945E-009  0.1531540E+03  0.7561462E-02  0.1196650E+00
         -2   -1    0    0    0  501 -0.00000000000E+00  0.00000000000E+00  0.14291418196E+03  0.14291418196E+03  0.00000000000E+00 0.  1.
          2   -1    0    0  501    0  0.00000000000E+00 -0.00000000000E+00 -0.24712797256E+03  0.24712797256E+03  0.00000000000E+00 0. -1.
         25    2    1    2    0    0  0.36259204099E+02 -0.13391852620E+03 -0.12806198472E+03  0.22648648337E+03  0.12508938275E+03 0.  0.
          5    1    3    3  502    0  0.28013525919E+02 -0.14466452949E+03 -0.63706324910E+02  0.16058814390E+03  0.41800000000E+01 0.  1.
         -5    1    3    3    0  502  0.82456781802E+01  0.10746003295E+02 -0.64355659805E+02  0.65898339467E+02  0.41800000000E+01 0.  1.
        -11    1    1    2    0    0  0.92283103589E+01  0.18829686781E+02  0.33398459878E+02  0.39435719070E+02  0.00000000000E+00 0.  1.
         11    1    1    2    0    0 -0.45487514458E+02  0.11508883942E+03 -0.95502657584E+01  0.12411995209E+03  0.00000000000E+00 0. -1.
</event>
<event>
 7    1  0.2794945E-009  0.1046415E+03  0.7561462E-02  0.1270828E+00
         -1   -1    0    0    0  501 -0.00000000000E+00  0.00000000000E+00  0.63972473256E+02  0.63972473256E+02  0.00000000000E+00 0.  1.
          1   -1    0    0  501    0  0.00000000000E+00 -0.00000000000E+00 -0.40417206007E+03  0.40417206007E+03  0.00000000000E+00 0. -1.
         25    2    1    2    0    0  0.69966569689E+02 -0.13255338898E+02 -0.32177749066E+03  0.35250408995E+03  0.12508938825E+03 0.  0.
          5    1    3    3  502    0  0.76920206438E+02  0.38133127427E+02 -0.24601670005E+03  0.26060035048E+03  0.41800000000E+01 0. -1.
         -5    1    3    3    0  502 -0.69536367492E+01 -0.51388466325E+02 -0.75760790608E+02  0.91903739472E+02  0.41800000000E+01 0. -1.
        -11    1    1    2    0    0 -0.41384978227E+02  0.96432715429E+01  0.34929811845E+02  0.55007280104E+02  0.00000000000E+00 0.  1.
         11    1    1    2    0    0 -0.28581591461E+02  0.36120673554E+01 -0.53351907995E+02  0.60633163267E+02  0.00000000000E+00 0. -1.
</event>
<event>
 7    1  0.2794945E-009  0.8888865E+02  0.7561462E-02  0.1305566E+00
          1   -1    0    0  501    0  0.00000000000E+00  0.00000000000E+00  0.70592917285E+03  0.70592917285E+03  0.00000000000E+00 0. -1.
         -1   -1    0    0    0  501 -0.00000000000E+00 -0.00000000000E+00 -0.17695095468E+02  0.17695095468E+02  0.00000000000E+00 0.  1.
         25    2    1    2    0    0  0.13806639489E+02 -0.24412800628E+02  0.44369875529E+03  0.46184686801E+03  0.12508931177E+03 0.  0.
          5    1    3    3  502    0  0.49875587133E+02 -0.15550165619E+02  0.76385731482E+02  0.92637110364E+02  0.41800000000E+01 0. -1.
         -5    1    3    3    0  502 -0.36068947644E+02 -0.88626350095E+01  0.36731302380E+03  0.36920975764E+03  0.41800000000E+01 0. -1.
        -11    1    1    2    0    0 -0.20611381986E+02 -0.28205587393E+02  0.56747426206E+02  0.66638236836E+02  0.00000000000E+00 0.  1.
         11    1    1    2    0    0  0.68047424971E+01  0.52618388021E+02  0.18778789589E+03  0.19513916348E+03  0.00000000000E+00 0. -1.
</event>
<event>
 7    1  0.2794945E-009  0.2440533E+03  0.7561462E-02  0.1117122E+00
         -2   -1    0    0    0  501 -0.00000000000E+00  0.00000000000E+00  0.50458302736E+02  0.50458302736E+02  0.00000000000E+00 0.  1.
          2   -1    0    0  501    0  0.00000000000E+00 -0.00000000000E+00 -0.14731662561E+04  0.14731662561E+04  0.00000000000E+00 0. -1.
         25    2    1    2    0    0  0.10522973282E+03  0.20512955969E+03 -0.46396161273E+03  0.53297141779E+03  0.12508685449E+03 0.  0.
          5    1    3    3  502    0  0.70107730862E+02  0.19204558576E+03 -0.44713706102E+03  0.49167634138E+03  0.41800000000E+01 0.  1.
         -5    1    3    3    0  502  0.35122001959E+02  0.13083973937E+02 -0.16824551711E+02  0.41295076412E+02  0.41800000000E+01 0.  1.
        -11    1    1    2    0    0 -0.99956505237E+02 -0.10258931836E+03 -0.63769402566E+03  0.65358208477E+03  0.00000000000E+00 0.  1.
         11    1    1    2    0    0 -0.52732275848E+01 -0.10254024133E+03 -0.32105231497E+03  0.33707105626E+03  0.00000000000E+00 0. -1.
</event>
<event>
 7    1  0.2794945E-009  0.1096986E+03  0.7561462E-02  0.1261129E+00
          2   -1    0    0  501    0  0.00000000000E+00  0.00000000000E+00  0.97376224203E+03  0.97376224203E+03  0.00000000000E+00 0. -1.
         -2   -1    0    0    0  501 -0.00000000000E+00 -0.00000000000E+00 -0.23360109046E+02  0.23360109046E+02  0.00000000000E+00 0.  1.
         25    2    1    2    0    0 -0.14127332324E+02 -0.62614907357E+02  0.78700663615E+03  0.79946537148E+03  0.12508088068E+03 0.  0.
          5    1    3    3  502    0  0.54383426118E+02 -0.28017040181E+02  0.42391962251E+03  0.42833144915E+03  0.41800000000E+01 0.  1.
         -5    1    3    3    0  502 -0.68510758442E+02 -0.34597867176E+02  0.36308701363E+03  0.37113392233E+03  0.41800000000E+01 0.  1.
        -11    1    1    2    0    0  0.31621213050E+02  0.27186210736E+02  0.15361675571E+02  0.44440659821E+02  0.00000000000E+00 0.  1.
         11    1    1    2    0    0 -0.17493880727E+02  0.35428696621E+02  0.14803382126E+03  0.15321631977E+03  0.00000000000E+00 0. -1.
</event>
<event>
 7    1  0.2794945E-009  0.1593899E+03  0.7561462E-02  0.1189387E+00
          2   -1    0    0  501    0  0.00000000000E+00  0.00000000000E+00  0.12465995399E+04  0.12465995399E+04  0.00000000000E+00 0. -1.
         -2   -1    0    0    0  501 -0.00000000000E+00 -0.00000000000E+00 -0.23394515387E+02  0.23394515387E+02  0.00000000000E+00 0.  1.
         25    2    1    2    0    0  0.12651141628E+03 -0.12614334055E+02  0.53939636744E+03  0.56812004306E+03  0.12509069610E+03 0.  0.
          5    1    3    3  502    0  0.12873808354E+03  0.18262858942E+02  0.50572440330E+03  0.52218930539E+03  0.41800000000E+01 0.  1.
         -5    1    3    3    0  502 -0.22266672537E+01 -0.30877192997E+02  0.33671964142E+02  0.45930737677E+02  0.41800000000E+01 0.  1.
        -11    1    1    2    0    0 -0.11464250880E+03  0.44844480124E+02  0.50413479754E+03  0.51894684344E+03  0.00000000000E+00 0.  1.
         11    1    1    2    0    0 -0.11868907484E+02 -0.32230146068E+02  0.17967385956E+03  0.18292716881E+03  0.00000000000E+00 0. -1.
</event>
<event>
 7    1  0.2794945E-009  0.1761799E+03  0.7561462E-02  0.1171552E+00
         -2   -1    0    0    0  501 -0.00000000000E+00  0.00000000000E+00  0.47707324778E+02  0.47707324778E+02  0.00000000000E+00 0.  1.
          2   -1    0    0  501    0  0.00000000000E+00 -0.00000000000E+00 -0.80566696615E+03  0.80566696615E+03  0.00000000000E+00 0. -1.
         25    2    1    2    0    0 -0.85917155160E+02  0.13339571787E+03 -0.31704457245E+03  0.37596283923E+03  0.12511842577E+03 0.  0.
          5    1    3    3  502    0  0.20773744130E+02 -0.52607493138E+00 -0.80498646237E+01  0.22673727538E+02  0.41800000000E+01 0. -1.
         -5    1    3    3    0  502 -0.10669089929E+03  0.13392179280E+03 -0.30899470782E+03  0.35328911169E+03  0.41800000000E+01 0. -1.
        -11    1    1    2    0    0  0.45251330320E+02 -0.52245441856E+02 -0.31314099825E+03  0.32067827160E+03  0.00000000000E+00 0. -1.
         11    1    1    2    0    0  0.40665824840E+02 -0.81150276012E+02 -0.12777407067E+03  0.15673318010E+03  0.00000000000E+00 0.  1.
</event>
<event>
 7    1  0.2794945E-009  0.9589959E+02  0.7561462E-02  0.1289163E+00
         -4   -1    0    0    0  501 -0.00000000000E+00  0.00000000000E+00  0.43084634933E+02  0.43084634933E+02  0.00000000000E+00 0.  1.
          4   -1    0    0  501    0  0.00000000000E+00 -0.00000000000E+00 -0.36451159392E+03  0.36451159392E+03  0.00000000000E+00 0. -1.
         25    2    1    2    0    0 -0.17642982379E+02  0.32534705472E+02 -0.26214911486E+03  0.29281207621E+03  0.12508785578E+03 0.  0.
          5    1    3    3  502    0  0.14562698366E+01  0.73230084563E+02 -0.21656445501E+03  0.22865345303E+03  0.41800000000E+01 0. -1.
         -5    1    3    3    0  502 -0.19099252216E+02 -0.40695379091E+02 -0.45584659848E+02  0.64158623177E+02  0.41800000000E+01 0. -1.
        -11    1    1    2    0    0 -0.24006665999E+02 -0.11187024362E+02 -0.62491199526E+02  0.67872082219E+02  0.00000000000E+00 0. -1.
         11    1    1    2    0    0  0.41649648378E+02 -0.21347681110E+02  0.32133554029E+01  0.46912070426E+02  0.00000000000E+00 0.  1.
</event>
<event>
 7    1  0.2794945E-009  0.1077629E+03  0.7561462E-02  0.1264770E+00
         -2   -1    0    0    0  501 -0.00000000000E+00  0.00000000000E+00  0.77324287278E+02  0.77324287278E+02  0.00000000000E+00 0. -1.
          2   -1    0    0  501    0  0.00000000000E+00 -0.00000000000E+00 -0.18252307892E+03  0.18252307892E+03  0.00000000000E+00 0.  1.
         25    2    1    2    0    0 -0.40001651615E+02  0.20220600934E+02 -0.36242061210E+02  0.13773703402E+03  0.12509595799E+03 0.  0.
          5    1    3    3  502    0 -0.76400586823E+02  0.68202981962E+01 -0.54972517093E+02  0.94461718013E+02  0.41800000000E+01 0.  1.
         -5    1    3    3    0  502  0.36398935208E+02  0.13400302737E+02  0.18730455883E+02  0.43275316005E+02  0.41800000000E+01 0.  1.
        -11    1    1    2    0    0  0.79602057566E+01  0.34977533417E+02 -0.33585477216E+02  0.49140380538E+02  0.00000000000E+00 0.  1.
         11    1    1    2    0    0  0.32041445859E+02 -0.55198134350E+02 -0.35371253213E+02  0.72969951640E+02  0.00000000000E+00 0. -1.
</event>
<event>
 7    1  0.2794945E-009  0.1415784E+03  0.7561462E-02  0.1211221E+00
          1   -1    0    0  501    0  0.00000000000E+00  0.00000000000E+00  0.76302003545E+03  0.76302003545E+03  0.00000000000E+00 0. -1.
         -1   -1    0    0    0  501 -0.00000000000E+00 -0.00000000000E+00 -0.53249966097E+02  0.53249966097E+02  0.00000000000E+00 0.  1.
         25    2    1    2    0    0  0.10343433588E+03  0.18102503660E+02  0.10209042351E+03  0.19260439826E+03  0.12509051593E+03 0.  0.
          5    1    3    3  502    0  0.15720480971E+02  0.61622476838E+02  0.27361807000E+02  0.69358518265E+02  0.41800000000E+01 0. -1.
         -5    1    3    3    0  502  0.87713854914E+02 -0.43519973179E+02  0.74728616513E+02  0.12324587999E+03  0.41800000000E+01 0. -1.
        -11    1    1    2    0    0 -0.13191992504E+02  0.19591639416E+02  0.32192490031E+02  0.39927652268E+02  0.00000000000E+00 0.  1.
         11    1    1    2    0    0 -0.90242343381E+02 -0.37694143076E+02  0.57548715581E+03  0.58373795103E+03  0.00000000000E+00 0. -1.
</event>
<event>
 7    1  0.2794945E-009  0.1264355E+03  0.7561462E-02  0.1232843E+00
         -1   -1    0    0    0  501 -0.00000000000E+00  0.00000000000E+00  0.31340072634E+03  0.31340072634E+03  0.00000000000E+00 0.  1.
          1   -1    0    0  501    0  0.00000000000E+00 -0.00000000000E+00 -0.63236209624E+02  0.63236209624E+02  0.00000000000E+00 0. -1.
         25    2    1    2    0    0 -0.56902819164E+02  0.47884469178E+02  0.79860737405E+02  0.16600035893E+03  0.12509008182E+03 0.  0.
          5    1    3    3  502    0 -0.91675259546E+02  0.86590063124E+01  0.42561624727E+02  0.10152977840E+03  0.41800000000E+01 0. -1.
         -5    1    3    3    0  502  0.34772440382E+02  0.39225462866E+02  0.37299112678E+02  0.64470580529E+02  0.41800000000E+01 0. -1.
        -11    1    1    2    0    0  0.76913199788E+02 -0.37847928596E+02  0.16738853483E+03  0.18806123363E+03  0.00000000000E+00 0.  1.
         11    1    1    2    0    0 -0.20010380624E+02 -0.10036540582E+02  0.29152444812E+01  0.22575343407E+02  0.00000000000E+00 0. -1.
</event>
<event>
 7    1  0.2794945E-009  0.8054569E+02  0.7561462E-02  0.1327510E+00
          2   -1    0    0  501    0  0.00000000000E+00  0.00000000000E+00  0.11291692408E+04  0.11291692408E+04  0.00000000000E+00 0. -1.
         -2   -1    0    0    0  501 -0.00000000000E+00 -0.00000000000E+00 -0.11151035297E+02  0.11151035297E+02  0.00000000000E+00 0.  1.
         25    2    1    2    0    0  0.14031570557E+02 -0.72570839630E+01  0.76377972706E+03  0.77411868835E+03  0.12510284550E+03 0.  0.
          5    1    3    3  502    0 -0.16452852042E+02 -0.30662501146E+02  0.68941426901E+03  0.69030456469E+03  0.41800000000E+01 0.  1.
         -5    1    3    3    0  502  0.30484422599E+02  0.23405417183E+02  0.74365458044E+02  0.83814123659E+02  0.41800000000E+01 0.  1.
        -11    1    1    2    0    0  0.33410840560E+02 -0.12929107773E+02  0.20980236337E+03  0.21283908891E+03  0.00000000000E+00 0.  1.
         11    1    1    2    0    0 -0.47442411117E+02  0.20186191736E+02  0.14443611512E+03  0.15336249887E+03  0.00000000000E+00 0. -1.
</event>
<event>
 7    1  0.2794945E-009  0.1547739E+03  0.7561462E-02  0.1194727E+00
          2   -1    0    0  501    0  0.00000000000E+00  0.00000000000E+00  0.51993980795E+02  0.51993980795E+02  0.00000000000E+00 0.  1.
         -2   -1    0    0    0  501 -0.00000000000E+00 -0.00000000000E+00 -0.56509375618E+03  0.56509375618E+03  0.00000000000E+00 0. -1.
         25    2    1    2    0    0  0.13028316300E+03 -0.20404247150E+02 -0.29824711512E+03  0.34926920868E+03  0.12509037770E+03 0.  0.
          5    1    3    3  502    0  0.13206211426E+03  0.80636731366E+01 -0.29077473464E+03  0.31948840911E+03  0.41800000000E+01 0. -1.
         -5    1    3    3    0  502 -0.17789512663E+01 -0.28467920286E+02 -0.74723804743E+01  0.29780799569E+02  0.41800000000E+01 0. -1.
        -11    1    1    2    0    0 -0.56464992156E+01 -0.17245639766E+02 -0.19376121371E+01  0.18249640684E+02  0.00000000000E+00 0.  1.
         11    1    1    2    0    0 -0.12463666378E+03  0.37649886915E+02 -0.21291504813E+03  0.24956888761E+03  0.00000000000E+00 0. -1.
</event>
<event>
 7    1  0.2794945E-009  0.1406023E+03  0.7561462E-02  0.1212521E+00
         -2   -1    0    0    0  501 -0.00000000000E+00  0.00000000000E+00  0.50899994105E+02  0.50899994105E+02  0.00000000000E+00 0.  1.
          2   -1    0    0  501    0  0.00000000000E+00 -0.00000000000E+00 -0.39991504542E+03  0.39991504542E+03  0.00000000000E+00 0. -1.
         25    2    1    2    0    0 -0.87326338509E+02  0.22379116128E+02 -0.16527442803E+03  0.22603063950E+03  0.12508996441E+03 0.  0.
          5    1    3    3  502    0  0.27346419057E+02  0.26262634971E+02 -0.54231724935E+02  0.66303129793E+02  0.41800000000E+01 0.  1.
         -5    1    3    3    0  502 -0.11467275757E+03 -0.38835188434E+01 -0.11104270309E+03  0.15972750971E+03  0.41800000000E+01 0.  1.
        -11    1    1    2    0    0  0.21873193514E+02  0.34953205387E+02 -0.45165470314E+02  0.61156216937E+02  0.00000000000E+00 0.  1.
         11    1    1    2    0    0  0.65453144995E+02 -0.57332321515E+02 -0.13857515297E+03  0.16362818309E+03  0.00000000000E+00 0. -1.
</event>
<event>
 7    1  0.2794945E-009  0.9467969E+02  0.7561462E-02  0.1291899E+00
          2   -1    0    0  501    0  0.00000000000E+00  0.00000000000E+00  0.33511807762E+03  0.33511807762E+03  0.00000000000E+00 0. -1.
         -2   -1    0    0    0  501 -0.00000000000E+00 -0.00000000000E+00 -0.41728875299E+02  0.41728875299E+02  0.00000000000E+00 0.  1.
         25    2    1    2    0    0 -0.64650667944E+01 -0.78997169674E-01  0.23701504405E+03  0.26808075204E+03  0.12509738279E+03 0.  0.
          5    1    3    3  502    0 -0.58733372395E+02  0.22714894177E+02  0.86531811124E+02  0.10710183092E+03  0.41800000000E+01 0.  1.
         -5    1    3    3    0  502  0.52268305601E+02 -0.22793891347E+02  0.15048323293E+03  0.16097892112E+03  0.41800000000E+01 0.  1.
        -11    1    1    2    0    0  0.26962835185E+02 -0.24940284821E+02  0.65556413286E+02  0.75144232055E+02  0.00000000000E+00 0. -1.
         11    1    1    2    0    0 -0.20497768391E+02  0.25019281991E+02 -0.91822550145E+01  0.33621968823E+02  0.00000000000E+00 0.  1.
</event>
<event>
 7    1  0.2794945E-009  0.1844688E+03  0.7561462E-02  0.1163547E+00
         -2   -1    0    0    0  501 -0.00000000000E+00  0.00000000000E+00  0.43643349917E+02  0.43643349917E+02  0.00000000000E+00 0. -1.
          2   -1    0    0  501    0  0.00000000000E+00 -0.00000000000E+00 -0.93533820023E+03  0.93533820023E+03  0.00000000000E+00 0.  1.
         25    2    1    2    0    0  0.10272336114E+03  0.12590674016E+03 -0.34319575129E+03  0.39979433983E+03  0.12509034461E+03 0.  0.
          5    1    3    3  502    0  0.12133868797E+03  0.11601752842E+03 -0.33839937512E+03  0.37777606274E+03  0.41800000000E+01 0.  1.
         -5    1    3    3    0  502 -0.18615326825E+02  0.98892117374E+01 -0.47963761688E+01  0.22018277089E+02  0.41800000000E+01 0.  1.
        -11    1    1    2    0    0 -0.11347749676E+03 -0.12484546424E+03 -0.53904133055E+03  0.56482660016E+03  0.00000000000E+00 0. -1.
         11    1    1    2    0    0  0.10754135619E+02 -0.10612759145E+01 -0.94577684779E+01  0.14360610156E+02  0.00000000000E+00 0.  1.
</event>
<event>
 7    1  0.2794945E-009  0.1369765E+03  0.7561462E-02  0.1217456E+00
         -2   -1    0    0    0  501 -0.00000000000E+00  0.00000000000E+00  0.29662843258E+02  0.29662843258E+02  0.00000000000E+00 0.  1.
          2   -1    0    0  501    0  0.00000000000E+00 -0.00000000000E+00 -0.95127071371E+03  0.95127071371E+03  0.00000000000E+00 0. -1.
         25    2    1    2    0    0 -0.40320250790E+02  0.93126878414E+02 -0.71973024586E+03  0.73753464336E+03  0.12508950895E+03 0.  0.
          5    1    3    3  502    0  0.32364571294E+02  0.28627717578E+02 -0.42406892626E+03  0.42628504350E+03  0.41800000000E+01 0. -1.
         -5    1    3    3    0  502 -0.72684822084E+02  0.64499160836E+02 -0.29566131959E+03  0.31124959986E+03  0.41800000000E+01 0. -1.
        -11    1    1    2    0    0  0.65961180993E+02 -0.82228513406E+02 -0.17717672096E+03  0.20616497342E+03  0.00000000000E+00 0. -1.
         11    1    1    2    0    0 -0.25640930203E+02 -0.10898365008E+02 -0.24700903633E+02  0.37233940187E+02  0.00000000000E+00 0.  1.
</event>
<event>
 7    1  0.2794945E-009  0.1204613E+03  0.7561462E-02  0.1242338E+00
          1   -1    0    0  501    0  0.00000000000E+00  0.00000000000E+00  0.26722901701E+03  0.26722901701E+03  0.00000000000E+00 0. -1.
         -1   -1    0    0    0  501 -0.00000000000E+00 -0.00000000000E+00 -0.10584139020E+03  0.10584139020E+03  0.00000000000E+00 0.  1.
         25    2    1    2    0    0 -0.62631000239E+02  0.67970248469E+02  0.18481989083E+03  0.24155406164E+03  0.12508947111E+03 0.  0.
          5    1    3    3  502    0 -0.86510472626E+02  0.80221215407E+02  0.17792872983E+03  0.21353128711E+03  0.41800000000E+01 0. -1.
         -5    1    3    3    0  502  0.23879472388E+02 -0.12250966938E+02  0.68911609921E+01  0.28022774528E+02  0.41800000000E+01 0. -1.
        -11    1    1    2    0    0  0.56067907464E+02 -0.45230773210E+02 -0.56009265959E+02  0.91249498441E+02  0.00000000000E+00 0.  1.
         11    1    1    2    0    0  0.65630927744E+01 -0.22739475258E+02  0.32577001942E+02  0.40266847124E+02  0.00000000000E+00 0. -1.
</event>
<event>
 7    1  0.2794945E-009  0.1348479E+03  0.7561462E-02  0.1220435E+00
         -1   -1    0    0    0  501 -0.00000000000E+00  0.00000000000E+00  0.26995746233E+03  0.26995746233E+03  0.00000000000E+00 0.  1.
          1   -1    0    0  501    0  0.00000000000E+00 -0.00000000000E+00 -0.10298086673E+03  0.10298086673E+03  0.00000000000E+00 0. -1.
         25    2    1    2    0    0  0.49880815327E+02  0.79135497460E+02  0.18405606615E+03  0.24140140649E+03  0.12508989117E+03 0.  0.
          5    1    3    3  502    0  0.87782197302E+02  0.30392478723E+02  0.12556587098E+03  0.15624876730E+03  0.41800000000E+01 0.  1.
         -5    1    3    3    0  502 -0.37901381975E+02  0.48743018737E+02  0.58490195164E+02  0.85152639192E+02  0.41800000000E+01 0.  1.
        -11    1    1    2    0    0 -0.19271719684E+02 -0.81853562194E+02  0.16846733965E+02  0.85762563329E+02  0.00000000000E+00 0.  1.
         11    1    1    2    0    0 -0.30609095643E+02  0.27180647341E+01 -0.33926204503E+02  0.45774359241E+02  0.00000000000E+00 0. -1.
</event>
<event>
 7    1  0.2794945E-009  0.1216106E+03  0.7561462E-02  0.1240463E+00
         -2   -1    0    0    0  501 -0.00000000000E+00  0.00000000000E+00  0.36031477304E+03  0.36031477304E+03  0.00000000000E+00 0. -1.
          2   -1    0    0  501    0  0.00000000000E+00 -0.00000000000E+00 -0.96268721953E+02  0.96268721953E+02  0.00000000000E+00 0.  1.
         25    2    1    2    0    0 -0.56370918443E+02 -0.38889668109E+02 -0.25441321135E+02  0.14486408140E+03  0.12509298352E+03 0.  0.
          5    1    3    3  502    0 -0.87883831678E+02 -0.37990039548E+02  0.11038849857E+02  0.96468334605E+02  0.41800000000E+01 0. -1.
         -5    1    3    3    0  502  0.31512913235E+02 -0.89962856068E+00 -0.36480170992E+02  0.48395746793E+02  0.41800000000E+01 0. -1.
        -11    1    1    2    0    0 -0.16646922470E+02 -0.16878150663E+02  0.62123704341E+02  0.66493207462E+02  0.00000000000E+00 0. -1.
         11    1    1    2    0    0  0.73017840913E+02  0.55767818771E+02  0.22736366788E+03  0.24522620613E+03  0.00000000000E+00 0.  1.
</event>
<event>
 7    1  0.2794945E-009  0.9701388E+02  0.7561462E-02  0.1286704E+00
         -1   -1    0    0    0  501 -0.00000000000E+00  0.00000000000E+00  0.74354940179E+03  0.74354940179E+03  0.00000000000E+00 0.  1.
          1   -1    0    0  501    0  0.00000000000E+00 -0.00000000000E+00 -0.24371767343E+02  0.24371767343E+02  0.00000000000E+00 0. -1.
         25    2    1    2    0    0 -0.12050018410E+01  0.22840663466E+01  0.62154555634E+03  0.63401289397E+03  0.12508717810E+03 0.  0.
          5    1    3    3  502    0 -0.31969656086E+02 -0.50404122772E+02  0.22687892619E+03  0.23463621641E+03  0.41800000000E+01 0.  1.
         -5    1    3    3    0  502  0.30764654245E+02  0.52688189119E+02  0.39466663015E+03  0.39937667756E+03  0.41800000000E+01 0.  1.
        -11    1    1    2    0    0 -0.34705126652E+02 -0.10385494817E+02  0.89010082886E+02  0.96099423379E+02  0.00000000000E+00 0.  1.
         11    1    1    2    0    0  0.35910128493E+02  0.81014284700E+01  0.86219952204E+01  0.37808851784E+02  0.00000000000E+00 0. -1.
</event>
<event>
 7    1  0.2794945E-009  0.1020370E+03  0.7561462E-02  0.1276070E+00
          1   -1    0    0  501    0  0.00000000000E+00  0.00000000000E+00  0.14783938427E+03  0.14783938427E+03  0.00000000000E+00 0. -1.
         -1   -1    0    0    0  501 -0.00000000000E+00 -0.00000000000E+00 -0.14957281827E+03  0.14957281827E+03  0.00000000000E+00 0.  1.
         25    2    1    2    0    0  0.32755421310E+02 -0.90701301360E+02  0.28536819503E+02  0.16050449205E+03  0.12509075988E+03 0.  0.
          5    1    3    3  502    0  0.36224084136E+02 -0.81327111908E+02 -0.35219590008E+02  0.95834103132E+02  0.41800000000E+01 0. -1.
         -5    1    3    3    0  502 -0.34686628258E+01 -0.93741894520E+01  0.63756409510E+02  0.64670388922E+02  0.41800000000E+01 0. -1.
        -11    1    1    2    0    0 -0.38018155853E+02  0.48700276201E+02 -0.59255375710E+02  0.85605470778E+02  0.00000000000E+00 0.  1.
         11    1    1    2    0    0  0.52627345435E+01  0.42001025159E+02  0.28985122216E+02  0.51302239709E+02  0.00000000000E+00 0. -1.
</event>
<event>
 7    1  0.2794945E-009  0.1103596E+03  0.7561462E-02  0.1259905E+00
         -3   -1    0    0    0  501 -0.00000000000E+00  0.00000000000E+00  0.21167734087E+02  0.21167734087E+02  0.00000000000E+00 0. -1.
          3   -1    0    0  501    0  0.00000000000E+00 -0.00000000000E+00 -0.10304696674E+04  0.10304696674E+04  0.00000000000E+00 0.  1.
         25    2    1    2    0    0  0.59732259038E+02  0.79207946560E+02 -0.60048435070E+03  0.62134735030E+03  0.12509689332E+03 0.  0.
          5    1    3    3  502    0  0.47932038839E+02  0.14679777250E+02 -0.49155580900E+03  0.49412302311E+03  0.41800000000E+01 0.  1.
         -5    1    3    3    0  502  0.11800220199E+02  0.64528169310E+02 -0.10892854171E+03  0.12722432719E+03  0.41800000000E+01 0.  1.
        -11    1    1    2    0    0 -0.27526057307E+02 -0.11742672692E+02 -0.24234387420E+02  0.38508177397E+02  0.00000000000E+00 0. -1.
         11    1    1    2    0    0 -0.32206201731E+02 -0.67465273868E+02 -0.38458319522E+03  0.39178187382E+03  0.00000000000E+00 0.  1.
</event>
<event>
 7    1  0.2794945E-009  0.1187171E+03  0.7561462E-02  0.1245229E+00
          2   -1    0    0  501    0  0.00000000000E+00  0.00000000000E+00  0.45565915082E+02  0.45565915082E+02  0.00000000000E+00 0. -1.
         -2   -1    0    0    0  501 -0.00000000000E+00 -0.00000000000E+00 -0.35106703065E+03  0.35106703065E+03  0.00000000000E+00 0.  1.
         25    2    1    2    0    0  0.49322464817E+02  0.28931217158E+02 -0.12150504847E+03  0.18351808072E+03  0.12508272576E+03 0.  0.
          5    1    3    3  502    0  0.70512342220E+02  0.59640816805E+02 -0.11115191274E+03  0.14457260300E+03  0.41800000000E+01 0. -1.
         -5    1    3    3    0  502 -0.21189877404E+02 -0.30709599647E+02 -0.10353135739E+02  0.38945477716E+02  0.41800000000E+01 0. -1.
        -11    1    1    2    0    0 -0.28284400867E+02 -0.62058306221E+02 -0.12095623885E+03  0.13885838981E+03  0.00000000000E+00 0.  1.
         11    1    1    2    0    0 -0.21038063950E+02  0.33127089063E+02 -0.63039828236E+02  0.74256475197E+02  0.00000000000E+00 0. -1.
</event>
<event>
 7    1  0.2794945E-009  0.9673188E+02  0.7561462E-02  0.1287322E+00
          2   -1    0    0  501    0  0.00000000000E+00  0.00000000000E+00  0.14502139041E+03  0.14502139041E+03  0.00000000000E+00 0. -1.
         -2   -1    0    0    0  501 -0.00000000000E+00 -0.00000000000E+00 -0.13361897633E+03  0.13361897633E+03  0.00000000000E+00 0.  1.
         25    2    1    2    0    0 -0.98648433701E+01  0.15916356837E+02 -0.73775870751E+02  0.14642654189E+03  0.12508879852E+03 0.  0.
          5    1    3    3  502    0  0.15013566902E+02  0.57927861698E+02 -0.26402738373E+01  0.60045714235E+02  0.41800000000E+01 0.  1.
         -5    1    3    3    0  502 -0.24878410272E+02 -0.42011504861E+02 -0.71135596914E+02  0.86380827656E+02  0.41800000000E+01 0.  1.
        -11    1    1    2    0    0 -0.21061881996E+02 -0.40045385284E+02  0.84337576705E+01  0.46025688743E+02  0.00000000000E+00 0.  1.
         11    1    1    2    0    0  0.30926725366E+02  0.24129028448E+02  0.76744527159E+02  0.86188136101E+02  0.00000000000E+00 0. -1.
</event>
<event>
 7    1  0.2794945E-009  0.1866874E+03  0.7561462E-02  0.1161483E+00
          2   -1    0    0  501    0  0.00000000000E+00  0.00000000000E+00  0.47774984448E+02  0.47774984448E+02  0.00000000000E+00 0. -1.
         -2   -1    0    0    0  501 -0.00000000000E+00 -0.00000000000E+00 -0.89897983371E+03  0.89897983371E+03  0.00000000000E+00 0.  1.
         25    2    1    2    0    0 -0.16374124543E+03  0.24299045762E+01 -0.29541826061E+03  0.36019041737E+03  0.12509231862E+03 0.  0.
          5    1    3    3  502    0 -0.67703242726E+02 -0.60500480281E+02 -0.13988830560E+03  0.16682400197E+03  0.41800000000E+01 0. -1.
         -5    1    3    3    0  502 -0.96038002700E+02  0.62930384857E+02 -0.15552995501E+03  0.19336641540E+03  0.41800000000E+01 0. -1.
        -11    1    1    2    0    0  0.74768063895E+02 -0.18856965437E+02 -0.12896971939E+03  0.15026322586E+03  0.00000000000E+00 0. -1.
         11    1    1    2    0    0  0.88973181531E+02  0.16427060861E+02 -0.42681686926E+03  0.43630117493E+03  0.00000000000E+00 0.  1.
</event>
<event>
 7    1  0.2794945E-009  0.9620406E+02  0.7561462E-02  0.1288487E+00
          2   -1    0    0  501    0  0.00000000000E+00  0.00000000000E+00  0.96779043712E+03  0.96779043712E+03  0.00000000000E+00 0. -1.
         -2   -1    0    0    0  501 -0.00000000000E+00 -0.00000000000E+00 -0.17445187425E+02  0.17445187425E+02  0.00000000000E+00 0.  1.
         25    2    1    2    0    0 -0.40866749166E+02 -0.27788139587E+02  0.82479222079E+03  0.83568648247E+03  0.12508963834E+03 0.  0.
          5    1    3    3  502    0 -0.20396935825E+02  0.47398391285E+02  0.44197722362E+03  0.44499885515E+03  0.41800000000E+01 0.  1.
         -5    1    3    3    0  502 -0.20469813341E+02 -0.75186530872E+02  0.38281499717E+03  0.39068762732E+03  0.41800000000E+01 0.  1.
        -11    1    1    2    0    0  0.22971978557E+02  0.36165403319E+02  0.12221915777E+03  0.12951127643E+03  0.00000000000E+00 0. -1.
         11    1    1    2    0    0  0.17894770608E+02 -0.83772637321E+01  0.33338711315E+01  0.20037865642E+02  0.00000000000E+00 0.  1.
</event>
<event>
 7    1  0.2794945E-009  0.1035381E+03  0.7561462E-02  0.1273027E+00
          2   -1    0    0  501    0  0.00000000000E+00  0.00000000000E+00  0.45760892476E+02  0.45760892476E+02  0.00000000000E+00 0.  1.
         -2   -1    0    0    0  501 -0.00000000000E+00 -0.00000000000E+00 -0.33545517992E+03  0.33545517992E+03  0.00000000000E+00 0. -1.
         25    2    1    2    0    0 -0.56942262155E+02  0.63442817377E+01 -0.14198285556E+03  0.19771196488E+03  0.12509284014E+03 0.  0.
          5    1    3    3  502    0 -0.57843930862E+02 -0.45384198580E+02 -0.12116299017E+03  0.14178712355E+03  0.41800000000E+01 0.  1.
         -5    1    3    3    0  502  0.90166870723E+00  0.51728480317E+02 -0.20819865387E+02  0.55924841324E+02  0.41800000000E+01 0.  1.
        -11    1    1    2    0    0  0.55321093860E+02 -0.26477556565E+02 -0.15105484170E+03  0.16303082417E+03  0.00000000000E+00 0. -1.
         11    1    1    2    0    0  0.16211682944E+01  0.20133274828E+02  0.33434098151E+01  0.20473283350E+02  0.00000000000E+00 0.  1.
</event>
<event>
 7    1  0.2794945E-009  0.1087137E+03  0.7561462E-02  0.1262971E+00
         -1   -1    0    0    0  501 -0.00000000000E+00  0.00000000000E+00  0.96890288658E+02  0.96890288658E+02  0.00000000000E+00 0.  1.
          1   -1    0    0  501    0  0.00000000000E+00 -0.00000000000E+00 -0.15335992043E+03  0.15335992043E+03  0.00000000000E+00 0. -1.
         25    2    1    2    0    0  0.34825946174E+02 -0.44409447533E+02 -0.47563039137E+02  0.14525086863E+03  0.12510206468E+03 0.  0.
          5    1    3    3  502    0 -0.45595592218E+02 -0.21874777134E+02 -0.38459285548E+01  0.50889365008E+02  0.41800000000E+01 0. -1.
         -5    1    3    3    0  502  0.80421538392E+02 -0.22534670398E+02 -0.43717110582E+02  0.94361503618E+02  0.41800000000E+01 0. -1.
        -11    1    1    2    0    0 -0.16261857354E+02  0.57881564880E+02 -0.35546985129E+02  0.69844911836E+02  0.00000000000E+00 0. -1.
         11    1    1    2    0    0 -0.18564088820E+02 -0.13472117347E+02  0.26640392497E+02  0.35154428625E+02  0.00000000000E+00 0.  1.
</event>
<event>
 7    1  0.2794945E-009  0.1725244E+03  0.7561462E-02  0.1175241E+00
         -2   -1    0    0    0  501 -0.00000000000E+00  0.00000000000E+00  0.70561306651E+03  0.70561306651E+03  0.00000000000E+00 0.  1.
          2   -1    0    0  501    0  0.00000000000E+00 -0.00000000000E+00 -0.92544174041E+02  0.92544174041E+02  0.00000000000E+00 0. -1.
         25    2    1    2    0    0  0.10784800396E+03 -0.96870239949E+02  0.59371841767E+03  0.62382927796E+03  0.12508546363E+03 0.  0.
          5    1    3    3  502    0 -0.20718338087E+02 -0.35133898935E+02  0.71011770568E+02  0.81998685030E+02  0.41800000000E+01 0. -1.
         -5    1    3    3    0  502  0.12856634205E+03 -0.61736341014E+02  0.52270664710E+03  0.54183059293E+03  0.41800000000E+01 0. -1.
        -11    1    1    2    0    0 -0.25052530799E+02  0.69953889092E+02  0.40653434424E+02  0.84698746325E+02  0.00000000000E+00 0. -1.
         11    1    1    2    0    0 -0.82795473160E+02  0.26916350856E+02 -0.21302959629E+02  0.89629216265E+02  0.00000000000E+00 0.  1.
</event>
<event>
 7    1  0.2794945E-009  0.2718737E+03  0.7561462E-02  0.1100212E+00
          2   -1    0    0  501    0  0.00000000000E+00  0.00000000000E+00  0.39209350103E+03  0.39209350103E+03  0.00000000000E+00 0.  1.
         -2   -1    0    0    0  501 -0.00000000000E+00 -0.00000000000E+00 -0.31330685226E+03  0.31330685226E+03  0.00000000000E+00 0. -1.
         25    2    1    2    0    0  0.74385030516E+02  0.24143961602E+03  0.25859826031E+03  0.38255293916E+03  0.12508984799E+03 0.  0.
          5    1    3    3  502    0  0.91663627000E+02  0.10719293564E+03  0.94641711210E+02  0.16990312495E+03  0.41800000000E+01 0.  1.
         -5    1    3    3    0  502 -0.17278596484E+02  0.13424668038E+03  0.16395654910E+03  0.21264981421E+03  0.41800000000E+01 0.  1.
        -11    1    1    2    0    0 -0.48114790195E+02 -0.35944930704E+02 -0.51873662441E+02  0.79359611478E+02  0.00000000000E+00 0. -1.
         11    1    1    2    0    0 -0.26270240321E+02 -0.20549468532E+03 -0.12793794910E+03  0.24348780265E+03  0.00000000000E+00 0.  1.
</event>
<event>
 7    1  0.2794945E-009  0.1130061E+03  0.7561462E-02  0.1255102E+00
          2   -1    0    0  501    0  0.00000000000E+00  0.00000000000E+00  0.40118903361E+03  0.40118903361E+03  0.00000000000E+00 0. -1.
         -2   -1    0    0    0  501 -0.00000000000E+00 -0.00000000000E+00 -0.38560649611E+02  0.38560649611E+02  0.00000000000E+00 0.  1.
         25    2    1    2    0    0  0.33731835182E+02 -0.52399290524E+02  0.19696056432E+03  0.24150493206E+03  0.12509055104E+03 0.  0.
          5    1    3    3  502    0  0.58919174331E+02 -0.80333479319E+02  0.12226285971E+03  0.15776760208E+03  0.41800000000E+01 0.  1.
         -5    1    3    3    0  502 -0.25187339149E+02  0.27934188794E+02  0.74697704616E+02  0.83737329979E+02  0.41800000000E+01 0.  1.
        -11    1    1    2    0    0  0.72301275003E+00  0.53961236584E+02  0.15173593699E+03  0.16104698809E+03  0.00000000000E+00 0. -1.
         11    1    1    2    0    0 -0.34454847932E+02 -0.15619460598E+01  0.13931882686E+02  0.37197763060E+02  0.00000000000E+00 0.  1.
</event>
<event>
 7    1  0.2794945E-009  0.8770513E+02  0.7561462E-02  0.1308506E+00
          4   -1    0    0  501    0  0.00000000000E+00  0.00000000000E+00  0.23134821505E+03  0.23134821505E+03  0.00000000000E+00 0. -1.
         -4   -1    0    0    0  501 -0.00000000000E+00 -0.00000000000E+00 -0.82379732817E+02  0.82379732817E+02  0.00000000000E+00 0.  1.
         25    2    1    2    0    0  0.41630931230E+02 -0.22842748407E+02  0.15014904791E+03  0.20111458187E+03  0.12508961933E+03 0.  0.
          5    1    3    3  502    0  0.29527610306E+02 -0.36611936691E+02 -0.25239964084E+01  0.47288017896E+02  0.41800000000E+01 0. -1.
         -5    1    3    3    0  502  0.12103320924E+02  0.13769188284E+02  0.15267304432E+03  0.15382656398E+03  0.41800000000E+01 0. -1.
        -11    1    1    2    0    0 -0.59490090288E+02  0.49438221752E+02  0.11418513608E+02  0.78189456229E+02  0.00000000000E+00 0. -1.
         11    1    1    2    0    0  0.17859159058E+02 -0.26595473344E+02 -0.12599079286E+02  0.34423909765E+02  0.00000000000E+00 0.  1.
</event>
<event>
 7    1  0.2794945E-009  0.2169492E+03  0.7561462E-02  0.1136178E+00
         -2   -1    0    0    0  501 -0.00000000000E+00  0.00000000000E+00  0.10406101677E+03  0.10406101677E+03  0.00000000000E+00 0. -1.
          2   -1    0    0  501    0  0.00000000000E+00 -0.00000000000E+00 -0.47993370745E+03  0.47993370745E+03  0.00000000000E+00 0.  1.
         25    2    1    2    0    0 -0.58786343448E+01 -0.19277464739E+03 -0.15708037866E+03  0.27841524504E+03  0.12507669765E+03 0.  0.
          5    1    3    3  502    0  0.32480507721E+02  0.23793433471E-01 -0.29113901912E+02  0.43818667626E+02  0.41800000000E+01 0.  1.
         -5    1    3    3    0  502 -0.38359142066E+02 -0.19279844083E+03 -0.12796647675E+03  0.23459657742E+03  0.41800000000E+01 0.  1.
        -11    1    1    2    0    0  0.37005800837E+02  0.11249070911E+03 -0.82354672150E+02  0.14424243813E+03  0.00000000000E+00 0. -1.
         11    1    1    2    0    0 -0.31127166492E+02  0.80283938282E+02 -0.13643763987E+03  0.16133704105E+03  0.00000000000E+00 0.  1.
</event>
<event>
 7    1  0.2794945E-009  0.7931432E+02  0.7561462E-02  0.1331009E+00
         -1   -1    0    0    0  501 -0.00000000000E+00  0.00000000000E+00  0.35571917075E+03  0.35571917075E+03  0.00000000000E+00 0.  1.
          1   -1    0    0  501    0  0.00000000000E+00 -0.00000000000E+00 -0.43270173920E+02  0.43270173920E+02  0.00000000000E+00 0. -1.
         25    2    1    2    0    0  0.43399965481E+01 -0.53100696950E+02  0.13720576701E+03  0.19316242317E+03  0.12509108537E+03 0.  0.
          5    1    3    3  502    0  0.17153152386E+02 -0.41954202419E+02  0.15890299690E+03  0.16529374024E+03  0.41800000000E+01 0.  1.
         -5    1    3    3    0  502 -0.12813155838E+02 -0.11146494531E+02 -0.21697229900E+02  0.27868682928E+02  0.41800000000E+01 0.  1.
        -11    1    1    2    0    0  0.19040932964E+02  0.66156421431E+02  0.16185601305E+03  0.17588802741E+03  0.00000000000E+00 0.  1.
         11    1    1    2    0    0 -0.23380929512E+02 -0.13055724481E+02  0.13387216774E+02  0.29938894094E+02  0.00000000000E+00 0. -1.
</event>
<event>
 7    1  0.2794945E-009  0.9277006E+02  0.7561462E-02  0.1296279E+00
         -2   -1    0    0    0  501 -0.00000000000E+00  0.00000000000E+00  0.10255686368E+03  0.10255686368E+03  0.00000000000E+00 0.  1.
          2   -1    0    0  501    0  0.00000000000E+00 -0.00000000000E+00 -0.29214367046E+03  0.29214367046E+03  0.00000000000E+00 0. -1.
         25    2    1    2    0    0 -0.43810178067E+02 -0.13756950989E+02 -0.24488389852E+03  0.27879009512E+03  0.12508880038E+03 0.  0.
          5    1    3    3  502    0 -0.64956485444E+02 -0.30980258454E+01 -0.49245711606E+02  0.81679589109E+02  0.41800000000E+01 0.  1.
         -5    1    3    3    0  502  0.21146307378E+02 -0.10658925144E+02 -0.19563818692E+03  0.19711050601E+03  0.41800000000E+01 0.  1.
        -11    1    1    2    0    0  0.66744897291E+02 -0.46705341874E+01  0.54800236778E+02  0.86485612415E+02  0.00000000000E+00 0.  1.
         11    1    1    2    0    0 -0.22934719224E+02  0.18427485177E+02  0.49685496946E+00  0.29424826604E+02  0.00000000000E+00 0. -1.
</event>
<event>
 7    1  0.2794945E-009  0.1010640E+03  0.7561462E-02  0.1278074E+00
         -2   -1    0    0    0  501 -0.00000000000E+00  0.00000000000E+00  0.65304480695E+02  0.65304480695E+02  0.00000000000E+00 0. -1.
          2   -1    0    0  501    0  0.00000000000E+00 -0.00000000000E+00 -0.23960980186E+03  0.23960980186E+03  0.00000000000E+00 0.  1.
         25    2    1    2    0    0  0.34263588597E+02 -0.45375044209E+02 -0.68234651614E+02  0.15341921238E+03  0.12509436000E+03 0.  0.
          5    1    3    3  502    0  0.72803281483E+02 -0.46007042993E+02 -0.14930552868E+02  0.87506340390E+02  0.41800000000E+01 0. -1.
         -5    1    3    3    0  502 -0.38539692886E+02  0.63199878358E+00 -0.53304098746E+02  0.65912871985E+02  0.41800000000E+01 0. -1.
        -11    1    1    2    0    0 -0.44294342404E+02  0.17704919561E+02 -0.11176330696E+03  0.12151744619E+03  0.00000000000E+00 0.  1.
         11    1    1    2    0    0  0.10030753807E+02  0.27670124648E+02  0.56926374014E+01  0.29977623998E+02  0.00000000000E+00 0. -1.
</event>
<event>
 7    1  0.2794945E-009  0.1032853E+03  0.7561462E-02  0.1273535E+00
         -3   -1    0    0    0  501 -0.00000000000E+00  0.00000000000E+00  0.60421608384E+03  0.60421608384E+03  0.00000000000E+00 0.  1.
          3   -1    0    0  501    0  0.00000000000E+00 -0.00000000000E+00 -0.26061156370E+02  0.26061156370E+02  0.00000000000E+00 0. -1.
         25    2    1    2    0    0 -0.51927395982E+02 -0.33006742631E+02  0.34474738861E+03  0.37186603306E+03  0.12509070741E+03 0.  0.
          5    1    3    3  502    0 -0.47905330374E+02 -0.57036839256E+02  0.94490779813E+02  0.12039145144E+03  0.41800000000E+01 0. -1.
         -5    1    3    3    0  502 -0.40220656081E+01  0.24030096625E+02  0.25025660880E+03  0.25147458162E+03  0.41800000000E+01 0. -1.
        -11    1    1    2    0    0  0.14697319734E+02  0.59670558250E+02  0.16517135255E+03  0.17623326143E+03  0.00000000000E+00 0.  1.
         11    1    1    2    0    0  0.37230076248E+02 -0.26663815619E+02  0.68236186313E+02  0.82177945723E+02  0.00000000000E+00 0. -1.
</event>
<event>
 7    1  0.3299767E-009  0.1552953E+03  0.7561462E-02  0.1194113E+00
          1   -1    0    0  501    0  0.00000000000E+00  0.00000000000E+00  0.21697120699E+03  0.21697120699E+03  0.00000000000E+00 0. -1.
         -1   -1    0    0    0  501 -0.00000000000E+00 -0.00000000000E+00 -0.12119006668E+03  0.12119006668E+03  0.00000000000E+00 0.  1.
         25    2    1    2    0    0  0.30482450353E+02  0.11500595909E+03  0.34525094498E+02  0.17604319848E+03  0.12507467839E+03 0.  0.
          5    1    3    3  502    0 -0.25935531397E+02  0.10142704620E+03 -0.63093019533E+01  0.10496369459E+03  0.41800000000E+01 0. -1.
         -5    1    3    3    0  502  0.56417981750E+02  0.13578912886E+02  0.40834396451E+02  0.71079503891E+02  0.41800000000E+01 0. -1.
        -11    1    1    2    0    0 -0.49922729586E+02 -0.25526282809E+02  0.37711583600E+02  0.67572432108E+02  0.00000000000E+00 0. -1.
         11    1    1    2    0    0  0.19440279233E+02 -0.89479676281E+02  0.23544462212E+02  0.94545643077E+02  0.00000000000E+00 0.  1.
</event>
<event>
 7    1  0.2794945E-009  0.1730836E+03  0.7561462E-02  0.1174670E+00
          1   -1    0    0  501    0  0.00000000000E+00  0.00000000000E+00  0.98604168946E+03  0.98604168946E+03  0.00000000000E+00 0. -1.
         -1   -1    0    0    0  501 -0.00000000000E+00 -0.00000000000E+00 -0.39426355955E+02  0.39426355955E+02  0.00000000000E+00 0.  1.
         25    2    1    2    0    0  0.12928580941E+03 -0.70148155690E+02  0.30637637032E+03  0.36214799595E+03  0.12509638852E+03 0.  0.
          5    1    3    3  502    0  0.60253878572E+01 -0.51046340597E+02  0.31922566222E+02  0.60651107338E+02  0.41800000000E+01 0.  1.
         -5    1    3    3    0  502  0.12326042155E+03 -0.19101815094E+02  0.27445380410E+03  0.30149688861E+03  0.41800000000E+01 0.  1.
        -11    1    1    2    0    0 -0.14080198901E+03  0.55943777637E+02  0.60420930952E+03  0.62291556095E+03  0.00000000000E+00 0. -1.
         11    1    1    2    0    0  0.11516179603E+02  0.14204378053E+02  0.36029653675E+02  0.40404488519E+02  0.00000000000E+00 0.  1.
</event>
<event>
 7    1  0.2794945E-009  0.1070547E+03  0.7561462E-02  0.1266123E+00
         -1   -1    0    0    0  501 -0.00000000000E+00  0.00000000000E+00  0.51350566761E+03  0.51350566761E+03  0.00000000000E+00 0.  1.
          1   -1    0    0  501    0  0.00000000000E+00 -0.00000000000E+00 -0.23253606361E+02  0.23253606361E+02  0.00000000000E+00 0. -1.
         25    2    1    2    0    0  0.50987445036E+00 -0.17673500876E+02  0.24487648138E+03  0.27554416898E+03  0.12508990896E+03 0.  0.
          5    1    3    3  502    0 -0.61902075016E+02 -0.13036367233E+02  0.11511224739E+03  0.13141581207E+03  0.41800000000E+01 0.  1.
         -5    1    3    3    0  502  0.62411949466E+02 -0.46371336429E+01  0.12976423399E+03  0.14412835691E+03  0.41800000000E+01 0.  1.
        -11    1    1    2    0    0  0.35529024898E+02  0.33311300443E+02  0.11099751694E+03  0.12121222345E+03  0.00000000000E+00 0.  1.
         11    1    1    2    0    0 -0.36038899348E+02 -0.15637799567E+02  0.13437806294E+03  0.14000288154E+03  0.00000000000E+00 0. -1.
</event>
<event>
 7    1  0.2794945E-009  0.8791071E+02  0.7561462E-02  0.1307992E+00
         -2   -1    0    0    0  501 -0.00000000000E+00  0.00000000000E+00  0.18907916877E+02  0.18907916877E+02  0.00000000000E+00 0.  1.
          2   -1    0    0  501    0  0.00000000000E+00 -0.00000000000E+00 -0.98892314762E+03  0.98892314762E+03  0.00000000000E+00 0. -1.
         25    2    1    2    0    0 -0.42673776284E+02 -0.22652472294E+01 -0.79296603027E+03  0.80390863916E+03  0.12509113651E+03 0.  0.
          5    1    3    3  502    0  0.56696382015E+01  0.24620502522E+02 -0.65078571578E+03  0.65128936289E+03  0.41800000000E+01 0. -1.
         -5    1    3    3    0  502 -0.48343414486E+02 -0.26885749752E+02 -0.14218031449E+03  0.15261927628E+03  0.41800000000E+01 0. -1.
        -11    1    1    2    0    0 -0.25042464120E+02  0.91763102140E+01 -0.87284079294E+02  0.91267958105E+02  0.00000000000E+00 0. -1.
         11    1    1    2    0    0  0.67716240405E+02 -0.69110629846E+01 -0.89765121178E+02  0.11265446723E+03  0.00000000000E+00 0.  1.
</event>
<event>
 7    1  0.2794945E-009  0.1182987E+03  0.7561462E-02  0.1245930E+00
         -1   -1    0    0    0  501 -0.00000000000E+00  0.00000000000E+00  0.20678399701E+03  0.20678399701E+03  0.00000000000E+00 0.  1.
          1   -1    0    0  501    0  0.00000000000E+00 -0.00000000000E+00 -0.11541517377E+03  0.11541517377E+03  0.00000000000E+00 0. -1.
         25    2    1    2    0    0 -0.64657045468E+02 -0.79807077961E+02  0.88562554193E+02  0.18450951525E+03  0.12510288563E+03 0.  0.
          5    1    3    3  502    0 -0.51446849592E+02 -0.54423446273E+02 -0.15423517235E+02  0.76577066548E+02  0.41800000000E+01 0.  1.
         -5    1    3    3    0  502 -0.13210195876E+02 -0.25383631688E+02  0.10398607143E+03  0.10793244871E+03  0.41800000000E+01 0.  1.
        -11    1    1    2    0    0 -0.14408674212E+02 -0.63386484243E+01  0.12863266095E+02  0.20328599830E+02  0.00000000000E+00 0.  1.
         11    1    1    2    0    0  0.79065719680E+02  0.86145726386E+02 -0.10056997052E+02  0.11736105569E+03  0.00000000000E+00 0. -1.
</event>
<event>
 7    1  0.2794945E-009  0.1036359E+03  0.7561462E-02  0.1272831E+00
          1   -1    0    0  501    0  0.00000000000E+00  0.00000000000E+00  0.84824259448E+02  0.84824259448E+02  0.00000000000E+00 0. -1.
         -1   -1    0    0    0  501 -0.00000000000E+00 -0.00000000000E+00 -0.22031308307E+03  0.22031308307E+03  0.00000000000E+00 0.  1.
         25    2    1    2    0    0 -0.21771697645E+02 -0.80110550639E+02 -0.62380866839E+02  0.16257405728E+03  0.12508894600E+03 0.  0.
          5    1    3    3  502    0  0.13602426646E+02 -0.85999662266E+02  0.37283042050E+01  0.87248728201E+02  0.41800000000E+01 0.  1.
         -5    1    3    3    0  502 -0.35374124291E+02  0.58891116271E+01 -0.66109171044E+02  0.75325329082E+02  0.41800000000E+01 0.  1.
        -11    1    1    2    0    0  0.18081615034E+02  0.42217049702E+02  0.13572611820E+02  0.47889872410E+02  0.00000000000E+00 0. -1.
         11    1    1    2    0    0  0.36900826109E+01  0.37893500937E+02 -0.86680568604E+02  0.94673412828E+02  0.00000000000E+00 0.  1.
</event>
<event>
 7    1  0.2794945E-009  0.1294098E+03  0.7561462E-02  0.1228334E+00
         -1   -1    0    0    0  501 -0.00000000000E+00  0.00000000000E+00  0.45187894605E+02  0.45187894605E+02  0.00000000000E+00 0. -1.
          1   -1    0    0  501    0  0.00000000000E+00 -0.00000000000E+00 -0.44517762072E+03  0.44517762072E+03  0.00000000000E+00 0.  1.
         25    2    1    2    0    0  0.43115999050E+01  0.86652090793E+02 -0.26952913230E+03  0.30954929159E+03  0.12509051136E+03 0.  0.
          5    1    3    3  502    0 -0.48060245076E+02  0.13961416577E+02 -0.43739179886E+02  0.66598022243E+02  0.41800000000E+01 0. -1.
         -5    1    3    3    0  502  0.52371844981E+02  0.72690674217E+02 -0.22578995241E+03  0.24295126934E+03  0.41800000000E+01 0. -1.
        -11    1    1    2    0    0  0.38510263204E+02 -0.38137882978E+02 -0.88223693870E+02  0.10354206223E+03  0.00000000000E+00 0.  1.
         11    1    1    2    0    0 -0.42821863109E+02 -0.48514207816E+02 -0.42236899943E+02  0.77274161509E+02  0.00000000000E+00 0. -1.
</event>
<event>
 7    1  0.3702812E-009  0.1480664E+03  0.7561462E-02  0.1202869E+00
         -1   -1    0    0    0  501 -0.00000000000E+00  0.00000000000E+00  0.19993657008E+03  0.19993657008E+03  0.00000000000E+00 0.  1.
          1   -1    0    0  501    0  0.00000000000E+00 -0.00000000000E+00 -0.13245535657E+03  0.13245535657E+03  0.00000000000E+00 0. -1.
         25    2    1    2    0    0  0.45217874060E+02  0.10756712014E+03  0.67798475178E+02  0.18401136806E+03  0.12509280104E+03 0.  0.
          5    1    3    3  502    0  0.78448263806E+02  0.35430885354E+02  0.57996263486E+02  0.10387741193E+03  0.41800000000E+01 0. -1.
         -5    1    3    3    0  502 -0.33230389746E+02  0.72136234782E+02  0.98022116919E+01  0.80133956132E+02  0.41800000000E+01 0. -1.
        -11    1    1    2    0    0 -0.57623028440E+02 -0.68940236492E+02  0.33167216776E+02  0.95777000803E+02  0.00000000000E+00 0.  1.
         11    1    1    2    0    0  0.12405154380E+02 -0.38626883644E+02 -0.33484478446E+02  0.52603557789E+02  0.00000000000E+00 0. -1.
</event>
<event>
 7    1  0.2794945E-009  0.1762978E+03  0.7561462E-02  0.1171435E+00
          1   -1    0    0  501    0  0.00000000000E+00  0.00000000000E+00  0.12866391374E+04  0.12866391374E+04  0.00000000000E+00 0. -1.
         -1   -1    0    0    0  501 -0.00000000000E+00 -0.00000000000E+00 -0.26581928480E+02  0.26581928480E+02  0.00000000000E+00 0.  1.
         25    2    1    2    0    0  0.79488890539E+02 -0.12394190389E+03  0.75094804476E+03  0.77540359941E+03  0.12509075425E+03 0.  0.
          5    1    3    3  502    0  0.84033796507E+02 -0.19657318073E+02  0.28098402489E+03  0.29396867818E+03  0.41800000000E+01 0.  1.
         -5    1    3    3    0  502 -0.45449059681E+01 -0.10428458582E+03  0.46996401986E+03  0.48143492123E+03  0.41800000000E+01 0.  1.
        -11    1    1    2    0    0 -0.84637222112E+01  0.74986232456E+02  0.14307598221E+03  0.16175693598E+03  0.00000000000E+00 0.  1.
         11    1    1    2    0    0 -0.71025168327E+02  0.48955671436E+02  0.36603318198E+03  0.37606053051E+03  0.00000000000E+00 0. -1.
</event>
<event>
 7    1  0.2794945E-009  0.8840814E+02  0.7561462E-02  0.1306753E+00
          3   -1    0    0  501    0  0.00000000000E+00  0.00000000000E+00  0.20035223517E+02  0.20035223517E+02  0.00000000000E+00 0. -1.
         -3   -1    0    0    0  501 -0.00000000000E+00 -0.00000000000E+00 -0.52051719881E+03  0.52051719881E+03  0.00000000000E+00 0.  1.
         25    2    1    2    0    0 -0.20877400003E+02 -0.24636930299E+02 -0.33708731101E+03  0.36099963793E+03  0.12510011661E+03 0.  0.
          5    1    3    3  502    0 -0.22264516260E+02 -0.63705559134E+02 -0.29794684411E+03  0.30552234168E+03  0.41800000000E+01 0. -1.
         -5    1    3    3    0  502  0.13871162561E+01  0.39068628835E+02 -0.39140466904E+02  0.55477296257E+02  0.41800000000E+01 0. -1.
        -11    1    1    2    0    0  0.15041814958E+02 -0.19913341193E+02 -0.31332099905E+02  0.40056183532E+02  0.00000000000E+00 0. -1.
         11    1    1    2    0    0  0.58355850454E+01  0.44550271492E+02 -0.13206256438E+03  0.13949660086E+03  0.00000000000E+00 0.  1.
</event>
<event>
 7    1  0.2794945E-009  0.1214594E+03  0.7561462E-02  0.1240709E+00
         -1   -1    0    0    0  501 -0.00000000000E+00  0.00000000000E+00  0.14767447425E+03  0.14767447425E+03  0.00000000000E+00 0.  1.
          1   -1    0    0  501    0  0.00000000000E+00 -0.00000000000E+00 -0.18475162777E+03  0.18475162777E+03  0.00000000000E+00 0. -1.
         25    2    1    2    0    0  0.74886880514E+02 -0.88720905008E+02 -0.64129712550E+02  0.18231361005E+03  0.12508472536E+03 0.  0.
          5    1    3    3  502    0  0.62179503683E+02 -0.42332100246E+02  0.26305561276E+02  0.79798197621E+02  0.41800000000E+01 0. -1.
         -5    1    3    3    0  502  0.12707376832E+02 -0.46388804762E+02 -0.90435273827E+02  0.10251541243E+03  0.41800000000E+01 0. -1.
        -11    1    1    2    0    0 -0.45621154464E+02  0.32808088305E+02  0.57189858746E+02  0.80176931447E+02  0.00000000000E+00 0.  1.
         11    1    1    2    0    0 -0.29265726051E+02  0.55912816703E+02 -0.30137299715E+02  0.69935560533E+02  0.00000000000E+00 0. -1.
</event>
<event>
 7    1  0.2794945E-009  0.1241611E+03  0.7561462E-02  0.1236386E+00
          1   -1    0    0  501    0  0.00000000000E+00  0.00000000000E+00  0.16051016902E+03  0.16051016902E+03  0.00000000000E+00 0. -1.
         -1   -1    0    0    0  501 -0.00000000000E+00 -0.00000000000E+00 -0.16044751073E+03  0.16044751073E+03  0.00000000000E+00 0.  1.
         25    2    1    2    0    0 -0.24705239829E+01 -0.10980485771E+03  0.37605593610E+02  0.17066410079E+03  0.12509534108E+03 0.  0.
          5    1    3    3  502    0 -0.15716423073E+00 -0.47721931589E+01 -0.39673319285E+02  0.40177645417E+02  0.41800000000E+01 0. -1.
         -5    1    3    3    0  502 -0.23133597522E+01 -0.10503266455E+03  0.77278912895E+02  0.13048645537E+03  0.41800000000E+01 0. -1.
        -11    1    1    2    0    0  0.41414593037E+02  0.44423652029E+02  0.85336734786E+01  0.61330685298E+02  0.00000000000E+00 0.  1.
         11    1    1    2    0    0 -0.38944069054E+02  0.65381205682E+02 -0.46076608805E+02  0.88962893669E+02  0.00000000000E+00 0. -1.
</event>
<event>
 7    1  0.2794945E-009  0.1764661E+03  0.7561462E-02  0.1171268E+00
          1   -1    0    0  501    0  0.00000000000E+00  0.00000000000E+00  0.35706745645E+03  0.35706745645E+03  0.00000000000E+00 0. -1.
         -1   -1    0    0    0  501 -0.00000000000E+00 -0.00000000000E+00 -0.98549490471E+02  0.98549490471E+02  0.00000000000E+00 0.  1.
         25    2    1    2    0    0  0.13523424416E+03 -0.71033900273E+02  0.13630390157E+03  0.23991795081E+03  0.12509098192E+03 0.  0.
          5    1    3    3  502    0  0.10849525414E+02 -0.51269319489E+02  0.92706151252E+02  0.10657466023E+03  0.41800000000E+01 0.  1.
         -5    1    3    3    0  502  0.12438471874E+03 -0.19764580784E+02  0.43597750315E+02  0.13334329058E+03  0.41800000000E+01 0.  1.
        -11    1    1    2    0    0 -0.10437224480E+03  0.86303242906E+01  0.93494652069E+02  0.14038980714E+03  0.00000000000E+00 0.  1.
         11    1    1    2    0    0 -0.30861999354E+02  0.62403575982E+02  0.28719412345E+02  0.75309188981E+02  0.00000000000E+00 0. -1.
</event>
<event>
 7    1  0.2794945E-009  0.1307721E+03  0.7561462E-02  0.1226314E+00
         -1   -1    0    0    0  501 -0.00000000000E+00  0.00000000000E+00  0.30455784416E+03  0.30455784416E+03  0.00000000000E+00 0.  1.
          1   -1    0    0  501    0  0.00000000000E+00 -0.00000000000E+00 -0.68220023891E+02  0.68220023891E+02  0.00000000000E+00 0. -1.
         25    2    1    2    0    0 -0.81487501348E+02 -0.43581831059E+02  0.13100905403E+03  0.20335707861E+03  0.12510451753E+03 0.  0.
          5    1    3    3  502    0 -0.60279446900E+02 -0.71457551529E+02  0.33057579636E+02  0.99247515639E+02  0.41800000000E+01 0.  1.
         -5    1    3    3    0  502 -0.21208054448E+02  0.27875720469E+02  0.97951474395E+02  0.10410956297E+03  0.41800000000E+01 0.  1.
        -11    1    1    2    0    0  0.84148591215E+02  0.67961131670E+02  0.86687757437E+02  0.13861626207E+03  0.00000000000E+00 0.  1.
         11    1    1    2    0    0 -0.26610898666E+01 -0.24379300611E+02  0.18641008803E+02  0.30804527374E+02  0.00000000000E+00 0. -1.
</event>
<event>
 7    1  0.3198237E-009  0.2492434E+03  0.7561462E-02  0.1113784E+00
         -1   -1    0    0    0  501 -0.00000000000E+00  0.00000000000E+00  0.22761583717E+03  0.22761583717E+03  0.00000000000E+00 0.  1.
          1   -1    0    0  501    0  0.00000000000E+00 -0.00000000000E+00 -0.33083808415E+03  0.33083808415E+03  0.00000000000E+00 0. -1.
         25    2    1    2    0    0  0.92905202281E+01  0.23334273023E+03  0.42562820534E+02  0.26831622885E+03  0.12508741525E+03 0.  0.
          5    1    3    3  502    0  0.59354903230E+02  0.18802376204E+03  0.33864326931E+02  0.20010048643E+03  0.41800000000E+01 0.  1.
         -5    1    3    3    0  502 -0.50064383002E+02  0.45318968183E+02  0.86984936035E+01  0.68215742417E+02  0.41800000000E+01 0.  1.
        -11    1    1    2    0    0 -0.17404317287E+01 -0.12335439302E+03 -0.12921876247E+03  0.17865280282E+03  0.00000000000E+00 0. -1.
         11    1    1    2    0    0 -0.75500884994E+01 -0.10998833720E+03 -0.16566305044E+02  0.11148488965E+03  0.00000000000E+00 0.  1.
</event>
<event>
 7    1  0.2794945E-009  0.1105673E+03  0.7561462E-02  0.1259523E+00
         -2   -1    0    0    0  501 -0.00000000000E+00  0.00000000000E+00  0.84021457708E+02  0.84021457708E+02  0.00000000000E+00 0.  1.
          2   -1    0    0  501    0  0.00000000000E+00 -0.00000000000E+00 -0.16183445971E+03  0.16183445971E+03  0.00000000000E+00 0. -1.
         25    2    1    2    0    0  0.53465993668E+02  0.40570655166E+01 -0.42066597824E+02  0.14244946387E+03  0.12508868392E+03 0.  0.
          5    1    3    3  502    0  0.38320633907E+02  0.57144753424E+02 -0.51815203109E+02  0.86233876755E+02  0.41800000000E+01 0.  1.
         -5    1    3    3    0  502  0.15145359761E+02 -0.53087687908E+02  0.97486052854E+01  0.56215587115E+02  0.41800000000E+01 0.  1.
        -11    1    1    2    0    0  0.79916104408E+01 -0.29322188119E+02 -0.14258648082E+02  0.33570308290E+02  0.00000000000E+00 0. -1.
         11    1    1    2    0    0 -0.61457604109E+02  0.25265122603E+02 -0.21487756100E+02  0.69836145262E+02  0.00000000000E+00 0.  1.
</event>
<event>
 7    1  0.2794945E-009  0.1597635E+03  0.7561462E-02  0.1188964E+00
         -1   -1    0    0    0  501 -0.00000000000E+00  0.00000000000E+00  0.19432312418E+03  0.19432312418E+03  0.00000000000E+00 0.  1.
          1   -1    0    0  501    0  0.00000000000E+00 -0.00000000000E+00 -0.29861497405E+03  0.29861497405E+03  0.00000000000E+00 0. -1.
         25    2    1    2    0    0 -0.13472739724E+03 -0.12949887104E+02  0.11683178090E+03  0.21820919510E+03  0.12508563728E+03 0.  0.
          5    1    3    3  502    0 -0.25634654052E+02  0.51255119688E+02  0.41025899157E+02  0.70603254771E+02  0.41800000000E+01 0. -1.
         -5    1    3    3    0  502 -0.10909274318E+03 -0.64205006791E+02  0.75805881744E+02  0.14760594033E+03  0.41800000000E+01 0. -1.
        -11    1    1    2    0    0  0.69020256784E+02  0.45212812758E+01 -0.35722599922E+02  0.77848198284E+02  0.00000000000E+00 0.  1.
         11    1    1    2    0    0  0.65707140453E+02  0.84286058277E+01 -0.18540103085E+03  0.19688070485E+03  0.00000000000E+00 0. -1.
</event>
<event>
 7    1  0.2794945E-009  0.2016815E+03  0.7561462E-02  0.1148328E+00
         -3   -1    0    0    0  501 -0.00000000000E+00  0.00000000000E+00  0.44302117173E+02  0.44302117173E+02  0.00000000000E+00 0.  1.
          3   -1    0    0  501    0  0.00000000000E+00 -0.00000000000E+00 -0.10620232661E+04  0.10620232661E+04  0.00000000000E+00 0. -1.
         25    2    1    2    0    0  0.14635025886E+03 -0.10825694456E+03 -0.55119099548E+03  0.59379875836E+03  0.12508991813E+03 0.  0.
          5    1    3    3  502    0  0.35836176835E+02  0.16472936457E+02 -0.40911617030E+02  0.56980891653E+02  0.41800000000E+01 0.  1.
         -5    1    3    3    0  502  0.11051408203E+03 -0.12472988102E+03 -0.51027937845E+03  0.53681786671E+03  0.41800000000E+01 0.  1.
        -11    1    1    2    0    0 -0.80085096351E+02  0.10308247265E+03 -0.38946118189E+03  0.41075495252E+03  0.00000000000E+00 0. -1.
         11    1    1    2    0    0 -0.66265162510E+02  0.51744719122E+01 -0.77068971526E+02  0.10177167236E+03  0.00000000000E+00 0.  1.
</event>
<event>
 7    1  0.2794945E-009  0.7261923E+02  0.7561462E-02  0.1351406E+00
         -2   -1    0    0    0  501 -0.00000000000E+00  0.00000000000E+00  0.24569408490E+02  0.24569408490E+02  0.00000000000E+00 0.  1.
          2   -1    0    0  501    0  0.00000000000E+00 -0.00000000000E+00 -0.50832501002E+03  0.50832501002E+03  0.00000000000E+00 0. -1.
         25    2    1    2    0    0 -0.20586461116E+02  0.18755104562E+02 -0.27623084480E+03  0.30451074075E+03  0.12509098802E+03 0.  0.
          5    1    3    3  502    0  0.23981108343E+02 -0.73653143749E+01 -0.20948135002E+01  0.25518660953E+02  0.41800000000E+01 0. -1.
         -5    1    3    3    0  502 -0.44567569459E+02  0.26120418937E+02 -0.27413603130E+03  0.27899207979E+03  0.41800000000E+01 0. -1.
        -11    1    1    2    0    0 -0.22885527639E+01 -0.38010107117E+02 -0.18989020437E+03  0.19367058484E+03  0.00000000000E+00 0. -1.
         11    1    1    2    0    0  0.22875013880E+02  0.19255002554E+02 -0.17634552368E+02  0.34713092927E+02  0.00000000000E+00 0.  1.
</event>
<event>
 7    1  0.2794945E-009  0.1491183E+03  0.7561462E-02  0.1201561E+00
         -2   -1    0    0    0  501 -0.00000000000E+00  0.00000000000E+00  0.12866499309E+04  0.12866499309E+04  0.00000000000E+00 0.  1.
          2   -1    0    0  501    0  0.00000000000E+00 -0.00000000000E+00 -0.21696454706E+02  0.21696454706E+02  0.00000000000E+00 0. -1.
         25    2    1    2    0    0  0.89179492046E+02  0.83114347686E+02  0.79238209645E+03  0.81140544757E+03  0.12509371280E+03 0.  0.
          5    1    3    3  502    0  0.61986218492E+02 -0.72133609457E+00  0.14110015151E+03  0.15417372268E+03  0.41800000000E+01 0. -1.
         -5    1    3    3    0  502  0.27193273554E+02  0.83835683780E+02  0.65128194494E+03  0.65723172489E+03  0.41800000000E+01 0. -1.
        -11    1    1    2    0    0 -0.75489522219E+02 -0.13207767591E+02  0.31206426612E+03  0.32133661366E+03  0.00000000000E+00 0.  1.
         11    1    1    2    0    0 -0.13689969827E+02 -0.69906580095E+02  0.16050711362E+03  0.17560432437E+03  0.00000000000E+00 0. -1.
</event>
<event>
 7    1  0.2794945E-009  0.1083973E+03  0.7561462E-02  0.1263567E+00
         -2   -1    0    0    0  501 -0.00000000000E+00  0.00000000000E+00  0.16338620475E+02  0.16338620475E+02  0.00000000000E+00 0.  1.
          2   -1    0    0  501    0  0.00000000000E+00 -0.00000000000E+00 -0.10700532291E+04  0.10700532291E+04  0.00000000000E+00 0. -1.
         25    2    1    2    0    0  0.34765558697E+02  0.60350266205E+02 -0.72558779413E+03  0.73957600656E+03  0.12507687153E+03 0.  0.
          5    1    3    3  502    0 -0.10742167850E+02  0.57718792961E+02 -0.63835287620E+03  0.64106062130E+03  0.41800000000E+01 0.  1.
         -5    1    3    3    0  502  0.45507726547E+02  0.26314732446E+01 -0.87234917927E+02  0.98515385259E+02  0.41800000000E+01 0.  1.
        -11    1    1    2    0    0 -0.15315764636E+02  0.22411286140E+02 -0.87346243443E+02  0.91466959261E+02  0.00000000000E+00 0. -1.
         11    1    1    2    0    0 -0.19449794061E+02 -0.82761552346E+02 -0.24078057101E+03  0.25534888371E+03  0.00000000000E+00 0.  1.
</event>
<event>
 7    1  0.2794945E-009  0.1577805E+03  0.7561462E-02  0.1191226E+00
         -1   -1    0    0    0  501 -0.00000000000E+00  0.00000000000E+00  0.50778671805E+02  0.50778671805E+02  0.00000000000E+00 0.  1.
          1   -1    0    0  501    0  0.00000000000E+00 -0.00000000000E+00 -0.64077345167E+03  0.64077345167E+03  0.00000000000E+00 0. -1.
         25    2    1    2    0    0 -0.12488841325E+03 -0.41899408509E+02 -0.20025841290E+03  0.27037643749E+03  0.12508920742E+03 0.  0.
          5    1    3    3  502    0 -0.97472563274E+02  0.90029112141E+01 -0.18669765127E+03  0.21084458350E+03  0.41800000000E+01 0. -1.
         -5    1    3    3    0  502 -0.27415849980E+02 -0.50902319723E+02 -0.13560761632E+02  0.59531853989E+02  0.41800000000E+01 0. -1.
        -11    1    1    2    0    0  0.72739813536E+02 -0.23067504109E+02 -0.19172475547E+03  0.20635302779E+03  0.00000000000E+00 0.  1.
         11    1    1    2    0    0  0.52148599717E+02  0.64966912618E+02 -0.19801161149E+03  0.21482265819E+03  0.00000000000E+00 0. -1.
</event>
<event>
 7    1  0.2794945E-009  0.9935905E+02  0.7561462E-02  0.1281650E+00
         -2   -1    0    0    0  501 -0.00000000000E+00  0.00000000000E+00  0.22664733215E+02  0.22664733215E+02  0.00000000000E+00 0.  1.
          2   -1    0    0  501    0  0.00000000000E+00 -0.00000000000E+00 -0.82164783740E+03  0.82164783740E+03  0.00000000000E+00 0. -1.
         25    2    1    2    0    0 -0.32433001456E+00 -0.63323222750E+02 -0.26937813148E+03  0.30368264405E+03  0.12509450367E+03 0.  0.
          5    1    3    3  502    0  0.31797659692E+02 -0.40914656766E+02 -0.27874004891E+02  0.58987565205E+02  0.41800000000E+01 0. -1.
         -5    1    3    3    0  502 -0.32121989706E+02 -0.22408565984E+02 -0.24150412659E+03  0.24469507885E+03  0.41800000000E+01 0. -1.
        -11    1    1    2    0    0  0.42032528957E+02  0.17925954023E+02 -0.18542911564E+03  0.19097651752E+03  0.00000000000E+00 0.  1.
         11    1    1    2    0    0 -0.41708198943E+02  0.45397268728E+02 -0.34417585707E+03  0.34965340905E+03  0.00000000000E+00 0. -1.
</event>
<event>
 7    1  0.2794945E-009  0.8968961E+02  0.7561462E-02  0.1303605E+00
         -2   -1    0    0    0  501 -0.00000000000E+00  0.00000000000E+00  0.15654678252E+03  0.15654678252E+03  0.00000000000E+00 0. -1.
          2   -1    0    0  501    0  0.00000000000E+00 -0.00000000000E+00 -0.10099784473E+03  0.10099784473E+03  0.00000000000E+00 0.  1.
         25    2    1    2    0    0 -0.19198260727E+02 -0.54936317634E+02  0.32237176369E+01  0.13800085658E+03  0.12508905568E+03 0.  0.
          5    1    3    3  502    0 -0.46062987320E+02 -0.29954986410E+02 -0.49204675806E+02  0.73876061974E+02  0.41800000000E+01 0.  1.
         -5    1    3    3    0  502  0.26864726593E+02 -0.24981331225E+02  0.52428393443E+02  0.64124794609E+02  0.41800000000E+01 0.  1.
        -11    1    1    2    0    0  0.14698967436E+02 -0.12785050752E+02 -0.14508780863E+02  0.24290366167E+02  0.00000000000E+00 0.  1.
         11    1    1    2    0    0  0.44992932903E+01  0.67721368386E+02  0.66834001022E+02  0.95253404499E+02  0.00000000000E+00 0. -1.
</event>
<event>
 7    1  0.2794945E-009  0.1202138E+03  0.7561462E-02  0.1242745E+00
          2   -1    0    0  501    0  0.00000000000E+00  0.00000000000E+00  0.12454321191E+03  0.12454321191E+03  0.00000000000E+00 0.  1.
         -2   -1    0    0    0  501 -0.00000000000E+00 -0.00000000000E+00 -0.12949395933E+03  0.12949395933E+03  0.00000000000E+00 0. -1.
         25    2    1    2    0    0  0.43302846090E+02  0.46089225847E+02 -0.24711320489E+02  0.14232793193E+03  0.12508891889E+03 0.  0.
          5    1    3    3  502    0 -0.31583687044E+02  0.48239212823E+02 -0.33444656584E+02  0.66787486815E+02  0.41800000000E+01 0. -1.
         -5    1    3    3    0  502  0.74886533133E+02 -0.21499869760E+01  0.87333360946E+01  0.75540445114E+02  0.41800000000E+01 0. -1.
        -11    1    1    2    0    0 -0.40945394529E+02  0.17083789184E+02  0.19572692755E+02  0.48491973436E+02  0.00000000000E+00 0.  1.
         11    1    1    2    0    0 -0.23574515609E+01 -0.63173015030E+02  0.18788031252E+00  0.63217265877E+02  0.00000000000E+00 0. -1.
</event>
<event>
 7    1  0.2794945E-009  0.1433124E+03  0.7561462E-02  0.1208940E+00
         -2   -1    0    0    0  501 -0.00000000000E+00  0.00000000000E+00  0.14391567231E+03  0.14391567231E+03  0.00000000000E+00 0.  1.
          2   -1    0    0  501    0  0.00000000000E+00 -0.00000000000E+00 -0.17639427516E+03  0.17639427516E+03  0.00000000000E+00 0. -1.
         25    2    1    2    0    0 -0.52788781589E+01 -0.97902237633E+02 -0.80171811487E+02  0.17800970955E+03  0.12508885901E+03 0.  0.
          5    1    3    3  502    0 -0.11679536083E+02  0.28300958795E+02 -0.26297219826E+02  0.40575509885E+02  0.41800000000E+01 0. -1.
         -5    1    3    3    0  502  0.64006579241E+01 -0.12620319643E+03 -0.53874591661E+02  0.13743419966E+03  0.41800000000E+01 0. -1.
        -11    1    1    2    0    0  0.28618522048E+02 -0.26231186429E-01 -0.43910653708E+01  0.28953444482E+02  0.00000000000E+00 0. -1.
         11    1    1    2    0    0 -0.23339643889E+02  0.97928468819E+02  0.52084274008E+02  0.11334679343E+03  0.00000000000E+00 0.  1.
</event>
<event>
 7    1  0.2794945E-009  0.1001229E+03  0.7561462E-02  0.1280038E+00
         -2   -1    0    0    0  501 -0.00000000000E+00  0.00000000000E+00  0.48044026818E+02  0.48044026818E+02  0.00000000000E+00 0. -1.
          2   -1    0    0  501    0  0.00000000000E+00 -0.00000000000E+00 -0.52742657952E+03  0.52742657952E+03  0.00000000000E+00 0.  1.
         25    2    1    2    0    0  0.64633075201E+02 -0.23637687072E+02 -0.42689917029E+03  0.45014092080E+03  0.12509105614E+03 0.  0.
          5    1    3    3  502    0  0.41684288159E+02 -0.61357787807E+02 -0.12824213214E+03  0.14820888927E+03  0.41800000000E+01 0. -1.
         -5    1    3    3    0  502  0.22948787042E+02  0.37720100734E+02 -0.29865703815E+03  0.30193203153E+03  0.41800000000E+01 0. -1.
        -11    1    1    2    0    0 -0.20619366775E+02 -0.12963901087E+02  0.21014996195E+02  0.32169101366E+02  0.00000000000E+00 0. -1.
         11    1    1    2    0    0 -0.44013708426E+02  0.36601588160E+02 -0.73498378607E+02  0.93160584171E+02  0.00000000000E+00 0.  1.
</event>
<event>
 7    1  0.2794945E-009  0.1016140E+03  0.7561462E-02  0.1276938E+00
          1   -1    0    0  501    0  0.00000000000E+00  0.00000000000E+00  0.35262218202E+02  0.35262218202E+02  0.00000000000E+00 0. -1.
         -1   -1    0    0    0  501 -0.00000000000E+00 -0.00000000000E+00 -0.62086306424E+03  0.62086306424E+03  0.00000000000E+00 0.  1.
         25    2    1    2    0    0  0.81318500696E+02  0.24031774570E+02 -0.20006266581E+03  0.25072370252E+03  0.12508828887E+03 0.  0.
          5    1    3    3  502    0  0.76262058480E+02  0.26815177546E+02 -0.21739882715E+03  0.23197990808E+03  0.41800000000E+01 0.  1.
         -5    1    3    3    0  502  0.50564422165E+01 -0.27834029769E+01  0.17336161339E+02  0.18743794440E+02  0.41800000000E+01 0.  1.
        -11    1    1    2    0    0 -0.95702321754E+02 -0.12096932983E+02 -0.36543386579E+03  0.37795129374E+03  0.00000000000E+00 0.  1.
         11    1    1    2    0    0  0.14383821058E+02 -0.11934841587E+02 -0.20104314450E+02  0.27450286182E+02  0.00000000000E+00 0. -1.
</event>
<event>
 7    1  0.2794945E-009  0.1420452E+03  0.7561462E-02  0.1210603E+00
         -2   -1    0    0    0  501 -0.00000000000E+00  0.00000000000E+00  0.34231369711E+03  0.34231369711E+03  0.00000000000E+00 0. -1.
          2   -1    0    0  501    0  0.00000000000E+00 -0.00000000000E+00 -0.91501695239E+02  0.91501695239E+02  0.00000000000E+00 0.  1.
         25    2    1    2    0    0  0.11511068057E+03  0.35593363173E+02  0.21821634847E+03  0.27889920450E+03  0.12509610404E+03 0.  0.
          5    1    3    3  502    0  0.29391322468E+02 -0.31521808522E+02  0.13509033163E+03  0.14186029871E+03  0.41800000000E+01 0.  1.
         -5    1    3    3    0  502  0.85719358106E+02  0.67115171695E+02  0.83126016845E+02  0.13703890580E+03  0.41800000000E+01 0.  1.
        -11    1    1    2    0    0 -0.12169569554E+02 -0.25688127394E+02 -0.23843626547E+02  0.37101170319E+02  0.00000000000E+00 0.  1.
         11    1    1    2    0    0 -0.10294111102E+03 -0.99052357790E+01  0.56439279938E+02  0.11781501752E+03  0.00000000000E+00 0. -1.
</event>
<event>
 7    1  0.2794945E-009  0.1882378E+03  0.7561462E-02  0.1160060E+00
          1   -1    0    0  501    0  0.00000000000E+00  0.00000000000E+00  0.67917155116E+03  0.67917155116E+03  0.00000000000E+00 0. -1.
         -1   -1    0    0    0  501 -0.00000000000E+00 -0.00000000000E+00 -0.67714879410E+02  0.67714879410E+02  0.00000000000E+00 0.  1.
         25    2    1    2    0    0  0.97369318027E+02  0.15083564382E+03  0.40109758479E+03  0.45690219672E+03  0.12509264290E+03 0.  0.
          5    1    3    3  502    0  0.31320389152E+02  0.47850139122E+02  0.27183436281E+02  0.63458759826E+02  0.41800000000E+01 0.  1.
         -5    1    3    3    0  502  0.66048928875E+02  0.10298550469E+03  0.37391414851E+03  0.39344343690E+03  0.41800000000E+01 0.  1.
        -11    1    1    2    0    0  0.84481525207E+01 -0.49456782408E+02  0.33628714347E+02  0.60400621154E+02  0.00000000000E+00 0.  1.
         11    1    1    2    0    0 -0.10581747055E+03 -0.10137886141E+03  0.17673037262E+03  0.22958361270E+03  0.00000000000E+00 0. -1.
</event>
<event>
 7    1  0.2794945E-009  0.1872563E+03  0.7561462E-02  0.1160960E+00
         -2   -1    0    0    0  501 -0.00000000000E+00  0.00000000000E+00  0.20924216563E+02  0.20924216563E+02  0.00000000000E+00 0.  1.
          2   -1    0    0  501    0  0.00000000000E+00 -0.00000000000E+00 -0.18758978003E+04  0.18758978003E+04  0.00000000000E+00 0. -1.
         25    2    1    2    0    0  0.15236948196E+03 -0.40388926688E+02 -0.11846356509E+04  0.12016059366E+04  0.12508987671E+03 0.  0.
          5    1    3    3  502    0  0.84164584126E+02  0.35883673833E+02 -0.72108742391E+03  0.72688091225E+03  0.41800000000E+01 0. -1.
         -5    1    3    3    0  502  0.68204897833E+02 -0.76272600521E+02 -0.46354822696E+03  0.47472502440E+03  0.41800000000E+01 0. -1.
        -11    1    1    2    0    0 -0.13976606260E+03  0.16464266878E+01 -0.57076476679E+03  0.58763056590E+03  0.00000000000E+00 0. -1.
         11    1    1    2    0    0 -0.12603419356E+02  0.38742500000E+02 -0.99573166072E+02  0.10758551430E+03  0.00000000000E+00 0.  1.
</event>
<event>
 7    1  0.2794945E-009  0.3570154E+03  0.7561462E-02  0.1059772E+00
         -2   -1    0    0    0  501 -0.00000000000E+00  0.00000000000E+00  0.12802220845E+03  0.12802220845E+03  0.00000000000E+00 0.  1.
          2   -1    0    0  501    0  0.00000000000E+00 -0.00000000000E+00 -0.10251142371E+04  0.10251142371E+04  0.00000000000E+00 0. -1.
         25    2    1    2    0    0  0.31105682564E+03  0.15127884887E+03 -0.43543599185E+03  0.56999478639E+03  0.12509162490E+03 0.  0.
          5    1    3    3  502    0  0.13770104664E+02 -0.11852384082E+02 -0.73616956625E+00  0.18657683043E+02  0.41800000000E+01 0.  1.
         -5    1    3    3    0  502  0.29728672098E+03  0.16313123295E+03 -0.43469982228E+03  0.55133710335E+03  0.41800000000E+01 0.  1.
        -11    1    1    2    0    0 -0.36967748897E+00 -0.18308366175E+02 -0.24758763701E+02  0.30794955974E+02  0.00000000000E+00 0.  1.
         11    1    1    2    0    0 -0.31068714815E+03 -0.13297048269E+03 -0.43689727312E+03  0.55234670322E+03  0.00000000000E+00 0. -1.
</event>
<event>
 7    1  0.2815029E-009  0.1706727E+03  0.7561462E-02  0.1177148E+00
          2   -1    0    0  501    0  0.00000000000E+00  0.00000000000E+00  0.48528217596E+03  0.48528217596E+03  0.00000000000E+00 0. -1.
         -2   -1    0    0    0  501 -0.00000000000E+00 -0.00000000000E+00 -0.65316685355E+02  0.65316685355E+02  0.00000000000E+00 0.  1.
         25    2    1    2    0    0  0.15652496478E+02 -0.13977408209E+03  0.21982797729E+03  0.28940247482E+03  0.12509059981E+03 0.  0.
          5    1    3    3  502    0 -0.38028360517E+02 -0.12654275133E+03  0.16498127401E+03  0.21141314361E+03  0.41800000000E+01 0. -1.
         -5    1    3    3    0  502  0.53680856995E+02 -0.13231330761E+02  0.54846703288E+02  0.77989331213E+02  0.41800000000E+01 0. -1.
        -11    1    1    2    0    0 -0.29866689955E+02  0.13565189513E+03  0.13251450132E+03  0.19197278162E+03  0.00000000000E+00 0.  1.
         11    1    1    2    0    0  0.14214193477E+02  0.41221869616E+01  0.67623011987E+02  0.69223604874E+02  0.00000000000E+00 0. -1.
</event>
<event>
 7    1  0.2794945E-009  0.1351174E+03  0.7561462E-02  0.1220054E+00
          2   -1    0    0  501    0  0.00000000000E+00  0.00000000000E+00  0.74471815105E+03  0.74471815105E+03  0.00000000000E+00 0.  1.
         -2   -1    0    0    0  501 -0.00000000000E+00 -0.00000000000E+00 -0.30693954994E+02  0.30693954994E+02  0.00000000000E+00 0. -1.
         25    2    1    2    0    0  0.88988519890E+02 -0.15565523330E+02  0.53130682683E+03  0.55325934414E+03  0.12509082883E+03 0.  0.
          5    1    3    3  502    0 -0.17324803858E+02  0.32081676476E+02  0.15627701542E+03  0.16052837987E+03  0.41800000000E+01 0. -1.
         -5    1    3    3    0  502  0.10631332375E+03 -0.47647199806E+02  0.37502981141E+03  0.39273096427E+03  0.41800000000E+01 0. -1.
        -11    1    1    2    0    0  0.86513175865E+01  0.17256281838E+02  0.59416977549E+01  0.20197235729E+02  0.00000000000E+00 0. -1.
         11    1    1    2    0    0 -0.97639837477E+02 -0.16907585083E+01  0.17677567147E+03  0.20195552617E+03  0.00000000000E+00 0.  1.
</event>
<event>
 7    1  0.2794945E-009  0.1840769E+03  0.7561462E-02  0.1163915E+00
          3   -1    0    0  501    0  0.00000000000E+00  0.00000000000E+00  0.19018753412E+03  0.19018753412E+03  0.00000000000E+00 0. -1.
         -3   -1    0    0    0  501 -0.00000000000E+00 -0.00000000000E+00 -0.21257905423E+03  0.21257905423E+03  0.00000000000E+00 0.  1.
         25    2    1    2    0    0 -0.11295862051E+01 -0.16152627856E+03  0.38257934736E+02  0.20785319256E+03  0.12508903012E+03 0.  0.
          5    1    3    3  502    0 -0.38704162401E+02 -0.16012844921E+03  0.41330337927E+02  0.16989644395E+03  0.41800000000E+01 0. -1.
         -5    1    3    3    0  502  0.37574576196E+02 -0.13978293427E+01 -0.30724031909E+01  0.37956748604E+02  0.41800000000E+01 0. -1.
        -11    1    1    2    0    0  0.15510703720E+02  0.36236005073E+02  0.21015084381E+02  0.44668375447E+02  0.00000000000E+00 0. -1.
         11    1    1    2    0    0 -0.14381117515E+02  0.12529027348E+03 -0.81664539228E+02  0.15024502034E+03  0.00000000000E+00 0.  1.
</event>
<event>
 7    1  0.2794945E-009  0.1925128E+03  0.7561462E-02  0.1156214E+00
         -2   -1    0    0    0  501 -0.00000000000E+00  0.00000000000E+00  0.27778497475E+03  0.27778497475E+03  0.00000000000E+00 0.  1.
          2   -1    0    0  501    0  0.00000000000E+00 -0.00000000000E+00 -0.23856126353E+03  0.23856126353E+03  0.00000000000E+00 0. -1.
         25    2    1    2    0    0  0.37204661178E+02  0.15964161870E+03  0.18587597585E+03  0.27760571266E+03  0.12508165360E+03 0.  0.
          5    1    3    3  502    0  0.31679927084E+02 -0.10414964772E+02  0.16314800194E+02  0.37359528592E+02  0.41800000000E+01 0.  1.
         -5    1    3    3    0  502  0.55247340935E+01  0.17005658347E+03  0.16956117566E+03  0.24024618407E+03  0.41800000000E+01 0.  1.
        -11    1    1    2    0    0 -0.43883058185E+02 -0.34294671651E+02 -0.16886432484E+02  0.58197928670E+02  0.00000000000E+00 0.  1.
         11    1    1    2    0    0  0.66783970078E+01 -0.12534694705E+03 -0.12976583215E+03  0.18054259695E+03  0.00000000000E+00 0. -1.
</event>
<event>
 7    1  0.2794945E-009  0.1553680E+03  0.7561462E-02  0.1194028E+00
          1   -1    0    0  501    0  0.00000000000E+00  0.00000000000E+00  0.52702076760E+03  0.52702076760E+03  0.00000000000E+00 0.  1.
         -1   -1    0    0    0  501 -0.00000000000E+00 -0.00000000000E+00 -0.62982216190E+02  0.62982216190E+02  0.00000000000E+00 0. -1.
         25    2    1    2    0    0  0.41086676898E+02 -0.13458676893E+03  0.22027726624E+03  0.28977749485E+03  0.12508880490E+03 0.  0.
          5    1    3    3  502    0  0.63138155112E+01 -0.69898469705E+02  0.15234926611E+02  0.71939111214E+02  0.41800000000E+01 0. -1.
         -5    1    3    3    0  502  0.34772861386E+02 -0.64688299228E+02  0.20504233963E+03  0.21783838364E+03  0.41800000000E+01 0. -1.
        -11    1    1    2    0    0  0.23848690296E+02  0.75128499725E+02  0.16160423588E+03  0.17980261553E+03  0.00000000000E+00 0.  1.
         11    1    1    2    0    0 -0.64935367193E+02  0.59458269208E+02  0.82157049292E+02  0.12042287340E+03  0.00000000000E+00 0. -1.
</event>
<event>
 7    1  0.2794945E-009  0.8094153E+02  0.7561462E-02  0.1326401E+00
         -2   -1    0    0    0  501 -0.00000000000E+00  0.00000000000E+00  0.12841012552E+02  0.12841012552E+02  0.00000000000E+00 0. -1.
          2   -1    0    0  501    0  0.00000000000E+00 -0.00000000000E+00 -0.13273118489E+04  0.13273118489E+04  0.00000000000E+00 0.  1.
         25    2    1    2    0    0  0.43988321838E+02  0.26829712503E+02 -0.99025788254E+03  0.99945667274E+03  0.12509260902E+03 0.  0.
          5    1    3    3  502    0 -0.93442788938E+01  0.12457476941E+02 -0.13222052541E+02  0.20851842921E+02  0.41800000000E+01 0.  1.
         -5    1    3    3    0  502  0.53332600732E+02  0.14372235562E+02 -0.97703582999E+03  0.97860482982E+03  0.41800000000E+01 0.  1.
        -11    1    1    2    0    0 -0.76588385179E+01 -0.47806079336E+02 -0.25659076779E+03  0.26111855764E+03  0.00000000000E+00 0.  1.
         11    1    1    2    0    0 -0.36329483321E+02  0.20976366834E+02 -0.67622186005E+02  0.79577631053E+02  0.00000000000E+00 0. -1.
</event>
<event>
 7    1  0.2794945E-009  0.1142029E+03  0.7561462E-02  0.1252979E+00
         -2   -1    0    0    0  501 -0.00000000000E+00  0.00000000000E+00  0.10985400424E+03  0.10985400424E+03  0.00000000000E+00 0. -1.
          2   -1    0    0  501    0  0.00000000000E+00 -0.00000000000E+00 -0.16187314820E+03  0.16187314820E+03  0.00000000000E+00 0.  1.
         25    2    1    2    0    0  0.71147667349E+02 -0.20207588350E+02 -0.51293438277E+02  0.15411057681E+03  0.12509482754E+03 0.  0.
          5    1    3    3  502    0  0.10277036500E+03  0.73912810719E+01 -0.37650799732E+02  0.10977902386E+03  0.41800000000E+01 0.  1.
         -5    1    3    3    0  502 -0.31622697655E+02 -0.27598869422E+02 -0.13642638545E+02  0.44331552949E+02  0.41800000000E+01 0.  1.
        -11    1    1    2    0    0 -0.42607211728E+02  0.30894586591E+02 -0.41280390794E+02  0.66887372769E+02  0.00000000000E+00 0.  1.
         11    1    1    2    0    0 -0.28540455621E+02 -0.10686998241E+02  0.40554685110E+02  0.50729202860E+02  0.00000000000E+00 0. -1.
</event>
<event>
 7    1  0.5014478E-009  0.1241787E+03  0.7561462E-02  0.1236359E+00
          2   -1    0    0  501    0  0.00000000000E+00  0.00000000000E+00  0.21916604457E+03  0.21916604457E+03  0.00000000000E+00 0. -1.
         -2   -1    0    0    0  501 -0.00000000000E+00 -0.00000000000E+00 -0.84426912011E+02  0.84426912011E+02  0.00000000000E+00 0.  1.
         25    2    1    2    0    0  0.79701528763E+02 -0.12757128393E+02  0.58687368418E+02  0.16002149425E+03  0.12509034094E+03 0.  0.
          5    1    3    3  502    0 -0.31671848321E+02  0.10166344693E+02  0.39555770057E+01  0.33757658834E+02  0.41800000000E+01 0.  1.
         -5    1    3    3    0  502  0.11137337708E+03 -0.22923473086E+02  0.54731791412E+02  0.12626383541E+03  0.41800000000E+01 0.  1.
        -11    1    1    2    0    0 -0.37873046575E+02  0.36795017740E+02 -0.82576816378E+00  0.52810253554E+02  0.00000000000E+00 0.  1.
         11    1    1    2    0    0 -0.41828482188E+02 -0.24037889347E+02  0.76877532305E+02  0.90761208783E+02  0.00000000000E+00 0. -1.
</event>
<event>
 7    1  0.2794945E-009  0.1217496E+03  0.7561462E-02  0.1240238E+00
          4   -1    0    0  501    0  0.00000000000E+00  0.00000000000E+00  0.15456639711E+03  0.15456639711E+03  0.00000000000E+00 0. -1.
         -4   -1    0    0    0  501 -0.00000000000E+00 -0.00000000000E+00 -0.12597458340E+03  0.12597458340E+03  0.00000000000E+00 0.  1.
         25    2    1    2    0    0 -0.14296800866E+02 -0.78184339393E+02 -0.21752386698E+02  0.14978648608E+03  0.12508251534E+03 0.  0.
          5    1    3    3  502    0 -0.17555917550E+02 -0.11074910677E+03 -0.29234122198E+02  0.11595551385E+03  0.41800000000E+01 0. -1.
         -5    1    3    3    0  502  0.32591166840E+01  0.32564767378E+02  0.74817355001E+01  0.33830972231E+02  0.41800000000E+01 0. -1.
        -11    1    1    2    0    0  0.44481348456E+01 -0.92736975653E+01  0.40975254851E+02  0.42246406714E+02  0.00000000000E+00 0. -1.
         11    1    1    2    0    0  0.98486660204E+01  0.87458036958E+02  0.93689455554E+01  0.88508087719E+02  0.00000000000E+00 0.  1.
</event>
<event>
 7    1  0.2794945E-009  0.9289847E+02  0.7561462E-02  0.1295981E+00
          1   -1    0    0  501    0  0.00000000000E+00  0.00000000000E+00  0.19418684803E+03  0.19418684803E+03  0.00000000000E+00 0. -1.
         -1   -1    0    0    0  501 -0.00000000000E+00 -0.00000000000E+00 -0.67768321909E+02  0.67768321909E+02  0.00000000000E+00 0.  1.
         25    2    1    2    0    0 -0.30929452630E+02 -0.21039465711E+01  0.45470555665E+02  0.13666082298E+03  0.12509017337E+03 0.  0.
          5    1    3    3  502    0 -0.30815599624E+02  0.56939856333E+02  0.42166025787E+02  0.77376963949E+02  0.41800000000E+01 0.  1.
         -5    1    3    3    0  502 -0.11385300587E+00 -0.59043802904E+02  0.33045298779E+01  0.59283859031E+02  0.41800000000E+01 0.  1.
        -11    1    1    2    0    0  0.30986210242E+02 -0.21759526163E+02  0.91633267342E+02  0.99147757855E+02  0.00000000000E+00 0. -1.
         11    1    1    2    0    0 -0.56757612001E-01  0.23863472734E+02 -0.10685296884E+02  0.26146589106E+02  0.00000000000E+00 0.  1.
</event>
<event>
 7    1  0.2794945E-009  0.8985735E+02  0.7561462E-02  0.1303198E+00
          1   -1    0    0  501    0  0.00000000000E+00  0.00000000000E+00  0.48324321886E+02  0.48324321886E+02  0.00000000000E+00 0. -1.
         -1   -1    0    0    0  501 -0.00000000000E+00 -0.00000000000E+00 -0.26194759124E+03  0.26194759124E+03  0.00000000000E+00 0.  1.
         25    2    1    2    0    0  0.19663151264E+02 -0.48471790021E+01 -0.80576835928E+02  0.15016626774E+03  0.12508855589E+03 0.  0.
          5    1    3    3  502    0  0.21365007998E+02  0.40454858836E+02 -0.92346979414E+02  0.10314308594E+03  0.41800000000E+01 0. -1.
         -5    1    3    3    0  502 -0.17018567340E+01 -0.45302037838E+02  0.11770143486E+02  0.47023181797E+02  0.41800000000E+01 0. -1.
        -11    1    1    2    0    0 -0.38317811448E+02 -0.30038002141E+02 -0.62520951212E+02  0.79242700530E+02  0.00000000000E+00 0. -1.
         11    1    1    2    0    0  0.18654660184E+02  0.34885181143E+02 -0.70525482211E+02  0.80862944858E+02  0.00000000000E+00 0.  1.
</event>
<event>
 7    1  0.2794945E-009  0.1350141E+03  0.7561462E-02  0.1220200E+00
         -1   -1    0    0    0  501 -0.00000000000E+00  0.00000000000E+00  0.68466963523E+02  0.68466963523E+02  0.00000000000E+00 0.  1.
          1   -1    0    0  501    0  0.00000000000E+00 -0.00000000000E+00 -0.31672981499E+03  0.31672981499E+03  0.00000000000E+00 0. -1.
         25    2    1    2    0    0  0.23500001091E+02 -0.97651461248E+02 -0.13603561283E+03  0.21033586655E+03  0.12508969128E+03 0.  0.
          5    1    3    3  502    0 -0.15853817477E+02 -0.11384733494E+03 -0.81187527780E+02  0.14078865816E+03  0.41800000000E+01 0. -1.
         -5    1    3    3    0  502  0.39353818567E+02  0.16195873689E+02 -0.54848085049E+02  0.69547208384E+02  0.41800000000E+01 0. -1.
        -11    1    1    2    0    0  0.15599532415E+02  0.20588745038E+02  0.77812731482E+01  0.26977584132E+02  0.00000000000E+00 0.  1.
         11    1    1    2    0    0 -0.39099533505E+02  0.77062716210E+02 -0.12000851179E+03  0.14788332783E+03  0.00000000000E+00 0. -1.
</event>
<event>
 7    1  0.2794945E-009  0.1521307E+03  0.7561462E-02  0.1197879E+00
          2   -1    0    0  501    0  0.00000000000E+00  0.00000000000E+00  0.96128843957E+03  0.96128843957E+03  0.00000000000E+00 0. -1.
         -2   -1    0    0    0  501 -0.00000000000E+00 -0.00000000000E+00 -0.26787421975E+02  0.26787421975E+02  0.00000000000E+00 0.  1.
         25    2    1    2    0    0  0.10251159307E+03 -0.53431389869E+02  0.39724195678E+03  0.43221777486E+03  0.12508993781E+03 0.  0.
          5    1    3    3  502    0 -0.22590872343E+02 -0.26408195699E+02  0.14704796658E+03  0.15115659823E+03  0.41800000000E+01 0. -1.
         -5    1    3    3    0  502  0.12510246542E+03 -0.27023194169E+02  0.25019399020E+03  0.28106117663E+03  0.41800000000E+01 0. -1.
        -11    1    1    2    0    0 -0.10310314355E+03  0.70001736882E+02  0.44498868622E+03  0.46210976211E+03  0.00000000000E+00 0.  1.
         11    1    1    2    0    0  0.59155048024E+00 -0.16570347013E+02  0.92270374600E+02  0.93748324577E+02  0.00000000000E+00 0. -1.
</event>
<event>
 7    1  0.2794945E-009  0.1092898E+03  0.7561462E-02  0.1261891E+00
          2   -1    0    0  501    0  0.00000000000E+00  0.00000000000E+00  0.18416557167E+03  0.18416557167E+03  0.00000000000E+00 0.  1.
         -2   -1    0    0    0  501 -0.00000000000E+00 -0.00000000000E+00 -0.82519191639E+02  0.82519191639E+02  0.00000000000E+00 0. -1.
         25    2    1    2    0    0  0.43951288453E+02  0.92459916956E+01  0.19243732859E+02  0.13429432817E+03  0.12508973262E+03 0.  0.
          5    1    3    3  502    0 -0.25196251759E+02  0.42678243103E+02 -0.12175717999E+02  0.51205507964E+02  0.41800000000E+01 0.  1.
         -5    1    3    3    0  502  0.69147540212E+02 -0.33432251407E+02  0.31419450859E+02  0.83088820210E+02  0.41800000000E+01 0.  1.
        -11    1    1    2    0    0 -0.58644474305E+02  0.17678063819E+02  0.22796952317E+02  0.65355866928E+02  0.00000000000E+00 0.  1.
         11    1    1    2    0    0  0.14693185852E+02 -0.26924055515E+02  0.59605694859E+02  0.67034568212E+02  0.00000000000E+00 0. -1.
</event>
<event>
 7    1  0.2794945E-009  0.9496078E+02  0.7561462E-02  0.1291264E+00
         -1   -1    0    0    0  501 -0.00000000000E+00  0.00000000000E+00  0.23905481237E+03  0.23905481237E+03  0.00000000000E+00 0.  1.
          1   -1    0    0  501    0  0.00000000000E+00 -0.00000000000E+00 -0.93537684458E+02  0.93537684458E+02  0.00000000000E+00 0. -1.
         25    2    1    2    0    0  0.44156116879E+01  0.76997338475E+02  0.15667645705E+03  0.21480345103E+03  0.12507966511E+03 0.  0.
          5    1    3    3  502    0  0.21497213778E+01  0.86226976571E+02  0.17420322821E+03  0.19443237876E+03  0.41800000000E+01 0. -1.
         -5    1    3    3    0  502  0.22658903101E+01 -0.92296380967E+01 -0.17526771162E+02  0.20371072276E+02  0.41800000000E+01 0. -1.
        -11    1    1    2    0    0  0.23239074222E+02 -0.46704512631E+02 -0.41589519112E+02  0.66716221196E+02  0.00000000000E+00 0. -1.
         11    1    1    2    0    0 -0.27654685910E+02 -0.30292825844E+02  0.30430189976E+02  0.51072824598E+02  0.00000000000E+00 0.  1.
</event>
<event>
 7    1  0.2794945E-009  0.2263028E+03  0.7561462E-02  0.1129269E+00
         -2   -1    0    0    0  501 -0.00000000000E+00  0.00000000000E+00  0.33779789376E+02  0.33779789376E+02  0.00000000000E+00 0.  1.
          2   -1    0    0  501    0  0.00000000000E+00 -0.00000000000E+00 -0.18423046960E+04  0.18423046960E+04  0.00000000000E+00 0. -1.
         25    2    1    2    0    0  0.56187375076E+02  0.20289762593E+03 -0.12250356650E+04  0.12492757631E+04  0.12511228551E+03 0.  0.
          5    1    3    3  502    0  0.53354895412E+02  0.24672929884E+02 -0.18786058078E+03  0.19688719751E+03  0.41800000000E+01 0. -1.
         -5    1    3    3    0  502  0.28324796638E+01  0.17822469604E+03 -0.10371750842E+04  0.10523885656E+04  0.41800000000E+01 0. -1.
        -11    1    1    2    0    0  0.80261687130E+01 -0.21430496154E+02 -0.16998985348E+02  0.28507035140E+02  0.00000000000E+00 0.  1.
         11    1    1    2    0    0 -0.64213543789E+02 -0.18146712977E+03 -0.56649025631E+03  0.59830168719E+03  0.00000000000E+00 0. -1.
</event>
<event>
 7    1  0.2794945E-009  0.1310878E+03  0.7561462E-02  0.1225851E+00
          1   -1    0    0  501    0  0.00000000000E+00  0.00000000000E+00  0.28711114038E+03  0.28711114038E+03  0.00000000000E+00 0. -1.
         -1   -1    0    0    0  501 -0.00000000000E+00 -0.00000000000E+00 -0.16331462293E+03  0.16331462293E+03  0.00000000000E+00 0.  1.
         25    2    1    2    0    0  0.49662277813E+02 -0.81656952283E+02 -0.10303142228E+03  0.18814150017E+03  0.12509016914E+03 0.  0.
          5    1    3    3  502    0  0.69086156818E+02 -0.30430743477E+02 -0.50118348131E+01  0.75772805812E+02  0.41800000000E+01 0.  1.
         -5    1    3    3    0  502 -0.19423879006E+02 -0.51226208806E+02 -0.98019587471E+02  0.11236869436E+03  0.41800000000E+01 0.  1.
        -11    1    1    2    0    0 -0.10351751637E+02  0.90698566664E+02  0.15346841366E+03  0.17856635391E+03  0.00000000000E+00 0.  1.
         11    1    1    2    0    0 -0.39310526175E+02 -0.90416143807E+01  0.73359526074E+02  0.83717909222E+02  0.00000000000E+00 0. -1.
</event>
<event>
 7    1  0.2794945E-009  0.1306295E+03  0.7561462E-02  0.1226525E+00
         -1   -1    0    0    0  501 -0.00000000000E+00  0.00000000000E+00  0.30141548290E+03  0.30141548290E+03  0.00000000000E+00 0.  1.
          1   -1    0    0  501    0  0.00000000000E+00 -0.00000000000E+00 -0.87000361557E+02  0.87000361557E+02  0.00000000000E+00 0. -1.
         25    2    1    2    0    0  0.11356759528E+03 -0.14565868586E+02  0.73095446673E+02  0.18466277605E+03  0.12509050048E+03 0.  0.
          5    1    3    3  502    0  0.73693571246E+02  0.31329634309E+01  0.10645952972E+03  0.12958264456E+03  0.41800000000E+01 0. -1.
         -5    1    3    3    0  502  0.39874024031E+02 -0.17698832017E+02 -0.33364083050E+02  0.55080131490E+02  0.41800000000E+01 0. -1.
        -11    1    1    2    0    0 -0.38255678214E+02  0.47810670579E+02  0.39715262419E+02  0.72983965402E+02  0.00000000000E+00 0. -1.
         11    1    1    2    0    0 -0.75311917063E+02 -0.33244801992E+02  0.10160441225E+03  0.13076910300E+03  0.00000000000E+00 0.  1.
</event>
<event>
 7    1  0.2794945E-009  0.1461246E+03  0.7561462E-02  0.1205318E+00
         -1   -1    0    0    0  501 -0.00000000000E+00  0.00000000000E+00  0.13121032704E+03  0.13121032704E+03  0.00000000000E+00 0.  1.
          1   -1    0    0  501    0  0.00000000000E+00 -0.00000000000E+00 -0.20995259031E+03  0.20995259031E+03  0.00000000000E+00 0. -1.
         25    2    1    2    0    0 -0.53263729179E+02 -0.10452210652E+03 -0.83770319580E+02  0.19085844526E+03  0.12509030373E+03 0.  0.
          5    1    3    3  502    0 -0.66180920712E+02 -0.16836487804E+02 -0.75276776216E+02  0.10172240179E+03  0.41800000000E+01 0.  1.
         -5    1    3    3    0  502  0.12917191532E+02 -0.87685618721E+02 -0.84935433636E+01  0.89136043475E+02  0.41800000000E+01 0.  1.
        -11    1    1    2    0    0  0.69196099071E+02  0.90153362426E+02  0.29843413613E+02  0.11750046051E+03  0.00000000000E+00 0. -1.
         11    1    1    2    0    0 -0.15932369892E+02  0.14368744098E+02 -0.24815357303E+02  0.32804011575E+02  0.00000000000E+00 0.  1.
</event>
<event>
 7    1  0.2794945E-009  0.1390109E+03  0.7561462E-02  0.1214666E+00
         -1   -1    0    0    0  501 -0.00000000000E+00  0.00000000000E+00  0.27941554257E+02  0.27941554257E+02  0.00000000000E+00 0.  1.
          1   -1    0    0  501    0  0.00000000000E+00 -0.00000000000E+00 -0.94307010505E+03  0.94307010505E+03  0.00000000000E+00 0. -1.
         25    2    1    2    0    0  0.93315574249E+02  0.62659951453E+02 -0.62363744864E+03  0.64591471069E+03  0.12509228686E+03 0.  0.
          5    1    3    3  502    0  0.14380082488E+02 -0.16449242246E+02 -0.14401813731E+02  0.26499980785E+02  0.41800000000E+01 0.  1.
         -5    1    3    3    0  502  0.78935491760E+02  0.79109193699E+02 -0.60923563491E+03  0.61941472991E+03  0.41800000000E+01 0.  1.
        -11    1    1    2    0    0 -0.15068196103E+01 -0.51428913645E+02 -0.10308352077E+03  0.11521031168E+03  0.00000000000E+00 0.  1.
         11    1    1    2    0    0 -0.91808754638E+02 -0.11231037808E+02 -0.18840758138E+03  0.20988663693E+03  0.00000000000E+00 0. -1.
</event>
<event>
 7    1  0.2794945E-009  0.1621610E+03  0.7561462E-02  0.1186278E+00
         -2   -1    0    0    0  501 -0.00000000000E+00  0.00000000000E+00  0.22417215751E+03  0.22417215751E+03  0.00000000000E+00 0.  1.
          2   -1    0    0  501    0  0.00000000000E+00 -0.00000000000E+00 -0.14638171927E+03  0.14638171927E+03  0.00000000000E+00 0. -1.
         25    2    1    2    0    0  0.79305431777E+02  0.12029631406E+03  0.24645679926E+02  0.19239180582E+03  0.12508654093E+03 0.  0.
          5    1    3    3  502    0 -0.20244204712E+02 -0.22282423240E+01  0.27460197421E+02  0.34443108610E+02  0.41800000000E+01 0.  1.
         -5    1    3    3    0  502  0.99549636489E+02  0.12252455638E+03 -0.28145174956E+01  0.15794869721E+03  0.41800000000E+01 0.  1.
        -11    1    1    2    0    0 -0.60868357799E+02 -0.10617032246E+03  0.77222107113E+02  0.14470780276E+03  0.00000000000E+00 0. -1.
         11    1    1    2    0    0 -0.18437073977E+02 -0.14125991598E+02 -0.24077348799E+02  0.33454268198E+02  0.00000000000E+00 0.  1.
</event>
<event>
 7    1  0.2794945E-009  0.1179989E+03  0.7561462E-02  0.1246435E+00
          1   -1    0    0  501    0  0.00000000000E+00  0.00000000000E+00  0.12136773777E+03  0.12136773777E+03  0.00000000000E+00 0. -1.
         -1   -1    0    0    0  501 -0.00000000000E+00 -0.00000000000E+00 -0.17817402295E+03  0.17817402295E+03  0.00000000000E+00 0.  1.
         25    2    1    2    0    0  0.76068822974E+02  0.64209430323E+02 -0.21254948130E+02  0.16127421522E+03  0.12509309695E+03 0.  0.
          5    1    3    3  502    0  0.42034513104E+02 -0.17398657089E+01  0.44968665166E+02  0.61721800617E+02  0.41800000000E+01 0. -1.
         -5    1    3    3    0  502  0.34034309870E+02  0.65949296032E+02 -0.66223613296E+02  0.99552414603E+02  0.41800000000E+01 0. -1.
        -11    1    1    2    0    0 -0.51898195313E+02 -0.76367136195E+02 -0.52623031370E+02  0.10627579968E+03  0.00000000000E+00 0.  1.
         11    1    1    2    0    0 -0.24170627661E+02  0.12157705873E+02  0.17071694321E+02  0.31991745820E+02  0.00000000000E+00 0. -1.
</event>
<event>
 7    1  0.2794945E-009  0.1150798E+03  0.7561462E-02  0.1251442E+00
          1   -1    0    0  501    0  0.00000000000E+00  0.00000000000E+00  0.78676386954E+02  0.78676386954E+02  0.00000000000E+00 0. -1.
         -1   -1    0    0    0  501 -0.00000000000E+00 -0.00000000000E+00 -0.25480527454E+03  0.25480527454E+03  0.00000000000E+00 0.  1.
         25    2    1    2    0    0  0.89723966215E+02  0.10711661809E+02 -0.10309123645E+03  0.18554072641E+03  0.12502970972E+03 0.  0.
          5    1    3    3  502    0  0.76196721637E+02 -0.20696857837E+02 -0.23847310991E+01  0.79104106435E+02  0.41800000000E+01 0.  1.
         -5    1    3    3    0  502  0.13527244578E+02  0.31408519646E+02 -0.10070650535E+03  0.10643661997E+03  0.41800000000E+01 0.  1.
        -11    1    1    2    0    0 -0.85215146697E+01  0.26119531556E+02  0.67478976206E+01  0.28290992617E+02  0.00000000000E+00 0. -1.
         11    1    1    2    0    0 -0.81202451545E+02 -0.36831193365E+02 -0.79785548760E+02  0.11964994247E+03  0.00000000000E+00 0.  1.
</event>
<event>
 7    1  0.2794945E-009  0.3978112E+03  0.7561462E-02  0.1044540E+00
         -2   -1    0    0    0  501 -0.00000000000E+00  0.00000000000E+00  0.11353083090E+03  0.11353083090E+03  0.00000000000E+00 0.  1.
          2   -1    0    0  501    0  0.00000000000E+00 -0.00000000000E+00 -0.15315949792E+04  0.15315949792E+04  0.00000000000E+00 0. -1.
         25    2    1    2    0    0  0.31012237634E+03  0.24738217554E+03 -0.58331503079E+03  0.71643366477E+03  0.12508773635E+03 0.  0.
          5    1    3    3  502    0  0.26702450420E+03  0.19379303432E+03 -0.38804852876E+03  0.50936917758E+03  0.41800000000E+01 0.  1.
         -5    1    3    3    0  502  0.43097872133E+02  0.53589141221E+02 -0.19526650203E+03  0.20706448718E+03  0.41800000000E+01 0.  1.
        -11    1    1    2    0    0 -0.32468042427E+02 -0.23247458075E+02 -0.35604321542E+02  0.53500334564E+02  0.00000000000E+00 0.  1.
         11    1    1    2    0    0 -0.27765433391E+03 -0.22413471747E+03 -0.79914479594E+03  0.87519181074E+03  0.00000000000E+00 0. -1.
</event>
<event>
 7    1  0.2794945E-009  0.1399280E+03  0.7561462E-02  0.1213426E+00
          2   -1    0    0  501    0  0.00000000000E+00  0.00000000000E+00  0.55285707359E+03  0.55285707359E+03  0.00000000000E+00 0. -1.
         -2   -1    0    0    0  501 -0.00000000000E+00 -0.00000000000E+00 -0.39684676815E+02  0.39684676815E+02  0.00000000000E+00 0.  1.
         25    2    1    2    0    0  0.47242351383E+02 -0.73726480798E+02  0.36756759351E+03  0.39801908444E+03  0.12508326045E+03 0.  0.
          5    1    3    3  502    0 -0.41709967102E+02 -0.30797475878E+02  0.98970906766E+02  0.11180750718E+03  0.41800000000E+01 0.  1.
         -5    1    3    3    0  502  0.88952318485E+02 -0.42929004920E+02  0.26859668675E+03  0.28621157726E+03  0.41800000000E+01 0.  1.
        -11    1    1    2    0    0  0.15929918430E+02  0.62903650866E+02  0.74302740923E+02  0.98648511911E+02  0.00000000000E+00 0.  1.
         11    1    1    2    0    0 -0.63172269814E+02  0.10822829931E+02  0.71302062334E+02  0.95874154047E+02  0.00000000000E+00 0. -1.
</event>
<event>
 7    1  0.2794945E-009  0.1024672E+03  0.7561462E-02  0.1275192E+00
          2   -1    0    0  501    0  0.00000000000E+00  0.00000000000E+00  0.10005543542E+03  0.10005543542E+03  0.00000000000E+00 0. -1.
         -2   -1    0    0    0  501 -0.00000000000E+00 -0.00000000000E+00 -0.13602257098E+03  0.13602257098E+03  0.00000000000E+00 0.  1.
         25    2    1    2    0    0 -0.34592459639E+02 -0.19908451676E+02 -0.43343013076E+02  0.13826304510E+03  0.12508024682E+03 0.  0.
          5    1    3    3  502    0 -0.44441332766E+02  0.45784228881E+02 -0.28825496077E+02  0.70139926550E+02  0.41800000000E+01 0.  1.
         -5    1    3    3    0  502  0.98488731272E+01 -0.65692680557E+02 -0.14517516999E+02  0.68123118546E+02  0.41800000000E+01 0.  1.
        -11    1    1    2    0    0 -0.14719984406E+02 -0.90179601966E+01 -0.26303063373E+02  0.31461924446E+02  0.00000000000E+00 0.  1.
         11    1    1    2    0    0  0.49312444045E+02  0.28926411872E+02  0.33678940880E+02  0.66353036859E+02  0.00000000000E+00 0. -1.
</event>
<event>
 7    1  0.2846533E-009  0.1131509E+03  0.7561462E-02  0.1254844E+00
         -2   -1    0    0    0  501 -0.00000000000E+00  0.00000000000E+00  0.14699471178E+02  0.14699471178E+02  0.00000000000E+00 0.  1.
          2   -1    0    0  501    0  0.00000000000E+00 -0.00000000000E+00 -0.12785730526E+04  0.12785730526E+04  0.00000000000E+00 0. -1.
         25    2    1    2    0    0  0.12942645314E+02 -0.40306296035E+02 -0.10349279902E+04  0.10433192891E+04  0.12508830761E+03 0.  0.
          5    1    3    3  502    0 -0.45352714854E+02 -0.51358852977E+02 -0.42625701184E+03  0.43174890049E+03  0.41800000000E+01 0. -1.
         -5    1    3    3    0  502  0.58295360168E+02  0.11052556943E+02 -0.60867097832E+03  0.61157038866E+03  0.41800000000E+01 0. -1.
        -11    1    1    2    0    0 -0.16647444367E+02 -0.26484967776E+02 -0.50764814451E+02  0.59629332617E+02  0.00000000000E+00 0.  1.
         11    1    1    2    0    0  0.37047990532E+01  0.66791263811E+02 -0.17818077684E+03  0.19032390205E+03  0.00000000000E+00 0. -1.
</event>
<event>
 7    1  0.2794945E-009  0.9418380E+02  0.7561462E-02  0.1293025E+00
         -2   -1    0    0    0  501 -0.00000000000E+00  0.00000000000E+00  0.40290674448E+03  0.40290674448E+03  0.00000000000E+00 0.  1.
          2   -1    0    0  501    0  0.00000000000E+00 -0.00000000000E+00 -0.38880454103E+02  0.38880454103E+02  0.00000000000E+00 0. -1.
         25    2    1    2    0    0 -0.49289519887E+02  0.19256761116E+02  0.20539781882E+03  0.24624914998E+03  0.12510036080E+03 0.  0.
          5    1    3    3  502    0 -0.47621953634E+02  0.33981183555E+02  0.21837411292E+03  0.22611346023E+03  0.41800000000E+01 0. -1.
         -5    1    3    3    0  502 -0.16675662533E+01 -0.14724422439E+02 -0.12976294098E+02  0.20135689754E+02  0.41800000000E+01 0. -1.
        -11    1    1    2    0    0  0.76177798444E+02  0.73000738649E+01  0.10764817250E+03  0.13207754199E+03  0.00000000000E+00 0. -1.
         11    1    1    2    0    0 -0.26888278556E+02 -0.26556834981E+02  0.50980299053E+02  0.63460506612E+02  0.00000000000E+00 0.  1.
</event>
<event>
 7    1  0.2794945E-009  0.1189325E+03  0.7561462E-02  0.1244868E+00
          2   -1    0    0  501    0  0.00000000000E+00  0.00000000000E+00  0.59290916100E+03  0.59290916100E+03  0.00000000000E+00 0. -1.
         -2   -1    0    0    0  501 -0.00000000000E+00 -0.00000000000E+00 -0.29311483553E+02  0.29311483553E+02  0.00000000000E+00 0.  1.
         25    2    1    2    0    0 -0.35012107453E+02  0.74691307892E+02  0.40619462738E+03  0.43295113507E+03  0.12509184985E+03 0.  0.
          5    1    3    3  502    0 -0.68793507704E+02  0.79809827210E+02  0.36133188341E+03  0.37640451324E+03  0.41800000000E+01 0. -1.
         -5    1    3    3    0  502  0.33781400251E+02 -0.51185193182E+01  0.44862743971E+02  0.56546621823E+02  0.41800000000E+01 0. -1.
        -11    1    1    2    0    0  0.36334270521E+01 -0.65072492507E+02  0.13384654173E+03  0.14887084270E+03  0.00000000000E+00 0. -1.
         11    1    1    2    0    0  0.31378680401E+02 -0.96188153845E+01  0.23556508333E+02  0.40398666784E+02  0.00000000000E+00 0.  1.
</event>
<event>
 7    1  0.2794945E-009  0.1270398E+03  0.7561462E-02  0.1231915E+00
         -2   -1    0    0    0  501 -0.00000000000E+00  0.00000000000E+00  0.33619542756E+02  0.33619542756E+02  0.00000000000E+00 0. -1.
          2   -1    0    0  501    0  0.00000000000E+00 -0.00000000000E+00 -0.50647667214E+03  0.50647667214E+03  0.00000000000E+00 0.  1.
         25    2    1    2    0    0 -0.33243276316E+02 -0.63745183805E+02 -0.25952521521E+03  0.29693102151E+03  0.12508449277E+03 0.  0.
          5    1    3    3  502    0  0.41429309613E+02 -0.49882730940E+02 -0.15117023958E+03  0.16454357562E+03  0.41800000000E+01 0.  1.
         -5    1    3    3    0  502 -0.74672585929E+02 -0.13862452866E+02 -0.10835497562E+03  0.13238744590E+03  0.41800000000E+01 0.  1.
        -11    1    1    2    0    0  0.50598319285E+02  0.76346142607E+02 -0.19291634966E+03  0.21355477370E+03  0.00000000000E+00 0. -1.
         11    1    1    2    0    0 -0.17355042969E+02 -0.12600958801E+02 -0.20415564523E+02  0.29610419686E+02  0.00000000000E+00 0.  1.
</event>
<event>
 7    1  0.2794945E-009  0.9754731E+02  0.7561462E-02  0.1285540E+00
          2   -1    0    0  501    0  0.00000000000E+00  0.00000000000E+00  0.21231479307E+03  0.21231479307E+03  0.00000000000E+00 0. -1.
         -2   -1    0    0    0  501 -0.00000000000E+00 -0.00000000000E+00 -0.69713883185E+02  0.69713883185E+02  0.00000000000E+00 0.  1.
         25    2    1    2    0    0 -0.45203342674E+01  0.54111889699E+02  0.80443164778E+02  0.15832553469E+03  0.12508933666E+03 0.  0.
          5    1    3    3  502    0 -0.51283051446E+01  0.74823049347E+02  0.10295592255E+03  0.12744482185E+03  0.41800000000E+01 0.  1.
         -5    1    3    3    0  502  0.60797087715E+00 -0.20711159648E+02 -0.22512757777E+02  0.30880712836E+02  0.41800000000E+01 0.  1.
        -11    1    1    2    0    0 -0.35550344670E+02 -0.57102795358E+01  0.10025272440E+01  0.36019985555E+02  0.00000000000E+00 0.  1.
         11    1    1    2    0    0  0.40070678937E+02 -0.48401610163E+02  0.61155217863E+02  0.87683156014E+02  0.00000000000E+00 0. -1.
</event>
<event>
 7    1  0.2794945E-009  0.9140546E+02  0.7561462E-02  0.1299483E+00
         -2   -1    0    0    0  501 -0.00000000000E+00  0.00000000000E+00  0.18251524551E+03  0.18251524551E+03  0.00000000000E+00 0.  1.
          2   -1    0    0  501    0  0.00000000000E+00 -0.00000000000E+00 -0.10119782703E+03  0.10119782703E+03  0.00000000000E+00 0. -1.
         25    2    1    2    0    0 -0.63491042884E+02 -0.17665395293E+02 -0.12613992859E+02  0.14197689827E+03  0.12512053432E+03 0.  0.
          5    1    3    3  502    0 -0.26177965318E+02 -0.43987576061E+02  0.45041045887E+02  0.68310767310E+02  0.41800000000E+01 0. -1.
         -5    1    3    3    0  502 -0.37313077566E+02  0.26322180768E+02 -0.57655038746E+02  0.73666130960E+02  0.41800000000E+01 0. -1.
        -11    1    1    2    0    0  0.31903731649E+02  0.36771466914E+02  0.92809935070E+02  0.10480301961E+03  0.00000000000E+00 0.  1.
         11    1    1    2    0    0  0.31587311235E+02 -0.19106071620E+02  0.11214762633E+01  0.36933154656E+02  0.00000000000E+00 0. -1.
</event>
<event>
 7    1  0.2794945E-009  0.1051199E+03  0.7561462E-02  0.1269884E+00
          1   -1    0    0  501    0  0.00000000000E+00  0.00000000000E+00  0.45303900023E+03  0.45303900023E+03  0.00000000000E+00 0. -1.
         -1   -1    0    0    0  501 -0.00000000000E+00 -0.00000000000E+00 -0.74121671405E+02  0.74121671405E+02  0.00000000000E+00 0.  1.
         25    2    1    2    0    0 -0.35303669104E+02 -0.51410172488E+01 -0.56922863709E+01  0.13019948103E+03  0.12508686432E+03 0.  0.
          5    1    3    3  502    0 -0.58929823821E+02 -0.39832349949E+02 -0.34455899333E+02  0.79145572440E+02  0.41800000000E+01 0. -1.
         -5    1    3    3    0  502  0.23626154718E+02  0.34691332700E+02  0.28763612962E+02  0.51053908586E+02  0.41800000000E+01 0. -1.
        -11    1    1    2    0    0  0.63418248477E+02  0.17954897089E+02  0.29151545765E+03  0.29887374361E+03  0.00000000000E+00 0. -1.
         11    1    1    2    0    0 -0.28114579373E+02 -0.12813879840E+02  0.93094157542E+02  0.98087446997E+02  0.00000000000E+00 0.  1.
</event>
<event>
 7    1  0.2794945E-009  0.1278570E+03  0.7561462E-02  0.1230671E+00
         -2   -1    0    0    0  501 -0.00000000000E+00  0.00000000000E+00  0.43452648944E+02  0.43452648944E+02  0.00000000000E+00 0.  1.
          2   -1    0    0  501    0  0.00000000000E+00 -0.00000000000E+00 -0.49573301130E+03  0.49573301130E+03  0.00000000000E+00 0. -1.
         25    2    1    2    0    0 -0.83762335966E+02  0.38728060237E+02 -0.31116314780E+03  0.34783210053E+03  0.12509466028E+03 0.  0.
          5    1    3    3  502    0 -0.44364218354E+02 -0.37003398328E+02 -0.19624995928E+03  0.20461904671E+03  0.41800000000E+01 0.  1.
         -5    1    3    3    0  502 -0.39398117612E+02  0.75731458565E+02 -0.11491318852E+03  0.14321305382E+03  0.41800000000E+01 0.  1.
        -11    1    1    2    0    0  0.32751908364E+02  0.16894048794E+02 -0.70753827195E+01  0.37525423739E+02  0.00000000000E+00 0.  1.
         11    1    1    2    0    0  0.51010427602E+02 -0.55622109031E+02 -0.13404183183E+03  0.15382813598E+03  0.00000000000E+00 0. -1.
</event>
<event>
 7    1  0.2794945E-009  0.9576543E+02  0.7561462E-02  0.1289461E+00
          1   -1    0    0  501    0  0.00000000000E+00  0.00000000000E+00  0.75271992117E+03  0.75271992117E+03  0.00000000000E+00 0. -1.
         -1   -1    0    0    0  501 -0.00000000000E+00 -0.00000000000E+00 -0.19495816099E+02  0.19495816099E+02  0.00000000000E+00 0.  1.
         25    2    1    2    0    0 -0.42747664659E+02  0.26588089234E+02  0.46795245715E+03  0.48699246053E+03  0.12509142711E+03 0.  0.
          5    1    3    3  502    0 -0.61936813050E+02  0.15952914445E+01  0.44090446104E+03  0.44525602739E+03  0.41800000000E+01 0.  1.
         -5    1    3    3    0  502  0.19189148392E+02  0.24992797789E+02  0.27047996116E+02  0.41736433139E+02  0.41800000000E+01 0.  1.
        -11    1    1    2    0    0  0.55864721206E+02 -0.47253926770E+02  0.23591259737E+03  0.24699909770E+03  0.00000000000E+00 0. -1.
         11    1    1    2    0    0 -0.13117056548E+02  0.20665837537E+02  0.29359050551E+02  0.38224179034E+02  0.00000000000E+00 0.  1.
</event>
<event>
 7    1  0.2794945E-009  0.2782707E+03  0.7561462E-02  0.1096637E+00
         -2   -1    0    0    0  501 -0.00000000000E+00  0.00000000000E+00  0.35820393642E+03  0.35820393642E+03  0.00000000000E+00 0.  1.
          2   -1    0    0  501    0  0.00000000000E+00 -0.00000000000E+00 -0.28940125455E+03  0.28940125455E+03  0.00000000000E+00 0. -1.
         25    2    1    2    0    0 -0.23746756654E+03 -0.11708755159E+03 -0.11302279564E+03  0.31387880949E+03  0.12508163262E+03 0.  0.
          5    1    3    3  502    0 -0.22713968466E+03 -0.63752648827E+02 -0.10693072099E+03  0.25905306034E+03  0.41800000000E+01 0. -1.
         -5    1    3    3    0  502 -0.10327881883E+02 -0.53334902766E+02 -0.60920746504E+01  0.54825749158E+02  0.41800000000E+01 0. -1.
        -11    1    1    2    0    0  0.16878834189E+03  0.69450734122E+02  0.73161919312E+02  0.19663564088E+03  0.00000000000E+00 0. -1.
         11    1    1    2    0    0  0.68679224649E+02  0.47636817471E+02  0.10866355820E+03  0.13709074060E+03  0.00000000000E+00 0.  1.
</event>
<event>
 7    1  0.2794945E-009  0.9834449E+02  0.7561462E-02  0.1283816E+00
          2   -1    0    0  501    0  0.00000000000E+00  0.00000000000E+00  0.44518393309E+03  0.44518393309E+03  0.00000000000E+00 0. -1.
         -2   -1    0    0    0  501 -0.00000000000E+00 -0.00000000000E+00 -0.50112131739E+02  0.50112131739E+02  0.00000000000E+00 0.  1.
         25    2    1    2    0    0 -0.58024656634E+02 -0.28179644928E+02  0.82656091836E+02  0.16321984355E+03  0.12509090553E+03 0.  0.
          5    1    3    3  502    0 -0.64056793185E+01 -0.31484590262E+02 -0.26824352180E+02  0.42063409531E+02  0.41800000000E+01 0. -1.
         -5    1    3    3    0  502 -0.51618977316E+02  0.33049453338E+01  0.10948044402E+03  0.12115643402E+03  0.41800000000E+01 0. -1.
        -11    1    1    2    0    0  0.83412624340E+02  0.22049904546E+02  0.23184715004E+03  0.24738020367E+03  0.00000000000E+00 0.  1.
         11    1    1    2    0    0 -0.25387967705E+02  0.61297403823E+01  0.80568559481E+02  0.84696017605E+02  0.00000000000E+00 0. -1.
</event>
<event>
 7    1  0.3482967E-009  0.7678699E+02  0.7561462E-02  0.1338425E+00
         -2   -1    0    0    0  501 -0.00000000000E+00  0.00000000000E+00  0.37332407508E+02  0.37332407508E+02  0.00000000000E+00 0.  1.
          2   -1    0    0  501    0  0.00000000000E+00 -0.00000000000E+00 -0.45187837198E+03  0.45187837198E+03  0.00000000000E+00 0. -1.
         25    2    1    2    0    0 -0.57649753902E+02  0.30510501006E+02 -0.28659499743E+03  0.31943409430E+03  0.12508822188E+03 0.  0.
          5    1    3    3  502    0 -0.54098910203E+02  0.48719625891E+01 -0.31367597941E+02  0.62863556256E+02  0.41800000000E+01 0.  1.
         -5    1    3    3    0  502 -0.35508436999E+01  0.25638538417E+02 -0.25522739949E+03  0.25657053805E+03  0.41800000000E+01 0.  1.
        -11    1    1    2    0    0  0.67471866131E+01 -0.19721194283E+02  0.94259392551E+01  0.22875715551E+02  0.00000000000E+00 0.  1.
         11    1    1    2    0    0  0.50902567289E+02 -0.10789306723E+02 -0.13737690629E+03  0.14690096963E+03  0.00000000000E+00 0. -1.
</event>
<event>
 7    1  0.2794945E-009  0.5377065E+03  0.7561462E-02  0.1004380E+00
          2   -1    0    0  501    0  0.00000000000E+00  0.00000000000E+00  0.20537610561E+04  0.20537610561E+04  0.00000000000E+00 0. -1.
         -2   -1    0    0    0  501 -0.00000000000E+00 -0.00000000000E+00 -0.18512889120E+03  0.18512889120E+03  0.00000000000E+00 0.  1.
         25    2    1    2    0    0  0.47082289182E+03 -0.25903767307E+03  0.42759761061E+03  0.69804704123E+03  0.12512091611E+03 0.  0.
          5    1    3    3  502    0  0.44170518261E+03 -0.24650566938E+03  0.43269877313E+03  0.66566824624E+03  0.41800000000E+01 0. -1.
         -5    1    3    3    0  502  0.29117709212E+02 -0.12532003691E+02 -0.51011625264E+01  0.32378794996E+02  0.41800000000E+01 0. -1.
        -11    1    1    2    0    0 -0.44212519084E+03  0.23903232680E+03  0.12616000909E+04  0.13580301643E+04  0.00000000000E+00 0.  1.
         11    1    1    2    0    0 -0.28697700973E+02  0.20005346276E+02  0.17943446335E+03  0.18281274179E+03  0.00000000000E+00 0. -1.
</event>
<event>
 7    1  0.2794945E-009  0.1944644E+03  0.7561462E-02  0.1154495E+00
          2   -1    0    0  501    0  0.00000000000E+00  0.00000000000E+00  0.20878676570E+03  0.20878676570E+03  0.00000000000E+00 0. -1.
         -2   -1    0    0    0  501 -0.00000000000E+00 -0.00000000000E+00 -0.44885174066E+03  0.44885174066E+03  0.00000000000E+00 0.  1.
         25    2    1    2    0    0  0.14670405911E+03 -0.10375954261E+03  0.11668364769E+03  0.24808934552E+03  0.12508047841E+03 0.  0.
          5    1    3    3  502    0 -0.76229941380E+01 -0.16740716738E+02 -0.17554976304E+02  0.25768415348E+02  0.41800000000E+01 0. -1.
         -5    1    3    3    0  502  0.15432705325E+03 -0.87018825871E+02  0.13423862400E+03  0.22232093018E+03  0.41800000000E+01 0. -1.
        -11    1    1    2    0    0 -0.79056633701E+02  0.13739523692E+02 -0.20832774803E+03  0.22324689570E+03  0.00000000000E+00 0.  1.
         11    1    1    2    0    0 -0.67647425413E+02  0.90020018917E+02 -0.14842087462E+03  0.18630226513E+03  0.00000000000E+00 0. -1.
</event>
<event>
 7    1  0.2794945E-009  0.1405403E+03  0.7561462E-02  0.1212604E+00
          3   -1    0    0  501    0  0.00000000000E+00  0.00000000000E+00  0.40703017608E+03  0.40703017608E+03  0.00000000000E+00 0. -1.
         -3   -1    0    0    0  501 -0.00000000000E+00 -0.00000000000E+00 -0.54607874252E+02  0.54607874252E+02  0.00000000000E+00 0.  1.
         25    2    1    2    0    0 -0.38706378924E+01  0.98659332523E+02  0.22538265183E+03  0.27603167312E+03  0.12508996399E+03 0.  0.
          5    1    3    3  502    0  0.43468281505E+02  0.59597261676E+00  0.32295878167E+02  0.54317058342E+02  0.41800000000E+01 0. -1.
         -5    1    3    3    0  502 -0.47338919397E+02  0.98063359907E+02  0.19308677366E+03  0.22171461478E+03  0.41800000000E+01 0. -1.
        -11    1    1    2    0    0 -0.34129062889E+02 -0.78099032593E+02  0.11001604382E+03  0.13916817784E+03  0.00000000000E+00 0.  1.
         11    1    1    2    0    0  0.37999700781E+02 -0.20560299931E+02  0.17023606174E+02  0.46438199361E+02  0.00000000000E+00 0. -1.
</event>
<event>
 7    1  0.2794945E-009  0.1034452E+03  0.7561462E-02  0.1273213E+00
          1   -1    0    0  501    0  0.00000000000E+00  0.00000000000E+00  0.41093082367E+03  0.41093082367E+03  0.00000000000E+00 0. -1.
         -1   -1    0    0    0  501 -0.00000000000E+00 -0.00000000000E+00 -0.49054206817E+02  0.49054206817E+02  0.00000000000E+00 0.  1.
         25    2    1    2    0    0 -0.92119159395E+02 -0.80660366689E+00  0.21378954471E+03  0.26427316846E+03  0.12509095893E+03 0.  0.
          5    1    3    3  502    0 -0.68406321984E+02  0.63532862313E-01  0.22677355625E+03  0.23690324425E+03  0.41800000000E+01 0.  1.
         -5    1    3    3    0  502 -0.23712837411E+02 -0.87013652920E+00 -0.12984011539E+02  0.27369924211E+02  0.41800000000E+01 0.  1.
        -11    1    1    2    0    0  0.36015997645E+02  0.33618871506E+02  0.22204309707E+02  0.54040836201E+02  0.00000000000E+00 0. -1.
         11    1    1    2    0    0  0.56103161750E+02 -0.32812267840E+02  0.12588276243E+03  0.14167102582E+03  0.00000000000E+00 0.  1.
</event>
<event>
 7    1  0.2794945E-009  0.1017793E+03  0.7561462E-02  0.1276598E+00
         -1   -1    0    0    0  501 -0.00000000000E+00  0.00000000000E+00  0.13692824543E+02  0.13692824543E+02  0.00000000000E+00 0.  1.
          1   -1    0    0  501    0  0.00000000000E+00 -0.00000000000E+00 -0.97603888514E+03  0.97603888514E+03  0.00000000000E+00 0. -1.
         25    2    1    2    0    0  0.24032434024E+02 -0.13070916412E+02 -0.69155710827E+03  0.70331132609E+03  0.12508869123E+03 0.  0.
          5    1    3    3  502    0  0.40205439694E+02 -0.53237119628E+02 -0.57550677142E+03  0.57937568523E+03  0.41800000000E+01 0.  1.
         -5    1    3    3    0  502 -0.16173005670E+02  0.40166203217E+02 -0.11605033685E+03  0.12393564086E+03  0.41800000000E+01 0.  1.
        -11    1    1    2    0    0 -0.52001919301E+02 -0.14452121013E+02 -0.16373072224E+03  0.17239725293E+03  0.00000000000E+00 0. -1.
         11    1    1    2    0    0  0.27969485277E+02  0.27523037425E+02 -0.10705823009E+03  0.11402313066E+03  0.00000000000E+00 0.  1.
</event>
<event>
 7    1  0.2794945E-009  0.1279207E+03  0.7561462E-02  0.1230574E+00
         -2   -1    0    0    0  501 -0.00000000000E+00  0.00000000000E+00  0.54045187391E+03  0.54045187391E+03  0.00000000000E+00 0.  1.
          2   -1    0    0  501    0  0.00000000000E+00 -0.00000000000E+00 -0.32037871876E+02  0.32037871876E+02  0.00000000000E+00 0. -1.
         25    2    1    2    0    0 -0.71342603960E+02 -0.10242281827E+02  0.32547995835E+03  0.35606318220E+03  0.12509642264E+03 0.  0.
          5    1    3    3  502    0  0.35851521459E+02  0.31725717931E+01  0.78633528299E+02  0.86580026423E+02  0.41800000000E+01 0. -1.
         -5    1    3    3    0  502 -0.10719412542E+03 -0.13414853620E+02  0.24684643005E+03  0.26948315578E+03  0.41800000000E+01 0. -1.
        -11    1    1    2    0    0  0.58507086846E+02 -0.32459157823E+02  0.13669296468E+03  0.15218949613E+03  0.00000000000E+00 0.  1.
         11    1    1    2    0    0  0.12835517114E+02  0.42701439650E+02  0.46241079004E+02  0.64237067455E+02  0.00000000000E+00 0. -1.
</event>
<event>
 7    1  0.2794945E-009  0.1065417E+03  0.7561462E-02  0.1267112E+00
         -1   -1    0    0    0  501 -0.00000000000E+00  0.00000000000E+00  0.21396621977E+02  0.21396621977E+02  0.00000000000E+00 0.  1.
          1   -1    0    0  501    0  0.00000000000E+00 -0.00000000000E+00 -0.73121111610E+03  0.73121111610E+03  0.00000000000E+00 0. -1.
         25    2    1    2    0    0 -0.27068362670E+01 -0.72000595759E+02 -0.43014266942E+03  0.45371997618E+03  0.12509071901E+03 0.  0.
          5    1    3    3  502    0  0.32256070886E+02 -0.92083543294E+02 -0.23632159248E+03  0.25570530015E+03  0.41800000000E+01 0. -1.
         -5    1    3    3    0  502 -0.34962907153E+02  0.20082947535E+02 -0.19382107694E+03  0.19801467603E+03  0.41800000000E+01 0. -1.
        -11    1    1    2    0    0 -0.80412392276E+01  0.46877539877E+02 -0.26214382730E+03  0.26642363158E+03  0.00000000000E+00 0. -1.
         11    1    1    2    0    0  0.10748075495E+02  0.25123055883E+02 -0.17527997404E+02  0.32464130309E+02  0.00000000000E+00 0.  1.
</event>
<event>
 7    1  0.2794945E-009  0.1153961E+03  0.7561462E-02  0.1250891E+00
          1   -1    0    0  501    0  0.00000000000E+00  0.00000000000E+00  0.33500926986E+03  0.33500926986E+03  0.00000000000E+00 0. -1.
         -1   -1    0    0    0  501 -0.00000000000E+00 -0.00000000000E+00 -0.53185244181E+02  0.53185244181E+02  0.00000000000E+00 0.  1.
         25    2    1    2    0    0 -0.40150139784E+02 -0.91816342341E+01  0.59250212477E+02  0.14441124220E+03  0.12509069935E+03 0.  0.
          5    1    3    3  502    0 -0.74313490321E+02 -0.40645438312E+02  0.42523496816E+02  0.94869735326E+02  0.41800000000E+01 0. -1.
         -5    1    3    3    0  502  0.34163350537E+02  0.31463804078E+02  0.16726715661E+02  0.49541506878E+02  0.41800000000E+01 0. -1.
        -11    1    1    2    0    0  0.68235540983E+02  0.16760843515E+02  0.16229760472E+03  0.17685453748E+03  0.00000000000E+00 0. -1.
         11    1    1    2    0    0 -0.28085401199E+02 -0.75792092813E+01  0.60276208477E+02  0.66928734353E+02  0.00000000000E+00 0.  1.
</event>
<event>
 7    1  0.2794945E-009  0.1012653E+03  0.7561462E-02  0.1277657E+00
         -3   -1    0    0    0  501 -0.00000000000E+00  0.00000000000E+00  0.13955096140E+03  0.13955096140E+03  0.00000000000E+00 0.  1.
          3   -1    0    0  501    0  0.00000000000E+00 -0.00000000000E+00 -0.91776523514E+02  0.91776523514E+02  0.00000000000E+00 0. -1.
         25    2    1    2    0    0  0.18327940519E+01 -0.17987246490E+01 -0.58251596221E+01  0.12525860416E+03  0.12509672613E+03 0.  0.
          5    1    3    3  502    0  0.58027856289E+02  0.10496189322E+02  0.19523682567E+02  0.62257920595E+02  0.41800000000E+01 0. -1.
         -5    1    3    3    0  502 -0.56195062237E+02 -0.12294913971E+02 -0.25348842190E+02  0.63000683566E+02  0.41800000000E+01 0. -1.
        -11    1    1    2    0    0 -0.42527624390E+02  0.11184882119E+02  0.45967901750E+02  0.63614058317E+02  0.00000000000E+00 0.  1.
         11    1    1    2    0    0  0.40694830338E+02 -0.93861574699E+01  0.76316957617E+01  0.42454822441E+02  0.00000000000E+00 0. -1.
</event>
<event>
 7    1  0.2794945E-009  0.9753161E+02  0.7561462E-02  0.1285574E+00
         -2   -1    0    0    0  501 -0.00000000000E+00  0.00000000000E+00  0.22236314428E+02  0.22236314428E+02  0.00000000000E+00 0.  1.
          2   -1    0    0  501    0  0.00000000000E+00 -0.00000000000E+00 -0.58510839672E+03  0.58510839672E+03  0.00000000000E+00 0. -1.
         25    2    1    2    0    0  0.32171244967E+02 -0.79776745496E+01 -0.37610838143E+03  0.39774598741E+03  0.12508286702E+03 0.  0.
          5    1    3    3  502    0  0.51158201427E+02 -0.51611155837E+02 -0.15104565441E+03  0.16766972027E+03  0.41800000000E+01 0. -1.
         -5    1    3    3    0  502 -0.18986956459E+02  0.43633481287E+02 -0.22506272702E+03  0.23007626713E+03  0.41800000000E+01 0. -1.
        -11    1    1    2    0    0  0.89908619788E+01  0.27511065824E+02 -0.14477476944E+03  0.14763952116E+03  0.00000000000E+00 0. -1.
         11    1    1    2    0    0 -0.41162106946E+02 -0.19533391274E+02 -0.41988931429E+02  0.61959202589E+02  0.00000000000E+00 0.  1.
</event>
<event>
 7    1  0.2794945E-009  0.1261598E+03  0.7561462E-02  0.1233268E+00
          1   -1    0    0  501    0  0.00000000000E+00  0.00000000000E+00  0.50436528394E+03  0.50436528394E+03  0.00000000000E+00 0. -1.
         -1   -1    0    0    0  501 -0.00000000000E+00 -0.00000000000E+00 -0.60910792264E+02  0.60910792264E+02  0.00000000000E+00 0.  1.
         25    2    1    2    0    0  0.10527128179E+03  0.38040636867E+02  0.10665822291E+03  0.19887854326E+03  0.12509022997E+03 0.  0.
          5    1    3    3  502    0  0.64198488071E+02  0.59985356309E+01 -0.15121165633E+02  0.66359252184E+02  0.41800000000E+01 0.  1.
         -5    1    3    3    0  502  0.41072793714E+02  0.32042101236E+02  0.12177938854E+03  0.13251929108E+03  0.41800000000E+01 0.  1.
        -11    1    1    2    0    0 -0.58754852573E+02 -0.60025975719E+02  0.14258138915E+03  0.16548324082E+03  0.00000000000E+00 0. -1.
         11    1    1    2    0    0 -0.46516429212E+02  0.21985338851E+02  0.19421487962E+03  0.20091429212E+03  0.00000000000E+00 0.  1.
</event>
<event>
 7    1  0.2794945E-009  0.1261062E+03  0.7561462E-02  0.1233351E+00
         -1   -1    0    0    0  501 -0.00000000000E+00  0.00000000000E+00  0.10039063050E+03  0.10039063050E+03  0.00000000000E+00 0.  1.
          1   -1    0    0  501    0  0.00000000000E+00 -0.00000000000E+00 -0.21603728990E+03  0.21603728990E+03  0.00000000000E+00 0. -1.
         25    2    1    2    0    0  0.95708451058E+01  0.86441805108E+02 -0.11490591585E+03  0.19082542314E+03  0.12508871201E+03 0.  0.
          5    1    3    3  502    0  0.66225991641E+02  0.45017918580E+02 -0.75951066366E+02  0.11044696394E+03  0.41800000000E+01 0. -1.
         -5    1    3    3    0  502 -0.56655146535E+02  0.41423886528E+02 -0.38954849487E+02  0.80378459195E+02  0.41800000000E+01 0. -1.
        -11    1    1    2    0    0  0.16659286442E+02 -0.70231746345E+01  0.31210855240E+02  0.36069021216E+02  0.00000000000E+00 0.  1.
         11    1    1    2    0    0 -0.26230131548E+02 -0.79418630473E+02 -0.31951598790E+02  0.89533476044E+02  0.00000000000E+00 0. -1.
</event>
<event>
 7    1  0.2794945E-009  0.6195187E+02  0.7561462E-02  0.1389819E+00
         -2   -1    0    0    0  501 -0.00000000000E+00  0.00000000000E+00  0.63236208462E+02  0.63236208462E+02  0.00000000000E+00 0.  1.
          2   -1    0    0  501    0  0.00000000000E+00 -0.00000000000E+00 -0.20163860138E+03  0.20163860138E+03  0.00000000000E+00 0. -1.
         25    2    1    2    0    0  0.89595885023E+01 -0.22815446484E+02 -0.96933814456E+02  0.16013716589E+03  0.12508768401E+03 0.  0.
          5    1    3    3  502    0 -0.17119348513E+01 -0.11078448384E+02  0.29921942020E+02  0.32225110610E+02  0.41800000000E+01 0. -1.
         -5    1    3    3    0  502  0.10671523354E+02 -0.11736998100E+02 -0.12685575648E+03  0.12791205528E+03  0.41800000000E+01 0. -1.
        -11    1    1    2    0    0 -0.17137198894E+02  0.57448351255E+02 -0.20101579087E+02  0.63230294398E+02  0.00000000000E+00 0.  1.
         11    1    1    2    0    0  0.81776103914E+01 -0.34632904772E+02 -0.21366999377E+02  0.41507349554E+02  0.00000000000E+00 0. -1.
</event>
<event>
 7    1  0.2794945E-009  0.2103823E+03  0.7561462E-02  0.1141264E+00
         -1   -1    0    0    0  501 -0.00000000000E+00  0.00000000000E+00  0.63310871889E+02  0.63310871889E+02  0.00000000000E+00 0.  1.
          1   -1    0    0  501    0  0.00000000000E+00 -0.00000000000E+00 -0.87214955839E+03  0.87214955839E+03  0.00000000000E+00 0. -1.
         25    2    1    2    0    0  0.13394641589E+03  0.13822967660E+03 -0.57353869025E+03  0.61777250395E+03  0.12508857501E+03 0.  0.
          5    1    3    3  502    0  0.86075115423E+02  0.13485528196E+03 -0.52710594208E+03  0.55086569974E+03  0.41800000000E+01 0. -1.
         -5    1    3    3    0  502  0.47871300466E+02  0.33743946385E+01 -0.46432748169E+02  0.66906804213E+02  0.41800000000E+01 0. -1.
        -11    1    1    2    0    0 -0.14315773172E+03 -0.10357749906E+03 -0.18405351502E+03  0.25514335354E+03  0.00000000000E+00 0. -1.
         11    1    1    2    0    0  0.92113158269E+01 -0.34652177540E+02 -0.51246481222E+02  0.62544572788E+02  0.00000000000E+00 0.  1.
</event>
<event>
 7    1  0.2794945E-009  0.8672425E+02  0.7561462E-02  0.1310984E+00
          2   -1    0    0  501    0  0.00000000000E+00  0.00000000000E+00  0.75167491391E+03  0.75167491391E+03  0.00000000000E+00 0.  1.
         -2   -1    0    0    0  501 -0.00000000000E+00 -0.00000000000E+00 -0.26732633973E+02  0.26732633973E+02  0.00000000000E+00 0. -1.
         25    2    1    2    0    0  0.67728966461E+02  0.32682176380E+02  0.53081347921E+03  0.55051452595E+03  0.12509179039E+03 0.  0.
          5    1    3    3  502    0  0.61672881145E+02  0.39217705321E+02  0.53487950997E+03  0.53986584932E+03  0.41800000000E+01 0.  1.
         -5    1    3    3    0  502  0.60560853165E+01 -0.65355289403E+01 -0.40660307580E+01  0.10648676632E+02  0.41800000000E+01 0.  1.
        -11    1    1    2    0    0 -0.41473502884E+02  0.77507275169E+01  0.19040694950E+02  0.46289019029E+02  0.00000000000E+00 0. -1.
         11    1    1    2    0    0 -0.26255463577E+02 -0.40432903897E+02  0.17508810577E+03  0.18160400290E+03  0.00000000000E+00 0.  1.
</event>
<event>
 7    1  0.2794945E-009  0.1657417E+03  0.7561462E-02  0.1182363E+00
          2   -1    0    0  501    0  0.00000000000E+00  0.00000000000E+00  0.59102757218E+03  0.59102757218E+03  0.00000000000E+00 0. -1.
         -2   -1    0    0    0  501 -0.00000000000E+00 -0.00000000000E+00 -0.48604029347E+02  0.48604029347E+02  0.00000000000E+00 0.  1.
         25    2    1    2    0    0 -0.18613501095E+02 -0.12906444218E+03  0.28017493338E+03  0.33339236854E+03  0.12509350682E+03 0.  0.
          5    1    3    3  502    0 -0.47169077459E+02  0.49838311367E-02  0.58529607971E+02  0.75286846809E+02  0.41800000000E+01 0. -1.
         -5    1    3    3    0  502  0.28555576365E+02 -0.12906942601E+03  0.22164532541E+03  0.25810552173E+03  0.41800000000E+01 0. -1.
        -11    1    1    2    0    0  0.46609104828E+02  0.51747486333E+02  0.16364452872E+03  0.17784752676E+03  0.00000000000E+00 0. -1.
         11    1    1    2    0    0 -0.27995603733E+02  0.77316955848E+02  0.98604080725E+02  0.12839170622E+03  0.00000000000E+00 0.  1.
</event>
<event>
 7    1  0.3440833E-009  0.1279196E+03  0.7561462E-02  0.1230576E+00
         -2   -1    0    0    0  501 -0.00000000000E+00  0.00000000000E+00  0.15222603224E+03  0.15222603224E+03  0.00000000000E+00 0.  1.
          2   -1    0    0  501    0  0.00000000000E+00 -0.00000000000E+00 -0.19764172753E+03  0.19764172753E+03  0.00000000000E+00 0. -1.
         25    2    1    2    0    0 -0.61112653090E+02  0.82086729102E+02 -0.11261137628E+03  0.19698181655E+03  0.12509007363E+03 0.  0.
          5    1    3    3  502    0 -0.88240797502E+02  0.88452486809E+02 -0.63145957527E+02  0.14005415066E+03  0.41800000000E+01 0. -1.
         -5    1    3    3    0  502  0.27128144412E+02 -0.63657577063E+01 -0.49465418752E+02  0.56927665882E+02  0.41800000000E+01 0. -1.
        -11    1    1    2    0    0  0.23179473499E+02 -0.37786605738E+02 -0.19475490719E+02  0.48419110934E+02  0.00000000000E+00 0. -1.
         11    1    1    2    0    0  0.37933179591E+02 -0.44300123364E+02  0.86671171702E+02  0.10446683229E+03  0.00000000000E+00 0.  1.
</event>
<event>
 7    1  0.2794945E-009  0.1334223E+03  0.7561462E-02  0.1222464E+00
         -1   -1    0    0    0  501 -0.00000000000E+00  0.00000000000E+00  0.33841005055E+02  0.33841005055E+02  0.00000000000E+00 0.  1.
          1   -1    0    0  501    0  0.00000000000E+00 -0.00000000000E+00 -0.72469711771E+03  0.72469711771E+03  0.00000000000E+00 0. -1.
         25    2    1    2    0    0  0.85365959191E+02  0.49306956400E+02 -0.50349213066E+03  0.52808180868E+03  0.12509015979E+03 0.  0.
          5    1    3    3  502    0  0.23203659786E+02  0.75857873145E+02 -0.36955234842E+03  0.37799370017E+03  0.41800000000E+01 0. -1.
         -5    1    3    3    0  502  0.62162299405E+02 -0.26550916745E+02 -0.13393978225E+03  0.15008810851E+03  0.41800000000E+01 0. -1.
        -11    1    1    2    0    0  0.86978456128E+01  0.59979117505E+01  0.30467341673E+01  0.10995910729E+02  0.00000000000E+00 0.  1.
         11    1    1    2    0    0 -0.94063804804E+02 -0.55304868151E+02 -0.19041071616E+03  0.21946040336E+03  0.00000000000E+00 0. -1.
</event>
<event>
 7    1  0.2794945E-009  0.1230623E+03  0.7561462E-02  0.1238129E+00
          1   -1    0    0  501    0  0.00000000000E+00  0.00000000000E+00  0.13305858074E+03  0.13305858074E+03  0.00000000000E+00 0. -1.
         -1   -1    0    0    0  501 -0.00000000000E+00 -0.00000000000E+00 -0.16033000745E+03  0.16033000745E+03  0.00000000000E+00 0.  1.
         25    2    1    2    0    0  0.53855257294E+02  0.60341269412E+02 -0.69510306816E+02  0.16437434326E+03  0.12508311012E+03 0.  0.
          5    1    3    3  502    0 -0.31633976765E+02  0.37663575288E+02  0.36744455432E+01  0.49499771106E+02  0.41800000000E+01 0. -1.
         -5    1    3    3    0  502  0.85489234059E+02  0.22677694124E+02 -0.73184752359E+02  0.11487457216E+03  0.41800000000E+01 0. -1.
        -11    1    1    2    0    0 -0.70718769158E+00  0.15549812348E+02 -0.13742414074E+02  0.20764169212E+02  0.00000000000E+00 0.  1.
         11    1    1    2    0    0 -0.53148069602E+02 -0.75891081760E+02  0.55981294182E+02  0.10825007571E+03  0.00000000000E+00 0. -1.
</event>
<event>
 7    1  0.2794945E-009  0.1422010E+03  0.7561462E-02  0.1210398E+00
          2   -1    0    0  501    0  0.00000000000E+00  0.00000000000E+00  0.54256644144E+03  0.54256644144E+03  0.00000000000E+00 0.  1.
         -2   -1    0    0    0  501 -0.00000000000E+00 -0.00000000000E+00 -0.55403519856E+02  0.55403519856E+02  0.00000000000E+00 0. -1.
         25    2    1    2    0    0 -0.18610306232E+02 -0.11375944846E+03  0.37662644709E+03  0.41325858328E+03  0.12509044886E+03 0.  0.
          5    1    3    3  502    0 -0.11411348213E+02  0.11493850071E+02  0.17466626808E+03  0.17546539563E+03  0.41800000000E+01 0.  1.
         -5    1    3    3    0  502 -0.71989580198E+01 -0.12525329853E+03  0.20196017901E+03  0.23779318766E+03  0.41800000000E+01 0.  1.
        -11    1    1    2    0    0 -0.10664877463E+02  0.11232986933E+03  0.64022356773E+02  0.12973280742E+03  0.00000000000E+00 0. -1.
         11    1    1    2    0    0  0.29275183696E+02  0.14295791318E+01  0.46514117719E+02  0.54978570590E+02  0.00000000000E+00 0.  1.
</event>
<event>
 7    1  0.2794945E-009  0.1180717E+03  0.7561462E-02  0.1246312E+00
         -3   -1    0    0    0  501 -0.00000000000E+00  0.00000000000E+00  0.46072886813E+02  0.46072886813E+02  0.00000000000E+00 0.  1.
          3   -1    0    0  501    0  0.00000000000E+00 -0.00000000000E+00 -0.45775983974E+03  0.45775983974E+03  0.00000000000E+00 0. -1.
         25    2    1    2    0    0  0.11940205530E+02 -0.51592338945E+02 -0.36813501383E+03  0.39239821150E+03  0.12509448444E+03 0.  0.
          5    1    3    3  502    0 -0.49456875999E+02  0.58864702206E+01 -0.10872248692E+03  0.11966070649E+03  0.41800000000E+01 0. -1.
         -5    1    3    3    0  502  0.61397081529E+02 -0.57478809166E+02 -0.25941252690E+03  0.27273750501E+03  0.41800000000E+01 0. -1.
        -11    1    1    2    0    0 -0.74754841613E+01  0.76391891797E+02 -0.27383878194E+02  0.81495280727E+02  0.00000000000E+00 0. -1.
         11    1    1    2    0    0 -0.44647213684E+01 -0.24799552852E+02 -0.16168060903E+02  0.29939234324E+02  0.00000000000E+00 0.  1.
</event>
<event>
 7    1  0.2794945E-009  0.9786588E+02  0.7561462E-02  0.1284849E+00
          1   -1    0    0  501    0  0.00000000000E+00  0.00000000000E+00  0.53867302534E+02  0.53867302534E+02  0.00000000000E+00 0. -1.
         -1   -1    0    0    0  501 -0.00000000000E+00 -0.00000000000E+00 -0.24519560729E+03  0.24519560729E+03  0.00000000000E+00 0.  1.
         25    2    1    2    0    0 -0.90534364030E+01  0.17974930963E+02 -0.14938845049E+03  0.19588140461E+03  0.12509017819E+03 0.  0.
          5    1    3    3  502    0 -0.15645758877E+02  0.66413187991E+02 -0.48879829800E+02  0.84036964910E+02  0.41800000000E+01 0.  1.
         -5    1    3    3    0  502  0.65923224738E+01 -0.48438257027E+02 -0.10050862069E+03  0.11184443970E+03  0.41800000000E+01 0.  1.
        -11    1    1    2    0    0  0.42105151598E+02 -0.35737125813E+01  0.65460157469E+01  0.42760560507E+02  0.00000000000E+00 0. -1.
         11    1    1    2    0    0 -0.33051715195E+02 -0.14401218382E+02 -0.48485870011E+02  0.60420944704E+02  0.00000000000E+00 0.  1.
</event>
<event>
 7    1  0.2794945E-009  0.1767495E+03  0.7561462E-02  0.1170986E+00
          1   -1    0    0  501    0  0.00000000000E+00  0.00000000000E+00  0.22946824875E+03  0.22946824875E+03  0.00000000000E+00 0. -1.
         -1   -1    0    0    0  501 -0.00000000000E+00 -0.00000000000E+00 -0.17117362065E+03  0.17117362065E+03  0.00000000000E+00 0.  1.
         25    2    1    2    0    0  0.11465395782E+03  0.11796668282E+03  0.85940306593E+01  0.20683792033E+03  0.12508556921E+03 0.  0.
          5    1    3    3  502    0  0.93308351391E+02  0.54970709970E+02 -0.48825948320E+02  0.11886830117E+03  0.41800000000E+01 0. -1.
         -5    1    3    3    0  502  0.21345606426E+02  0.62995972848E+02  0.57419978979E+02  0.87969619158E+02  0.41800000000E+01 0. -1.
        -11    1    1    2    0    0 -0.10477076107E+03 -0.12730836339E+03  0.61326256092E+02  0.17591259606E+03  0.00000000000E+00 0. -1.
         11    1    1    2    0    0 -0.98831967478E+01  0.93416805750E+01 -0.11625658644E+02  0.17891353018E+02  0.00000000000E+00 0.  1.
</event>
<event>
 7    1  0.2794945E-009  0.1424481E+03  0.7561462E-02  0.1210072E+00
         -1   -1    0    0    0  501 -0.00000000000E+00  0.00000000000E+00  0.12607066885E+02  0.12607066885E+02  0.00000000000E+00 0.  1.
          1   -1    0    0  501    0  0.00000000000E+00 -0.00000000000E+00 -0.17716186532E+04  0.17716186532E+04  0.00000000000E+00 0. -1.
         25    2    1    2    0    0 -0.92313870481E+02  0.52387943793E+02 -0.10345042843E+04  0.10474332470E+04  0.12510373810E+03 0.  0.
          5    1    3    3  502    0 -0.10218467592E+03  0.38218405203E+01 -0.85712847696E+03  0.86321666624E+03  0.41800000000E+01 0.  1.
         -5    1    3    3    0  502  0.98708054357E+01  0.48566103273E+02 -0.17737580735E+03  0.18421658074E+03  0.41800000000E+01 0.  1.
        -11    1    1    2    0    0  0.10713761181E+03 -0.47659734842E+02 -0.66640533920E+03  0.67664318093E+03  0.00000000000E+00 0. -1.
         11    1    1    2    0    0 -0.14823741326E+02 -0.47282089509E+01 -0.58101962781E+02  0.60149292147E+02  0.00000000000E+00 0.  1.
</event>
<event>
 7    1  0.2794945E-009  0.1151527E+03  0.7561462E-02  0.1251315E+00
          2   -1    0    0  501    0  0.00000000000E+00  0.00000000000E+00  0.87378823523E+03  0.87378823523E+03  0.00000000000E+00 0. -1.
         -2   -1    0    0    0  501 -0.00000000000E+00 -0.00000000000E+00 -0.27286287954E+02  0.27286287954E+02  0.00000000000E+00 0.  1.
         25    2    1    2    0    0 -0.88065905195E+02 -0.22216457251E+02  0.62472802562E+03  0.64356517819E+03  0.12506741364E+03 0.  0.
          5    1    3    3  502    0 -0.75795566715E+02 -0.10206000757E+01  0.60995106802E+03  0.61465745528E+03  0.41800000000E+01 0. -1.
         -5    1    3    3    0  502 -0.12270338479E+02 -0.21195857175E+02  0.14776957602E+02  0.28907722908E+02  0.41800000000E+01 0. -1.
        -11    1    1    2    0    0 -0.34984294395E+00 -0.27905650627E+02  0.33929494845E+02  0.43932429337E+02  0.00000000000E+00 0.  1.
         11    1    1    2    0    0  0.88415748139E+02  0.50122107878E+02  0.18784442681E+03  0.21357691566E+03  0.00000000000E+00 0. -1.
</event>
<event>
 6    1  0.2794945E-009  0.6817219E+02  0.7561462E-02  0.1366421E+00
          1   -1    0    0  501    0  0.00000000000E+00  0.00000000000E+00  0.11111288987E+03  0.11111288987E+03  0.00000000000E+00 0. -1.
         -1   -1    0    0    0  501 -0.00000000000E+00 -0.00000000000E+00 -0.10569269447E+03  0.10569269447E+03  0.00000000000E+00 0.  1.
          5    1    1    2  502    0 -0.50738084478E+01  0.35104896991E+02 -0.48390753556E+02  0.60143451469E+02  0.41800000000E+01 0.  1.
         -5    1    1    2    0  502  0.26628990719E+01 -0.41167797843E+02  0.50003397036E+02  0.64959146591E+02  0.41800000000E+01 0.  1.
        -11    1    1    2    0    0  0.15717495862E+02  0.28805628750E+02 -0.32932887784E+02  0.46490633698E+02  0.00000000000E+00 0.  1.
         11    1    1    2    0    0 -0.13306586486E+02 -0.22742727898E+02  0.36740439707E+02  0.45212352582E+02  0.00000000000E+00 0. -1.
</event>
<event>
 7    1  0.2794945E-009  0.1278725E+03  0.7561462E-02  0.1230647E+00
          1   -1    0    0  501    0  0.00000000000E+00  0.00000000000E+00  0.94245262351E+01  0.94245262351E+01  0.00000000000E+00 0. -1.
         -1   -1    0    0    0  501 -0.00000000000E+00 -0.00000000000E+00 -0.19126081858E+04  0.19126081858E+04  0.00000000000E+00 0.  1.
         25    2    1    2    0    0  0.59479537835E+02  0.38375907843E+02 -0.12058201976E+04  0.12143565903E+04  0.12509617819E+03 0.  0.
          5    1    3    3  502    0  0.72696017565E+02  0.69899639034E+02 -0.10465385666E+04  0.10513948422E+04  0.41800000000E+01 0. -1.
         -5    1    3    3    0  502 -0.13216479730E+02 -0.31523731190E+02 -0.15928163101E+03  0.16296174809E+03  0.41800000000E+01 0. -1.
        -11    1    1    2    0    0 -0.13050215631E+02 -0.65373792032E+02 -0.38786806036E+03  0.39355517156E+03  0.00000000000E+00 0.  1.
         11    1    1    2    0    0 -0.46429322204E+02  0.26997884189E+02 -0.30949540164E+03  0.31412095019E+03  0.00000000000E+00 0. -1.
</event>
<event>
 7    1  0.2794945E-009  0.1427083E+03  0.7561462E-02  0.1209730E+00
          1   -1    0    0  501    0  0.00000000000E+00  0.00000000000E+00  0.45072990951E+02  0.45072990951E+02  0.00000000000E+00 0. -1.
         -1   -1    0    0    0  501 -0.00000000000E+00 -0.00000000000E+00 -0.67214221807E+03  0.67214221807E+03  0.00000000000E+00 0.  1.
         25    2    1    2    0    0 -0.79819319371E+02 -0.88920294394E+02 -0.19328309321E+03  0.25938985190E+03  0.12508716421E+03 0.  0.
          5    1    3    3  502    0  0.24805549387E+01 -0.54826325964E+02 -0.10531705188E+02  0.56039882100E+02  0.41800000000E+01 0. -1.
         -5    1    3    3    0  502 -0.82299874310E+02 -0.34093968430E+02 -0.18275138802E+03  0.20334996980E+03  0.41800000000E+01 0. -1.
        -11    1    1    2    0    0  0.11838378304E+02  0.69490700252E+02 -0.27710125408E+03  0.28592693059E+03  0.00000000000E+00 0. -1.
         11    1    1    2    0    0  0.67980941067E+02  0.19429594142E+02 -0.15668487982E+03  0.17189842653E+03  0.00000000000E+00 0.  1.
</event>
<event>
 7    1  0.2794945E-009  0.1780085E+03  0.7561462E-02  0.1169744E+00
         -1   -1    0    0    0  501 -0.00000000000E+00  0.00000000000E+00  0.20841627971E+04  0.20841627971E+04  0.00000000000E+00 0.  1.
          1   -1    0    0  501    0  0.00000000000E+00 -0.00000000000E+00 -0.22688886742E+02  0.22688886742E+02  0.00000000000E+00 0. -1.
         25    2    1    2    0    0 -0.11648869379E+03  0.10572740208E+03  0.15741970796E+04  0.15869759566E+04  0.12509333350E+03 0.  0.
          5    1    3    3  502    0 -0.12899617496E+03  0.62035987315E+02  0.13836178960E+04  0.13910084224E+04  0.41800000000E+01 0.  1.
         -5    1    3    3    0  502  0.12507481170E+02  0.43691414769E+02  0.19057918365E+03  0.19596753418E+03  0.41800000000E+01 0.  1.
        -11    1    1    2    0    0  0.89232064468E+02 -0.43553666343E+02  0.18387573001E+03  0.20897264718E+03  0.00000000000E+00 0. -1.
         11    1    1    2    0    0  0.27256629320E+02 -0.62173735740E+02  0.30340110077E+03  0.31090308008E+03  0.00000000000E+00 0.  1.
</event>
<event>
 7    1  0.2794945E-009  0.1241984E+03  0.7561462E-02  0.1236327E+00
          2   -1    0    0  501    0  0.00000000000E+00  0.00000000000E+00  0.28802677496E+02  0.28802677496E+02  0.00000000000E+00 0.  1.
         -2   -1    0    0    0  501 -0.00000000000E+00 -0.00000000000E+00 -0.56885399050E+03  0.56885399050E+03  0.00000000000E+00 0. -1.
         25    2    1    2    0    0 -0.47200040338E+02 -0.49333933978E+02 -0.27416509023E+03  0.30899161192E+03  0.12509052197E+03 0.  0.
          5    1    3    3  502    0  0.38810120615E+02 -0.29881200516E+02 -0.61513589224E+02  0.78743289654E+02  0.41800000000E+01 0. -1.
         -5    1    3    3    0  502 -0.86010160953E+02 -0.19452733462E+02 -0.21265150101E+03  0.23024832227E+03  0.41800000000E+01 0. -1.
        -11    1    1    2    0    0  0.11452107290E+02  0.69144386399E+02 -0.14485372657E+03  0.16091829925E+03  0.00000000000E+00 0. -1.
         11    1    1    2    0    0  0.35747933048E+02 -0.19810452421E+02 -0.12103249620E+03  0.12774675682E+03  0.00000000000E+00 0.  1.
</event>
<event>
 7    1  0.4451589E-009  0.1510691E+03  0.7561462E-02  0.1199165E+00
         -2   -1    0    0    0  501 -0.00000000000E+00  0.00000000000E+00  0.55699460218E+02  0.55699460218E+02  0.00000000000E+00 0.  1.
          2   -1    0    0  501    0  0.00000000000E+00 -0.00000000000E+00 -0.53936159390E+03  0.53936159390E+03  0.00000000000E+00 0. -1.
         25    2    1    2    0    0  0.61073153320E+02 -0.11083559062E+03 -0.17622987835E+03  0.25043514216E+03  0.12508529969E+03 0.  0.
          5    1    3    3  502    0  0.62753065601E+02 -0.26385323471E+02 -0.14507796216E+03  0.16030976277E+03  0.41800000000E+01 0.  1.
         -5    1    3    3    0  502 -0.16799122814E+01 -0.84450267146E+02 -0.31151916195E+02  0.90125379383E+02  0.41800000000E+01 0.  1.
        -11    1    1    2    0    0 -0.67097854929E+02  0.39675178096E+02 -0.11118023818E+03  0.13578397275E+03  0.00000000000E+00 0.  1.
         11    1    1    2    0    0  0.60247016092E+01  0.71160412521E+02 -0.19625201715E+03  0.20884193922E+03  0.00000000000E+00 0. -1.
</event>
<event>
 7    1  0.2794945E-009  0.9874975E+02  0.7561462E-02  0.1282947E+00
         -1   -1    0    0    0  501 -0.00000000000E+00  0.00000000000E+00  0.11734316329E+03  0.11734316329E+03  0.00000000000E+00 0.  1.
          1   -1    0    0  501    0  0.00000000000E+00 -0.00000000000E+00 -0.34658688365E+03  0.34658688365E+03  0.00000000000E+00 0. -1.
         25    2    1    2    0    0 -0.12032704166E+02  0.53053073275E+02 -0.30461386016E+03  0.33376178825E+03  0.12509161818E+03 0.  0.
          5    1    3    3  502    0  0.19884102410E+02  0.87138101189E+02 -0.20417126312E+03  0.22291658371E+03  0.41800000000E+01 0.  1.
         -5    1    3    3    0  502 -0.31916806576E+02 -0.34085027914E+02 -0.10044259704E+03  0.11084520454E+03  0.41800000000E+01 0.  1.
        -11    1    1    2    0    0 -0.16366236282E+01 -0.45490068265E+02  0.94844542198E+02  0.10520224348E+03  0.00000000000E+00 0.  1.
         11    1    1    2    0    0  0.13669327794E+02 -0.75630050099E+01 -0.19474402400E+02  0.24966015220E+02  0.00000000000E+00 0. -1.
</event>
<event>
 7    1  0.2794945E-009  0.1436820E+03  0.7561462E-02  0.1208459E+00
          1   -1    0    0  501    0  0.00000000000E+00  0.00000000000E+00  0.58595508348E+03  0.58595508348E+03  0.00000000000E+00 0. -1.
         -1   -1    0    0    0  501 -0.00000000000E+00 -0.00000000000E+00 -0.44601607578E+02  0.44601607578E+02  0.00000000000E+00 0.  1.
         25    2    1    2    0    0  0.53526932067E+02  0.10763042723E+03  0.27423688897E+03  0.32450325900E+03  0.12508817893E+03 0.  0.
          5    1    3    3  502    0  0.51283735936E-01 -0.16190745922E+02 -0.22231245177E+01  0.16868834167E+02  0.41800000000E+01 0. -1.
         -5    1    3    3    0  502  0.53475648331E+02  0.12382117315E+03  0.27646001349E+03  0.30763442484E+03  0.41800000000E+01 0. -1.
        -11    1    1    2    0    0  0.13889651780E+02 -0.28808808705E+02  0.13142794990E+03  0.13526335756E+03  0.00000000000E+00 0. -1.
         11    1    1    2    0    0 -0.67416583847E+02 -0.78821618528E+02  0.13568863704E+03  0.17079007449E+03  0.00000000000E+00 0.  1.
</event>
<event>
 7    1  0.2794945E-009  0.1067489E+03  0.7561462E-02  0.1266712E+00
          1   -1    0    0  501    0  0.00000000000E+00  0.00000000000E+00  0.21273216320E+03  0.21273216320E+03  0.00000000000E+00 0. -1.
         -1   -1    0    0    0  501 -0.00000000000E+00 -0.00000000000E+00 -0.80473547166E+02  0.80473547166E+02  0.00000000000E+00 0.  1.
         25    2    1    2    0    0 -0.25142609267E+02  0.49659495321E+02  0.12336407175E+03  0.18429534766E+03  0.12509142535E+03 0.  0.
          5    1    3    3  502    0  0.44099045679E+02  0.51438593971E+01  0.78934374943E+02  0.90660316936E+02  0.41800000000E+01 0.  1.
         -5    1    3    3    0  502 -0.69241654945E+02  0.44515635924E+02  0.44429696803E+02  0.93635030727E+02  0.41800000000E+01 0.  1.
        -11    1    1    2    0    0 -0.22686850125E+02 -0.19670586301E+02  0.35504810138E+02  0.46499641686E+02  0.00000000000E+00 0. -1.
         11    1    1    2    0    0  0.47829459392E+02 -0.29988909020E+02 -0.26610265846E+02  0.62410721021E+02  0.00000000000E+00 0.  1.
</event>
<event>
 7    1  0.2794945E-009  0.2642895E+03  0.7561462E-02  0.1104593E+00
         -1   -1    0    0    0  501 -0.00000000000E+00  0.00000000000E+00  0.56888057913E+02  0.56888057913E+02  0.00000000000E+00 0.  1.
          1   -1    0    0  501    0  0.00000000000E+00 -0.00000000000E+00 -0.13546059112E+04  0.13546059112E+04  0.00000000000E+00 0. -1.
         25    2    1    2    0    0  0.19921350374E+03 -0.15656115138E+03 -0.73702509159E+03  0.78933525893E+03  0.12508697438E+03 0.  0.
          5    1    3    3  502    0  0.19801947536E+01  0.11507427205E+02 -0.60934014102E+01  0.13818248546E+02  0.41800000000E+01 0. -1.
         -5    1    3    3    0  502  0.19723330899E+03 -0.16806857859E+03 -0.73093169018E+03  0.77551701038E+03  0.41800000000E+01 0. -1.
        -11    1    1    2    0    0 -0.73746997498E+02  0.32575488431E+02 -0.97494363699E+02  0.12651060445E+03  0.00000000000E+00 0.  1.
         11    1    1    2    0    0 -0.12546650625E+03  0.12398566295E+03 -0.46319839804E+03  0.49564810577E+03  0.00000000000E+00 0. -1.
</event>
<event>
 7    1  0.2794945E-009  0.1039764E+03  0.7561462E-02  0.1272150E+00
         -2   -1    0    0    0  501 -0.00000000000E+00  0.00000000000E+00  0.66234950369E+02  0.66234950369E+02  0.00000000000E+00 0.  1.
          2   -1    0    0  501    0  0.00000000000E+00 -0.00000000000E+00 -0.25552099495E+03  0.25552099495E+03  0.00000000000E+00 0. -1.
         25    2    1    2    0    0 -0.12325222257E+01 -0.68386674244E+02 -0.76209025277E+02  0.16165984897E+03  0.12509130629E+03 0.  0.
          5    1    3    3  502    0  0.43147447265E+02 -0.72733948944E+02 -0.15279329904E+02  0.86039873645E+02  0.41800000000E+01 0. -1.
         -5    1    3    3    0  502 -0.44379969491E+02  0.43472747000E+01 -0.60929695373E+02  0.75619975321E+02  0.41800000000E+01 0. -1.
        -11    1    1    2    0    0 -0.18621760401E+02  0.31077478140E+02 -0.11211356089E+03  0.11782202741E+03  0.00000000000E+00 0. -1.
         11    1    1    2    0    0  0.19854282627E+02  0.37309196104E+02 -0.96345841259E+00  0.42274068939E+02  0.00000000000E+00 0.  1.
</event>
<event>
 7    1  0.2794945E-009  0.3120175E+03  0.7561462E-02  0.1079383E+00
         -2   -1    0    0    0  501 -0.00000000000E+00  0.00000000000E+00  0.30080679808E+03  0.30080679808E+03  0.00000000000E+00 0. -1.
          2   -1    0    0  501    0  0.00000000000E+00 -0.00000000000E+00 -0.38748859669E+03  0.38748859669E+03  0.00000000000E+00 0.  1.
         25    2    1    2    0    0  0.22103269113E+03  0.19759519888E+03  0.86254177896E+02  0.33314771838E+03  0.12509318883E+03 0.  0.
          5    1    3    3  502    0  0.54599237814E+02  0.12965777120E+03  0.52338115756E+02  0.15016312850E+03  0.41800000000E+01 0.  1.
         -5    1    3    3    0  502  0.16643345331E+03  0.67937427687E+02  0.33916062140E+02  0.18298458988E+03  0.41800000000E+01 0.  1.
        -11    1    1    2    0    0 -0.14247107607E+03 -0.16610792528E+03 -0.89912367423E+02  0.23658842781E+03  0.00000000000E+00 0. -1.
         11    1    1    2    0    0 -0.78561615053E+02 -0.31487273602E+02 -0.83023609079E+02  0.11855924858E+03  0.00000000000E+00 0.  1.
</event>
<event>
 7    1  0.2794945E-009  0.1139186E+03  0.7561462E-02  0.1253481E+00
          2   -1    0    0  501    0  0.00000000000E+00  0.00000000000E+00  0.99327551737E+03  0.99327551737E+03  0.00000000000E+00 0. -1.
         -2   -1    0    0    0  501 -0.00000000000E+00 -0.00000000000E+00 -0.14329751830E+02  0.14329751830E+02  0.00000000000E+00 0.  1.
         25    2    1    2    0    0  0.32895349734E+02  0.31740769302E+02  0.63595509943E+03  0.64975063348E+03  0.12508963488E+03 0.  0.
          5    1    3    3  502    0  0.79664084071E+02  0.17435795433E+02  0.33432634511E+03  0.34415396363E+03  0.41800000000E+01 0.  1.
         -5    1    3    3    0  502 -0.46768734337E+02  0.14304973869E+02  0.30162875432E+03  0.30559666985E+03  0.41800000000E+01 0.  1.
        -11    1    1    2    0    0 -0.13559461431E+02 -0.60742701521E+02  0.26839908881E+03  0.27552060841E+03  0.00000000000E+00 0.  1.
         11    1    1    2    0    0 -0.19335888303E+02  0.29001932219E+02  0.74591577297E+02  0.82334027306E+02  0.00000000000E+00 0. -1.
</event>
<event>
 7    1  0.2794945E-009  0.1185840E+03  0.7561462E-02  0.1245452E+00
         -1   -1    0    0    0  501 -0.00000000000E+00  0.00000000000E+00  0.14819596000E+03  0.14819596000E+03  0.00000000000E+00 0.  1.
          1   -1    0    0  501    0  0.00000000000E+00 -0.00000000000E+00 -0.98989601581E+02  0.98989601581E+02  0.00000000000E+00 0. -1.
         25    2    1    2    0    0  0.22477581612E+02  0.45392668516E+02  0.45567717643E+02  0.14244201972E+03  0.12509027164E+03 0.  0.
          5    1    3    3  502    0  0.73004867954E+02  0.18931038762E+02  0.38607981106E+02  0.84830086518E+02  0.41800000000E+01 0. -1.
         -5    1    3    3    0  502 -0.50527286342E+02  0.26461629754E+02  0.69597365368E+01  0.57611933200E+02  0.41800000000E+01 0. -1.
        -11    1    1    2    0    0  0.35295595343E+02 -0.24682065976E+02  0.49742658682E+01  0.43355815670E+02  0.00000000000E+00 0. -1.
         11    1    1    2    0    0 -0.57773176955E+02 -0.20710602540E+02 -0.13356250898E+01  0.61387726196E+02  0.00000000000E+00 0.  1.
</event>
<event>
 7    1  0.2794945E-009  0.1055488E+03  0.7561462E-02  0.1269042E+00
         -2   -1    0    0    0  501 -0.00000000000E+00  0.00000000000E+00  0.96487737317E+02  0.96487737317E+02  0.00000000000E+00 0. -1.
          2   -1    0    0  501    0  0.00000000000E+00 -0.00000000000E+00 -0.22714689051E+03  0.22714689051E+03  0.00000000000E+00 0.  1.
         25    2    1    2    0    0  0.58693057218E+02  0.21954873551E+02 -0.15841372065E+03  0.21135093992E+03  0.12508965374E+03 0.  0.
          5    1    3    3  502    0  0.57727298616E+02  0.55901911561E+02 -0.43543968303E+02  0.91493247277E+02  0.41800000000E+01 0. -1.
         -5    1    3    3    0  502  0.96575860204E+00 -0.33947038010E+02 -0.11486975235E+03  0.11985769264E+03  0.41800000000E+01 0. -1.
        -11    1    1    2    0    0 -0.33847931564E+02 -0.49086302216E+02 -0.89770891885E+01  0.60297061841E+02  0.00000000000E+00 0.  1.
         11    1    1    2    0    0 -0.24845125655E+02  0.27131428665E+02  0.36731656648E+02  0.51986626072E+02  0.00000000000E+00 0. -1.
</event>
<event>
 7    1  0.2794945E-009  0.8018450E+02  0.7561462E-02  0.1328529E+00
          2   -1    0    0  501    0  0.00000000000E+00  0.00000000000E+00  0.27333806759E+03  0.27333806759E+03  0.00000000000E+00 0. -1.
         -2   -1    0    0    0  501 -0.00000000000E+00 -0.00000000000E+00 -0.52180267898E+02  0.52180267898E+02  0.00000000000E+00 0.  1.
         25    2    1    2    0    0  0.43436093138E+01  0.25526098271E+02  0.18427909714E+03  0.22422789592E+03  0.12509562355E+03 0.  0.
          5    1    3    3  502    0  0.14419250487E+02  0.57559541481E+02  0.18065269849E+03  0.19019433607E+03  0.41800000000E+01 0. -1.
         -5    1    3    3    0  502 -0.10075641173E+02 -0.32033443211E+02  0.36263986501E+01  0.34033559851E+02  0.41800000000E+01 0. -1.
        -11    1    1    2    0    0  0.33609189111E+01  0.20299193092E+02  0.49104152146E+02  0.53240687205E+02  0.00000000000E+00 0. -1.
         11    1    1    2    0    0 -0.77045282249E+01 -0.45825291362E+02 -0.12225449601E+02  0.48049752357E+02  0.00000000000E+00 0.  1.
</event>
<event>
 7    1  0.2794945E-009  0.1066013E+03  0.7561462E-02  0.1266996E+00
          1   -1    0    0  501    0  0.00000000000E+00  0.00000000000E+00  0.45527621245E+03  0.45527621245E+03  0.00000000000E+00 0. -1.
         -1   -1    0    0    0  501 -0.00000000000E+00 -0.00000000000E+00 -0.39135726900E+02  0.39135726900E+02  0.00000000000E+00 0.  1.
         25    2    1    2    0    0 -0.43697427879E+02 -0.32574155760E+02  0.32471624646E+03  0.35221774166E+03  0.12508459535E+03 0.  0.
          5    1    3    3  502    0 -0.24747641423E+02  0.45041033224E+02  0.17536190130E+03  0.18278514506E+03  0.41800000000E+01 0. -1.
         -5    1    3    3    0  502 -0.18949786456E+02 -0.77615188983E+02  0.14935434517E+03  0.16943259659E+03  0.41800000000E+01 0. -1.
        -11    1    1    2    0    0  0.55134468625E+02  0.39897264879E+02  0.22102972557E+02  0.71555172917E+02  0.00000000000E+00 0.  1.
         11    1    1    2    0    0 -0.11437040745E+02 -0.73231091193E+01  0.69321266532E+02  0.70639024780E+02  0.00000000000E+00 0. -1.
</event>
<event>
 7    1  0.2794945E-009  0.1037120E+03  0.7561462E-02  0.1272678E+00
         -1   -1    0    0    0  501 -0.00000000000E+00  0.00000000000E+00  0.93909471712E+02  0.93909471712E+02  0.00000000000E+00 0.  1.
          1   -1    0    0  501    0  0.00000000000E+00 -0.00000000000E+00 -0.15554213206E+03  0.15554213206E+03  0.00000000000E+00 0. -1.
         25    2    1    2    0    0  0.44978927375E+02  0.10319850547E+01 -0.72683080361E+02  0.15150601586E+03  0.12508826392E+03 0.  0.
          5    1    3    3  502    0  0.82077808693E+02 -0.26437552963E+02 -0.42814949704E+02  0.96365466868E+02  0.41800000000E+01 0.  1.
         -5    1    3    3    0  502 -0.37098881318E+02  0.27469538018E+02 -0.29868130656E+02  0.55140548990E+02  0.41800000000E+01 0.  1.
        -11    1    1    2    0    0  0.93827736028E+01 -0.15830056931E+02 -0.25012418298E+02  0.31052346321E+02  0.00000000000E+00 0. -1.
         11    1    1    2    0    0 -0.54361700978E+02  0.14798071876E+02  0.36062838307E+02  0.66893241596E+02  0.00000000000E+00 0.  1.
</event>
<event>
 7    1  0.2794945E-009  0.7956963E+02  0.7561462E-02  0.1330277E+00
          2   -1    0    0  501    0  0.00000000000E+00  0.00000000000E+00  0.60167531202E+03  0.60167531202E+03  0.00000000000E+00 0. -1.
         -2   -1    0    0    0  501 -0.00000000000E+00 -0.00000000000E+00 -0.21462925565E+02  0.21462925565E+02  0.00000000000E+00 0.  1.
         25    2    1    2    0    0 -0.73368840708E+01 -0.38421236855E+02  0.33515700511E+03  0.35986862230E+03  0.12508071766E+03 0.  0.
          5    1    3    3  502    0 -0.23929845252E+02 -0.40842965385E+02  0.34521069530E+02  0.58736376775E+02  0.41800000000E+01 0.  1.
         -5    1    3    3    0  502  0.16592961181E+02  0.24217285292E+01  0.30063593558E+03  0.30113224552E+03  0.41800000000E+01 0.  1.
        -11    1    1    2    0    0  0.38271044740E+02 -0.74692890332E+01  0.12767448710E+03  0.13349620894E+03  0.00000000000E+00 0.  1.
         11    1    1    2    0    0 -0.30934160669E+02  0.45890525889E+02  0.11738089425E+03  0.12977340635E+03  0.00000000000E+00 0. -1.
</event>
<event>
 7    1  0.2794945E-009  0.1291012E+03  0.7561462E-02  0.1228796E+00
          1   -1    0    0  501    0  0.00000000000E+00  0.00000000000E+00  0.29108144060E+03  0.29108144060E+03  0.00000000000E+00 0. -1.
         -1   -1    0    0    0  501 -0.00000000000E+00 -0.00000000000E+00 -0.12053662330E+03  0.12053662330E+03  0.00000000000E+00 0.  1.
         25    2    1    2    0    0  0.86281980045E+02 -0.28448129998E+02  0.22452375380E+03  0.27260173816E+03  0.12508763108E+03 0.  0.
          5    1    3    3  502    0  0.14659878778E+02  0.34562461062E+02  0.14024161570E+03  0.14524000459E+03  0.41800000000E+01 0.  1.
         -5    1    3    3    0  502  0.71622101267E+02 -0.63010591060E+02  0.84282138097E+02  0.12736173357E+03  0.41800000000E+01 0.  1.
        -11    1    1    2    0    0  0.14865557096E+02  0.17866404458E+02 -0.23011230571E+02  0.32706420294E+02  0.00000000000E+00 0.  1.
         11    1    1    2    0    0 -0.10114753714E+03  0.10581725539E+02 -0.30967705929E+02  0.10630990544E+03  0.00000000000E+00 0. -1.
</event>
<event>
 7    1  0.2794945E-009  0.7220144E+02  0.7561462E-02  0.1352763E+00
         -2   -1    0    0    0  501 -0.00000000000E+00  0.00000000000E+00  0.36876284445E+02  0.36876284445E+02  0.00000000000E+00 0.  1.
          2   -1    0    0  501    0  0.00000000000E+00 -0.00000000000E+00 -0.33930873018E+03  0.33930873018E+03  0.00000000000E+00 0. -1.
         25    2    1    2    0    0  0.69559454801E+01  0.16754533534E+02 -0.21018502431E+03  0.24526428904E+03  0.12509087683E+03 0.  0.
          5    1    3    3  502    0 -0.54578391240E+01 -0.16682602410E+02 -0.20853606809E+03  0.20931522000E+03  0.41800000000E+01 0.  1.
         -5    1    3    3    0  502  0.12413784604E+02  0.33437135945E+02 -0.16489562192E+01  0.35949069042E+02  0.41800000000E+01 0.  1.
        -11    1    1    2    0    0  0.29580344043E+02  0.22242377413E+02 -0.23474280496E+02  0.43826498280E+02  0.00000000000E+00 0. -1.
         11    1    1    2    0    0 -0.36536289523E+02 -0.38996910947E+02 -0.68773140930E+02  0.87094227299E+02  0.00000000000E+00 0.  1.
</event>
<event>
 7    1  0.2794945E-009  0.9544379E+02  0.7561462E-02  0.1290180E+00
         -1   -1    0    0    0  501 -0.00000000000E+00  0.00000000000E+00  0.14808092016E+03  0.14808092016E+03  0.00000000000E+00 0.  1.
          1   -1    0    0  501    0  0.00000000000E+00 -0.00000000000E+00 -0.88735546691E+02  0.88735546691E+02  0.00000000000E+00 0. -1.
         25    2    1    2    0    0  0.13565144478E+02  0.30719875538E+02  0.16121307866E+02  0.13051946565E+03  0.12509080881E+03 0.  0.
          5    1    3    3  502    0  0.45895533594E+02  0.50884546358E+02  0.45381748595E+02  0.82295884268E+02  0.41800000000E+01 0. -1.
         -5    1    3    3    0  502 -0.32330389116E+02 -0.20164670820E+02 -0.29260440728E+02  0.48223581382E+02  0.41800000000E+01 0. -1.
        -11    1    1    2    0    0  0.21198695501E+02 -0.42256215878E+02 -0.29403316251E+01  0.47366845170E+02  0.00000000000E+00 0. -1.
         11    1    1    2    0    0 -0.34763839979E+02  0.11536340340E+02  0.46164397226E+02  0.58930156030E+02  0.00000000000E+00 0.  1.
</event>
<event>
 7    1  0.2794945E-009  0.1929896E+03  0.7561462E-02  0.1155792E+00
          2   -1    0    0  501    0  0.00000000000E+00  0.00000000000E+00  0.27837640640E+03  0.27837640640E+03  0.00000000000E+00 0. -1.
         -2   -1    0    0    0  501 -0.00000000000E+00 -0.00000000000E+00 -0.13918058289E+03  0.13918058289E+03  0.00000000000E+00 0.  1.
         25    2    1    2    0    0  0.59419562417E+02  0.15111604342E+03  0.44914782656E+02  0.20983698784E+03  0.12508989082E+03 0.  0.
          5    1    3    3  502    0 -0.12163441950E+02  0.12362500834E+03  0.77800877518E+01  0.12453551370E+03  0.41800000000E+01 0. -1.
         -5    1    3    3    0  502  0.71583004367E+02  0.27491035082E+02  0.37134694904E+02  0.85301474136E+02  0.41800000000E+01 0. -1.
        -11    1    1    2    0    0 -0.77570579035E+02 -0.79743850576E+02  0.61413009492E+02  0.12707412865E+03  0.00000000000E+00 0.  1.
         11    1    1    2    0    0  0.18151016618E+02 -0.71372192849E+02  0.32868031360E+02  0.80645872813E+02  0.00000000000E+00 0. -1.
</event>
<event>
 7    1  0.2794945E-009  0.1211599E+03  0.7561462E-02  0.1241196E+00
          2   -1    0    0  501    0  0.00000000000E+00  0.00000000000E+00  0.18663029361E+03  0.18663029361E+03  0.00000000000E+00 0.  1.
         -2   -1    0    0    0  501 -0.00000000000E+00 -0.00000000000E+00 -0.97300907761E+02  0.97300907761E+02  0.00000000000E+00 0. -1.
         25    2    1    2    0    0  0.21399605057E+02  0.72031499001E+02  0.72049247255E+02  0.16274202189E+03  0.12508953479E+03 0.  0.
          5    1    3    3  502    0  0.45681123079E+02 -0.37574338328E+01 -0.11333345451E+02  0.47400426516E+02  0.41800000000E+01 0. -1.
         -5    1    3    3    0  502 -0.24281518022E+02  0.75788932834E+02  0.83382592706E+02  0.11534159538E+03  0.41800000000E+01 0. -1.
        -11    1    1    2    0    0 -0.35385459466E+01 -0.90697242341E+02  0.25143390141E+02  0.94184399682E+02  0.00000000000E+00 0.  1.
         11    1    1    2    0    0 -0.17861059111E+02  0.18665743340E+02 -0.78632515485E+01  0.27004779797E+02  0.00000000000E+00 0. -1.
</event>
<event>
 7    1  0.2794945E-009  0.1021843E+03  0.7561462E-02  0.1275769E+00
         -4   -1    0    0    0  501 -0.00000000000E+00  0.00000000000E+00  0.13511758947E+03  0.13511758947E+03  0.00000000000E+00 0.  1.
          4   -1    0    0  501    0  0.00000000000E+00 -0.00000000000E+00 -0.10845699058E+03  0.10845699058E+03  0.00000000000E+00 0. -1.
         25    2    1    2    0    0 -0.51867758217E+02 -0.97770560291E+01  0.25841105160E+02  0.13820678878E+03  0.12508996196E+03 0.  0.
          5    1    3    3  502    0 -0.59434660679E+02 -0.49186166038E+02  0.49190673903E+02  0.91591225663E+02  0.41800000000E+01 0.  1.
         -5    1    3    3    0  502  0.75669024618E+01  0.39409110008E+02 -0.23349568743E+02  0.46615563120E+02  0.41800000000E+01 0.  1.
        -11    1    1    2    0    0  0.29159094524E+02 -0.29445144027E+02  0.30269819710E+02  0.51317943115E+02  0.00000000000E+00 0.  1.
         11    1    1    2    0    0  0.22708663693E+02  0.39222200056E+02 -0.29450325983E+02  0.54049848145E+02  0.00000000000E+00 0. -1.
</event>
<event>
 7    1  0.2794945E-009  0.1142259E+03  0.7561462E-02  0.1252938E+00
          1   -1    0    0  501    0  0.00000000000E+00  0.00000000000E+00  0.60407046687E+02  0.60407046687E+02  0.00000000000E+00 0. -1.
         -1   -1    0    0    0  501 -0.00000000000E+00 -0.00000000000E+00 -0.36935922409E+03  0.36935922409E+03  0.00000000000E+00 0.  1.
         25    2    1    2    0    0 -0.43603028962E+02 -0.62504374554E+02 -0.26606743852E+03  0.30372378415E+03  0.12509290246E+03 0.  0.
          5    1    3    3  502    0 -0.39711778995E+02  0.10574299464E+02 -0.20258683495E+03  0.20675526425E+03  0.41800000000E+01 0. -1.
         -5    1    3    3    0  502 -0.38912499673E+01 -0.73078674018E+02 -0.63480603576E+02  0.96968519907E+02  0.41800000000E+01 0. -1.
        -11    1    1    2    0    0 -0.39429452661E+01  0.66047339995E+02 -0.41974580043E+02  0.78356003647E+02  0.00000000000E+00 0.  1.
         11    1    1    2    0    0  0.47545974228E+02 -0.35429654403E+01 -0.91015883608E+00  0.47686482975E+02  0.00000000000E+00 0. -1.
</event>
<event>
 7    1  0.2794945E-009  0.1610752E+03  0.7561462E-02  0.1187488E+00
          1   -1    0    0  501    0  0.00000000000E+00  0.00000000000E+00  0.11381384206E+04  0.11381384206E+04  0.00000000000E+00 0. -1.
         -1   -1    0    0    0  501 -0.00000000000E+00 -0.00000000000E+00 -0.27309644841E+02  0.27309644841E+02  0.00000000000E+00 0.  1.
         25    2    1    2    0    0 -0.48394177558E+02 -0.12533609242E+03  0.69735368044E+03  0.72111134673E+03  0.12509311045E+03 0.  0.
          5    1    3    3  502    0  0.32315993121E+02 -0.34203033031E+02  0.34671005024E+03  0.34991356393E+03  0.41800000000E+01 0.  1.
         -5    1    3    3    0  502 -0.80710170679E+02 -0.91133059384E+02  0.35064363020E+03  0.37119778281E+03  0.41800000000E+01 0.  1.
        -11    1    1    2    0    0  0.57350453603E+01  0.10619027704E+03  0.34795253849E+03  0.36384094701E+03  0.00000000000E+00 0. -1.
         11    1    1    2    0    0  0.42659132198E+02  0.19145815374E+02  0.65522556809E+02  0.80495771671E+02  0.00000000000E+00 0.  1.
</event>
<event>
 7    1  0.2794945E-009  0.8253174E+02  0.7561462E-02  0.1322016E+00
          3   -1    0    0  501    0  0.00000000000E+00  0.00000000000E+00  0.24135517290E+03  0.24135517290E+03  0.00000000000E+00 0. -1.
         -3   -1    0    0    0  501 -0.00000000000E+00 -0.00000000000E+00 -0.53492687408E+02  0.53492687408E+02  0.00000000000E+00 0.  1.
         25    2    1    2    0    0 -0.20553166914E+02  0.47231795949E+01  0.13525018339E+03  0.18543189829E+03  0.12509051003E+03 0.  0.
          5    1    3    3  502    0 -0.15000789177E+02  0.55933537995E+02  0.24117500756E+02  0.62870586058E+02  0.41800000000E+01 0. -1.
         -5    1    3    3    0  502 -0.55523777371E+01 -0.51210358400E+02  0.11113268263E+03  0.12256131223E+03  0.41800000000E+01 0. -1.
        -11    1    1    2    0    0  0.24498791087E+02  0.19169091458E+02  0.71975833514E+02  0.78410238120E+02  0.00000000000E+00 0. -1.
         11    1    1    2    0    0 -0.39456241731E+01 -0.23892271052E+02 -0.19363531409E+02  0.31005723904E+02  0.00000000000E+00 0.  1.
</event>
<event>
 7    1  0.2794945E-009  0.1721130E+03  0.7561462E-02  0.1175662E+00
          1   -1    0    0  501    0  0.00000000000E+00  0.00000000000E+00  0.68730193448E+03  0.68730193448E+03  0.00000000000E+00 0. -1.
         -1   -1    0    0    0  501 -0.00000000000E+00 -0.00000000000E+00 -0.62698760741E+02  0.62698760741E+02  0.00000000000E+00 0.  1.
         25    2    1    2    0    0 -0.54307768648E+02 -0.15751707911E+03  0.23385628571E+03  0.31320342319E+03  0.12508660194E+03 0.  0.
          5    1    3    3  502    0 -0.36318815575E+02 -0.45900482861E+02  0.62271050417E+01  0.59009829087E+02  0.41800000000E+01 0. -1.
         -5    1    3    3    0  502 -0.17988953073E+02 -0.11161659625E+03  0.22762918066E+03  0.25419359410E+03  0.41800000000E+01 0. -1.
        -11    1    1    2    0    0  0.11910801822E+02  0.10130803502E+03  0.32438658842E+03  0.34004682605E+03  0.00000000000E+00 0. -1.
         11    1    1    2    0    0  0.42396966826E+02  0.56209044092E+02  0.66360299615E+02  0.96750445987E+02  0.00000000000E+00 0.  1.
</event>
<event>
 7    1  0.2794945E-009  0.1075577E+03  0.7561462E-02  0.1265161E+00
         -2   -1    0    0    0  501 -0.00000000000E+00  0.00000000000E+00  0.48648686389E+02  0.48648686389E+02  0.00000000000E+00 0.  1.
          2   -1    0    0  501    0  0.00000000000E+00 -0.00000000000E+00 -0.25328568657E+03  0.25328568657E+03  0.00000000000E+00 0. -1.
         25    2    1    2    0    0  0.15592720517E+02 -0.14572465599E+02 -0.13185709672E+03  0.18300057627E+03  0.12508967692E+03 0.  0.
          5    1    3    3  502    0  0.27947839455E+02  0.51922995359E+02 -0.59817519164E+02  0.84099269771E+02  0.41800000000E+01 0. -1.
         -5    1    3    3    0  502 -0.12355118937E+02 -0.66495460958E+02 -0.72039577559E+02  0.98901306497E+02  0.41800000000E+01 0. -1.
        -11    1    1    2    0    0 -0.17725729946E+02  0.49843997352E+02 -0.63007675008E+02  0.82271457287E+02  0.00000000000E+00 0. -1.
         11    1    1    2    0    0  0.21330094287E+01 -0.35271531753E+02 -0.97722284451E+01  0.36662339399E+02  0.00000000000E+00 0.  1.
</event>
<event>
 7    1  0.2794945E-009  0.2458296E+03  0.7561462E-02  0.1115969E+00
          1   -1    0    0  501    0  0.00000000000E+00  0.00000000000E+00  0.20448009767E+04  0.20448009767E+04  0.00000000000E+00 0. -1.
         -1   -1    0    0    0  501 -0.00000000000E+00 -0.00000000000E+00 -0.60965745573E+02  0.60965745573E+02  0.00000000000E+00 0.  1.
         25    2    1    2    0    0 -0.16416452492E+02 -0.23998565279E+03  0.17065601333E+04  0.17279629395E+04  0.12508324543E+03 0.  0.
          5    1    3    3  502    0  0.11641045304E+02 -0.98530672631E+02  0.35193431242E+03  0.36567614093E+03  0.41800000000E+01 0.  1.
         -5    1    3    3    0  502 -0.28057497795E+02 -0.14145498016E+03  0.13546258209E+04  0.13622867986E+04  0.41800000000E+01 0.  1.
        -11    1    1    2    0    0 -0.13389222902E+02  0.18546671489E+03  0.24562492708E+03  0.30807268367E+03  0.00000000000E+00 0. -1.
         11    1    1    2    0    0  0.29805675393E+02  0.54518937901E+02  0.31650170794E+02  0.69731099136E+02  0.00000000000E+00 0.  1.
</event>
<event>
 7    1  0.2794945E-009  0.9018398E+02  0.7561462E-02  0.1302407E+00
         -2   -1    0    0    0  501 -0.00000000000E+00  0.00000000000E+00  0.10342738170E+03  0.10342738170E+03  0.00000000000E+00 0.  1.
          2   -1    0    0  501    0  0.00000000000E+00 -0.00000000000E+00 -0.12754276672E+03  0.12754276672E+03  0.00000000000E+00 0. -1.
         25    2    1    2    0    0  0.28706368308E+02  0.64536790122E+01 -0.36511444771E+02  0.13358890108E+03  0.12508878182E+03 0.  0.
          5    1    3    3  502    0 -0.16785622620E+02 -0.37177285470E+02  0.22817191772E+02  0.46925518879E+02  0.41800000000E+01 0.  1.
         -5    1    3    3    0  502  0.45491990928E+02  0.43630964483E+02 -0.59328636543E+02  0.86663382200E+02  0.41800000000E+01 0.  1.
        -11    1    1    2    0    0 -0.48166566596E+02 -0.20339893472E+02  0.36239932646E+02  0.63616523972E+02  0.00000000000E+00 0.  1.
         11    1    1    2    0    0  0.19460198288E+02  0.13886214460E+02 -0.23843872896E+02  0.33764723368E+02  0.00000000000E+00 0. -1.
</event>
<event>
 7    1  0.2794945E-009  0.1027156E+03  0.7561462E-02  0.1274687E+00
         -2   -1    0    0    0  501 -0.00000000000E+00  0.00000000000E+00  0.14639148706E+02  0.14639148706E+02  0.00000000000E+00 0.  1.
          2   -1    0    0  501    0  0.00000000000E+00 -0.00000000000E+00 -0.15350268395E+04  0.15350268395E+04  0.00000000000E+00 0. -1.
         25    2    1    2    0    0  0.81719238770E+01  0.64528628003E+02 -0.12715813514E+04  0.12793738852E+04  0.12509069022E+03 0.  0.
          5    1    3    3  502    0  0.43466780763E+02  0.99794754753E+01 -0.96092803000E+03  0.96197146642E+03  0.41800000000E+01 0.  1.
         -5    1    3    3    0  502 -0.35294856886E+02  0.54549152528E+02 -0.31065332136E+03  0.31740241877E+03  0.41800000000E+01 0.  1.
        -11    1    1    2    0    0 -0.34354488722E+02 -0.11219639820E+02 -0.43428187454E+02  0.56498837852E+02  0.00000000000E+00 0.  1.
         11    1    1    2    0    0  0.26182564845E+02 -0.53308988183E+02 -0.20537815194E+03  0.21379326513E+03  0.00000000000E+00 0. -1.
</event>
<event>
 7    1  0.2794945E-009  0.1121968E+03  0.7561462E-02  0.1256555E+00
         -1   -1    0    0    0  501 -0.00000000000E+00  0.00000000000E+00  0.24619380625E+03  0.24619380625E+03  0.00000000000E+00 0.  1.
          1   -1    0    0  501    0  0.00000000000E+00 -0.00000000000E+00 -0.80902836126E+02  0.80902836126E+02  0.00000000000E+00 0. -1.
         25    2    1    2    0    0  0.87125639757E+01  0.76628370874E+02  0.14711547514E+03  0.20793753064E+03  0.12508891889E+03 0.  0.
          5    1    3    3  502    0  0.62399256139E+02  0.15280931362E+02  0.53288656469E+02  0.83572288100E+02  0.41800000000E+01 0.  1.
         -5    1    3    3    0  502 -0.53686692163E+02  0.61347439511E+02  0.93826818671E+02  0.12436524254E+03  0.41800000000E+01 0.  1.
        -11    1    1    2    0    0  0.38269316746E+01 -0.13938325743E+02  0.46895571863E+02  0.49072568619E+02  0.00000000000E+00 0.  1.
         11    1    1    2    0    0 -0.12539495650E+02 -0.62690045131E+02 -0.28720076882E+02  0.70086543115E+02  0.00000000000E+00 0. -1.
</event>
<event>
 7    1  0.2794945E-009  0.1669689E+03  0.7561462E-02  0.1181046E+00
          3   -1    0    0  501    0  0.00000000000E+00  0.00000000000E+00  0.46791854291E+02  0.46791854291E+02  0.00000000000E+00 0. -1.
         -3   -1    0    0    0  501 -0.00000000000E+00 -0.00000000000E+00 -0.84154340947E+03  0.84154340947E+03  0.00000000000E+00 0.  1.
         25    2    1    2    0    0 -0.14405379113E+03  0.53016563692E+01 -0.59909406964E+03  0.62876164825E+03  0.12509158137E+03 0.  0.
          5    1    3    3  502    0 -0.10582237422E+03  0.58569022433E+02 -0.44680474651E+03  0.46290458971E+03  0.41800000000E+01 0.  1.
         -5    1    3    3    0  502 -0.38231416908E+02 -0.53267366064E+02 -0.15228932313E+03  0.16585705854E+03  0.41800000000E+01 0.  1.
        -11    1    1    2    0    0  0.59563811687E+02  0.12524042422E+02 -0.20392369773E+02  0.64191495124E+02  0.00000000000E+00 0. -1.
         11    1    1    2    0    0  0.84489979442E+02 -0.17825698792E+02 -0.17526511577E+03  0.19538212039E+03  0.00000000000E+00 0.  1.
</event>
<event>
 7    1  0.2794945E-009  0.1267284E+03  0.7561462E-02  0.1232393E+00
          1   -1    0    0  501    0  0.00000000000E+00  0.00000000000E+00  0.12267455422E+04  0.12267455422E+04  0.00000000000E+00 0. -1.
         -1   -1    0    0    0  501 -0.00000000000E+00 -0.00000000000E+00 -0.23172954657E+02  0.23172954657E+02  0.00000000000E+00 0.  1.
         25    2    1    2    0    0 -0.31836816383E+02 -0.10379477083E+03  0.89242925752E+03  0.90766970691E+03  0.12508948731E+03 0.  0.
          5    1    3    3  502    0 -0.57395413078E+02 -0.10378513920E+03  0.48088803414E+03  0.49531440757E+03  0.41800000000E+01 0.  1.
         -5    1    3    3    0  502  0.25558596695E+02 -0.96316272013E-02  0.41154122338E+03  0.41235529934E+03  0.41800000000E+01 0.  1.
        -11    1    1    2    0    0  0.17448528034E+02  0.70284534226E+02  0.29242169027E+03  0.30125539302E+03  0.00000000000E+00 0. -1.
         11    1    1    2    0    0  0.14388288349E+02  0.33510236599E+02  0.18721639793E+02  0.40993396970E+02  0.00000000000E+00 0.  1.
</event>
<event>
 7    1  0.2794945E-009  0.1197834E+03  0.7561462E-02  0.1243455E+00
         -3   -1    0    0    0  501 -0.00000000000E+00  0.00000000000E+00  0.91017238352E+03  0.91017238352E+03  0.00000000000E+00 0.  1.
          3   -1    0    0  501    0  0.00000000000E+00 -0.00000000000E+00 -0.15944115201E+02  0.15944115201E+02  0.00000000000E+00 0. -1.
         25    2    1    2    0    0  0.42987339086E+02 -0.27146668607E+02  0.54841146700E+03  0.56479051286E+03  0.12509329853E+03 0.  0.
          5    1    3    3  502    0 -0.22574800016E+02 -0.58015543344E+02  0.24577235798E+03  0.25356843103E+03  0.41800000000E+01 0. -1.
         -5    1    3    3    0  502  0.65562139102E+02  0.30868874737E+02  0.30263910902E+03  0.31122208183E+03  0.41800000000E+01 0. -1.
        -11    1    1    2    0    0  0.15086932490E+02  0.42013740906E+02  0.13853289346E+03  0.14554769846E+03  0.00000000000E+00 0.  1.
         11    1    1    2    0    0 -0.58074271576E+02 -0.14867072299E+02  0.20728390786E+03  0.21577828741E+03  0.00000000000E+00 0. -1.
</event>
<event>
 7    1  0.2794945E-009  0.1315621E+03  0.7561462E-02  0.1225156E+00
          1   -1    0    0  501    0  0.00000000000E+00  0.00000000000E+00  0.25725776350E+03  0.25725776350E+03  0.00000000000E+00 0. -1.
         -1   -1    0    0    0  501 -0.00000000000E+00 -0.00000000000E+00 -0.71903516628E+02  0.71903516628E+02  0.00000000000E+00 0.  1.
         25    2    1    2    0    0  0.77072670568E+02  0.18527856139E+02  0.71320494337E+02  0.16436478021E+03  0.12508273285E+03 0.  0.
          5    1    3    3  502    0 -0.23827598527E+02 -0.26489893608E+02  0.28419938541E+02  0.45767174062E+02  0.41800000000E+01 0.  1.
         -5    1    3    3    0  502  0.10090026910E+03  0.45017749746E+02  0.42900555796E+02  0.11859760615E+03  0.41800000000E+01 0.  1.
        -11    1    1    2    0    0 -0.19191412534E+01 -0.38797420234E+02  0.53880484769E+02  0.66423110126E+02  0.00000000000E+00 0. -1.
         11    1    1    2    0    0 -0.75153529315E+02  0.20269564095E+02  0.60153267769E+02  0.98373389798E+02  0.00000000000E+00 0.  1.
</event>
<event>
 7    1  0.2794945E-009  0.9401691E+02  0.7561462E-02  0.1293406E+00
         -2   -1    0    0    0  501 -0.00000000000E+00  0.00000000000E+00  0.12514581194E+02  0.12514581194E+02  0.00000000000E+00 0.  1.
          2   -1    0    0  501    0  0.00000000000E+00 -0.00000000000E+00 -0.23820929968E+04  0.23820929968E+04  0.00000000000E+00 0. -1.
         25    2    1    2    0    0  0.85088756813E+02 -0.12794406472E+02 -0.19834311992E+04  0.19892336595E+04  0.12508971456E+03 0.  0.
          5    1    3    3  502    0  0.35332370803E+02 -0.50579575859E+01 -0.12365172763E+03  0.12876793664E+03  0.41800000000E+01 0. -1.
         -5    1    3    3    0  502  0.49756386010E+02 -0.77364488862E+01 -0.18597794715E+04  0.18604657228E+04  0.41800000000E+01 0. -1.
        -11    1    1    2    0    0 -0.14648961509E+02  0.26056941282E+02 -0.30995405878E+02  0.43061252279E+02  0.00000000000E+00 0.  1.
         11    1    1    2    0    0 -0.70439795304E+02 -0.13262534809E+02 -0.35515181058E+03  0.36231266629E+03  0.00000000000E+00 0. -1.
</event>
<event>
 7    1  0.2794945E-009  0.2447630E+03  0.7561462E-02  0.1116660E+00
          3   -1    0    0  501    0  0.00000000000E+00  0.00000000000E+00  0.12459585544E+04  0.12459585544E+04  0.00000000000E+00 0. -1.
         -3   -1    0    0    0  501 -0.00000000000E+00 -0.00000000000E+00 -0.56918661195E+02  0.56918661195E+02  0.00000000000E+00 0.  1.
         25    2    1    2    0    0 -0.12494814077E+03 -0.19887606575E+03  0.46003856965E+03  0.53145473679E+03  0.12507967173E+03 0.  0.
          5    1    3    3  502    0 -0.85558938848E+02 -0.10352729351E+03  0.37282571555E+03  0.39630129837E+03  0.41800000000E+01 0. -1.
         -5    1    3    3    0  502 -0.39389201923E+02 -0.95348772238E+02  0.87212854103E+02  0.13515343842E+03  0.41800000000E+01 0. -1.
        -11    1    1    2    0    0  0.93610915080E+02  0.19970603438E+03  0.62338775625E+03  0.66125471509E+03  0.00000000000E+00 0.  1.
         11    1    1    2    0    0  0.31337225690E+02 -0.82996863028E+00  0.10561356728E+03  0.11016776368E+03  0.00000000000E+00 0. -1.
</event>
<event>
 7    1  0.2794945E-009  0.7863464E+02  0.7561462E-02  0.1332971E+00
         -1   -1    0    0    0  501 -0.00000000000E+00  0.00000000000E+00  0.73128552581E+02  0.73128552581E+02  0.00000000000E+00 0.  1.
          1   -1    0    0  501    0  0.00000000000E+00 -0.00000000000E+00 -0.24190065711E+03  0.24190065711E+03  0.00000000000E+00 0. -1.
         25    2    1    2    0    0  0.23537193273E+02 -0.23862736811E+02 -0.15829433043E+03  0.20451304699E+03  0.12508022093E+03 0.  0.
          5    1    3    3  502    0  0.21293211285E+02 -0.36830266538E+02 -0.17653417647E+03  0.18163605711E+03  0.41800000000E+01 0.  1.
         -5    1    3    3    0  502  0.22439819884E+01  0.12967529727E+02  0.18239846042E+02  0.22876989881E+02  0.41800000000E+01 0.  1.
        -11    1    1    2    0    0 -0.78410328371E+01 -0.37019462724E+02 -0.25804915343E+02  0.45801922145E+02  0.00000000000E+00 0. -1.
         11    1    1    2    0    0 -0.15696160436E+02  0.60882199536E+02  0.15327141238E+02  0.64714240560E+02  0.00000000000E+00 0.  1.
</event>
<event>
 7    1  0.2794945E-009  0.1513507E+03  0.7561462E-02  0.1198823E+00
         -2   -1    0    0    0  501 -0.00000000000E+00  0.00000000000E+00  0.30239291692E+02  0.30239291692E+02  0.00000000000E+00 0.  1.
          2   -1    0    0  501    0  0.00000000000E+00 -0.00000000000E+00 -0.11977150127E+04  0.11977150127E+04  0.00000000000E+00 0. -1.
         25    2    1    2    0    0  0.97293137589E+02 -0.10219877357E+03 -0.82803717612E+03  0.84923705422E+03  0.12508982889E+03 0.  0.
          5    1    3    3  502    0  0.97435603160E+02 -0.97781123217E+02 -0.83105121785E+03  0.84244788795E+03  0.41800000000E+01 0.  1.
         -5    1    3    3    0  502 -0.14246557091E+00 -0.44176503487E+01  0.30140417360E+01  0.67891662691E+01  0.41800000000E+01 0.  1.
        -11    1    1    2    0    0 -0.93210611529E+02  0.49273326524E+02 -0.27911145720E+03  0.29836099670E+03  0.00000000000E+00 0.  1.
         11    1    1    2    0    0 -0.40825260598E+01  0.52925447042E+02 -0.60327087694E+02  0.80356253479E+02  0.00000000000E+00 0. -1.
</event>
<event>
 7    1  0.2794945E-009  0.1187645E+03  0.7561462E-02  0.1245149E+00
         -1   -1    0    0    0  501 -0.00000000000E+00  0.00000000000E+00  0.29543247589E+02  0.29543247589E+02  0.00000000000E+00 0.  1.
          1   -1    0    0  501    0  0.00000000000E+00 -0.00000000000E+00 -0.83494786695E+03  0.83494786695E+03  0.00000000000E+00 0. -1.
         25    2    1    2    0    0 -0.81265164956E+02  0.59980951720E+00 -0.63349793849E+03  0.65082277138E+03  0.12508499055E+03 0.  0.
          5    1    3    3  502    0 -0.10957557278E+03  0.19715960326E+02 -0.41796281516E+03  0.43255740948E+03  0.41800000000E+01 0. -1.
         -5    1    3    3    0  502  0.28310407821E+02 -0.19116150809E+02 -0.21553512334E+03  0.21826536190E+03  0.41800000000E+01 0. -1.
        -11    1    1    2    0    0  0.38257182898E+02  0.20926070507E+02 -0.99575529304E+01  0.44728797552E+02  0.00000000000E+00 0.  1.
         11    1    1    2    0    0  0.43007982059E+02 -0.21525880024E+02 -0.16194912794E+03  0.16893954561E+03  0.00000000000E+00 0. -1.
</event>
<event>
 7    1  0.2794945E-009  0.8321749E+02  0.7561462E-02  0.1320161E+00
          1   -1    0    0  501    0  0.00000000000E+00  0.00000000000E+00  0.75449023534E+02  0.75449023534E+02  0.00000000000E+00 0. -1.
         -1   -1    0    0    0  501 -0.00000000000E+00 -0.00000000000E+00 -0.16971526858E+03  0.16971526858E+03  0.00000000000E+00 0.  1.
         25    2    1    2    0    0  0.32611312752E+00 -0.22382890425E+02 -0.89796929626E+02  0.15563517762E+03  0.12513081078E+03 0.  0.
          5    1    3    3  502    0  0.16767495888E+02  0.36591392224E+02  0.69583517521E+01  0.41060564565E+02  0.41800000000E+01 0. -1.
         -5    1    3    3    0  502 -0.16441382760E+02 -0.58974282650E+02 -0.96755281378E+02  0.11457461305E+03  0.41800000000E+01 0. -1.
        -11    1    1    2    0    0 -0.29365284726E+02  0.26316485173E+01  0.28755304582E+02  0.41183893242E+02  0.00000000000E+00 0. -1.
         11    1    1    2    0    0  0.29039171599E+02  0.19751241908E+02 -0.33224619997E+02  0.48345221253E+02  0.00000000000E+00 0.  1.
</event>
<event>
 7    1  0.2794945E-009  0.8027514E+02  0.7561462E-02  0.1328272E+00
         -2   -1    0    0    0  501 -0.00000000000E+00  0.00000000000E+00  0.33818003566E+03  0.33818003566E+03  0.00000000000E+00 0.  1.
          2   -1    0    0  501    0  0.00000000000E+00 -0.00000000000E+00 -0.38436407521E+02  0.38436407521E+02  0.00000000000E+00 0. -1.
         25    2    1    2    0    0  0.13755106005E+02  0.16397314349E+02  0.13715047431E+03  0.18685509575E+03  0.12508596783E+03 0.  0.
          5    1    3    3  502    0  0.35832548954E+02 -0.31285431044E+02  0.12349160469E+03  0.13240241157E+03  0.41800000000E+01 0. -1.
         -5    1    3    3    0  502 -0.22077442949E+02  0.47682745392E+02  0.13658869612E+02  0.54452684180E+02  0.41800000000E+01 0. -1.
        -11    1    1    2    0    0 -0.33394383385E+02  0.16217582517E+01  0.10056239733E+02  0.34913362758E+02  0.00000000000E+00 0. -1.
         11    1    1    2    0    0  0.19639277380E+02 -0.18019072600E+02  0.15253691410E+03  0.15484798467E+03  0.00000000000E+00 0.  1.
</event>
<event>
 7    1  0.2794945E-009  0.1301877E+03  0.7561462E-02  0.1227177E+00
          2   -1    0    0  501    0  0.00000000000E+00  0.00000000000E+00  0.55821796618E+03  0.55821796618E+03  0.00000000000E+00 0. -1.
         -2   -1    0    0    0  501 -0.00000000000E+00 -0.00000000000E+00 -0.56743952494E+02  0.56743952494E+02  0.00000000000E+00 0.  1.
         25    2    1    2    0    0 -0.78845409380E+02  0.86882499100E+02  0.12998824687E+03  0.21519411031E+03  0.12508554496E+03 0.  0.
          5    1    3    3  502    0 -0.93138444503E+02  0.82247244571E+02  0.50500531611E+02  0.13419074177E+03  0.41800000000E+01 0. -1.
         -5    1    3    3    0  502  0.14293035123E+02  0.46352545293E+01  0.79487715259E+02  0.81003368539E+02  0.41800000000E+01 0. -1.
        -11    1    1    2    0    0  0.45627586795E+02 -0.30078245485E+02  0.58969818192E+02  0.80399110603E+02  0.00000000000E+00 0.  1.
         11    1    1    2    0    0  0.33217822585E+02 -0.56804253615E+02  0.31251594862E+03  0.31936869776E+03  0.00000000000E+00 0. -1.
</event>
<event>
 7    1  0.2794945E-009  0.1058768E+03  0.7561462E-02  0.1268402E+00
          2   -1    0    0  501    0  0.00000000000E+00  0.00000000000E+00  0.18176831355E+03  0.18176831355E+03  0.00000000000E+00 0. -1.
         -2   -1    0    0    0  501 -0.00000000000E+00 -0.00000000000E+00 -0.82434233541E+02  0.82434233541E+02  0.00000000000E+00 0.  1.
         25    2    1    2    0    0  0.51754539570E+01  0.43804686091E+02  0.95458863701E+02  0.16341864476E+03  0.12509045907E+03 0.  0.
          5    1    3    3  502    0  0.56022738055E+02  0.32780421456E+02  0.13780509813E+02  0.66486675813E+02  0.41800000000E+01 0.  1.
         -5    1    3    3    0  502 -0.50847284098E+02  0.11024264635E+02  0.81678353887E+02  0.96931968950E+02  0.41800000000E+01 0.  1.
        -11    1    1    2    0    0 -0.27875994387E+02 -0.60314637776E+02 -0.13457822183E+02  0.67794096874E+02  0.00000000000E+00 0.  1.
         11    1    1    2    0    0  0.22700540430E+02  0.16509951685E+02  0.17333038489E+02  0.32989805451E+02  0.00000000000E+00 0. -1.
</event>
<event>
 7    1  0.2794945E-009  0.8956209E+02  0.7561462E-02  0.1303916E+00
          1   -1    0    0  501    0  0.00000000000E+00  0.00000000000E+00  0.48807307288E+02  0.48807307288E+02  0.00000000000E+00 0.  1.
         -1   -1    0    0    0  501 -0.00000000000E+00 -0.00000000000E+00 -0.34409804069E+03  0.34409804069E+03  0.00000000000E+00 0. -1.
         25    2    1    2    0    0 -0.35526908742E+02 -0.52224704040E+02 -0.21114013875E+03  0.25341320521E+03  0.12509401835E+03 0.  0.
          5    1    3    3  502    0  0.11976782218E+02 -0.74264897693E+00 -0.17314911104E+03  0.17361475138E+03  0.41800000000E+01 0. -1.
         -5    1    3    3    0  502 -0.47503690960E+02 -0.51482055063E+02 -0.37991027705E+02  0.79798453834E+02  0.41800000000E+01 0. -1.
        -11    1    1    2    0    0  0.28951036359E+02 -0.12248104316E+02  0.22173450900E+01  0.31513412777E+02  0.00000000000E+00 0.  1.
         11    1    1    2    0    0  0.65758723830E+01  0.64472808356E+02 -0.86367939741E+02  0.10797872999E+03  0.00000000000E+00 0. -1.
</event>
<event>
 7    1  0.2794945E-009  0.1051230E+03  0.7561462E-02  0.1269877E+00
          2   -1    0    0  501    0  0.00000000000E+00  0.00000000000E+00  0.16316891547E+04  0.16316891547E+04  0.00000000000E+00 0. -1.
         -2   -1    0    0    0  501 -0.00000000000E+00 -0.00000000000E+00 -0.11904722513E+02  0.11904722513E+02  0.00000000000E+00 0.  1.
         25    2    1    2    0    0  0.42372913276E+01  0.67594898703E+02  0.12092510050E+04  0.12175887650E+04  0.12508949789E+03 0.  0.
          5    1    3    3  502    0  0.35743038118E+02  0.93081829145E+01  0.10575028032E+03  0.11209282417E+03  0.41800000000E+01 0.  1.
         -5    1    3    3    0  502 -0.31505746790E+02  0.58286715789E+02  0.11035007247E+04  0.11054959408E+04  0.41800000000E+01 0.  1.
        -11    1    1    2    0    0  0.16813409002E+02 -0.80338548573E+02  0.36634198279E+03  0.37542432189E+03  0.00000000000E+00 0. -1.
         11    1    1    2    0    0 -0.21050700330E+02  0.12743649869E+02  0.44191444366E+02  0.50580790341E+02  0.00000000000E+00 0.  1.
</event>
<event>
 7    1  0.2794945E-009  0.9342000E+02  0.7561462E-02  0.1294775E+00
          2   -1    0    0  501    0  0.00000000000E+00  0.00000000000E+00  0.20605197743E+04  0.20605197743E+04  0.00000000000E+00 0. -1.
         -2   -1    0    0    0  501 -0.00000000000E+00 -0.00000000000E+00 -0.77063157238E+01  0.77063157238E+01  0.00000000000E+00 0.  1.
         25    2    1    2    0    0 -0.45843325133E+02  0.29168511250E+01  0.15145475984E+04  0.15204002141E+04  0.12510901152E+03 0.  0.
          5    1    3    3  502    0  0.19783759424E+02  0.26320359444E+01  0.45255759220E+02  0.49637494828E+02  0.41800000000E+01 0. -1.
         -5    1    3    3    0  502 -0.65627084557E+02  0.28481518056E+00  0.14692918392E+04  0.14707627193E+04  0.41800000000E+01 0. -1.
        -11    1    1    2    0    0  0.50595368392E+02  0.35609278537E+02  0.37027566169E+03  0.37540908042E+03  0.00000000000E+00 0. -1.
         11    1    1    2    0    0 -0.47520432589E+01 -0.38526129662E+02  0.16799019849E+03  0.17241679550E+03  0.00000000000E+00 0.  1.
</event>
<event>
 7    1  0.2794945E-009  0.1306208E+03  0.7561462E-02  0.1226537E+00
          3   -1    0    0  501    0  0.00000000000E+00  0.00000000000E+00  0.39639326468E+03  0.39639326468E+03  0.00000000000E+00 0. -1.
         -3   -1    0    0    0  501 -0.00000000000E+00 -0.00000000000E+00 -0.50115461833E+02  0.50115461833E+02  0.00000000000E+00 0.  1.
         25    2    1    2    0    0  0.70379842554E+02 -0.35313778424E+02  0.25052334427E+03  0.29087747613E+03  0.12508946762E+03 0.  0.
          5    1    3    3  502    0 -0.93853851180E+01 -0.62276007187E+02  0.11779808180E+03  0.13364223509E+03  0.41800000000E+01 0.  1.
         -5    1    3    3    0  502  0.79765227672E+02  0.26962228764E+02  0.13272526247E+03  0.15723524104E+03  0.41800000000E+01 0.  1.
        -11    1    1    2    0    0 -0.41537509275E+02  0.61932976016E+02  0.88479868308E+02  0.11571406695E+03  0.00000000000E+00 0. -1.
         11    1    1    2    0    0 -0.28842333280E+02 -0.26619197593E+02  0.72745902680E+01  0.39917183431E+02  0.00000000000E+00 0.  1.
</event>
<event>
 7    1  0.2794945E-009  0.1387157E+03  0.7561462E-02  0.1215068E+00
          3   -1    0    0  501    0  0.00000000000E+00  0.00000000000E+00  0.11264469802E+03  0.11264469802E+03  0.00000000000E+00 0. -1.
         -3   -1    0    0    0  501 -0.00000000000E+00 -0.00000000000E+00 -0.23672778263E+03  0.23672778263E+03  0.00000000000E+00 0.  1.
         25    2    1    2    0    0 -0.11479348997E+03 -0.21232453158E+02 -0.25564098412E+02  0.17300118829E+03  0.12509007001E+03 0.  0.
          5    1    3    3  502    0 -0.37094595893E+01 -0.19177233809E+02  0.39440870929E+02  0.44210644495E+02  0.41800000000E+01 0. -1.
         -5    1    3    3    0  502 -0.11108403039E+03 -0.20552193486E+01 -0.65004969341E+02  0.12879054380E+03  0.41800000000E+01 0. -1.
        -11    1    1    2    0    0  0.69960364032E+02 -0.31785087323E+02 -0.50474082636E+02  0.91936811613E+02  0.00000000000E+00 0.  1.
         11    1    1    2    0    0  0.44833125943E+02  0.53017540480E+02 -0.48044903558E+02  0.84434480742E+02  0.00000000000E+00 0. -1.
</event>
<event>
 7    1  0.2794945E-009  0.1577666E+03  0.7561462E-02  0.1191242E+00
         -1   -1    0    0    0  501 -0.00000000000E+00  0.00000000000E+00  0.11805174448E+03  0.11805174448E+03  0.00000000000E+00 0.  1.
          1   -1    0    0  501    0  0.00000000000E+00 -0.00000000000E+00 -0.27020785782E+03  0.27020785782E+03  0.00000000000E+00 0. -1.
         25    2    1    2    0    0 -0.43169132608E+02  0.13005323842E+03 -0.38058767026E+02  0.18940222947E+03  0.12508923194E+03 0.  0.
          5    1    3    3  502    0  0.23491747053E+02  0.10286644276E+03 -0.49090379164E+02  0.11645043990E+03  0.41800000000E+01 0. -1.
         -5    1    3    3    0  502 -0.66660879661E+02  0.27186795658E+02  0.11031612138E+02  0.72951789572E+02  0.41800000000E+01 0. -1.
        -11    1    1    2    0    0  0.32002591932E+02 -0.73303578080E+02 -0.11126811928E+02  0.80755101346E+02  0.00000000000E+00 0.  1.
         11    1    1    2    0    0  0.11166540675E+02 -0.56749660337E+02 -0.10297053438E+03  0.11810227149E+03  0.00000000000E+00 0. -1.
</event>
<event>
 7    1  0.2794945E-009  0.1171571E+03  0.7561462E-02  0.1247862E+00
          2   -1    0    0  501    0  0.00000000000E+00  0.00000000000E+00  0.14686391353E+03  0.14686391353E+03  0.00000000000E+00 0. -1.
         -2   -1    0    0    0  501 -0.00000000000E+00 -0.00000000000E+00 -0.15723745410E+03  0.15723745410E+03  0.00000000000E+00 0.  1.
         25    2    1    2    0    0  0.93364315245E+02  0.12719586848E+02  0.42914375042E+02  0.16238141788E+03  0.12508956006E+03 0.  0.
          5    1    3    3  502    0  0.10500159825E+03  0.65631106550E+01 -0.11801559753E+02  0.10594885214E+03  0.41800000000E+01 0. -1.
         -5    1    3    3    0  502 -0.11637283010E+02  0.61564761925E+01  0.54715934795E+02  0.56432565735E+02  0.41800000000E+01 0. -1.
        -11    1    1    2    0    0  0.78882032590E+01 -0.11507736847E+02 -0.36503093460E+02  0.39078479885E+02  0.00000000000E+00 0.  1.
         11    1    1    2    0    0 -0.10125251850E+03 -0.12118500005E+01 -0.16784822153E+02  0.10264146988E+03  0.00000000000E+00 0. -1.
</event>
<event>
 7    1  0.2794945E-009  0.9726718E+02  0.7561462E-02  0.1286150E+00
          2   -1    0    0  501    0  0.00000000000E+00  0.00000000000E+00  0.27821517205E+03  0.27821517205E+03  0.00000000000E+00 0. -1.
         -2   -1    0    0    0  501 -0.00000000000E+00 -0.00000000000E+00 -0.64584896273E+02  0.64584896273E+02  0.00000000000E+00 0.  1.
         25    2    1    2    0    0  0.69088528568E+02  0.29370116037E+02  0.90031772077E+02  0.17142925387E+03  0.12508573301E+03 0.  0.
          5    1    3    3  502    0 -0.11385683395E+02  0.76651985062E+00  0.84901405631E+02  0.85766790876E+02  0.41800000000E+01 0.  1.
         -5    1    3    3    0  502  0.80474211962E+02  0.28603596186E+02  0.51303664462E+01  0.85662462991E+02  0.41800000000E+01 0.  1.
        -11    1    1    2    0    0 -0.22985083117E+02  0.19168162615E+02 -0.98005043950E+00  0.29944832656E+02  0.00000000000E+00 0.  1.
         11    1    1    2    0    0 -0.46103445451E+02 -0.48538278652E+02  0.12457855414E+03  0.14142598180E+03  0.00000000000E+00 0. -1.
</event>
<event>
 7    1  0.2794945E-009  0.1137152E+03  0.7561462E-02  0.1253840E+00
          1   -1    0    0  501    0  0.00000000000E+00  0.00000000000E+00  0.59495275774E+02  0.59495275774E+02  0.00000000000E+00 0. -1.
         -1   -1    0    0    0  501 -0.00000000000E+00 -0.00000000000E+00 -0.33220336587E+03  0.33220336587E+03  0.00000000000E+00 0.  1.
         25    2    1    2    0    0 -0.30719618131E+02 -0.22134478979E+02 -0.37625687518E+02  0.13599060750E+03  0.12507646809E+03 0.  0.
          5    1    3    3  502    0 -0.78933862522E+01  0.50332579458E+02 -0.30593527775E+02  0.59574410976E+02  0.41800000000E+01 0.  1.
         -5    1    3    3    0  502 -0.22826231878E+02 -0.72467058437E+02 -0.70321597428E+01  0.76416196522E+02  0.41800000000E+01 0.  1.
        -11    1    1    2    0    0 -0.30125773533E+02 -0.95703795251E+01 -0.63987378432E+02  0.71369033858E+02  0.00000000000E+00 0.  1.
         11    1    1    2    0    0  0.60845391663E+02  0.31704858504E+02 -0.17109502415E+03  0.18433900029E+03  0.00000000000E+00 0. -1.
</event>
<event>
 7    1  0.2794945E-009  0.1533354E+03  0.7561462E-02  0.1196433E+00
         -2   -1    0    0    0  501 -0.00000000000E+00  0.00000000000E+00  0.48294227544E+02  0.48294227544E+02  0.00000000000E+00 0.  1.
          2   -1    0    0  501    0  0.00000000000E+00 -0.00000000000E+00 -0.73831248712E+03  0.73831248712E+03  0.00000000000E+00 0. -1.
         25    2    1    2    0    0 -0.32874217214E+02  0.11726307415E+03 -0.16599070544E+03  0.24089774519E+03  0.12508983423E+03 0.  0.
          5    1    3    3  502    0  0.40153881975E+02  0.54630632395E+01 -0.44252508291E+02  0.60149282520E+02  0.41800000000E+01 0.  1.
         -5    1    3    3    0  502 -0.73028099189E+02  0.11180001091E+03 -0.12173819715E+03  0.18074846267E+03  0.41800000000E+01 0.  1.
        -11    1    1    2    0    0 -0.10368043724E+02 -0.58266194619E+02 -0.10664775385E+03  0.12196798419E+03  0.00000000000E+00 0.  1.
         11    1    1    2    0    0  0.43242260938E+02 -0.58996879534E+02 -0.41737980028E+03  0.42374098528E+03  0.00000000000E+00 0. -1.
</event>
<event>
 7    1  0.2794945E-009  0.7722568E+02  0.7561462E-02  0.1337114E+00
          2   -1    0    0  501    0  0.00000000000E+00  0.00000000000E+00  0.41680719440E+02  0.41680719440E+02  0.00000000000E+00 0.  1.
         -2   -1    0    0    0  501 -0.00000000000E+00 -0.00000000000E+00 -0.45629076455E+03  0.45629076455E+03  0.00000000000E+00 0. -1.
         25    2    1    2    0    0 -0.44473237997E+02  0.39611147875E+02 -0.11842646793E+03  0.18226144046E+03  0.12508993740E+03 0.  0.
          5    1    3    3  502    0 -0.30058550218E+02  0.10181335793E+01  0.20932333360E+02  0.36880726906E+02  0.41800000000E+01 0.  1.
         -5    1    3    3    0  502 -0.14414687779E+02  0.38593014296E+02 -0.13935880129E+03  0.14538071355E+03  0.41800000000E+01 0.  1.
        -11    1    1    2    0    0  0.21741635348E+02  0.13023835738E+02 -0.16572681896E+02  0.30281558582E+02  0.00000000000E+00 0.  1.
         11    1    1    2    0    0  0.22731602649E+02 -0.52634983613E+02 -0.27961089528E+03  0.28542848495E+03  0.00000000000E+00 0. -1.
</event>
<event>
 7    1  0.2794945E-009  0.1048979E+03  0.7561462E-02  0.1270321E+00
         -2   -1    0    0    0  501 -0.00000000000E+00  0.00000000000E+00  0.26884652519E+02  0.26884652519E+02  0.00000000000E+00 0.  1.
          2   -1    0    0  501    0  0.00000000000E+00 -0.00000000000E+00 -0.63559750355E+03  0.63559750355E+03  0.00000000000E+00 0. -1.
         25    2    1    2    0    0  0.21694808579E+02  0.55108267323E+02 -0.45165781021E+03  0.47238727798E+03  0.12508947609E+03 0.  0.
          5    1    3    3  502    0 -0.34001017680E+02  0.72191899033E+02 -0.25260873917E+03  0.26494600770E+03  0.41800000000E+01 0. -1.
         -5    1    3    3    0  502  0.55695826260E+02 -0.17083631711E+02 -0.19904907104E+03  0.20744127028E+03  0.41800000000E+01 0. -1.
        -11    1    1    2    0    0 -0.33341492323E+02 -0.35710313424E+02 -0.22742121679E+02  0.53889569432E+02  0.00000000000E+00 0.  1.
         11    1    1    2    0    0  0.11646683743E+02 -0.19397953899E+02 -0.13431291914E+03  0.13620530866E+03  0.00000000000E+00 0. -1.
</event>
<event>
 7    1  0.2794945E-009  0.1188965E+03  0.7561462E-02  0.1244929E+00
          1   -1    0    0  501    0  0.00000000000E+00  0.00000000000E+00  0.52476912016E+03  0.52476912016E+03  0.00000000000E+00 0. -1.
         -1   -1    0    0    0  501 -0.00000000000E+00 -0.00000000000E+00 -0.30522006824E+02  0.30522006824E+02  0.00000000000E+00 0.  1.
         25    2    1    2    0    0 -0.38924254627E+02 -0.42523535648E+02  0.21164746714E+03  0.25252574417E+03  0.12510496569E+03 0.  0.
          5    1    3    3  502    0  0.45757210834E+02 -0.17258049277E+02  0.82083125836E+02  0.95638248390E+02  0.41800000000E+01 0. -1.
         -5    1    3    3    0  502 -0.84681465461E+02 -0.25265486371E+02  0.12956434130E+03  0.15688749578E+03  0.41800000000E+01 0. -1.
        -11    1    1    2    0    0  0.47228033309E+02 -0.89793427005E+01  0.78044205825E+02  0.91662499357E+02  0.00000000000E+00 0.  1.
         11    1    1    2    0    0 -0.83037786829E+01  0.51502878349E+02  0.20455544038E+03  0.21110288346E+03  0.00000000000E+00 0. -1.
</event>
<event>
 7    1  0.2794945E-009  0.1891039E+03  0.7561462E-02  0.1159272E+00
         -2   -1    0    0    0  501 -0.00000000000E+00  0.00000000000E+00  0.19212105753E+02  0.19212105753E+02  0.00000000000E+00 0.  1.
          2   -1    0    0  501    0  0.00000000000E+00 -0.00000000000E+00 -0.21015265928E+04  0.21015265928E+04  0.00000000000E+00 0. -1.
         25    2    1    2    0    0 -0.12407813025E+03 -0.11161269958E+03 -0.99000349453E+03  0.10117346027E+04  0.12508880879E+03 0.  0.
          5    1    3    3  502    0 -0.13295809386E+03 -0.83594609557E+02 -0.58771295119E+03  0.60835014496E+03  0.41800000000E+01 0. -1.
         -5    1    3    3    0  502  0.88799636069E+01 -0.28018090020E+02 -0.40229054334E+03  0.40338445778E+03  0.41800000000E+01 0. -1.
        -11    1    1    2    0    0  0.31138300528E+02 -0.14826830248E+02 -0.17464359244E+03  0.17801632800E+03  0.00000000000E+00 0.  1.
         11    1    1    2    0    0  0.92939829723E+02  0.12643952982E+03 -0.91766740011E+03  0.93098776785E+03  0.00000000000E+00 0. -1.
</event>
<event>
 7    1  0.2794945E-009  0.1106196E+03  0.7561462E-02  0.1259427E+00
          1   -1    0    0  501    0  0.00000000000E+00  0.00000000000E+00  0.16202613618E+03  0.16202613618E+03  0.00000000000E+00 0. -1.
         -1   -1    0    0    0  501 -0.00000000000E+00 -0.00000000000E+00 -0.18076156261E+03  0.18076156261E+03  0.00000000000E+00 0.  1.
         25    2    1    2    0    0  0.24416250647E+02  0.43446822631E+02  0.11184075245E+03  0.17504095903E+03  0.12508878342E+03 0.  0.
          5    1    3    3  502    0  0.66360367623E+02  0.59754564301E+02  0.76696792710E+02  0.11778869537E+03  0.41800000000E+01 0.  1.
         -5    1    3    3    0  502 -0.41944116976E+02 -0.16307741671E+02  0.35143959743E+02  0.57252263656E+02  0.41800000000E+01 0.  1.
        -11    1    1    2    0    0  0.24819941416E+02 -0.21096132755E+02 -0.76596642976E+01  0.33462617445E+02  0.00000000000E+00 0. -1.
         11    1    1    2    0    0 -0.49236192063E+02 -0.22350689876E+02 -0.12291651459E+03  0.13428412232E+03  0.00000000000E+00 0.  1.
</event>
<event>
 7    1  0.3031090E-009  0.2133716E+03  0.7561462E-02  0.1138924E+00
         -2   -1    0    0    0  501 -0.00000000000E+00  0.00000000000E+00  0.58327556418E+02  0.58327556418E+02  0.00000000000E+00 0.  1.
          2   -1    0    0  501    0  0.00000000000E+00 -0.00000000000E+00 -0.10863375629E+04  0.10863375629E+04  0.00000000000E+00 0. -1.
         25    2    1    2    0    0 -0.81960278448E+02  0.18512613833E+03 -0.29643061390E+03  0.38014206147E+03  0.12509078185E+03 0.  0.
          5    1    3    3  502    0 -0.79084083199E+02  0.13521551615E+03 -0.28991373358E+03  0.32955268674E+03  0.41800000000E+01 0.  1.
         -5    1    3    3    0  502 -0.28761952493E+01  0.49910622187E+02 -0.65168803252E+01  0.50589374728E+02  0.41800000000E+01 0.  1.
        -11    1    1    2    0    0  0.72885877834E+01 -0.12165369493E+03 -0.45728262397E+03  0.47324427433E+03  0.00000000000E+00 0.  1.
         11    1    1    2    0    0  0.74671690664E+02 -0.63472443403E+02 -0.27429676863E+03  0.29127878354E+03  0.00000000000E+00 0. -1.
</event>
<event>
 7    1  0.3138621E-009  0.6326966E+02  0.7561462E-02  0.1384601E+00
         -1   -1    0    0    0  501 -0.00000000000E+00  0.00000000000E+00  0.27840128828E+03  0.27840128828E+03  0.00000000000E+00 0.  1.
          1   -1    0    0  501    0  0.00000000000E+00 -0.00000000000E+00 -0.62000763741E+02  0.62000763741E+02  0.00000000000E+00 0. -1.
         25    2    1    2    0    0 -0.20070291180E+02 -0.20127492637E+02  0.20805126397E+03  0.24442018424E+03  0.12509182819E+03 0.  0.
          5    1    3    3  502    0 -0.25165481452E+02  0.24442914134E+02  0.41183159037E+01  0.35569515515E+02  0.41800000000E+01 0.  1.
         -5    1    3    3    0  502  0.50951902721E+01 -0.44570406770E+02  0.20393294806E+03  0.20885066873E+03  0.41800000000E+01 0.  1.
        -11    1    1    2    0    0  0.25043511956E+02 -0.38577756024E+00  0.46251968273E+02  0.52598202294E+02  0.00000000000E+00 0.  1.
         11    1    1    2    0    0 -0.49732207763E+01  0.20513270197E+02 -0.37902707704E+02  0.43383665478E+02  0.00000000000E+00 0. -1.
</event>
<event>
 7    1  0.2794945E-009  0.1461968E+03  0.7561462E-02  0.1205226E+00
         -2   -1    0    0    0  501 -0.00000000000E+00  0.00000000000E+00  0.20435818804E+03  0.20435818804E+03  0.00000000000E+00 0.  1.
          2   -1    0    0  501    0  0.00000000000E+00 -0.00000000000E+00 -0.10925905640E+03  0.10925905640E+03  0.00000000000E+00 0. -1.
         25    2    1    2    0    0 -0.91845201731E+02 -0.34706511259E+02  0.81914770927E+02  0.17888422062E+03  0.12509776851E+03 0.  0.
          5    1    3    3  502    0  0.35232459761E+01 -0.60016996068E+02  0.30518174884E+02  0.67552087144E+02  0.41800000000E+01 0. -1.
         -5    1    3    3    0  502 -0.95368447707E+02  0.25310484809E+02  0.51396596043E+02  0.11133213348E+03  0.41800000000E+01 0. -1.
        -11    1    1    2    0    0  0.36611472005E+02 -0.30687111855E+02  0.11415532848E+02  0.49116322201E+02  0.00000000000E+00 0.  1.
         11    1    1    2    0    0  0.55233729726E+02  0.65393623115E+02  0.17688278639E+01  0.85616701616E+02  0.00000000000E+00 0. -1.
</event>
<event>
 7    1  0.2794945E-009  0.8949890E+02  0.7561462E-02  0.1304070E+00
          2   -1    0    0  501    0  0.00000000000E+00  0.00000000000E+00  0.30625643609E+03  0.30625643609E+03  0.00000000000E+00 0. -1.
         -2   -1    0    0    0  501 -0.00000000000E+00 -0.00000000000E+00 -0.50070997689E+02  0.50070997689E+02  0.00000000000E+00 0.  1.
         25    2    1    2    0    0  0.11851122823E+02 -0.15317310396E+02  0.23132365401E+03  0.26368836641E+03  0.12508338246E+03 0.  0.
          5    1    3    3  502    0 -0.44223367036E+01  0.49010838027E+02  0.15392660261E+03  0.16165546913E+03  0.41800000000E+01 0. -1.
         -5    1    3    3    0  502  0.16273459526E+02 -0.64328148423E+02  0.77397051394E+02  0.10203289729E+03  0.41800000000E+01 0. -1.
        -11    1    1    2    0    0 -0.28933599992E+02  0.29203818392E+02 -0.17670843285E+02  0.44746786696E+02  0.00000000000E+00 0.  1.
         11    1    1    2    0    0  0.17082477169E+02 -0.13886507996E+02  0.42532627681E+02  0.47892280672E+02  0.00000000000E+00 0. -1.
</event>
<event>
 7    1  0.2794945E-009  0.9126554E+02  0.7561462E-02  0.1299816E+00
          3   -1    0    0  501    0  0.00000000000E+00  0.00000000000E+00  0.14713731509E+03  0.14713731509E+03  0.00000000000E+00 0. -1.
         -3   -1    0    0    0  501 -0.00000000000E+00 -0.00000000000E+00 -0.10923050681E+03  0.10923050681E+03  0.00000000000E+00 0.  1.
         25    2    1    2    0    0  0.32102689573E+02  0.57872416570E+02  0.34997388627E+02  0.14578403150E+03  0.12509343449E+03 0.  0.
          5    1    3    3  502    0  0.56203794806E+02  0.10155326350E+02 -0.27423432616E+02  0.63494206510E+02  0.41800000000E+01 0. -1.
         -5    1    3    3    0  502 -0.24101105233E+02  0.47717090220E+02  0.62420821243E+02  0.82289824991E+02  0.41800000000E+01 0. -1.
        -11    1    1    2    0    0 -0.33105262340E+02 -0.32976615685E+02  0.42921456456E+02  0.63448144188E+02  0.00000000000E+00 0. -1.
         11    1    1    2    0    0  0.10025727666E+01 -0.24895800885E+02 -0.40012036810E+02  0.47135646209E+02  0.00000000000E+00 0.  1.
</event>
<event>
 7    1  0.2794945E-009  0.8684005E+02  0.7561462E-02  0.1310690E+00
         -2   -1    0    0    0  501 -0.00000000000E+00  0.00000000000E+00  0.66805848581E+02  0.66805848581E+02  0.00000000000E+00 0.  1.
          2   -1    0    0  501    0  0.00000000000E+00 -0.00000000000E+00 -0.23214583713E+03  0.23214583713E+03  0.00000000000E+00 0. -1.
         25    2    1    2    0    0 -0.23419379074E+02 -0.48229428033E+02 -0.12583328602E+03  0.18535364891E+03  0.12508962487E+03 0.  0.
          5    1    3    3  502    0 -0.17677468611E+02 -0.56760266593E+02 -0.14855613623E+03  0.16006442069E+03  0.41800000000E+01 0.  1.
         -5    1    3    3    0  502 -0.57419104629E+01  0.85308385607E+01  0.22722850208E+02  0.25289228219E+02  0.41800000000E+01 0.  1.
        -11    1    1    2    0    0 -0.22894193431E+02  0.51697918219E+02 -0.35987162326E+02  0.67021598708E+02  0.00000000000E+00 0. -1.
         11    1    1    2    0    0  0.46313572505E+02 -0.34684901860E+01 -0.35195402036E+01  0.46576438095E+02  0.00000000000E+00 0.  1.
</event>
<event>
 7    1  0.2794945E-009  0.1216380E+03  0.7561462E-02  0.1240419E+00
          1   -1    0    0  501    0  0.00000000000E+00  0.00000000000E+00  0.18643878026E+03  0.18643878026E+03  0.00000000000E+00 0. -1.
         -1   -1    0    0    0  501 -0.00000000000E+00 -0.00000000000E+00 -0.13748052557E+03  0.13748052557E+03  0.00000000000E+00 0.  1.
         25    2    1    2    0    0 -0.30820622119E+02  0.89603084712E+02  0.95333644026E+02  0.18361551064E+03  0.12509008165E+03 0.  0.
          5    1    3    3  502    0  0.20287707830E+02  0.91592712496E+02  0.93122853781E+02  0.13225034733E+03  0.41800000000E+01 0.  1.
         -5    1    3    3    0  502 -0.51108329949E+02 -0.19896277836E+01  0.22107902450E+01  0.51365163316E+02  0.41800000000E+01 0.  1.
        -11    1    1    2    0    0  0.34753555808E+02 -0.71137164785E+02  0.10971239901E+02  0.79929180904E+02  0.00000000000E+00 0. -1.
         11    1    1    2    0    0 -0.39329336883E+01 -0.18465919927E+02 -0.57346629229E+02  0.60374614285E+02  0.00000000000E+00 0.  1.
</event>
<event>
 7    1  0.2794945E-009  0.3452530E+03  0.7561462E-02  0.1064580E+00
          1   -1    0    0  501    0  0.00000000000E+00  0.00000000000E+00  0.25778286072E+04  0.25778286072E+04  0.00000000000E+00 0. -1.
         -1   -1    0    0    0  501 -0.00000000000E+00 -0.00000000000E+00 -0.47308922474E+02  0.47308922474E+02  0.00000000000E+00 0.  1.
         25    2    1    2    0    0  0.23945765046E+03  0.23007335549E+03  0.12357891157E+04  0.12857277760E+04  0.12508980888E+03 0.  0.
          5    1    3    3  502    0  0.11483551962E+03  0.33663695464E+02  0.49437258240E+03  0.50866704590E+03  0.41800000000E+01 0. -1.
         -5    1    3    3    0  502  0.12462213085E+03  0.19640966002E+03  0.74141653331E+03  0.77706073013E+03  0.41800000000E+01 0. -1.
        -11    1    1    2    0    0 -0.22987437648E+03 -0.19401004219E+03  0.12099566736E+04  0.12467867811E+04  0.00000000000E+00 0.  1.
         11    1    1    2    0    0 -0.95832739836E+01 -0.36063313295E+02  0.84773895438E+02  0.92622972603E+02  0.00000000000E+00 0. -1.
</event>
<event>
 7    1  0.2794945E-009  0.8423693E+02  0.7561462E-02  0.1317440E+00
          2   -1    0    0  501    0  0.00000000000E+00  0.00000000000E+00  0.11978360373E+03  0.11978360373E+03  0.00000000000E+00 0. -1.
         -2   -1    0    0    0  501 -0.00000000000E+00 -0.00000000000E+00 -0.14167359779E+03  0.14167359779E+03  0.00000000000E+00 0.  1.
         25    2    1    2    0    0  0.57660898270E+02  0.27009981555E+02  0.23042438314E+02  0.14223137974E+03  0.12507794821E+03 0.  0.
          5    1    3    3  502    0  0.50774674810E+02  0.20306918883E+02 -0.46499955747E+02  0.71903802688E+02  0.41800000000E+01 0. -1.
         -5    1    3    3    0  502  0.68862234607E+01  0.67030626715E+01  0.69542394061E+02  0.70327577055E+02  0.41800000000E+01 0. -1.
        -11    1    1    2    0    0 -0.47739016877E+02 -0.55367498887E+02 -0.50256351225E+02  0.88714567597E+02  0.00000000000E+00 0. -1.
         11    1    1    2    0    0 -0.99218813931E+01  0.28357517332E+02  0.53239188476E+01  0.30511254178E+02  0.00000000000E+00 0.  1.
</event>
<event>
 7    1  0.2794945E-009  0.1097880E+03  0.7561462E-02  0.1260963E+00
         -2   -1    0    0    0  501 -0.00000000000E+00  0.00000000000E+00  0.48260410147E+02  0.48260410147E+02  0.00000000000E+00 0. -1.
          2   -1    0    0  501    0  0.00000000000E+00 -0.00000000000E+00 -0.27684759840E+03  0.27684759840E+03  0.00000000000E+00 0.  1.
         25    2    1    2    0    0  0.39431313088E+02 -0.14375529373E+01 -0.12541216025E+03  0.18147405712E+03  0.12509088080E+03 0.  0.
          5    1    3    3  502    0  0.31858086661E+02 -0.55990838761E+02 -0.10364446743E+03  0.12210470810E+03  0.41800000000E+01 0. -1.
         -5    1    3    3    0  502  0.75732264278E+01  0.54553285824E+02 -0.21767692822E+02  0.59369349024E+02  0.41800000000E+01 0. -1.
        -11    1    1    2    0    0 -0.18018866696E+02  0.46514012836E+02 -0.55406418378E+02  0.74552693745E+02  0.00000000000E+00 0. -1.
         11    1    1    2    0    0 -0.21412446393E+02 -0.45076459899E+02 -0.47768609629E+02  0.69081257685E+02  0.00000000000E+00 0.  1.
</event>
<event>
 7    1  0.2794945E-009  0.9865011E+02  0.7561462E-02  0.1283160E+00
         -1   -1    0    0    0  501 -0.00000000000E+00  0.00000000000E+00  0.11365958538E+03  0.11365958538E+03  0.00000000000E+00 0.  1.
          1   -1    0    0  501    0  0.00000000000E+00 -0.00000000000E+00 -0.13714097728E+03  0.13714097728E+03  0.00000000000E+00 0. -1.
         25    2    1    2    0    0  0.52810532670E+02  0.31043015336E+02 -0.18702781952E+02  0.14053431094E+03  0.12508987703E+03 0.  0.
          5    1    3    3  502    0  0.24683050699E+02 -0.19679656001E+02  0.44455288837E+02  0.54683516325E+02  0.41800000000E+01 0.  1.
         -5    1    3    3    0  502  0.28127481971E+02  0.50722671337E+02 -0.63158070789E+02  0.85850794611E+02  0.41800000000E+01 0.  1.
        -11    1    1    2    0    0 -0.20461122655E+02 -0.60307807788E+02 -0.15077114606E+02  0.65444698833E+02  0.00000000000E+00 0. -1.
         11    1    1    2    0    0 -0.32349410015E+02  0.29264792452E+02  0.10298504655E+02  0.44821552893E+02  0.00000000000E+00 0.  1.
</event>
<event>
 7    1  0.2794945E-009  0.1027921E+03  0.7561462E-02  0.1274532E+00
         -2   -1    0    0    0  501 -0.00000000000E+00  0.00000000000E+00  0.24626425499E+02  0.24626425499E+02  0.00000000000E+00 0.  1.
          2   -1    0    0  501    0  0.00000000000E+00 -0.00000000000E+00 -0.63965625995E+03  0.63965625995E+03  0.00000000000E+00 0. -1.
         25    2    1    2    0    0 -0.29049362482E+02  0.27990349906E+02 -0.44722629399E+03  0.46614009082E+03  0.12509157079E+03 0.  0.
          5    1    3    3  502    0 -0.66509059154E+02  0.18909259959E+02 -0.13716610949E+03  0.15366531507E+03  0.41800000000E+01 0. -1.
         -5    1    3    3    0  502  0.37459696672E+02  0.90810899468E+01 -0.31006018450E+03  0.31247477575E+03  0.41800000000E+01 0. -1.
        -11    1    1    2    0    0 -0.29963026023E+02 -0.24009703665E+02 -0.10533959421E+03  0.11211903900E+03  0.00000000000E+00 0. -1.
         11    1    1    2    0    0  0.59012388505E+02 -0.39806462409E+01 -0.62463946254E+02  0.86023555629E+02  0.00000000000E+00 0.  1.
</event>
<event>
 7    1  0.2794945E-009  0.9725649E+02  0.7561462E-02  0.1286173E+00
          4   -1    0    0  501    0  0.00000000000E+00  0.00000000000E+00  0.12405107489E+03  0.12405107489E+03  0.00000000000E+00 0. -1.
         -4   -1    0    0    0  501 -0.00000000000E+00 -0.00000000000E+00 -0.11748490610E+03  0.11748490610E+03  0.00000000000E+00 0.  1.
         25    2    1    2    0    0 -0.30434213713E+02  0.86530680031E+01  0.44738845148E+02  0.13656412131E+03  0.12508828089E+03 0.  0.
          5    1    3    3  502    0  0.29630848085E+02 -0.16757486225E+02  0.60311891827E+02  0.69381533556E+02  0.41800000000E+01 0.  1.
         -5    1    3    3    0  502 -0.60065061798E+02  0.25410554228E+02 -0.15573046679E+02  0.67182587758E+02  0.41800000000E+01 0.  1.
        -11    1    1    2    0    0 -0.15109782065E+02 -0.37856669573E+02 -0.39447743695E+01  0.40951119521E+02  0.00000000000E+00 0. -1.
         11    1    1    2    0    0  0.45543995778E+02  0.29203601570E+02 -0.34227901990E+02  0.64020740161E+02  0.00000000000E+00 0.  1.
</event>
<event>
 7    1  0.2794945E-009  0.1189072E+03  0.7561462E-02  0.1244911E+00
         -1   -1    0    0    0  501 -0.00000000000E+00  0.00000000000E+00  0.18525403578E+03  0.18525403578E+03  0.00000000000E+00 0.  1.
          1   -1    0    0  501    0  0.00000000000E+00 -0.00000000000E+00 -0.95512881144E+02  0.95512881144E+02  0.00000000000E+00 0. -1.
         25    2    1    2    0    0 -0.74087240374E+02 -0.12301436614E+02  0.71107887013E+02  0.16231057923E+03  0.12509255775E+03 0.  0.
          5    1    3    3  502    0 -0.17913212127E+02  0.42144545377E+02  0.70253395156E+02  0.83964622340E+02  0.41800000000E+01 0. -1.
         -5    1    3    3    0  502 -0.56174028247E+02 -0.54445981992E+02  0.85449185725E+00  0.78345956889E+02  0.41800000000E+01 0. -1.
        -11    1    1    2    0    0  0.77500773235E+02 -0.20775079598E+02  0.26101663555E+02  0.84375770365E+02  0.00000000000E+00 0.  1.
         11    1    1    2    0    0 -0.34135328612E+01  0.33076516212E+02 -0.74683959371E+01  0.34080567325E+02  0.00000000000E+00 0. -1.
</event>
<event>
 7    1  0.2794945E-009  0.9837733E+02  0.7561462E-02  0.1283746E+00
          3   -1    0    0  501    0  0.00000000000E+00  0.00000000000E+00  0.88885486539E+02  0.88885486539E+02  0.00000000000E+00 0. -1.
         -3   -1    0    0    0  501 -0.00000000000E+00 -0.00000000000E+00 -0.23691404410E+03  0.23691404410E+03  0.00000000000E+00 0.  1.
         25    2    1    2    0    0  0.41985488895E+02  0.32018763910E+02  0.98629909231E+01  0.13617253122E+03  0.12513072024E+03 0.  0.
          5    1    3    3  502    0 -0.32670375270E+02 -0.16363722584E+02 -0.20466615859E+02  0.42088948690E+02  0.41800000000E+01 0.  1.
         -5    1    3    3    0  502  0.74655864165E+02  0.48382486494E+02  0.30329606782E+02  0.94083582527E+02  0.41800000000E+01 0.  1.
        -11    1    1    2    0    0 -0.46375105885E+01 -0.33226557215E+02 -0.14689173793E+03  0.15067412943E+03  0.00000000000E+00 0.  1.
         11    1    1    2    0    0 -0.37347978307E+02  0.12077933044E+01 -0.10999810559E+02  0.38952869992E+02  0.00000000000E+00 0. -1.
</event>
<event>
 7    1  0.2794945E-009  0.1092592E+03  0.7561462E-02  0.1261948E+00
          2   -1    0    0  501    0  0.00000000000E+00  0.00000000000E+00  0.71482533297E+02  0.71482533297E+02  0.00000000000E+00 0. -1.
         -2   -1    0    0    0  501 -0.00000000000E+00 -0.00000000000E+00 -0.23098465059E+03  0.23098465059E+03  0.00000000000E+00 0.  1.
         25    2    1    2    0    0  0.75535979812E+01  0.38118777852E+02 -0.21901181036E+02  0.13280592061E+03  0.12509057819E+03 0.  0.
          5    1    3    3  502    0  0.46593064834E+02  0.63661829618E+02 -0.31399186156E+02  0.85012490449E+02  0.41800000000E+01 0.  1.
         -5    1    3    3    0  502 -0.39039466853E+02 -0.25543051767E+02  0.94980051205E+01  0.47793430166E+02  0.41800000000E+01 0.  1.
        -11    1    1    2    0    0 -0.40110052610E+02  0.30091092306E+01 -0.30752792053E+02  0.50632057808E+02  0.00000000000E+00 0. -1.
         11    1    1    2    0    0  0.32556454629E+02 -0.41127887082E+02 -0.10684814420E+03  0.11902920546E+03  0.00000000000E+00 0.  1.
</event>
<event>
 7    1  0.2794945E-009  0.2297561E+03  0.7561462E-02  0.1126812E+00
         -2   -1    0    0    0  501 -0.00000000000E+00  0.00000000000E+00  0.55205802961E+03  0.55205802961E+03  0.00000000000E+00 0.  1.
          2   -1    0    0  501    0  0.00000000000E+00 -0.00000000000E+00 -0.11705422972E+03  0.11705422972E+03  0.00000000000E+00 0. -1.
         25    2    1    2    0    0 -0.13273428922E+03  0.16519263869E+03  0.10754573755E+03  0.26855215235E+03  0.12508866238E+03 0.  0.
          5    1    3    3  502    0 -0.10357833508E+03  0.31952554538E+02  0.60543224437E+02  0.12422717764E+03  0.41800000000E+01 0. -1.
         -5    1    3    3    0  502 -0.29155954140E+02  0.13324008415E+03  0.47002513112E+02  0.14432497471E+03  0.41800000000E+01 0. -1.
        -11    1    1    2    0    0  0.64062958824E+02 -0.53494570943E+02  0.60315512936E+02  0.10297423423E+03  0.00000000000E+00 0. -1.
         11    1    1    2    0    0  0.68671330397E+02 -0.11169806774E+03  0.26714254941E+03  0.29758587275E+03  0.00000000000E+00 0.  1.
</event>
<event>
 7    1  0.2794945E-009  0.2925578E+03  0.7561462E-02  0.1089021E+00
          2   -1    0    0  501    0  0.00000000000E+00  0.00000000000E+00  0.28284464804E+03  0.28284464804E+03  0.00000000000E+00 0. -1.
         -2   -1    0    0    0  501 -0.00000000000E+00 -0.00000000000E+00 -0.45564799299E+03  0.45564799299E+03  0.00000000000E+00 0.  1.
         25    2    1    2    0    0  0.27934227122E+03 -0.24293978940E+01 -0.29058464985E+03  0.42204828828E+03  0.12508921795E+03 0.  0.
          5    1    3    3  502    0  0.86036590167E+01 -0.31703399285E+02 -0.23607271433E+02  0.40668220261E+02  0.41800000000E+01 0. -1.
         -5    1    3    3    0  502  0.27073861220E+03  0.29274001391E+02 -0.26697737841E+03  0.38138006801E+03  0.41800000000E+01 0. -1.
        -11    1    1    2    0    0 -0.17390486145E+03 -0.47564128996E+01  0.24891057017E+02  0.17574154040E+03  0.00000000000E+00 0.  1.
         11    1    1    2    0    0 -0.10543740976E+03  0.71858107936E+01  0.92890247881E+02  0.14070281236E+03  0.00000000000E+00 0. -1.
</event>
<event>
 7    1  0.2794945E-009  0.8135702E+02  0.7561462E-02  0.1325244E+00
          1   -1    0    0  501    0  0.00000000000E+00  0.00000000000E+00  0.49049617587E+03  0.49049617587E+03  0.00000000000E+00 0. -1.
         -1   -1    0    0    0  501 -0.00000000000E+00 -0.00000000000E+00 -0.30330280101E+02  0.30330280101E+02  0.00000000000E+00 0.  1.
         25    2    1    2    0    0  0.18829842880E+02  0.50264599282E+02  0.28941544712E+03  0.31983033938E+03  0.12509617113E+03 0.  0.
          5    1    3    3  502    0  0.18255304479E+02  0.25953792390E+02  0.27698757488E+01  0.32124758252E+02  0.41800000000E+01 0. -1.
         -5    1    3    3    0  502  0.57453840123E+00  0.24310806891E+02  0.28664557137E+03  0.28770558112E+03  0.41800000000E+01 0. -1.
        -11    1    1    2    0    0  0.36611562089E+02 -0.11463265533E+02  0.62332466152E+02  0.73192549292E+02  0.00000000000E+00 0.  1.
         11    1    1    2    0    0 -0.55441404969E+02 -0.38801333749E+02  0.10841798250E+03  0.12780356731E+03  0.00000000000E+00 0. -1.
</event>
<event>
 7    1  0.2794945E-009  0.6691606E+02  0.7561462E-02  0.1370906E+00
          1   -1    0    0  501    0  0.00000000000E+00  0.00000000000E+00  0.11690252021E+03  0.11690252021E+03  0.00000000000E+00 0. -1.
         -1   -1    0    0    0  501 -0.00000000000E+00 -0.00000000000E+00 -0.11562691321E+03  0.11562691321E+03  0.00000000000E+00 0.  1.
         25    2    1    2    0    0 -0.25632874306E+01 -0.36829227617E+02 -0.15048770227E+02  0.13129115139E+03  0.12509172034E+03 0.  0.
          5    1    3    3  502    0 -0.22253148664E+02 -0.26720043900E+02  0.50796240393E+02  0.61700030872E+02  0.41800000000E+01 0.  1.
         -5    1    3    3    0  502  0.19689861233E+02 -0.10109183717E+02 -0.65845010620E+02  0.69591120514E+02  0.41800000000E+01 0.  1.
        -11    1    1    2    0    0  0.31524499761E+02  0.28735211637E+01 -0.25060378755E+02  0.40374172343E+02  0.00000000000E+00 0.  1.
         11    1    1    2    0    0 -0.28961212331E+02  0.33955706453E+02  0.41384755980E+02  0.60864109686E+02  0.00000000000E+00 0. -1.
</event>
<event>
 7    1  0.2794945E-009  0.4093010E+03  0.7561462E-02  0.1040606E+00
          1   -1    0    0  501    0  0.00000000000E+00  0.00000000000E+00  0.38365542530E+03  0.38365542530E+03  0.00000000000E+00 0. -1.
         -1   -1    0    0    0  501 -0.00000000000E+00 -0.00000000000E+00 -0.51183180604E+03  0.51183180604E+03  0.00000000000E+00 0.  1.
         25    2    1    2    0    0  0.13967748256E+03  0.37621735591E+03 -0.22012600810E+03  0.47450231210E+03  0.12509071396E+03 0.  0.
          5    1    3    3  502    0  0.55009375458E+02  0.27096668115E+03 -0.19149719362E+03  0.33635936325E+03  0.41800000000E+01 0.  1.
         -5    1    3    3    0  502  0.84668107098E+02  0.10525067476E+03 -0.28628814485E+02  0.13814294884E+03  0.41800000000E+01 0.  1.
        -11    1    1    2    0    0 -0.12646737551E+03 -0.25139839874E+03  0.36526042624E+02  0.28377685556E+03  0.00000000000E+00 0. -1.
         11    1    1    2    0    0 -0.13210107043E+02 -0.12481895717E+03  0.55423584739E+02  0.13720806369E+03  0.00000000000E+00 0.  1.
</event>
<event>
 7    1  0.2794945E-009  0.1878273E+03  0.7561462E-02  0.1160436E+00
          2   -1    0    0  501    0  0.00000000000E+00  0.00000000000E+00  0.80096107078E+03  0.80096107078E+03  0.00000000000E+00 0. -1.
         -2   -1    0    0    0  501 -0.00000000000E+00 -0.00000000000E+00 -0.45145492790E+02  0.45145492790E+02  0.00000000000E+00 0.  1.
         25    2    1    2    0    0  0.16122262021E+03 -0.18369209589E+02  0.42204722514E+03  0.46914707639E+03  0.12507980618E+03 0.  0.
          5    1    3    3  502    0  0.17646873989E+03  0.34797365840E+01  0.38249453790E+03  0.42127528843E+03  0.41800000000E+01 0.  1.
         -5    1    3    3    0  502 -0.15246119682E+02 -0.21848946173E+02  0.39552687239E+02  0.47871787955E+02  0.41800000000E+01 0.  1.
        -11    1    1    2    0    0 -0.12714287942E+03 -0.10354357599E+02  0.27549916833E+03  0.30359893982E+03  0.00000000000E+00 0. -1.
         11    1    1    2    0    0 -0.34079740785E+02  0.28723567187E+02  0.58269184531E+02  0.73360547366E+02  0.00000000000E+00 0.  1.
</event>
<event>
 7    1  0.2794945E-009  0.8047117E+02  0.7561462E-02  0.1327720E+00
          1   -1    0    0  501    0  0.00000000000E+00  0.00000000000E+00  0.16070394102E+03  0.16070394102E+03  0.00000000000E+00 0. -1.
         -1   -1    0    0    0  501 -0.00000000000E+00 -0.00000000000E+00 -0.83300701154E+02  0.83300701154E+02  0.00000000000E+00 0.  1.
         25    2    1    2    0    0  0.33987257076E+02 -0.54158408429E+01  0.61925448708E+02  0.14376340333E+03  0.12509472396E+03 0.  0.
          5    1    3    3  502    0 -0.12935344210E+02 -0.27789447397E+02  0.82185177501E+02  0.87814875262E+02  0.41800000000E+01 0. -1.
         -5    1    3    3    0  502  0.46922601286E+02  0.22373606554E+02 -0.20259728793E+02  0.55948528063E+02  0.41800000000E+01 0. -1.
        -11    1    1    2    0    0  0.14889615735E+02  0.21716929550E+02 -0.23769108235E+02  0.35472470905E+02  0.00000000000E+00 0.  1.
         11    1    1    2    0    0 -0.48876872811E+02 -0.16301088707E+02  0.39246899393E+02  0.64768767943E+02  0.00000000000E+00 0. -1.
</event>
<event>
 7    1  0.2794945E-009  0.1007260E+03  0.7561462E-02  0.1278777E+00
          2   -1    0    0  501    0  0.00000000000E+00  0.00000000000E+00  0.42326319357E+03  0.42326319357E+03  0.00000000000E+00 0. -1.
         -2   -1    0    0    0  501 -0.00000000000E+00 -0.00000000000E+00 -0.39475831257E+02  0.39475831257E+02  0.00000000000E+00 0.  1.
         25    2    1    2    0    0  0.56475894915E+02 -0.70476997257E+01  0.14325295516E+03  0.19851353139E+03  0.12508803382E+03 0.  0.
          5    1    3    3  502    0  0.41065508753E+02  0.40151655166E+02  0.13660348529E+03  0.14824478411E+03  0.41800000000E+01 0. -1.
         -5    1    3    3    0  502  0.15410386162E+02 -0.47199354892E+02  0.66494698698E+01  0.50268747283E+02  0.41800000000E+01 0. -1.
        -11    1    1    2    0    0 -0.21221409034E+02  0.40320274040E+02  0.50111565924E+02  0.67729179379E+02  0.00000000000E+00 0.  1.
         11    1    1    2    0    0 -0.35254485881E+02 -0.33272574314E+02  0.19042284123E+03  0.19649631406E+03  0.00000000000E+00 0. -1.
</event>
<event>
 7    1  0.2794945E-009  0.1413690E+03  0.7561462E-02  0.1211499E+00
          2   -1    0    0  501    0  0.00000000000E+00  0.00000000000E+00  0.93899045873E+03  0.93899045873E+03  0.00000000000E+00 0. -1.
         -2   -1    0    0    0  501 -0.00000000000E+00 -0.00000000000E+00 -0.35282657189E+02  0.35282657189E+02  0.00000000000E+00 0.  1.
         25    2    1    2    0    0 -0.31761599914E+02  0.11860562569E+03  0.27308057016E+03  0.32449619379E+03  0.12509471736E+03 0.  0.
          5    1    3    3  502    0 -0.44793490351E+02  0.13108581040E+03  0.16796158731E+03  0.21775792448E+03  0.41800000000E+01 0.  1.
         -5    1    3    3    0  502  0.13031890438E+02 -0.12480184706E+02  0.10511898285E+03  0.10673826931E+03  0.41800000000E+01 0.  1.
        -11    1    1    2    0    0 -0.47988944653E+01 -0.15767643338E+02  0.92761127819E+01  0.18912806055E+02  0.00000000000E+00 0.  1.
         11    1    1    2    0    0  0.36560494379E+02 -0.10283798235E+03  0.62135111860E+03  0.63086411608E+03  0.00000000000E+00 0. -1.
</event>
<event>
 7    1  0.2794945E-009  0.1065091E+03  0.7561462E-02  0.1267175E+00
         -1   -1    0    0    0  501 -0.00000000000E+00  0.00000000000E+00  0.18488519847E+02  0.18488519847E+02  0.00000000000E+00 0.  1.
          1   -1    0    0  501    0  0.00000000000E+00 -0.00000000000E+00 -0.94195863857E+03  0.94195863857E+03  0.00000000000E+00 0. -1.
         25    2    1    2    0    0  0.44633082232E+02 -0.48027839258E+02 -0.65648890079E+03  0.67150684249E+03  0.12507988357E+03 0.  0.
          5    1    3    3  502    0 -0.24970558385E+02 -0.19900679345E+01 -0.29290434604E+02  0.38767139638E+02  0.41800000000E+01 0.  1.
         -5    1    3    3    0  502  0.69603640617E+02 -0.46037771324E+02 -0.62719846619E+03  0.63273970285E+03  0.41800000000E+01 0.  1.
        -11    1    1    2    0    0 -0.52369637398E+02  0.66144655054E+02 -0.24643341440E+03  0.26047480117E+03  0.00000000000E+00 0. -1.
         11    1    1    2    0    0  0.77365551664E+01 -0.18116815795E+02 -0.20547803541E+02  0.28465514764E+02  0.00000000000E+00 0.  1.
</event>
<event>
 7    1  0.2794945E-009  0.1062676E+03  0.7561462E-02  0.1267642E+00
          1   -1    0    0  501    0  0.00000000000E+00  0.00000000000E+00  0.85393397910E+02  0.85393397910E+02  0.00000000000E+00 0. -1.
         -1   -1    0    0    0  501 -0.00000000000E+00 -0.00000000000E+00 -0.14296688174E+03  0.14296688174E+03  0.00000000000E+00 0.  1.
         25    2    1    2    0    0 -0.93199726469E+00 -0.15969026047E+02 -0.23545876517E+02  0.12828278855E+03  0.12508471979E+03 0.  0.
          5    1    3    3  502    0  0.58941534045E+02  0.10601381849E+02 -0.16555332308E+02  0.62273952504E+02  0.41800000000E+01 0.  1.
         -5    1    3    3    0  502 -0.59873531310E+02 -0.26570407896E+02 -0.69905442097E+01  0.66008836042E+02  0.41800000000E+01 0.  1.
        -11    1    1    2    0    0 -0.23051717749E+01 -0.35359254374E+02  0.46343261046E+01  0.35736083518E+02  0.00000000000E+00 0. -1.
         11    1    1    2    0    0  0.32371690396E+01  0.51328280421E+02 -0.38661933413E+02  0.64341407582E+02  0.00000000000E+00 0.  1.
</event>
<event>
 7    1  0.2794945E-009  0.2230542E+03  0.7561462E-02  0.1131626E+00
          1   -1    0    0  501    0  0.00000000000E+00  0.00000000000E+00  0.11626773967E+03  0.11626773967E+03  0.00000000000E+00 0. -1.
         -1   -1    0    0    0  501 -0.00000000000E+00 -0.00000000000E+00 -0.11461368255E+04  0.11461368255E+04  0.00000000000E+00 0.  1.
         25    2    1    2    0    0 -0.20171077006E+03 -0.83397241048E+02 -0.52913161822E+02  0.25708691824E+03  0.12510613999E+03 0.  0.
          5    1    3    3  502    0 -0.93558945646E+02 -0.69133379890E+02 -0.84035023296E+02  0.14356900106E+03  0.41800000000E+01 0.  1.
         -5    1    3    3    0  502 -0.10815182441E+03 -0.14263861158E+02  0.31121861474E+02  0.11351791718E+03  0.41800000000E+01 0.  1.
        -11    1    1    2    0    0  0.12083850360E+03  0.33071249693E+02 -0.72916421604E+03  0.73984870444E+03  0.00000000000E+00 0.  1.
         11    1    1    2    0    0  0.80872266456E+02  0.50325991355E+02 -0.24779170797E+03  0.26546894249E+03  0.00000000000E+00 0. -1.
</event>
<event>
 7    1  0.2794945E-009  0.1058400E+03  0.7561462E-02  0.1268473E+00
         -2   -1    0    0    0  501 -0.00000000000E+00  0.00000000000E+00  0.26889787790E+02  0.26889787790E+02  0.00000000000E+00 0. -1.
          2   -1    0    0  501    0  0.00000000000E+00 -0.00000000000E+00 -0.16103920134E+04  0.16103920134E+04  0.00000000000E+00 0.  1.
         25    2    1    2    0    0  0.20953714759E+02  0.16307897234E+02 -0.15085514084E+04  0.15139614534E+04  0.12508766877E+03 0.  0.
          5    1    3    3  502    0 -0.51067866688E+02  0.21282904517E+02 -0.62892353676E+03  0.63136611923E+03  0.41800000000E+01 0. -1.
         -5    1    3    3    0  502  0.72021581446E+02 -0.49750072829E+01 -0.87962787166E+03  0.88259533417E+03  0.41800000000E+01 0. -1.
        -11    1    1    2    0    0  0.18356229717E+02 -0.35630292817E+02 -0.68052202361E+02  0.78978295638E+02  0.00000000000E+00 0.  1.
         11    1    1    2    0    0 -0.39309944475E+02  0.19322395583E+02 -0.68986148794E+01  0.44342052196E+02  0.00000000000E+00 0. -1.
</event>
<event>
 7    1  0.2794945E-009  0.1002038E+03  0.7561462E-02  0.1279868E+00
          2   -1    0    0  501    0  0.00000000000E+00  0.00000000000E+00  0.10987787336E+04  0.10987787336E+04  0.00000000000E+00 0. -1.
         -2   -1    0    0    0  501 -0.00000000000E+00 -0.00000000000E+00 -0.18075209376E+02  0.18075209376E+02  0.00000000000E+00 0.  1.
         25    2    1    2    0    0 -0.15469388642E+01 -0.67092174244E+02  0.79782990332E+03  0.81035999498E+03  0.12508802490E+03 0.  0.
          5    1    3    3  502    0  0.52788815548E+01  0.63065880800E+01  0.58525490434E+03  0.58532761348E+03  0.41800000000E+01 0.  1.
         -5    1    3    3    0  502 -0.68258204190E+01 -0.73398762324E+02  0.21257499898E+03  0.22503238150E+03  0.41800000000E+01 0.  1.
        -11    1    1    2    0    0  0.16123975418E+02  0.89321664167E+02  0.23132836455E+03  0.24849779581E+03  0.00000000000E+00 0. -1.
         11    1    1    2    0    0 -0.14577036553E+02 -0.22229489923E+02  0.51545256396E+02  0.57996152233E+02  0.00000000000E+00 0.  1.
</event>
<event>
 7    1  0.2794945E-009  0.9770662E+02  0.7561462E-02  0.1285194E+00
          2   -1    0    0  501    0  0.00000000000E+00  0.00000000000E+00  0.18193345397E+02  0.18193345397E+02  0.00000000000E+00 0. -1.
         -2   -1    0    0    0  501 -0.00000000000E+00 -0.00000000000E+00 -0.90170260151E+03  0.90170260151E+03  0.00000000000E+00 0.  1.
         25    2    1    2    0    0 -0.86651545122E+01  0.57992757171E+02 -0.61603101205E+03  0.63133101804E+03  0.12508557766E+03 0.  0.
          5    1    3    3  502    0 -0.50058905041E+02  0.36537344388E+02 -0.14196344201E+03  0.15495793873E+03  0.41800000000E+01 0.  1.
         -5    1    3    3    0  502  0.41393750529E+02  0.21455412783E+02 -0.47406757004E+03  0.47637307931E+03  0.41800000000E+01 0.  1.
        -11    1    1    2    0    0  0.36262178561E+02 -0.28732831094E+02 -0.22638283215E+03  0.23106212989E+03  0.00000000000E+00 0.  1.
         11    1    1    2    0    0 -0.27597024048E+02 -0.29259926077E+02 -0.41095411903E+02  0.57502798973E+02  0.00000000000E+00 0. -1.
</event>
<event>
 7    1  0.2794945E-009  0.1193931E+03  0.7561462E-02  0.1244102E+00
          1   -1    0    0  501    0  0.00000000000E+00  0.00000000000E+00  0.88172441384E+02  0.88172441384E+02  0.00000000000E+00 0. -1.
         -1   -1    0    0    0  501 -0.00000000000E+00 -0.00000000000E+00 -0.24049293123E+03  0.24049293123E+03  0.00000000000E+00 0.  1.
         25    2    1    2    0    0 -0.55293296240E+02 -0.71381824271E+02 -0.39575926102E+02  0.15926515696E+03  0.12508566205E+03 0.  0.
          5    1    3    3  502    0 -0.33117458427E+01 -0.72137574136E+02  0.24750831362E+02  0.76451771175E+02  0.41800000000E+01 0. -1.
         -5    1    3    3    0  502 -0.51981550397E+02  0.75574986467E+00 -0.64326757464E+02  0.82813385786E+02  0.41800000000E+01 0. -1.
        -11    1    1    2    0    0 -0.16860088187E+02  0.17017859121E+02  0.12020152612E+01  0.23985723742E+02  0.00000000000E+00 0. -1.
         11    1    1    2    0    0  0.72153384426E+02  0.54363965150E+02 -0.11394657901E+03  0.14541449191E+03  0.00000000000E+00 0.  1.
</event>
<event>
 7    1  0.2794945E-009  0.1164861E+03  0.7561462E-02  0.1249009E+00
          2   -1    0    0  501    0  0.00000000000E+00  0.00000000000E+00  0.24365740815E+03  0.24365740815E+03  0.00000000000E+00 0. -1.
         -2   -1    0    0    0  501 -0.00000000000E+00 -0.00000000000E+00 -0.11638617660E+03  0.11638617660E+03  0.00000000000E+00 0.  1.
         25    2    1    2    0    0  0.55383178479E+02 -0.65929109645E+02  0.16927489841E+03  0.22741796039E+03  0.12510393087E+03 0.  0.
          5    1    3    3  502    0  0.16980984513E+02  0.23158209133E+02 -0.34965542747E+01  0.29229347873E+02  0.41800000000E+01 0.  1.
         -5    1    3    3    0  502  0.38402193966E+02 -0.89087318778E+02  0.17277145268E+03  0.19818861252E+03  0.41800000000E+01 0.  1.
        -11    1    1    2    0    0 -0.69732271224E+02  0.54241302056E+02 -0.60014822657E+02  0.10680115841E+03  0.00000000000E+00 0.  1.
         11    1    1    2    0    0  0.14349092745E+02  0.11687807590E+02  0.18011155795E+02  0.25824465956E+02  0.00000000000E+00 0. -1.
</event>
<event>
 7    1  0.2794945E-009  0.1109392E+03  0.7561462E-02  0.1258840E+00
         -2   -1    0    0    0  501 -0.00000000000E+00  0.00000000000E+00  0.19704821509E+02  0.19704821509E+02  0.00000000000E+00 0.  1.
          2   -1    0    0  501    0  0.00000000000E+00 -0.00000000000E+00 -0.95263817018E+03  0.95263817018E+03  0.00000000000E+00 0. -1.
         25    2    1    2    0    0 -0.82218371194E+02 -0.55840551553E+01 -0.54909875596E+03  0.56916441134E+03  0.12509053164E+03 0.  0.
          5    1    3    3  502    0 -0.63321384201E+02 -0.48389703991E+02 -0.17758418120E+03  0.19469148662E+03  0.41800000000E+01 0.  1.
         -5    1    3    3    0  502 -0.18896986993E+02  0.42805648836E+02 -0.37151457476E+03  0.37447292472E+03  0.41800000000E+01 0.  1.
        -11    1    1    2    0    0  0.26631266648E+02  0.24692592593E+02 -0.38690765621E+02  0.53065279012E+02  0.00000000000E+00 0.  1.
         11    1    1    2    0    0  0.55587104546E+02 -0.19108537438E+02 -0.34514382710E+03  0.35011330134E+03  0.00000000000E+00 0. -1.
</event>
<event>
 7    1  0.2794945E-009  0.9811278E+02  0.7561462E-02  0.1284315E+00
         -2   -1    0    0    0  501 -0.00000000000E+00  0.00000000000E+00  0.49797845001E+02  0.49797845001E+02  0.00000000000E+00 0. -1.
          2   -1    0    0  501    0  0.00000000000E+00 -0.00000000000E+00 -0.32002835853E+03  0.32002835853E+03  0.00000000000E+00 0.  1.
         25    2    1    2    0    0  0.74775583849E+01 -0.59505394561E+02 -0.11600546647E+03  0.18083656142E+03  0.12509111812E+03 0.  0.
          5    1    3    3  502    0 -0.16272771716E+02  0.73301026505E+01  0.20160003359E+02  0.27247598786E+02  0.41800000000E+01 0. -1.
         -5    1    3    3    0  502  0.23750330101E+02 -0.66835497212E+02 -0.13616546983E+03  0.15358896263E+03  0.41800000000E+01 0. -1.
        -11    1    1    2    0    0 -0.20182229543E+02 -0.18758525373E+02 -0.24074321844E+02  0.36589310403E+02  0.00000000000E+00 0. -1.
         11    1    1    2    0    0  0.12704671158E+02  0.78263919934E+02 -0.13015072521E+03  0.15240033171E+03  0.00000000000E+00 0.  1.
</event>
<event>
 7    1  0.2794945E-009  0.1313129E+03  0.7561462E-02  0.1225521E+00
          2   -1    0    0  501    0  0.00000000000E+00  0.00000000000E+00  0.18399911485E+04  0.18399911485E+04  0.00000000000E+00 0. -1.
         -2   -1    0    0    0  501 -0.00000000000E+00 -0.00000000000E+00 -0.12030391262E+02  0.12030391262E+02  0.00000000000E+00 0.  1.
         25    2    1    2    0    0 -0.51784692536E+02  0.73912962811E+02  0.12805020110E+04  0.12897586839E+04  0.12508909602E+03 0.  0.
          5    1    3    3  502    0 -0.81743095376E+02  0.59467743473E+02  0.60304624086E+03  0.61147410998E+03  0.41800000000E+01 0.  1.
         -5    1    3    3    0  502  0.29958402840E+02  0.14445219338E+02  0.67745577014E+03  0.67828457388E+03  0.41800000000E+01 0.  1.
        -11    1    1    2    0    0 -0.15024990996E+00 -0.75957510639E+02  0.34176564160E+03  0.35010472687E+03  0.00000000000E+00 0. -1.
         11    1    1    2    0    0  0.51934942446E+02  0.20445478286E+01  0.20569310465E+03  0.21215812905E+03  0.00000000000E+00 0.  1.
</event>
<event>
 7    1  0.2794945E-009  0.1219632E+03  0.7561462E-02  0.1239893E+00
          1   -1    0    0  501    0  0.00000000000E+00  0.00000000000E+00  0.81638283483E+03  0.81638283483E+03  0.00000000000E+00 0. -1.
         -1   -1    0    0    0  501 -0.00000000000E+00 -0.00000000000E+00 -0.23166400681E+02  0.23166400681E+02  0.00000000000E+00 0.  1.
         25    2    1    2    0    0 -0.61157772911E+02  0.65680779240E+02  0.45820425056E+03  0.48337602598E+03  0.12508800629E+03 0.  0.
          5    1    3    3  502    0 -0.78567778892E+02  0.69261795196E+02  0.45214663593E+03  0.46413806667E+03  0.41800000000E+01 0.  1.
         -5    1    3    3    0  502  0.17410005981E+02 -0.35810159565E+01  0.60576146326E+01  0.19237959314E+02  0.41800000000E+01 0.  1.
        -11    1    1    2    0    0  0.94520563530E+01 -0.68417487810E+02  0.18450864859E+03  0.19701201845E+03  0.00000000000E+00 0.  1.
         11    1    1    2    0    0  0.51705716558E+02  0.27367085702E+01  0.15050353500E+03  0.15916119108E+03  0.00000000000E+00 0. -1.
</event>
<event>
 7    1  0.2794945E-009  0.7275310E+02  0.7561462E-02  0.1350974E+00
          1   -1    0    0  501    0  0.00000000000E+00  0.00000000000E+00  0.20519922066E+03  0.20519922066E+03  0.00000000000E+00 0. -1.
         -1   -1    0    0    0  501 -0.00000000000E+00 -0.00000000000E+00 -0.73351305332E+02  0.73351305332E+02  0.00000000000E+00 0.  1.
         25    2    1    2    0    0 -0.36237030104E+02 -0.17447324484E+02  0.12153832068E+03  0.17899300029E+03  0.12509755905E+03 0.  0.
          5    1    3    3  502    0  0.15962050131E+02 -0.23225378305E+02 -0.15317608163E+02  0.32346665387E+02  0.41800000000E+01 0.  1.
         -5    1    3    3    0  502 -0.52199080235E+02  0.57780538212E+01  0.13685592884E+03  0.14664633491E+03  0.41800000000E+01 0.  1.
        -11    1    1    2    0    0 -0.17006194351E+00  0.26753938892E+02 -0.32826955499E+02  0.42348685630E+02  0.00000000000E+00 0.  1.
         11    1    1    2    0    0  0.36407092047E+02 -0.93066144083E+01  0.43136550156E+02  0.57208840072E+02  0.00000000000E+00 0. -1.
</event>
<event>
 7    1  0.2794945E-009  0.1155805E+03  0.7561462E-02  0.1250571E+00
         -2   -1    0    0    0  501 -0.00000000000E+00  0.00000000000E+00  0.18407355180E+02  0.18407355180E+02  0.00000000000E+00 0.  1.
          2   -1    0    0  501    0  0.00000000000E+00 -0.00000000000E+00 -0.83742898577E+03  0.83742898577E+03  0.00000000000E+00 0. -1.
         25    2    1    2    0    0 -0.15543764826E+02  0.49035174351E+02 -0.55402033934E+03  0.57029093897E+03  0.12508861545E+03 0.  0.
          5    1    3    3  502    0 -0.14081677111E+02 -0.38093289876E+02 -0.27312837021E+03  0.27616294353E+03  0.41800000000E+01 0. -1.
         -5    1    3    3    0  502 -0.14620877159E+01  0.87128464227E+02 -0.28089196913E+03  0.29412799544E+03  0.41800000000E+01 0. -1.
        -11    1    1    2    0    0 -0.35670435476E+02 -0.59446413659E+01 -0.12890971779E+03  0.13388589944E+03  0.00000000000E+00 0. -1.
         11    1    1    2    0    0  0.51214200302E+02 -0.43090532985E+02 -0.13609157346E+03  0.15165950254E+03  0.00000000000E+00 0.  1.
</event>
<event>
 7    1  0.2794945E-009  0.8679969E+02  0.7561462E-02  0.1310792E+00
         -1   -1    0    0    0  501 -0.00000000000E+00  0.00000000000E+00  0.26597623685E+02  0.26597623685E+02  0.00000000000E+00 0.  1.
          1   -1    0    0  501    0  0.00000000000E+00 -0.00000000000E+00 -0.47841816416E+03  0.47841816416E+03  0.00000000000E+00 0. -1.
         25    2    1    2    0    0 -0.17284042877E+02  0.18939603330E+02 -0.30579201617E+03  0.33138452163E+03  0.12509795086E+03 0.  0.
          5    1    3    3  502    0 -0.42651815923E+02 -0.76210346605E+01 -0.28630852261E+03  0.28959851534E+03  0.41800000000E+01 0.  1.
         -5    1    3    3    0  502  0.25367773046E+02  0.26560637991E+02 -0.19483493557E+02  0.41786006282E+02  0.41800000000E+01 0.  1.
        -11    1    1    2    0    0 -0.36889417168E+02 -0.97688352358E+01 -0.48765551701E+02  0.61922033829E+02  0.00000000000E+00 0.  1.
         11    1    1    2    0    0  0.54173460045E+02 -0.91707680946E+01 -0.97262972609E+02  0.11170923239E+03  0.00000000000E+00 0. -1.
</event>
<event>
 7    1  0.2794945E-009  0.1099962E+03  0.7561462E-02  0.1260577E+00
          2   -1    0    0  501    0  0.00000000000E+00  0.00000000000E+00  0.33596578966E+02  0.33596578966E+02  0.00000000000E+00 0.  1.
         -2   -1    0    0    0  501 -0.00000000000E+00 -0.00000000000E+00 -0.39830239473E+03  0.39830239473E+03  0.00000000000E+00 0. -1.
         25    2    1    2    0    0  0.31323953603E+02 -0.22851838948E+01 -0.15844810624E+03  0.20430177545E+03  0.12508797283E+03 0.  0.
          5    1    3    3  502    0 -0.31309749885E+02  0.41368362362E+02 -0.55802749607E+02  0.76308984438E+02  0.41800000000E+01 0.  1.
         -5    1    3    3    0  502  0.62633703487E+02 -0.43653546256E+02 -0.10264535663E+03  0.12799279101E+03  0.41800000000E+01 0.  1.
        -11    1    1    2    0    0  0.15875953232E+02  0.31991089502E+02 -0.48202199018E+02  0.59991063407E+02  0.00000000000E+00 0. -1.
         11    1    1    2    0    0 -0.47199906835E+02 -0.29705905607E+02 -0.15805551051E+03  0.16760613484E+03  0.00000000000E+00 0.  1.
</event>
<event>
 7    1  0.2794945E-009  0.2292776E+03  0.7561462E-02  0.1127149E+00
          1   -1    0    0  501    0  0.00000000000E+00  0.00000000000E+00  0.73735989656E+03  0.73735989656E+03  0.00000000000E+00 0. -1.
         -1   -1    0    0    0  501 -0.00000000000E+00 -0.00000000000E+00 -0.10368792772E+03  0.10368792772E+03  0.00000000000E+00 0.  1.
         25    2    1    2    0    0  0.32959188049E+02  0.21109615636E+03  0.53317097961E+03  0.58784907421E+03  0.12508934903E+03 0.  0.
          5    1    3    3  502    0 -0.34910819766E+02  0.29156804279E+02  0.53505242864E+02  0.70350323286E+02  0.41800000000E+01 0.  1.
         -5    1    3    3    0  502  0.67870007816E+02  0.18193935208E+03  0.47966573675E+03  0.51749875092E+03  0.41800000000E+01 0.  1.
        -11    1    1    2    0    0 -0.29589914682E+01 -0.15504078385E+03  0.10830027958E+03  0.18914373065E+03  0.00000000000E+00 0. -1.
         11    1    1    2    0    0 -0.30000196581E+02 -0.56055372509E+02 -0.77992903523E+01  0.64055019413E+02  0.00000000000E+00 0.  1.
</event>
<event>
 7    1  0.2794945E-009  0.9702483E+02  0.7561462E-02  0.1286680E+00
          1   -1    0    0  501    0  0.00000000000E+00  0.00000000000E+00  0.43692826267E+02  0.43692826267E+02  0.00000000000E+00 0. -1.
         -1   -1    0    0    0  501 -0.00000000000E+00 -0.00000000000E+00 -0.30239623804E+03  0.30239623804E+03  0.00000000000E+00 0.  1.
         25    2    1    2    0    0 -0.29732979644E+02 -0.12992166077E+02 -0.11446442502E+03  0.17264458111E+03  0.12510475744E+03 0.  0.
          5    1    3    3  502    0 -0.45599632272E+02  0.44632922920E+02 -0.34298218716E+02  0.72562142187E+02  0.41800000000E+01 0. -1.
         -5    1    3    3    0  502  0.15866652628E+02 -0.57625088997E+02 -0.80166206306E+02  0.10008243892E+03  0.41800000000E+01 0. -1.
        -11    1    1    2    0    0  0.45707273295E+02 -0.51737477545E+01 -0.26169286616E+02  0.52922150937E+02  0.00000000000E+00 0. -1.
         11    1    1    2    0    0 -0.15974293650E+02  0.18165913832E+02 -0.11806970013E+03  0.12052233226E+03  0.00000000000E+00 0.  1.
</event>
<event>
 7    1  0.2794945E-009  0.1384101E+03  0.7561462E-02  0.1215484E+00
         -1   -1    0    0    0  501 -0.00000000000E+00  0.00000000000E+00  0.40286754606E+03  0.40286754606E+03  0.00000000000E+00 0.  1.
          1   -1    0    0  501    0  0.00000000000E+00 -0.00000000000E+00 -0.55287742869E+02  0.55287742869E+02  0.00000000000E+00 0. -1.
         25    2    1    2    0    0 -0.81908443384E+02  0.42409598166E+02  0.11633436167E+03  0.19413892142E+03  0.12509464413E+03 0.  0.
          5    1    3    3  502    0 -0.11249671653E+03  0.42781922362E+02  0.72652645752E+02  0.14064737269E+03  0.41800000000E+01 0. -1.
         -5    1    3    3    0  502  0.30588273144E+02 -0.37232419561E+00  0.43681715917E+02  0.53491548722E+02  0.41800000000E+01 0. -1.
        -11    1    1    2    0    0  0.90034282043E+02 -0.82595420542E+01  0.14471347717E+03  0.17063523216E+03  0.00000000000E+00 0.  1.
         11    1    1    2    0    0 -0.81258386595E+01 -0.34150056112E+02  0.86531964353E+02  0.93381135360E+02  0.00000000000E+00 0. -1.
</event>
<event>
 7    1  0.2794945E-009  0.1025075E+03  0.7561462E-02  0.1275110E+00
         -2   -1    0    0    0  501 -0.00000000000E+00  0.00000000000E+00  0.34719241604E+02  0.34719241604E+02  0.00000000000E+00 0.  1.
          2   -1    0    0  501    0  0.00000000000E+00 -0.00000000000E+00 -0.39465225226E+03  0.39465225226E+03  0.00000000000E+00 0. -1.
         25    2    1    2    0    0 -0.19390677225E+02 -0.33556693734E+02 -0.23767890412E+03  0.27136776519E+03  0.12508857846E+03 0.  0.
          5    1    3    3  502    0 -0.39142707369E+02  0.22497404278E+02 -0.18920045768E+03  0.19455737027E+03  0.41800000000E+01 0.  1.
         -5    1    3    3    0  502  0.19752030144E+02 -0.56054098012E+02 -0.48478446444E+02  0.76810394924E+02  0.41800000000E+01 0.  1.
        -11    1    1    2    0    0  0.56774450514E+02  0.22933940441E+02 -0.74623451047E+02  0.96529598059E+02  0.00000000000E+00 0.  1.
         11    1    1    2    0    0 -0.37383773288E+02  0.10622753293E+02 -0.47630655488E+02  0.61474130616E+02  0.00000000000E+00 0. -1.
</event>
<event>
 7    1  0.2794945E-009  0.1526174E+03  0.7561462E-02  0.1197293E+00
         -1   -1    0    0    0  501 -0.00000000000E+00  0.00000000000E+00  0.42675886351E+03  0.42675886351E+03  0.00000000000E+00 0.  1.
          1   -1    0    0  501    0  0.00000000000E+00 -0.00000000000E+00 -0.65642714865E+02  0.65642714865E+02  0.00000000000E+00 0. -1.
         25    2    1    2    0    0 -0.12935774049E+03  0.40306333171E+01  0.24556880776E+03  0.30446896039E+03  0.12509051709E+03 0.  0.
          5    1    3    3  502    0 -0.98090191219E+02 -0.52214802706E+02  0.18584716358E+03  0.21657495664E+03  0.41800000000E+01 0.  1.
         -5    1    3    3    0  502 -0.31267549271E+02  0.56245436023E+02  0.59721644187E+02  0.87894003750E+02  0.41800000000E+01 0.  1.
        -11    1    1    2    0    0  0.43346135662E+02 -0.40494223338E+01  0.87039252694E+02  0.97319663006E+02  0.00000000000E+00 0.  1.
         11    1    1    2    0    0  0.86011604827E+02  0.18789016650E-01  0.28508088190E+02  0.90612954980E+02  0.00000000000E+00 0. -1.
</event>
<event>
 7    1  0.2794945E-009  0.1301045E+03  0.7561462E-02  0.1227301E+00
         -1   -1    0    0    0  501 -0.00000000000E+00  0.00000000000E+00  0.58997866830E+03  0.58997866830E+03  0.00000000000E+00 0.  1.
          1   -1    0    0  501    0  0.00000000000E+00 -0.00000000000E+00 -0.36905641433E+02  0.36905641433E+02  0.00000000000E+00 0. -1.
         25    2    1    2    0    0  0.66742205118E+02  0.30350216545E+02  0.42604258843E+03  0.45004232155E+03  0.12510054531E+03 0.  0.
          5    1    3    3  502    0  0.97111856750E+02  0.28540188393E+01  0.35344455348E+03  0.36657793568E+03  0.41800000000E+01 0. -1.
         -5    1    3    3    0  502 -0.30369651632E+02  0.27496197706E+02  0.72598034957E+02  0.83464385867E+02  0.41800000000E+01 0. -1.
        -11    1    1    2    0    0  0.25423116648E+01  0.29875613116E+02  0.21076186005E+02  0.36649982594E+02  0.00000000000E+00 0.  1.
         11    1    1    2    0    0 -0.69284516783E+02 -0.60225829661E+02  0.10595425242E+03  0.14019200559E+03  0.00000000000E+00 0. -1.
</event>
<event>
 7    1  0.2794945E-009  0.1543535E+03  0.7561462E-02  0.1195223E+00
          2   -1    0    0  501    0  0.00000000000E+00  0.00000000000E+00  0.16744023583E+03  0.16744023583E+03  0.00000000000E+00 0. -1.
         -2   -1    0    0    0  501 -0.00000000000E+00 -0.00000000000E+00 -0.17948993168E+03  0.17948993168E+03  0.00000000000E+00 0.  1.
         25    2    1    2    0    0  0.94820540422E+01  0.12895859985E+03 -0.43736119657E+02  0.18513727258E+03  0.12507090674E+03 0.  0.
          5    1    3    3  502    0 -0.27779115971E+02 -0.12697438259E+02 -0.19857586010E+02  0.36670156049E+02  0.41800000000E+01 0.  1.
         -5    1    3    3    0  502  0.37261170013E+02  0.14165603811E+03 -0.23878533646E+02  0.14846711653E+03  0.41800000000E+01 0.  1.
        -11    1    1    2    0    0 -0.16857133433E+02 -0.10251583288E+03  0.61928328395E+02  0.12094948035E+03  0.00000000000E+00 0. -1.
         11    1    1    2    0    0  0.73750793905E+01 -0.26442766968E+02 -0.30241904594E+02  0.40843414578E+02  0.00000000000E+00 0.  1.
</event>
<event>
 7    1  0.2794945E-009  0.1158057E+03  0.7561462E-02  0.1250181E+00
          2   -1    0    0  501    0  0.00000000000E+00  0.00000000000E+00  0.45730709172E+03  0.45730709172E+03  0.00000000000E+00 0.  1.
         -2   -1    0    0    0  501 -0.00000000000E+00 -0.00000000000E+00 -0.32626124781E+02  0.32626124781E+02  0.00000000000E+00 0. -1.
         25    2    1    2    0    0  0.64460469268E+01  0.36271789836E+02  0.15913782424E+03  0.20574173635E+03  0.12509045014E+03 0.  0.
          5    1    3    3  502    0 -0.30681061456E+02  0.72194133982E+02  0.97569377431E+02  0.12526203066E+03  0.41800000000E+01 0.  1.
         -5    1    3    3    0  502  0.37127108383E+02 -0.35922344146E+02  0.61568446805E+02  0.80479705689E+02  0.41800000000E+01 0.  1.
        -11    1    1    2    0    0 -0.48390438599E+02 -0.44822937672E+01  0.13050480933E+03  0.13925958051E+03  0.00000000000E+00 0.  1.
         11    1    1    2    0    0  0.41944391672E+02 -0.31789496069E+02  0.13503833337E+03  0.14493189964E+03  0.00000000000E+00 0. -1.
</event>
<event>
 7    1  0.2794945E-009  0.9757823E+02  0.7561462E-02  0.1285473E+00
          2   -1    0    0  501    0  0.00000000000E+00  0.00000000000E+00  0.48690381582E+03  0.48690381582E+03  0.00000000000E+00 0. -1.
         -2   -1    0    0    0  501 -0.00000000000E+00 -0.00000000000E+00 -0.20952431127E+02  0.20952431127E+02  0.00000000000E+00 0.  1.
         25    2    1    2    0    0  0.67701728912E+01  0.67681929398E+01  0.32762345583E+03  0.35081622961E+03  0.12507299655E+03 0.  0.
          5    1    3    3  502    0  0.37281412430E+02  0.53532960298E+02  0.13143359182E+03  0.14679217626E+03  0.41800000000E+01 0. -1.
         -5    1    3    3    0  502 -0.30511239538E+02 -0.46764767358E+02  0.19618986401E+03  0.20402405335E+03  0.41800000000E+01 0. -1.
        -11    1    1    2    0    0  0.33355704151E+02 -0.29741052622E+01  0.53370729934E+02  0.63007008461E+02  0.00000000000E+00 0.  1.
         11    1    1    2    0    0 -0.40125877042E+02 -0.37940876776E+01  0.84957198929E+02  0.94033008883E+02  0.00000000000E+00 0. -1.
</event>
<event>
 7    1  0.2794945E-009  0.3709016E+03  0.7561462E-02  0.1054349E+00
         -1   -1    0    0    0  501 -0.00000000000E+00  0.00000000000E+00  0.32225042242E+03  0.32225042242E+03  0.00000000000E+00 0.  1.
          1   -1    0    0  501    0  0.00000000000E+00 -0.00000000000E+00 -0.45108500360E+03  0.45108500360E+03  0.00000000000E+00 0. -1.
         25    2    1    2    0    0 -0.26365455906E+03 -0.24981300236E+03 -0.10383673910E+03  0.39793633244E+03  0.12510393130E+03 0.  0.
          5    1    3    3  502    0 -0.10252519542E+03 -0.56416339388E+02  0.17613619214E+02  0.11841423491E+03  0.41800000000E+01 0. -1.
         -5    1    3    3    0  502 -0.16112936364E+03 -0.19339666298E+03 -0.12145035831E+03  0.27952209753E+03  0.41800000000E+01 0. -1.
        -11    1    1    2    0    0  0.17958522710E+03  0.21944579238E+03 -0.40464281087E+01  0.28359069654E+03  0.00000000000E+00 0. -1.
         11    1    1    2    0    0  0.84069331961E+02  0.30367209988E+02 -0.20951413983E+02  0.91808397038E+02  0.00000000000E+00 0.  1.
</event>
<event>
 7    1  0.2794945E-009  0.1026662E+03  0.7561462E-02  0.1274787E+00
         -3   -1    0    0    0  501 -0.00000000000E+00  0.00000000000E+00  0.11850215748E+03  0.11850215748E+03  0.00000000000E+00 0.  1.
          3   -1    0    0  501    0  0.00000000000E+00 -0.00000000000E+00 -0.17107071127E+03  0.17107071127E+03  0.00000000000E+00 0. -1.
         25    2    1    2    0    0  0.78712447103E+02  0.99342808335E+01 -0.72675224510E+02  0.16499587744E+03  0.12509041550E+03 0.  0.
          5    1    3    3  502    0  0.14439927991E+02  0.45266349283E+02 -0.77905514845E+02  0.91347115669E+02  0.41800000000E+01 0.  1.
         -5    1    3    3    0  502  0.64272519111E+02 -0.35332068450E+02  0.52302903346E+01  0.73648761774E+02  0.41800000000E+01 0.  1.
        -11    1    1    2    0    0 -0.16026253016E+02 -0.14102708168E+02 -0.35007867026E+02  0.41003389093E+02  0.00000000000E+00 0. -1.
         11    1    1    2    0    0 -0.62686194086E+02  0.41684273348E+01  0.55114537746E+02  0.83573602210E+02  0.00000000000E+00 0.  1.
</event>
<event>
 7    1  0.2794945E-009  0.1218954E+03  0.7561462E-02  0.1240003E+00
          2   -1    0    0  501    0  0.00000000000E+00  0.00000000000E+00  0.45754678332E+03  0.45754678332E+03  0.00000000000E+00 0.  1.
         -2   -1    0    0    0  501 -0.00000000000E+00 -0.00000000000E+00 -0.33464888825E+02  0.33464888825E+02  0.00000000000E+00 0. -1.
         25    2    1    2    0    0 -0.56198557297E+02 -0.12330522869E+02  0.25946008880E+03  0.29372463059E+03  0.12507718137E+03 0.  0.
          5    1    3    3  502    0 -0.80285754122E+02  0.32320948983E+02  0.15742139322E+03  0.17969255271E+03  0.41800000000E+01 0. -1.
         -5    1    3    3    0  502  0.24087196824E+02 -0.44651471852E+02  0.10203869558E+03  0.11403207788E+03  0.41800000000E+01 0. -1.
        -11    1    1    2    0    0  0.62912915973E+02  0.42112814564E+02  0.13482624208E+03  0.15462742221E+03  0.00000000000E+00 0.  1.
         11    1    1    2    0    0 -0.67143586761E+01 -0.29782291695E+02  0.29795563615E+02  0.42659619339E+02  0.00000000000E+00 0. -1.
</event>
<event>
 7    1  0.2794945E-009  0.9774389E+02  0.7561462E-02  0.1285113E+00
         -1   -1    0    0    0  501 -0.00000000000E+00  0.00000000000E+00  0.32232532129E+02  0.32232532129E+02  0.00000000000E+00 0.  1.
          1   -1    0    0  501    0  0.00000000000E+00 -0.00000000000E+00 -0.44030804671E+03  0.44030804671E+03  0.00000000000E+00 0. -1.
         25    2    1    2    0    0  0.41480885966E+01 -0.38360742750E+02 -0.16629214347E+03  0.21163520765E+03  0.12509049090E+03 0.  0.
          5    1    3    3  502    0 -0.40279131462E+02 -0.27477206933E+01 -0.14520813178E+03  0.15077411030E+03  0.41800000000E+01 0. -1.
         -5    1    3    3    0  502  0.44427220059E+02 -0.35613022057E+02 -0.21084011689E+02  0.60861097354E+02  0.41800000000E+01 0. -1.
        -11    1    1    2    0    0  0.42852844625E+02  0.15812862201E+02 -0.12198223014E+03  0.13025389581E+03  0.00000000000E+00 0.  1.
         11    1    1    2    0    0 -0.47000933222E+02  0.22547880549E+02 -0.11980114096E+03  0.13065147537E+03  0.00000000000E+00 0. -1.
</event>
<event>
 7    1  0.2794945E-009  0.1393672E+03  0.7561462E-02  0.1214183E+00
         -2   -1    0    0    0  501 -0.00000000000E+00  0.00000000000E+00  0.87589769612E+02  0.87589769612E+02  0.00000000000E+00 0.  1.
          2   -1    0    0  501    0  0.00000000000E+00 -0.00000000000E+00 -0.30165241083E+03  0.30165241083E+03  0.00000000000E+00 0. -1.
         25    2    1    2    0    0  0.39881073903E+02  0.95504774402E+02 -0.38975999964E+02  0.16696563096E+03  0.12508689523E+03 0.  0.
          5    1    3    3  502    0  0.74409216362E+02  0.31168205667E+02  0.61716704915E+01  0.81016976250E+02  0.41800000000E+01 0. -1.
         -5    1    3    3    0  502 -0.34528142459E+02  0.64336568736E+02 -0.45147670456E+02  0.85948654707E+02  0.41800000000E+01 0. -1.
        -11    1    1    2    0    0  0.20157112733E+02 -0.20611644340E+02 -0.88246251645E+02  0.92836146008E+02  0.00000000000E+00 0. -1.
         11    1    1    2    0    0 -0.60038186636E+02 -0.74893130062E+02 -0.86840389609E+02  0.12944040348E+03  0.00000000000E+00 0.  1.
</event>
<event>
 7    1  0.2794945E-009  0.8227259E+02  0.7561462E-02  0.1322723E+00
          1   -1    0    0  501    0  0.00000000000E+00  0.00000000000E+00  0.40092359754E+02  0.40092359754E+02  0.00000000000E+00 0. -1.
         -1   -1    0    0    0  501 -0.00000000000E+00 -0.00000000000E+00 -0.40001532226E+03  0.40001532226E+03  0.00000000000E+00 0.  1.
         25    2    1    2    0    0  0.47373473703E+02  0.30403194848E+02 -0.14073595960E+03  0.19652762841E+03  0.12509155900E+03 0.  0.
          5    1    3    3  502    0  0.34269130794E+02  0.31393478301E+02  0.78369262244E+01  0.47316103156E+02  0.41800000000E+01 0.  1.
         -5    1    3    3    0  502  0.13104342909E+02 -0.99028345299E+00 -0.14857288583E+03  0.14921152525E+03  0.41800000000E+01 0.  1.
        -11    1    1    2    0    0  0.10987387377E+02 -0.43004856872E+02 -0.69965702823E+02  0.82857347094E+02  0.00000000000E+00 0. -1.
         11    1    1    2    0    0 -0.58360861080E+02  0.12601662024E+02 -0.14922130008E+03  0.16072270651E+03  0.00000000000E+00 0.  1.
</event>
<event>
 7    1  0.2794945E-009  0.1037649E+03  0.7561462E-02  0.1272572E+00
          1   -1    0    0  501    0  0.00000000000E+00  0.00000000000E+00  0.63562159435E+03  0.63562159435E+03  0.00000000000E+00 0. -1.
         -1   -1    0    0    0  501 -0.00000000000E+00 -0.00000000000E+00 -0.26253394318E+02  0.26253394318E+02  0.00000000000E+00 0.  1.
         25    2    1    2    0    0  0.44986421299E+02  0.43497068508E+02  0.38499277027E+03  0.40961233656E+03  0.12508820899E+03 0.  0.
          5    1    3    3  502    0  0.56123095802E+02 -0.20585724459E+02  0.27755330747E+03  0.28394873625E+03  0.41800000000E+01 0.  1.
         -5    1    3    3    0  502 -0.11136674503E+02  0.64082792967E+02  0.10743946280E+03  0.12566360030E+03  0.41800000000E+01 0.  1.
        -11    1    1    2    0    0  0.50414568023E+01  0.87450856988E+01 -0.53460481405E+01  0.11422479647E+02  0.00000000000E+00 0.  1.
         11    1    1    2    0    0 -0.50027878101E+02 -0.52242154207E+02  0.22972147790E+03  0.24084017246E+03  0.00000000000E+00 0. -1.
</event>
<event>
 7    1  0.2794945E-009  0.9179152E+02  0.7561462E-02  0.1298570E+00
         -1   -1    0    0    0  501 -0.00000000000E+00  0.00000000000E+00  0.16390837340E+02  0.16390837340E+02  0.00000000000E+00 0.  1.
          1   -1    0    0  501    0  0.00000000000E+00 -0.00000000000E+00 -0.79134447658E+03  0.79134447658E+03  0.00000000000E+00 0. -1.
         25    2    1    2    0    0 -0.90033176821E+01 -0.33444085315E+02 -0.45260367305E+03  0.47084788034E+03  0.12509226589E+03 0.  0.
          5    1    3    3  502    0  0.53671580798E+01  0.27286938752E+02 -0.21946358302E+02  0.35672096308E+02  0.41800000000E+01 0. -1.
         -5    1    3    3    0  502 -0.14370475762E+02 -0.60731024067E+02 -0.43065731475E+03  0.43517578403E+03  0.41800000000E+01 0. -1.
        -11    1    1    2    0    0 -0.18924380534E+02 -0.23091595761E+02 -0.15920613704E+03  0.16198132004E+03  0.00000000000E+00 0. -1.
         11    1    1    2    0    0  0.27927698216E+02  0.56535681076E+02 -0.16314382915E+03  0.17490611354E+03  0.00000000000E+00 0.  1.
</event>
<event>
 7    1  0.2794945E-009  0.1215196E+03  0.7561462E-02  0.1240611E+00
         -1   -1    0    0    0  501 -0.00000000000E+00  0.00000000000E+00  0.74427955714E+02  0.74427955714E+02  0.00000000000E+00 0.  1.
          1   -1    0    0  501    0  0.00000000000E+00 -0.00000000000E+00 -0.27207614159E+03  0.27207614159E+03  0.00000000000E+00 0. -1.
         25    2    1    2    0    0 -0.79117101181E+02 -0.12682910298E+02 -0.52800865793E+02  0.15766016619E+03  0.12509366355E+03 0.  0.
          5    1    3    3  502    0 -0.10455048233E+03 -0.83688893408E+01 -0.73415361152E+01  0.10522457991E+03  0.41800000000E+01 0.  1.
         -5    1    3    3    0  502  0.25433381149E+02 -0.43140209573E+01 -0.45459329678E+02  0.52435586278E+02  0.41800000000E+01 0.  1.
        -11    1    1    2    0    0 -0.73327927153E+01 -0.18606926335E+02 -0.36157318646E+01  0.20323903994E+02  0.00000000000E+00 0.  1.
         11    1    1    2    0    0  0.86449893896E+02  0.31289836633E+02 -0.14123158822E+03  0.16852002712E+03  0.00000000000E+00 0. -1.
</event>
<event>
 7    1  0.2794945E-009  0.1146774E+03  0.7561462E-02  0.1252145E+00
          1   -1    0    0  501    0  0.00000000000E+00  0.00000000000E+00  0.97198668512E+03  0.97198668512E+03  0.00000000000E+00 0. -1.
         -1   -1    0    0    0  501 -0.00000000000E+00 -0.00000000000E+00 -0.16036901908E+02  0.16036901908E+02  0.00000000000E+00 0.  1.
         25    2    1    2    0    0  0.40406087939E+02 -0.15111400516E+01  0.71802063348E+03  0.72995820171E+03  0.12510160131E+03 0.  0.
          5    1    3    3  502    0  0.69771925657E+02 -0.40987982121E+02  0.39970021521E+03  0.40783068880E+03  0.41800000000E+01 0. -1.
         -5    1    3    3    0  502 -0.29365837717E+02  0.39476842070E+02  0.31832041828E+03  0.32212751292E+03  0.41800000000E+01 0. -1.
        -11    1    1    2    0    0 -0.66901443628E+02 -0.13852011767E+02  0.14661430755E+03  0.16175115631E+03  0.00000000000E+00 0.  1.
         11    1    1    2    0    0  0.26495355689E+02  0.15363151818E+02  0.91314842185E+02  0.96314229012E+02  0.00000000000E+00 0. -1.
</event>
<event>
 7    1  0.2794945E-009  0.2432323E+03  0.7561462E-02  0.1117658E+00
         -2   -1    0    0    0  501 -0.00000000000E+00  0.00000000000E+00  0.85856982584E+03  0.85856982584E+03  0.00000000000E+00 0.  1.
          2   -1    0    0  501    0  0.00000000000E+00 -0.00000000000E+00 -0.80324696317E+02  0.80324696317E+02  0.00000000000E+00 0. -1.
         25    2    1    2    0    0  0.21005942481E+03 -0.10512005029E+03  0.47410865650E+03  0.54369256588E+03  0.12508957235E+03 0.  0.
          5    1    3    3  502    0 -0.11131374931E+01 -0.37812181593E+01 -0.67137245318E+01  0.88364689179E+01  0.41800000000E+01 0. -1.
         -5    1    3    3    0  502  0.21117256230E+03 -0.10133883213E+03  0.48082238103E+03  0.53485609697E+03  0.41800000000E+01 0. -1.
        -11    1    1    2    0    0 -0.10166914035E+03  0.92281698448E+02  0.12639793766E+03  0.18662519822E+03  0.00000000000E+00 0. -1.
         11    1    1    2    0    0 -0.10839028445E+03  0.12838351840E+02  0.17773853537E+03  0.20857675805E+03  0.00000000000E+00 0.  1.
</event>
<event>
 7    1  0.2794945E-009  0.1221815E+03  0.7561462E-02  0.1239541E+00
          1   -1    0    0  501    0  0.00000000000E+00  0.00000000000E+00  0.26258255831E+02  0.26258255831E+02  0.00000000000E+00 0. -1.
         -1   -1    0    0    0  501 -0.00000000000E+00 -0.00000000000E+00 -0.10062436732E+04  0.10062436732E+04  0.00000000000E+00 0.  1.
         25    2    1    2    0    0  0.27682165269E+02  0.75639414159E+02 -0.80444752947E+03  0.81809012743E+03  0.12509198889E+03 0.  0.
          5    1    3    3  502    0  0.42372749005E+02  0.93422821784E+02 -0.40006697935E+03  0.41303066939E+03  0.41800000000E+01 0. -1.
         -5    1    3    3    0  502 -0.14690583736E+02 -0.17783407625E+02 -0.40438055012E+03  0.40505945805E+03  0.41800000000E+01 0. -1.
        -11    1    1    2    0    0 -0.37108504758E+01  0.19648502312E+02 -0.57228746936E+02  0.60621477466E+02  0.00000000000E+00 0.  1.
         11    1    1    2    0    0 -0.23971314793E+02 -0.95287916471E+02 -0.11830914093E+03  0.15379032410E+03  0.00000000000E+00 0. -1.
</event>
<event>
 7    1  0.2794945E-009  0.9708423E+02  0.7561462E-02  0.1286550E+00
          2   -1    0    0  501    0  0.00000000000E+00  0.00000000000E+00  0.60969039396E+02  0.60969039396E+02  0.00000000000E+00 0. -1.
         -2   -1    0    0    0  501 -0.00000000000E+00 -0.00000000000E+00 -0.37664657017E+03  0.37664657017E+03  0.00000000000E+00 0.  1.
         25    2    1    2    0    0 -0.50104943906E+02 -0.42536144507E+02 -0.29908441830E+03  0.33078481907E+03  0.12508908130E+03 0.  0.
          5    1    3    3  502    0  0.15695147954E+02  0.11214845264E+02 -0.19663259834E+03  0.19762075183E+03  0.41800000000E+01 0. -1.
         -5    1    3    3    0  502 -0.65800091860E+02 -0.53750989772E+02 -0.10245181996E+03  0.13316406724E+03  0.41800000000E+01 0. -1.
        -11    1    1    2    0    0  0.53267370845E+02  0.70435880246E+01 -0.37494454055E+02  0.65519913110E+02  0.00000000000E+00 0.  1.
         11    1    1    2    0    0 -0.31624269397E+01  0.35492556483E+02  0.20901341590E+02  0.41310877382E+02  0.00000000000E+00 0. -1.
</event>
<event>
 7    1  0.2794945E-009  0.1097065E+03  0.7561462E-02  0.1261114E+00
         -2   -1    0    0    0  501 -0.00000000000E+00  0.00000000000E+00  0.55279463496E+02  0.55279463496E+02  0.00000000000E+00 0.  1.
          2   -1    0    0  501    0  0.00000000000E+00 -0.00000000000E+00 -0.24264481391E+03  0.24264481391E+03  0.00000000000E+00 0. -1.
         25    2    1    2    0    0  0.14595828031E+02 -0.33828115181E+02 -0.12039256028E+03  0.17747978162E+03  0.12508926708E+03 0.  0.
          5    1    3    3  502    0 -0.51857629558E+02 -0.12141108740E+02 -0.24587467637E+02  0.58810171141E+02  0.41800000000E+01 0. -1.
         -5    1    3    3    0  502  0.66453457589E+02 -0.21687006442E+02 -0.95805092648E+02  0.11866961048E+03  0.41800000000E+01 0. -1.
        -11    1    1    2    0    0  0.15045254717E+02  0.56611249893E+02 -0.23518609919E+02  0.63121456862E+02  0.00000000000E+00 0.  1.
         11    1    1    2    0    0 -0.29641082748E+02 -0.22783134711E+02 -0.43454180209E+02  0.57323038923E+02  0.00000000000E+00 0. -1.
</event>
<event>
 7    1  0.2794945E-009  0.1843683E+03  0.7561462E-02  0.1163641E+00
         -1   -1    0    0    0  501 -0.00000000000E+00  0.00000000000E+00  0.75184836825E+02  0.75184836825E+02  0.00000000000E+00 0.  1.
          1   -1    0    0  501    0  0.00000000000E+00 -0.00000000000E+00 -0.53917018350E+03  0.53917018350E+03  0.00000000000E+00 0. -1.
         25    2    1    2    0    0 -0.15575599727E+03 -0.44435606385E+02 -0.31761134753E+03  0.37783481494E+03  0.12509086898E+03 0.  0.
          5    1    3    3  502    0  0.48582393209E+01 -0.35488610521E+02 -0.24953690188E+02  0.43854338668E+02  0.41800000000E+01 0. -1.
         -5    1    3    3    0  502 -0.16061423659E+03 -0.89469958644E+01 -0.29265765735E+03  0.33398047627E+03  0.41800000000E+01 0. -1.
        -11    1    1    2    0    0  0.97438420448E+02  0.55882633992E+02 -0.13566788953E+03  0.17613316216E+03  0.00000000000E+00 0. -1.
         11    1    1    2    0    0  0.58317576819E+02 -0.11447027607E+02 -0.10706109614E+02  0.60387043230E+02  0.00000000000E+00 0.  1.
</event>
<event>
 7    1  0.2794945E-009  0.8811626E+02  0.7561462E-02  0.1307479E+00
          3   -1    0    0  501    0  0.00000000000E+00  0.00000000000E+00  0.34721601897E+02  0.34721601897E+02  0.00000000000E+00 0. -1.
         -3   -1    0    0    0  501 -0.00000000000E+00 -0.00000000000E+00 -0.37234298848E+03  0.37234298848E+03  0.00000000000E+00 0.  1.
         25    2    1    2    0    0  0.33318031039E+02  0.95701461668E+01 -0.18674518921E+03  0.22742843117E+03  0.12509295232E+03 0.  0.
          5    1    3    3  502    0  0.10639213827E+02  0.48249245149E+02 -0.17956806123E+02  0.52736152822E+02  0.41800000000E+01 0.  1.
         -5    1    3    3    0  502  0.22678817212E+02 -0.38679098982E+02 -0.16878838309E+03  0.17469227835E+03  0.41800000000E+01 0.  1.
        -11    1    1    2    0    0  0.32843882395E+01  0.28567351040E+02 -0.12217622347E+02  0.31243416064E+02  0.00000000000E+00 0. -1.
         11    1    1    2    0    0 -0.36602419279E+02 -0.38137497207E+02 -0.13865857503E+03  0.14839274315E+03  0.00000000000E+00 0.  1.
</event>
<event>
 7    1  0.2794945E-009  0.5471210E+02  0.7561462E-02  0.1421465E+00
         -2   -1    0    0    0  501 -0.00000000000E+00  0.00000000000E+00  0.36210844292E+02  0.36210844292E+02  0.00000000000E+00 0. -1.
          2   -1    0    0  501    0  0.00000000000E+00 -0.00000000000E+00 -0.87095187979E+03  0.87095187979E+03  0.00000000000E+00 0.  1.
         25    2    1    2    0    0 -0.64512254988E+01 -0.19198393879E+02 -0.80441313005E+03  0.81433959954E+03  0.12513314087E+03 0.  0.
          5    1    3    3  502    0  0.18032012909E+02  0.20270090633E+01 -0.75422079203E+03  0.75445061984E+03  0.41800000000E+01 0.  1.
         -5    1    3    3    0  502 -0.24483238408E+02 -0.21225402942E+02 -0.50192338024E+02  0.59888979698E+02  0.41800000000E+01 0.  1.
        -11    1    1    2    0    0 -0.75408030151E+01 -0.17392644202E+02 -0.46672274921E+02  0.50375281922E+02  0.00000000000E+00 0.  1.
         11    1    1    2    0    0  0.13992028514E+02  0.36591038081E+02  0.16344369471E+02  0.42447842621E+02  0.00000000000E+00 0. -1.
</event>
<event>
 7    1  0.2794945E-009  0.1601867E+03  0.7561462E-02  0.1188486E+00
          1   -1    0    0  501    0  0.00000000000E+00  0.00000000000E+00  0.92715127744E+02  0.92715127744E+02  0.00000000000E+00 0. -1.
         -1   -1    0    0    0  501 -0.00000000000E+00 -0.00000000000E+00 -0.35072786928E+03  0.35072786928E+03  0.00000000000E+00 0.  1.
         25    2    1    2    0    0 -0.10394456819E+02 -0.13346720861E+03 -0.19213390051E+03  0.26548927594E+03  0.12509028503E+03 0.  0.
          5    1    3    3  502    0 -0.48996255505E+02 -0.24920238640E+02 -0.20674052237E+02  0.58877331659E+02  0.41800000000E+01 0. -1.
         -5    1    3    3    0  502  0.38601798686E+02 -0.10854696997E+03 -0.17145984827E+03  0.20661194428E+03  0.41800000000E+01 0. -1.
        -11    1    1    2    0    0  0.36066272112E+02  0.44038813114E+02 -0.62946554501E+02  0.84867318610E+02  0.00000000000E+00 0.  1.
         11    1    1    2    0    0 -0.25671815293E+02  0.89428395493E+02 -0.29322865272E+01  0.93086402472E+02  0.00000000000E+00 0. -1.
</event>
<event>
 7    1  0.2794945E-009  0.8346900E+02  0.7561462E-02  0.1319486E+00
         -1   -1    0    0    0  501 -0.00000000000E+00  0.00000000000E+00  0.18825073727E+02  0.18825073727E+02  0.00000000000E+00 0.  1.
          1   -1    0    0  501    0  0.00000000000E+00 -0.00000000000E+00 -0.64248248698E+03  0.64248248698E+03  0.00000000000E+00 0. -1.
         25    2    1    2    0    0 -0.13503364449E+02  0.29052201873E+01 -0.39936533861E+03  0.41872539345E+03  0.12508996876E+03 0.  0.
          5    1    3    3  502    0 -0.17764388742E+02 -0.44287342805E+02 -0.63667798704E+02  0.79674357430E+02  0.41800000000E+01 0. -1.
         -5    1    3    3    0  502  0.42610242932E+01  0.47192562992E+02 -0.33569753990E+03  0.33905103602E+03  0.41800000000E+01 0. -1.
        -11    1    1    2    0    0 -0.14629248501E+02  0.26814905310E+02 -0.26005365201E+02  0.40116493836E+02  0.00000000000E+00 0.  1.
         11    1    1    2    0    0  0.28132612949E+02 -0.29720125497E+02 -0.19828670945E+03  0.20246567342E+03  0.00000000000E+00 0. -1.
</event>
<event>
 7    1  0.2853615E-009  0.1094684E+03  0.7561462E-02  0.1261558E+00
          1   -1    0    0  501    0  0.00000000000E+00  0.00000000000E+00  0.43795897127E+03  0.43795897127E+03  0.00000000000E+00 0. -1.
         -1   -1    0    0    0  501 -0.00000000000E+00 -0.00000000000E+00 -0.43456732980E+02  0.43456732980E+02  0.00000000000E+00 0.  1.
         25    2    1    2    0    0 -0.43207116712E+02 -0.50407636443E+02  0.30795845719E+03  0.33896015200E+03  0.12509112096E+03 0.  0.
          5    1    3    3  502    0 -0.22812824726E+01 -0.86624179609E+02  0.18415571270E+03  0.20356756044E+03  0.41800000000E+01 0. -1.
         -5    1    3    3    0  502 -0.40925834240E+02  0.36216543167E+02  0.12380274449E+03  0.13539259156E+03  0.41800000000E+01 0. -1.
        -11    1    1    2    0    0 -0.77460264298E+01  0.66978460263E+01 -0.16531577293E+02  0.19446210804E+02  0.00000000000E+00 0.  1.
         11    1    1    2    0    0  0.50953143142E+02  0.43709790416E+02  0.10307535839E+03  0.12300934144E+03  0.00000000000E+00 0. -1.
</event>
<event>
 7    1  0.2794945E-009  0.1359164E+03  0.7561462E-02  0.1218932E+00
          2   -1    0    0  501    0  0.00000000000E+00  0.00000000000E+00  0.58864389137E+03  0.58864389137E+03  0.00000000000E+00 0.  1.
         -2   -1    0    0    0  501 -0.00000000000E+00 -0.00000000000E+00 -0.39411273434E+02  0.39411273434E+02  0.00000000000E+00 0. -1.
         25    2    1    2    0    0 -0.67537422698E+02 -0.39203313977E+02  0.15372912810E+03  0.21302205321E+03  0.12509015563E+03 0.  0.
          5    1    3    3  502    0  0.13301678164E+02  0.34821115377E+02  0.33744285881E+02  0.50453879412E+02  0.41800000000E+01 0. -1.
         -5    1    3    3    0  502 -0.80839100862E+02 -0.74024429354E+02  0.11998484222E+03  0.16256817380E+03  0.41800000000E+01 0. -1.
        -11    1    1    2    0    0 -0.80927903163E+01 -0.24466835754E+02  0.60848334303E+02  0.66080550046E+02  0.00000000000E+00 0. -1.
         11    1    1    2    0    0  0.75630213014E+02  0.63670149731E+02  0.33465515553E+03  0.34895256155E+03  0.00000000000E+00 0.  1.
</event>
<event>
 7    1  0.2794945E-009  0.1882619E+03  0.7561462E-02  0.1160038E+00
          3   -1    0    0  501    0  0.00000000000E+00  0.00000000000E+00  0.13656472800E+03  0.13656472800E+03  0.00000000000E+00 0. -1.
         -3   -1    0    0    0  501 -0.00000000000E+00 -0.00000000000E+00 -0.34099453369E+03  0.34099453369E+03  0.00000000000E+00 0.  1.
         25    2    1    2    0    0 -0.76905003766E+02 -0.16962832341E+03 -0.90484309822E+02  0.24190864759E+03  0.12507691933E+03 0.  0.
          5    1    3    3  502    0 -0.11628152147E+02 -0.10243752241E+02  0.28375970139E+02  0.32600865996E+02  0.41800000000E+01 0. -1.
         -5    1    3    3    0  502 -0.65276851620E+02 -0.15938457117E+03 -0.11886027996E+03  0.20930778160E+03  0.41800000000E+01 0. -1.
        -11    1    1    2    0    0  0.57226952740E+02  0.94066223668E+02 -0.11269978525E+03  0.15755830715E+03  0.00000000000E+00 0.  1.
         11    1    1    2    0    0  0.19678051027E+02  0.75562099741E+02 -0.12457106116E+01  0.78092306948E+02  0.00000000000E+00 0. -1.
</event>
<event>
 7    1  0.2794945E-009  0.1022516E+03  0.7561462E-02  0.1275631E+00
          3   -1    0    0  501    0  0.00000000000E+00  0.00000000000E+00  0.44988860403E+02  0.44988860403E+02  0.00000000000E+00 0. -1.
         -3   -1    0    0    0  501 -0.00000000000E+00 -0.00000000000E+00 -0.35746397250E+03  0.35746397250E+03  0.00000000000E+00 0.  1.
         25    2    1    2    0    0  0.31131262970E+02 -0.55891596716E+02 -0.19648129497E+03  0.24154977051E+03  0.12509343006E+03 0.  0.
          5    1    3    3  502    0 -0.20255807869E+02  0.31095467900E+02 -0.72572264457E+02  0.81617595191E+02  0.41800000000E+01 0. -1.
         -5    1    3    3    0  502  0.51387070839E+02 -0.86987064616E+02 -0.12390903051E+03  0.15993217532E+03  0.41800000000E+01 0. -1.
        -11    1    1    2    0    0 -0.17971865648E+02  0.16101611718E+02 -0.11651789528E+03  0.11899020874E+03  0.00000000000E+00 0.  1.
         11    1    1    2    0    0 -0.13159397322E+02  0.39789984998E+02  0.52407814802E+00  0.41912853660E+02  0.00000000000E+00 0. -1.
</event>
<event>
 7    1  0.2794945E-009  0.5182661E+02  0.7561462E-02  0.1435731E+00
         -2   -1    0    0    0  501 -0.00000000000E+00  0.00000000000E+00  0.11556706647E+03  0.11556706647E+03  0.00000000000E+00 0.  1.
          2   -1    0    0  501    0  0.00000000000E+00 -0.00000000000E+00 -0.10627128249E+03  0.10627128249E+03  0.00000000000E+00 0. -1.
         25    2    1    2    0    0  0.71854321715E+01 -0.77626551278E+01  0.27696555653E+02  0.12855711923E+03  0.12509174417E+03 0.  0.
          5    1    3    3  502    0  0.84510401277E+01 -0.35177302191E+02  0.69448730128E+02  0.78418500273E+02  0.41800000000E+01 0.  1.
         -5    1    3    3    0  502 -0.12656079562E+01  0.27414647063E+02 -0.41752174476E+02  0.50138618953E+02  0.41800000000E+01 0.  1.
        -11    1    1    2    0    0  0.15246180079E+02 -0.12547661965E+01  0.33058113787E+02  0.36426080387E+02  0.00000000000E+00 0.  1.
         11    1    1    2    0    0 -0.22431612250E+02  0.90174213243E+01 -0.51458885454E+02  0.56855149350E+02  0.00000000000E+00 0. -1.
</event>
<event>
 7    1  0.2794945E-009  0.1192178E+03  0.7561462E-02  0.1244393E+00
          2   -1    0    0  501    0  0.00000000000E+00  0.00000000000E+00  0.62442635543E+03  0.62442635543E+03  0.00000000000E+00 0. -1.
         -2   -1    0    0    0  501 -0.00000000000E+00 -0.00000000000E+00 -0.42693484152E+02  0.42693484152E+02  0.00000000000E+00 0.  1.
         25    2    1    2    0    0  0.68340258490E+01  0.83500350857E+02  0.48790076236E+03  0.51059710947E+03  0.12507294587E+03 0.  0.
          5    1    3    3  502    0  0.40696756652E+02  0.34888564566E+02  0.40535905414E+03  0.40890937029E+03  0.41800000000E+01 0. -1.
         -5    1    3    3    0  502 -0.33862730803E+02  0.48611786291E+02  0.82541708219E+02  0.10168773918E+03  0.41800000000E+01 0. -1.
        -11    1    1    2    0    0  0.43270840223E+02 -0.37508174150E+02  0.42488598342E+02  0.71305748231E+02  0.00000000000E+00 0.  1.
         11    1    1    2    0    0 -0.50104866072E+02 -0.45992176706E+02  0.51343510577E+02  0.85216981879E+02  0.00000000000E+00 0. -1.
</event>
<event>
 7    1  0.2794945E-009  0.1094382E+03  0.7561462E-02  0.1261614E+00
          2   -1    0    0  501    0  0.00000000000E+00  0.00000000000E+00  0.23684142586E+04  0.23684142586E+04  0.00000000000E+00 0. -1.
         -2   -1    0    0    0  501 -0.00000000000E+00 -0.00000000000E+00 -0.94348122889E+01  0.94348122889E+01  0.00000000000E+00 0.  1.
         25    2    1    2    0    0 -0.63672465105E+02 -0.40387805894E+02  0.17513489077E+04  0.17574285417E+04  0.12508686989E+03 0.  0.
          5    1    3    3  502    0 -0.57927603414E+02 -0.46749581534E+01  0.29905554774E+03  0.30467877430E+03  0.41800000000E+01 0. -1.
         -5    1    3    3    0  502 -0.57448616910E+01 -0.35712847741E+02  0.14522933599E+04  0.14527497674E+04  0.41800000000E+01 0. -1.
        -11    1    1    2    0    0 -0.80262250166E+01  0.51079451902E+02  0.29485029151E+03  0.29934967029E+03  0.00000000000E+00 0. -1.
         11    1    1    2    0    0  0.71698690122E+02 -0.10691646007E+02  0.31278024712E+03  0.32107085892E+03  0.00000000000E+00 0.  1.
</event>
<event>
 7    1  0.2794945E-009  0.1676694E+03  0.7561462E-02  0.1180300E+00
         -2   -1    0    0    0  501 -0.00000000000E+00  0.00000000000E+00  0.41984882596E+02  0.41984882596E+02  0.00000000000E+00 0. -1.
          2   -1    0    0  501    0  0.00000000000E+00 -0.00000000000E+00 -0.86130824070E+03  0.86130824070E+03  0.00000000000E+00 0.  1.
         25    2    1    2    0    0  0.15386111921E+03  0.12412873285E+01 -0.48676844127E+03  0.52561358598E+03  0.12510532184E+03 0.  0.
          5    1    3    3  502    0  0.94282201396E+02 -0.12030812280E+02 -0.11691151067E+03  0.15073038072E+03  0.41800000000E+01 0. -1.
         -5    1    3    3    0  502  0.59578917816E+02  0.13272099608E+02 -0.36985693059E+03  0.37488320526E+03  0.41800000000E+01 0. -1.
        -11    1    1    2    0    0 -0.15795584805E+03  0.18336485941E+02 -0.29623812062E+03  0.33621912610E+03  0.00000000000E+00 0. -1.
         11    1    1    2    0    0  0.40947288390E+01 -0.19577773269E+02 -0.36316796217E+02  0.41460411213E+02  0.00000000000E+00 0.  1.
</event>
<event>
 7    1  0.2794945E-009  0.5341343E+02  0.7561462E-02  0.1427754E+00
         -2   -1    0    0    0  501 -0.00000000000E+00  0.00000000000E+00  0.60098313943E+02  0.60098313943E+02  0.00000000000E+00 0.  1.
          2   -1    0    0  501    0  0.00000000000E+00 -0.00000000000E+00 -0.26834553293E+03  0.26834553293E+03  0.00000000000E+00 0. -1.
         25    2    1    2    0    0  0.47796091959E+02 -0.89312748254E+01 -0.60882987776E+02  0.14737487904E+03  0.12509349581E+03 0.  0.
          5    1    3    3  502    0  0.16484735754E+02 -0.11127733801E+00  0.38838323807E+02  0.42398663796E+02  0.41800000000E+01 0.  1.
         -5    1    3    3    0  502  0.31311356205E+02 -0.88199974874E+01 -0.99721311582E+02  0.10497621524E+03  0.41800000000E+01 0.  1.
        -11    1    1    2    0    0 -0.19277557394E+02 -0.11032200553E+02  0.66375419994E+01  0.23181687426E+02  0.00000000000E+00 0.  1.
         11    1    1    2    0    0 -0.28518534564E+02  0.19963475378E+02 -0.15400177321E+03  0.15788728041E+03  0.00000000000E+00 0. -1.
</event>
<event>
 7    1  0.2794945E-009  0.9701212E+02  0.7561462E-02  0.1286708E+00
          2   -1    0    0  501    0  0.00000000000E+00  0.00000000000E+00  0.79406658660E+02  0.79406658660E+02  0.00000000000E+00 0.  1.
         -2   -1    0    0    0  501 -0.00000000000E+00 -0.00000000000E+00 -0.17508465116E+03  0.17508465116E+03  0.00000000000E+00 0. -1.
         25    2    1    2    0    0  0.34216894078E+02 -0.27655272184E+02 -0.37348713607E+02  0.13776129946E+03  0.12509052442E+03 0.  0.
          5    1    3    3  502    0 -0.32070044758E+01  0.26666572021E+02  0.31981350729E+02  0.41972254353E+02  0.41800000000E+01 0. -1.
         -5    1    3    3    0  502  0.37423898554E+02 -0.54321844205E+02 -0.69330064336E+02  0.95789045102E+02  0.41800000000E+01 0. -1.
        -11    1    1    2    0    0 -0.38965094626E+02 -0.26023585980E+02 -0.32100530787E+02  0.56797444514E+02  0.00000000000E+00 0.  1.
         11    1    1    2    0    0  0.47482005484E+01  0.53678858164E+02 -0.26228748109E+02  0.59932565852E+02  0.00000000000E+00 0. -1.
</event>
<event>
 7    1  0.2794945E-009  0.1154280E+03  0.7561462E-02  0.1250836E+00
         -2   -1    0    0    0  501 -0.00000000000E+00  0.00000000000E+00  0.94642417922E+02  0.94642417922E+02  0.00000000000E+00 0.  1.
          2   -1    0    0  501    0  0.00000000000E+00 -0.00000000000E+00 -0.22248760667E+03  0.22248760667E+03  0.00000000000E+00 0. -1.
         25    2    1    2    0    0 -0.76987112382E+02  0.54502597252E+02 -0.91536915600E+02  0.18145670054E+03  0.12509987480E+03 0.  0.
          5    1    3    3  502    0  0.23203059364E+01  0.49964256044E+02  0.11295822985E+02  0.51447825207E+02  0.41800000000E+01 0. -1.
         -5    1    3    3    0  502 -0.79307418319E+02  0.45383412077E+01 -0.10283273858E+03  0.13000887534E+03  0.41800000000E+01 0. -1.
        -11    1    1    2    0    0  0.55911266489E+02 -0.57059016153E+02  0.13968184527E+02  0.81098157956E+02  0.00000000000E+00 0.  1.
         11    1    1    2    0    0  0.21075845893E+02  0.25564189018E+01 -0.50276457675E+02  0.54575166093E+02  0.00000000000E+00 0. -1.
</event>
<event>
 7    1  0.2794945E-009  0.9640457E+02  0.7561462E-02  0.1288044E+00
         -1   -1    0    0    0  501 -0.00000000000E+00  0.00000000000E+00  0.24248849056E+02  0.24248849056E+02  0.00000000000E+00 0.  1.
          1   -1    0    0  501    0  0.00000000000E+00 -0.00000000000E+00 -0.66486695477E+03  0.66486695477E+03  0.00000000000E+00 0. -1.
         25    2    1    2    0    0 -0.39966376868E+02  0.29567123952E+02 -0.47657468985E+03  0.49521983393E+03  0.12509085824E+03 0.  0.
          5    1    3    3  502    0 -0.77118949685E+01  0.50175184884E+02 -0.43716783172E+03  0.44012521853E+03  0.41800000000E+01 0. -1.
         -5    1    3    3    0  502 -0.32254481900E+02 -0.20608060931E+02 -0.39406858132E+02  0.55094615398E+02  0.41800000000E+01 0. -1.
        -11    1    1    2    0    0  0.35779348893E+02  0.28134565170E+02 -0.72593590409E+02  0.85682815856E+02  0.00000000000E+00 0.  1.
         11    1    1    2    0    0  0.41870279746E+01 -0.57701689123E+02 -0.91449825456E+02  0.10821315404E+03  0.00000000000E+00 0. -1.
</event>
<event>
 7    1  0.2794945E-009  0.1868134E+03  0.7561462E-02  0.1161367E+00
         -2   -1    0    0    0  501 -0.00000000000E+00  0.00000000000E+00  0.12535370105E+03  0.12535370105E+03  0.00000000000E+00 0.  1.
          2   -1    0    0  501    0  0.00000000000E+00 -0.00000000000E+00 -0.28772514299E+03  0.28772514299E+03  0.00000000000E+00 0. -1.
         25    2    1    2    0    0  0.12022955507E+03  0.98489874912E+02 -0.89509070114E+02  0.21866438296E+03  0.12508731899E+03 0.  0.
          5    1    3    3  502    0 -0.10355643522E+02 -0.18747184667E+02 -0.20829133731E+02  0.30166562576E+02  0.41800000000E+01 0. -1.
         -5    1    3    3    0  502  0.13058519859E+03  0.11723705958E+03 -0.68679936383E+02  0.18849782039E+03  0.41800000000E+01 0. -1.
        -11    1    1    2    0    0  0.98033150248E+01 -0.25110240193E+02  0.26694445030E+01  0.27087913946E+02  0.00000000000E+00 0.  1.
         11    1    1    2    0    0 -0.13003287009E+03 -0.73379634719E+02 -0.75531816331E+02  0.16732654713E+03  0.00000000000E+00 0. -1.
</event>
<event>
 7    1  0.2794945E-009  0.1219331E+03  0.7561462E-02  0.1239942E+00
          1   -1    0    0  501    0  0.00000000000E+00  0.00000000000E+00  0.36165488777E+03  0.36165488777E+03  0.00000000000E+00 0. -1.
         -1   -1    0    0    0  501 -0.00000000000E+00 -0.00000000000E+00 -0.47213551751E+02  0.47213551751E+02  0.00000000000E+00 0.  1.
         25    2    1    2    0    0 -0.62223627219E+02  0.95693092569E+01  0.22878472364E+03  0.26824099826E+03  0.12508969548E+03 0.  0.
          5    1    3    3  502    0  0.11659117658E+02  0.51241768985E+02  0.64502455063E+02  0.83304819924E+02  0.41800000000E+01 0.  1.
         -5    1    3    3    0  502 -0.73882744877E+02 -0.41672459728E+02  0.16428226857E+03  0.18493617834E+03  0.41800000000E+01 0.  1.
        -11    1    1    2    0    0  0.70962363489E+02  0.21338845787E+02  0.78041536980E+02  0.10761730746E+03  0.00000000000E+00 0.  1.
         11    1    1    2    0    0 -0.87387362700E+01 -0.30908155044E+02  0.76150754011E+01  0.33010133795E+02  0.00000000000E+00 0. -1.
</event>
<event>
 7    1  0.2794945E-009  0.9636407E+02  0.7561462E-02  0.1288133E+00
          1   -1    0    0  501    0  0.00000000000E+00  0.00000000000E+00  0.26610649847E+03  0.26610649847E+03  0.00000000000E+00 0.  1.
         -1   -1    0    0    0  501 -0.00000000000E+00 -0.00000000000E+00 -0.12857624794E+03  0.12857624794E+03  0.00000000000E+00 0. -1.
         25    2    1    2    0    0  0.64673836735E+02  0.20724423604E+02  0.21486298143E+03  0.25773185977E+03  0.12508958335E+03 0.  0.
          5    1    3    3  502    0 -0.90764847957E+00  0.18792677792E+02 -0.11208220110E+02  0.22295406756E+02  0.41800000000E+01 0.  1.
         -5    1    3    3    0  502  0.65581485215E+02  0.19317458123E+01  0.22607120154E+03  0.23543645302E+03  0.41800000000E+01 0.  1.
        -11    1    1    2    0    0 -0.50229808284E+02 -0.52591093099E+02 -0.70530394916E+02  0.10130840696E+03  0.00000000000E+00 0. -1.
         11    1    1    2    0    0 -0.14444028451E+02  0.31866669495E+02 -0.68023359757E+01  0.35642479674E+02  0.00000000000E+00 0.  1.
</event>
<event>
 7    1  0.2794945E-009  0.1003495E+03  0.7561462E-02  0.1279563E+00
         -1   -1    0    0    0  501 -0.00000000000E+00  0.00000000000E+00  0.66636144789E+02  0.66636144789E+02  0.00000000000E+00 0.  1.
          1   -1    0    0  501    0  0.00000000000E+00 -0.00000000000E+00 -0.18017268161E+03  0.18017268161E+03  0.00000000000E+00 0. -1.
         25    2    1    2    0    0 -0.17929892512E+02  0.30078487906E+02 -0.11199152735E+03  0.17150519687E+03  0.12508290801E+03 0.  0.
          5    1    3    3  502    0  0.51677306824E+02  0.65375738668E+01 -0.26158108949E+02  0.58438026802E+02  0.41800000000E+01 0. -1.
         -5    1    3    3    0  502 -0.69607199337E+02  0.23540914039E+02 -0.85833418401E+02  0.11306717007E+03  0.41800000000E+01 0. -1.
        -11    1    1    2    0    0  0.39272565878E+02 -0.35372444704E+02  0.26383189540E+01  0.52919797825E+02  0.00000000000E+00 0.  1.
         11    1    1    2    0    0 -0.21342673366E+02  0.52939567980E+01 -0.41833284275E+01  0.22383831703E+02  0.00000000000E+00 0. -1.
</event>
<event>
 7    1  0.2794945E-009  0.8936017E+02  0.7561462E-02  0.1304409E+00
         -2   -1    0    0    0  501 -0.00000000000E+00  0.00000000000E+00  0.11207377945E+03  0.11207377945E+03  0.00000000000E+00 0.  1.
          2   -1    0    0  501    0  0.00000000000E+00 -0.00000000000E+00 -0.20069632125E+03  0.20069632125E+03  0.00000000000E+00 0. -1.
         25    2    1    2    0    0  0.39549829371E+02 -0.17625797026E+02  0.50936748683E+02  0.14182968364E+03  0.12508496741E+03 0.  0.
          5    1    3    3  502    0  0.10827821127E+01  0.23450884114E+02 -0.32983801225E+02  0.40700367641E+02  0.41800000000E+01 0.  1.
         -5    1    3    3    0  502  0.38467047258E+02 -0.41076681140E+02  0.83920549908E+02  0.10112931600E+03  0.41800000000E+01 0.  1.
        -11    1    1    2    0    0 -0.15359564638E+02 -0.36259230831E+02 -0.49746276173E+02  0.63445567532E+02  0.00000000000E+00 0.  1.
         11    1    1    2    0    0 -0.24190264733E+02  0.53885027857E+02 -0.89813014306E+02  0.10749484952E+03  0.00000000000E+00 0. -1.
</event>
<event>
 7    1  0.2794945E-009  0.7174359E+02  0.7561462E-02  0.1354262E+00
          2   -1    0    0  501    0  0.00000000000E+00  0.00000000000E+00  0.10014550135E+04  0.10014550135E+04  0.00000000000E+00 0. -1.
         -2   -1    0    0    0  501 -0.00000000000E+00 -0.00000000000E+00 -0.17242913573E+02  0.17242913573E+02  0.00000000000E+00 0.  1.
         25    2    1    2    0    0  0.37669356541E+02  0.38531635792E+02  0.73013798650E+03  0.74273288890E+03  0.12508795924E+03 0.  0.
          5    1    3    3  502    0  0.33260205060E+02  0.14957488129E+02  0.71052004285E+03  0.71146761795E+03  0.41800000000E+01 0.  1.
         -5    1    3    3    0  502  0.44091514812E+01  0.23574147663E+02  0.19617943645E+02  0.31265270952E+02  0.41800000000E+01 0.  1.
        -11    1    1    2    0    0  0.41880577384E+01 -0.40322585813E+02  0.37002870915E+02  0.54887732784E+02  0.00000000000E+00 0.  1.
         11    1    1    2    0    0 -0.41857414280E+02  0.17909500213E+01  0.21707124254E+03  0.22107730541E+03  0.00000000000E+00 0. -1.
</event>
<event>
 7    1  0.2794945E-009  0.1299963E+03  0.7561462E-02  0.1227461E+00
         -2   -1    0    0    0  501 -0.00000000000E+00  0.00000000000E+00  0.29018161607E+02  0.29018161607E+02  0.00000000000E+00 0.  1.
          2   -1    0    0  501    0  0.00000000000E+00 -0.00000000000E+00 -0.13753606239E+04  0.13753606239E+04  0.00000000000E+00 0. -1.
         25    2    1    2    0    0  0.44621363794E+02 -0.79106736955E+02 -0.12030656847E+04  0.12129568659E+04  0.12509346450E+03 0.  0.
          5    1    3    3  502    0 -0.34513682601E+02 -0.30659353108E+02 -0.68973975987E+03  0.69129559449E+03  0.41800000000E+01 0. -1.
         -5    1    3    3    0  502  0.79135046394E+02 -0.48447383847E+02 -0.51332592482E+03  0.52166127139E+03  0.41800000000E+01 0. -1.
        -11    1    1    2    0    0  0.13866795391E+02 -0.78697455451E+01 -0.28577004500E+01  0.16198375265E+02  0.00000000000E+00 0.  1.
         11    1    1    2    0    0 -0.58488159185E+02  0.86976482500E+02 -0.14041907718E+03  0.17522354439E+03  0.00000000000E+00 0. -1.
</event>
<event>
 7    1  0.2794945E-009  0.1513378E+03  0.7561462E-02  0.1198839E+00
         -2   -1    0    0    0  501 -0.00000000000E+00  0.00000000000E+00  0.15609057299E+02  0.15609057299E+02  0.00000000000E+00 0. -1.
          2   -1    0    0  501    0  0.00000000000E+00 -0.00000000000E+00 -0.15031481938E+04  0.15031481938E+04  0.00000000000E+00 0.  1.
         25    2    1    2    0    0 -0.73004085022E+02  0.81397088627E+02 -0.75671813055E+03  0.77474189153E+03  0.12509031507E+03 0.  0.
          5    1    3    3  502    0  0.90626676772E+01 -0.27244388492E+02 -0.10466477558E+03  0.10861204490E+03  0.41800000000E+01 0.  1.
         -5    1    3    3    0  502 -0.82066752699E+02  0.10864147712E+03 -0.65205335497E+03  0.66612984663E+03  0.41800000000E+01 0.  1.
        -11    1    1    2    0    0  0.86904945432E+02 -0.86517599268E+02 -0.68403632888E+03  0.69494133835E+03  0.00000000000E+00 0. -1.
         11    1    1    2    0    0 -0.13900860410E+02  0.51205106412E+01 -0.46784677039E+02  0.49074021183E+02  0.00000000000E+00 0.  1.
</event>
<event>
 7    1  0.2794945E-009  0.6608270E+02  0.7561462E-02  0.1373944E+00
          1   -1    0    0  501    0  0.00000000000E+00  0.00000000000E+00  0.47956513328E+02  0.47956513328E+02  0.00000000000E+00 0. -1.
         -1   -1    0    0    0  501 -0.00000000000E+00 -0.00000000000E+00 -0.27642428241E+03  0.27642428241E+03  0.00000000000E+00 0.  1.
         25    2    1    2    0    0  0.86976422856E+01  0.37605343966E+02 -0.12566497440E+03  0.18146293289E+03  0.12508916558E+03 0.  0.
          5    1    3    3  502    0  0.89547709071E+01  0.39948325338E+02 -0.15057377564E+03  0.15609609517E+03  0.41800000000E+01 0. -1.
         -5    1    3    3    0  502 -0.25712862155E+00 -0.23429813716E+01  0.24908801235E+02  0.25366837718E+02  0.41800000000E+01 0. -1.
        -11    1    1    2    0    0  0.24623926992E+02 -0.45710509713E+02 -0.24451602416E+02  0.57390498685E+02  0.00000000000E+00 0. -1.
         11    1    1    2    0    0 -0.33321569277E+02  0.81051657462E+01 -0.78351192266E+02  0.85527364161E+02  0.00000000000E+00 0.  1.
</event>
<event>
 7    1  0.2889725E-009  0.1161430E+03  0.7561462E-02  0.1249599E+00
         -1   -1    0    0    0  501 -0.00000000000E+00  0.00000000000E+00  0.61627677723E+02  0.61627677723E+02  0.00000000000E+00 0.  1.
          1   -1    0    0  501    0  0.00000000000E+00 -0.00000000000E+00 -0.34076468597E+03  0.34076468597E+03  0.00000000000E+00 0. -1.
         25    2    1    2    0    0  0.76514283843E+02  0.20222453333E+02 -0.77675392494E+02  0.16716703133E+03  0.12509183232E+03 0.  0.
          5    1    3    3  502    0 -0.11523906539E+02 -0.13711586533E+02  0.22785653816E+02  0.29282528015E+02  0.41800000000E+01 0.  1.
         -5    1    3    3    0  502  0.88038190382E+02  0.33934039866E+02 -0.10046104631E+03  0.13788450331E+03  0.41800000000E+01 0.  1.
        -11    1    1    2    0    0 -0.45346074312E+02 -0.55962160677E+02 -0.14150604668E+03  0.15878284268E+03  0.00000000000E+00 0. -1.
         11    1    1    2    0    0 -0.31168209532E+02  0.35739707343E+02 -0.59955569070E+02  0.76442489683E+02  0.00000000000E+00 0.  1.
</event>
<event>
 7    1  0.2794945E-009  0.1085021E+03  0.7561462E-02  0.1263369E+00
          1   -1    0    0  501    0  0.00000000000E+00  0.00000000000E+00  0.65891875710E+03  0.65891875710E+03  0.00000000000E+00 0. -1.
         -1   -1    0    0    0  501 -0.00000000000E+00 -0.00000000000E+00 -0.30315188776E+02  0.30315188776E+02  0.00000000000E+00 0.  1.
         25    2    1    2    0    0 -0.86129028171E+02 -0.19416746490E+02  0.28766808856E+03  0.32588291756E+03  0.12510606397E+03 0.  0.
          5    1    3    3  502    0 -0.28900720325E+01 -0.68927325017E+01  0.21333414213E+03  0.21350595045E+03  0.41800000000E+01 0. -1.
         -5    1    3    3    0  502 -0.83238956139E+02 -0.12524013988E+02  0.74333946434E+02  0.11237696711E+03  0.41800000000E+01 0. -1.
        -11    1    1    2    0    0  0.94114759554E+02  0.39864309143E+02  0.25663964844E+03  0.27624384203E+03  0.00000000000E+00 0.  1.
         11    1    1    2    0    0 -0.79857313826E+01 -0.20447562653E+02  0.84295831322E+02  0.87107186285E+02  0.00000000000E+00 0. -1.
</event>
<event>
 7    1  0.3019838E-009  0.8376530E+02  0.7561462E-02  0.1318693E+00
         -1   -1    0    0    0  501 -0.00000000000E+00  0.00000000000E+00  0.10656049301E+03  0.10656049301E+03  0.00000000000E+00 0.  1.
          1   -1    0    0  501    0  0.00000000000E+00 -0.00000000000E+00 -0.13277180577E+03  0.13277180577E+03  0.00000000000E+00 0. -1.
         25    2    1    2    0    0 -0.33759024773E+02  0.13781747065E+02 -0.48061568573E+02  0.13886997834E+03  0.12508136633E+03 0.  0.
          5    1    3    3  502    0 -0.58497857599E+02 -0.23005745098E+02  0.11971481278E+02  0.64125286862E+02  0.41800000000E+01 0.  1.
         -5    1    3    3    0  502  0.24738832825E+02  0.36787492163E+02 -0.60033049852E+02  0.74744691475E+02  0.41800000000E+01 0.  1.
        -11    1    1    2    0    0  0.53071995041E+01 -0.27788906632E+02  0.50396145389E+02  0.57794127456E+02  0.00000000000E+00 0.  1.
         11    1    1    2    0    0  0.28451825269E+02  0.14007159568E+02 -0.28545889576E+02  0.42668192978E+02  0.00000000000E+00 0. -1.
</event>
<event>
 7    1  0.2794945E-009  0.1078031E+03  0.7561462E-02  0.1264693E+00
         -1   -1    0    0    0  501 -0.00000000000E+00  0.00000000000E+00  0.81344549372E+02  0.81344549372E+02  0.00000000000E+00 0.  1.
          1   -1    0    0  501    0  0.00000000000E+00 -0.00000000000E+00 -0.14722181998E+03  0.14722181998E+03  0.00000000000E+00 0. -1.
         25    2    1    2    0    0  0.98545136544E+01 -0.81383709390E+01 -0.40992442706E+02  0.13226643517E+03  0.12510269778E+03 0.  0.
          5    1    3    3  502    0 -0.43948203747E+02 -0.42585947809E+02 -0.25280766798E+02  0.66344533560E+02  0.41800000000E+01 0.  1.
         -5    1    3    3    0  502  0.53802717401E+02  0.34447576870E+02 -0.15711675908E+02  0.65921901609E+02  0.41800000000E+01 0.  1.
        -11    1    1    2    0    0  0.26382711820E+02 -0.28414546230E+02  0.78706069024E+00  0.38782127133E+02  0.00000000000E+00 0.  1.
         11    1    1    2    0    0 -0.36237225474E+02  0.36552917169E+02 -0.25671888588E+02  0.57517807045E+02  0.00000000000E+00 0. -1.
</event>
<event>
 7    1  0.2794945E-009  0.1187934E+03  0.7561462E-02  0.1245101E+00
          2   -1    0    0  501    0  0.00000000000E+00  0.00000000000E+00  0.45031274412E+03  0.45031274412E+03  0.00000000000E+00 0. -1.
         -2   -1    0    0    0  501 -0.00000000000E+00 -0.00000000000E+00 -0.56310635147E+02  0.56310635147E+02  0.00000000000E+00 0.  1.
         25    2    1    2    0    0  0.83439319807E+02 -0.63700641771E+02  0.28788315070E+03  0.33097416283E+03  0.12508915284E+03 0.  0.
          5    1    3    3  502    0  0.85287304467E+02 -0.27687447293E+02  0.80932876005E+02  0.12086406356E+03  0.41800000000E+01 0.  1.
         -5    1    3    3    0  502 -0.18479846605E+01 -0.36013194478E+02  0.20695027469E+03  0.21011009928E+03  0.41800000000E+01 0.  1.
        -11    1    1    2    0    0 -0.18519358116E+02 -0.26297177457E+01 -0.14348415968E+02  0.23574543076E+02  0.00000000000E+00 0.  1.
         11    1    1    2    0    0 -0.64919961691E+02  0.66330359516E+02  0.12046737425E+03  0.15207467336E+03  0.00000000000E+00 0. -1.
</event>
<event>
 6    1  0.2794945E-009  0.9690252E+02  0.7561462E-02  0.1286948E+00
          1   -1    0    0  501    0  0.00000000000E+00  0.00000000000E+00  0.30569493862E+03  0.30569493862E+03  0.00000000000E+00 0. -1.
         -1   -1    0    0    0  501 -0.00000000000E+00 -0.00000000000E+00 -0.46094283296E+02  0.46094283296E+02  0.00000000000E+00 0.  1.
          5    1    1    2  502    0  0.13829264453E+01 -0.69832342589E+02  0.13758641096E+03  0.15435660478E+03  0.41800000000E+01 0.  1.
         -5    1    1    2    0  502  0.15855506097E+02  0.23168322256E+02 -0.97283498635E+01  0.30004689980E+02  0.41800000000E+01 0.  1.
        -11    1    1    2    0    0 -0.46539183682E+02  0.47006311238E+02  0.11751735030E+03  0.13485479797E+03  0.00000000000E+00 0. -1.
         11    1    1    2    0    0  0.29300751140E+02 -0.34229090523E+00  0.14225243925E+02  0.32573129189E+02  0.00000000000E+00 0.  1.
</event>
<event>
 7    1  0.2794945E-009  0.2406266E+03  0.7561462E-02  0.1119376E+00
          1   -1    0    0  501    0  0.00000000000E+00  0.00000000000E+00  0.17455280839E+04  0.17455280839E+04  0.00000000000E+00 0. -1.
         -1   -1    0    0    0  501 -0.00000000000E+00 -0.00000000000E+00 -0.71162079301E+02  0.71162079301E+02  0.00000000000E+00 0.  1.
         25    2    1    2    0    0 -0.70604941485E+02  0.21944242792E+03  0.14808557342E+04  0.15039020105E+04  0.12509002733E+03 0.  0.
          5    1    3    3  502    0 -0.59091516888E+02  0.42742208469E+02  0.66739845055E+03  0.67138429230E+03  0.41800000000E+01 0. -1.
         -5    1    3    3    0  502 -0.11513424597E+02  0.17670021945E+03  0.81345728362E+03  0.83251771824E+03  0.41800000000E+01 0. -1.
        -11    1    1    2    0    0  0.54702515370E+02 -0.14541764055E+03  0.75901125323E+02  0.17291511269E+03  0.00000000000E+00 0. -1.
         11    1    1    2    0    0  0.15902426115E+02 -0.74024787366E+02  0.11760914514E+03  0.13987304001E+03  0.00000000000E+00 0.  1.
</event>
<event>
 7    1  0.2794945E-009  0.7088628E+02  0.7561462E-02  0.1357105E+00
          3   -1    0    0  501    0  0.00000000000E+00  0.00000000000E+00  0.42034966148E+02  0.42034966148E+02  0.00000000000E+00 0. -1.
         -3   -1    0    0    0  501 -0.00000000000E+00 -0.00000000000E+00 -0.29359133736E+03  0.29359133736E+03  0.00000000000E+00 0.  1.
         25    2    1    2    0    0  0.17866562731E+02 -0.36993018679E+01 -0.17716471276E+03  0.21764108144E+03  0.12508959184E+03 0.  0.
          5    1    3    3  502    0  0.17632219382E+02 -0.30709702968E+02 -0.18563281232E+03  0.18902643843E+03  0.41800000000E+01 0. -1.
         -5    1    3    3    0  502  0.23434334890E+00  0.27010401100E+02  0.84680995620E+01  0.28614643010E+02  0.41800000000E+01 0. -1.
        -11    1    1    2    0    0 -0.45041887557E+02 -0.13007016966E+02 -0.12760631393E+02  0.48587939230E+02  0.00000000000E+00 0. -1.
         11    1    1    2    0    0  0.27175324826E+02  0.16706318834E+02 -0.61631027060E+02  0.69397282834E+02  0.00000000000E+00 0.  1.
</event>
<event>
 7    1  0.2794945E-009  0.1994497E+03  0.7561462E-02  0.1150204E+00
          2   -1    0    0  501    0  0.00000000000E+00  0.00000000000E+00  0.19429393200E+03  0.19429393200E+03  0.00000000000E+00 0. -1.
         -2   -1    0    0    0  501 -0.00000000000E+00 -0.00000000000E+00 -0.26780467975E+03  0.26780467975E+03  0.00000000000E+00 0.  1.
         25    2    1    2    0    0 -0.75094711024E+02  0.16948455298E+03  0.36401298594E+02  0.22657366118E+03  0.12508533119E+03 0.  0.
          5    1    3    3  502    0 -0.29446123821E+02  0.12105509866E+03  0.78874177477E+02  0.14751277705E+03  0.41800000000E+01 0. -1.
         -5    1    3    3    0  502 -0.45648587203E+02  0.48429454322E+02 -0.42472878883E+02  0.79060884134E+02  0.41800000000E+01 0. -1.
        -11    1    1    2    0    0  0.95582393438E+01  0.11571622939E+02 -0.30792064402E+01  0.15321354676E+02  0.00000000000E+00 0. -1.
         11    1    1    2    0    0  0.65536471680E+02 -0.18105617592E+03 -0.10683283990E+03  0.22020359589E+03  0.00000000000E+00 0.  1.
</event>
<event>
 7    1  0.2794945E-009  0.1466163E+03  0.7561462E-02  0.1204694E+00
         -2   -1    0    0    0  501 -0.00000000000E+00  0.00000000000E+00  0.36814545818E+03  0.36814545818E+03  0.00000000000E+00 0.  1.
          2   -1    0    0  501    0  0.00000000000E+00 -0.00000000000E+00 -0.70181564081E+02  0.70181564081E+02  0.00000000000E+00 0. -1.
         25    2    1    2    0    0 -0.83397201479E+02 -0.72985084980E+02  0.10341875149E+03  0.19652905874E+03  0.12508523864E+03 0.  0.
          5    1    3    3  502    0 -0.22377746735E+02 -0.93175159404E+02  0.88295896865E+02  0.13036875271E+03  0.41800000000E+01 0. -1.
         -5    1    3    3    0  502 -0.61019454744E+02  0.20190074423E+02  0.15122854629E+02  0.66160306035E+02  0.41800000000E+01 0. -1.
        -11    1    1    2    0    0  0.17165073262E+01 -0.13697531831E+02  0.13570826287E+00  0.13805332027E+02  0.00000000000E+00 0. -1.
         11    1    1    2    0    0  0.81680694153E+02  0.86682616811E+02  0.19440943434E+03  0.22799263150E+03  0.00000000000E+00 0.  1.
</event>
<event>
 7    1  0.2794945E-009  0.7876715E+02  0.7561462E-02  0.1332587E+00
          1   -1    0    0  501    0  0.00000000000E+00  0.00000000000E+00  0.45691797181E+03  0.45691797181E+03  0.00000000000E+00 0. -1.
         -1   -1    0    0    0  501 -0.00000000000E+00 -0.00000000000E+00 -0.28899300866E+02  0.28899300866E+02  0.00000000000E+00 0.  1.
         25    2    1    2    0    0 -0.58039729988E+00  0.76840604022E+00  0.32917328772E+03  0.35214700400E+03  0.12510608208E+03 0.  0.
          5    1    3    3  502    0 -0.38219784975E+02  0.46546027016E+02  0.11497054431E+03  0.12985754908E+03  0.41800000000E+01 0. -1.
         -5    1    3    3    0  502  0.37639387675E+02 -0.45777620976E+02  0.21420274341E+03  0.22228945492E+03  0.41800000000E+01 0. -1.
        -11    1    1    2    0    0  0.13937773556E+02  0.12646118241E+02 -0.11272166850E+02  0.21937355897E+02  0.00000000000E+00 0.  1.
         11    1    1    2    0    0 -0.13357376256E+02 -0.13414524281E+02  0.11011755008E+03  0.11173291278E+03  0.00000000000E+00 0. -1.
</event>
<event>
 7    1  0.2794945E-009  0.1043087E+03  0.7561462E-02  0.1271488E+00
          2   -1    0    0  501    0  0.00000000000E+00  0.00000000000E+00  0.11281620143E+02  0.11281620143E+02  0.00000000000E+00 0. -1.
         -2   -1    0    0    0  501 -0.00000000000E+00 -0.00000000000E+00 -0.14560093200E+04  0.14560093200E+04  0.00000000000E+00 0.  1.
         25    2    1    2    0    0 -0.88153464337E+01 -0.10686145193E+02 -0.11826877339E+04  0.11893647144E+04  0.12508494629E+03 0.  0.
          5    1    3    3  502    0  0.18371652110E+01 -0.67621330299E+02 -0.63879152526E+03  0.64237691789E+03  0.41800000000E+01 0. -1.
         -5    1    3    3    0  502 -0.10652511645E+02  0.56935185105E+02 -0.54389620866E+03  0.54698779648E+03  0.41800000000E+01 0. -1.
        -11    1    1    2    0    0  0.19104994229E+02  0.43964108023E+02 -0.85852044513E+02  0.98328109642E+02  0.00000000000E+00 0.  1.
         11    1    1    2    0    0 -0.10289647795E+02 -0.33277962830E+02 -0.17618792138E+03  0.17959811608E+03  0.00000000000E+00 0. -1.
</event>
<event>
 7    1  0.2884572E-009  0.1140432E+03  0.7561462E-02  0.1253261E+00
         -3   -1    0    0    0  501 -0.00000000000E+00  0.00000000000E+00  0.56096444829E+02  0.56096444829E+02  0.00000000000E+00 0. -1.
          3   -1    0    0  501    0  0.00000000000E+00 -0.00000000000E+00 -0.32804347031E+03  0.32804347031E+03  0.00000000000E+00 0.  1.
         25    2    1    2    0    0  0.48919866420E+02 -0.60400067926E+02 -0.11531163927E+03  0.18705310796E+03  0.12510303557E+03 0.  0.
          5    1    3    3  502    0 -0.15168454220E+01  0.35311109696E+02 -0.12427206238E+02  0.37697256437E+02  0.41800000000E+01 0. -1.
         -5    1    3    3    0  502  0.50436711842E+02 -0.95711177622E+02 -0.10288443304E+03  0.14935585152E+03  0.41800000000E+01 0. -1.
        -11    1    1    2    0    0 -0.37272987655E+01  0.28903722625E+02 -0.13466404186E+03  0.13778142875E+03  0.00000000000E+00 0.  1.
         11    1    1    2    0    0 -0.45192567654E+02  0.31496345300E+02 -0.21971344347E+02  0.59305378431E+02  0.00000000000E+00 0. -1.
</event>
<event>
 7    1  0.2794945E-009  0.6656870E+02  0.7561462E-02  0.1372166E+00
         -2   -1    0    0    0  501 -0.00000000000E+00  0.00000000000E+00  0.49077734259E+02  0.49077734259E+02  0.00000000000E+00 0.  1.
          2   -1    0    0  501    0  0.00000000000E+00 -0.00000000000E+00 -0.34474009805E+03  0.34474009805E+03  0.00000000000E+00 0. -1.
         25    2    1    2    0    0 -0.29807498559E+02  0.17535027279E+02 -0.26122057875E+03  0.29168420675E+03  0.12509005377E+03 0.  0.
          5    1    3    3  502    0 -0.14335274193E+02  0.23321759688E+01 -0.26811672883E+03  0.26854234639E+03  0.41800000000E+01 0.  1.
         -5    1    3    3    0  502 -0.15472224366E+02  0.15202851310E+02  0.68961500757E+01  0.23141860354E+02  0.41800000000E+01 0.  1.
        -11    1    1    2    0    0  0.61375299366E+02 -0.19238600146E+02 -0.19837286035E+02  0.67309501744E+02  0.00000000000E+00 0.  1.
         11    1    1    2    0    0 -0.31567800807E+02  0.17035728668E+01 -0.14604499007E+02  0.34824123816E+02  0.00000000000E+00 0. -1.
</event>
<event>
 7    1  0.2794945E-009  0.1949306E+03  0.7561462E-02  0.1154088E+00
          2   -1    0    0  501    0  0.00000000000E+00  0.00000000000E+00  0.20692326620E+03  0.20692326620E+03  0.00000000000E+00 0. -1.
         -2   -1    0    0    0  501 -0.00000000000E+00 -0.00000000000E+00 -0.32387497546E+03  0.32387497546E+03  0.00000000000E+00 0.  1.
         25    2    1    2    0    0  0.15619114488E+03 -0.11111304789E+03  0.79494513548E+02  0.24229791957E+03  0.12508845268E+03 0.  0.
          5    1    3    3  502    0  0.12087895492E+03 -0.61654198033E+02 -0.76499284255E+01  0.13597409930E+03  0.41800000000E+01 0.  1.
         -5    1    3    3    0  502  0.35312189967E+02 -0.49458849854E+02  0.87144441974E+02  0.10632382027E+03  0.41800000000E+01 0.  1.
        -11    1    1    2    0    0 -0.79551451333E+02  0.71282438497E+02 -0.16505033973E+03  0.19659917114E+03  0.00000000000E+00 0.  1.
         11    1    1    2    0    0 -0.76639693551E+02  0.39830609390E+02 -0.31395883077E+02  0.91901150951E+02  0.00000000000E+00 0. -1.
</event>
<event>
 7    1  0.2794945E-009  0.5575098E+02  0.7561462E-02  0.1416580E+00
          1   -1    0    0  501    0  0.00000000000E+00  0.00000000000E+00  0.20393853614E+03  0.20393853614E+03  0.00000000000E+00 0. -1.
         -1   -1    0    0    0  501 -0.00000000000E+00 -0.00000000000E+00 -0.69155961138E+02  0.69155961138E+02  0.00000000000E+00 0.  1.
         25    2    1    2    0    0 -0.86579969362E+01  0.18861563037E+02  0.15225390406E+02  0.12771080961E+03  0.12509004319E+03 0.  0.
          5    1    3    3  502    0  0.62535918138E+01  0.16147687507E+02 -0.53927309537E+02  0.56793330033E+02  0.41800000000E+01 0.  1.
         -5    1    3    3    0  502 -0.14911588750E+02  0.27138755301E+01  0.69152699943E+02  0.70917479572E+02  0.41800000000E+01 0.  1.
        -11    1    1    2    0    0  0.33576961091E+02 -0.34822356354E+02  0.48918689228E+02  0.68797143647E+02  0.00000000000E+00 0.  1.
         11    1    1    2    0    0 -0.24918964154E+02  0.15960793318E+02  0.70638495368E+02  0.76586544025E+02  0.00000000000E+00 0. -1.
</event>
<event>
 7    1  0.2794945E-009  0.1043916E+03  0.7561462E-02  0.1271323E+00
          2   -1    0    0  501    0  0.00000000000E+00  0.00000000000E+00  0.53485162691E+03  0.53485162691E+03  0.00000000000E+00 0. -1.
         -2   -1    0    0    0  501 -0.00000000000E+00 -0.00000000000E+00 -0.53467628782E+02  0.53467628782E+02  0.00000000000E+00 0.  1.
         25    2    1    2    0    0  0.37964489089E+01 -0.13653764231E+02  0.32670979034E+02  0.13006478151E+03  0.12509442920E+03 0.  0.
          5    1    3    3  502    0 -0.28043513458E+01  0.51452593822E+02 -0.88513092563E+01  0.52450470665E+02  0.41800000000E+01 0.  1.
         -5    1    3    3    0  502  0.66008002548E+01 -0.65106358053E+02  0.41522288290E+02  0.77614310844E+02  0.41800000000E+01 0.  1.
        -11    1    1    2    0    0 -0.46389445712E+02 -0.11938136730E+01  0.26860541909E+03  0.27258444018E+03  0.00000000000E+00 0.  1.
         11    1    1    2    0    0  0.42592996803E+02  0.14847577904E+02  0.18010760000E+03  0.18567003399E+03  0.00000000000E+00 0. -1.
</event>
<event>
 7    1  0.2794945E-009  0.1394094E+03  0.7561462E-02  0.1214126E+00
         -2   -1    0    0    0  501 -0.00000000000E+00  0.00000000000E+00  0.15471650347E+02  0.15471650347E+02  0.00000000000E+00 0.  1.
          2   -1    0    0  501    0  0.00000000000E+00 -0.00000000000E+00 -0.12698798493E+04  0.12698798493E+04  0.00000000000E+00 0. -1.
         25    2    1    2    0    0  0.72509006147E+02  0.53920701077E+02 -0.74477442674E+03  0.76059300376E+03  0.12509105755E+03 0.  0.
          5    1    3    3  502    0  0.10783377401E+03  0.34848506910E+02 -0.57628334835E+03  0.58733509281E+03  0.41800000000E+01 0. -1.
         -5    1    3    3    0  502 -0.35324767867E+02  0.19072194168E+02 -0.16849107838E+03  0.17325791096E+03  0.41800000000E+01 0. -1.
        -11    1    1    2    0    0 -0.14472791901E+02  0.23921729833E+02 -0.10967682182E+03  0.11318443404E+03  0.00000000000E+00 0.  1.
         11    1    1    2    0    0 -0.58036214246E+02 -0.77842430910E+02 -0.39995695041E+03  0.41157406186E+03  0.00000000000E+00 0. -1.
</event>
<event>
 7    1  0.2794945E-009  0.1627410E+03  0.7561462E-02  0.1185636E+00
          2   -1    0    0  501    0  0.00000000000E+00  0.00000000000E+00  0.10489159630E+04  0.10489159630E+04  0.00000000000E+00 0. -1.
         -2   -1    0    0    0  501 -0.00000000000E+00 -0.00000000000E+00 -0.32024026208E+02  0.32024026208E+02  0.00000000000E+00 0.  1.
         25    2    1    2    0    0 -0.95766519242E+02  0.11051940953E+03  0.58123271816E+03  0.61227266111E+03  0.12514221027E+03 0.  0.
          5    1    3    3  502    0 -0.56119777540E+02  0.17403394256E+02  0.71816330557E+02  0.92883611566E+02  0.41800000000E+01 0.  1.
         -5    1    3    3    0  502 -0.39646741703E+02  0.93116015271E+02  0.50941638761E+03  0.51938904955E+03  0.41800000000E+01 0.  1.
        -11    1    1    2    0    0  0.61533131010E+02 -0.11532772251E+03  0.27710959023E+03  0.30639277862E+03  0.00000000000E+00 0.  1.
         11    1    1    2    0    0  0.34233388232E+02  0.48083129822E+01  0.15854962841E+03  0.16227454949E+03  0.00000000000E+00 0. -1.
</event>
<event>
 7    1  0.2794945E-009  0.1142281E+03  0.7561462E-02  0.1252934E+00
         -1   -1    0    0    0  501 -0.00000000000E+00  0.00000000000E+00  0.45450296279E+02  0.45450296279E+02  0.00000000000E+00 0.  1.
          1   -1    0    0  501    0  0.00000000000E+00 -0.00000000000E+00 -0.50391982230E+03  0.50391982230E+03  0.00000000000E+00 0. -1.
         25    2    1    2    0    0 -0.59719025623E+02 -0.34779691864E+02 -0.10902394871E+03  0.17975095646E+03  0.12509274946E+03 0.  0.
          5    1    3    3  502    0 -0.80636459085E+02 -0.30719961180E+02 -0.12559335547E+03  0.15243725886E+03  0.41800000000E+01 0.  1.
         -5    1    3    3    0  502  0.20917433463E+02 -0.40597306837E+01  0.16569406768E+02  0.27313697599E+02  0.41800000000E+01 0.  1.
        -11    1    1    2    0    0  0.45165750548E+02  0.69396403591E+02 -0.23369340792E+03  0.24792824518E+03  0.00000000000E+00 0.  1.
         11    1    1    2    0    0  0.14553275075E+02 -0.34616711727E+02 -0.11575216939E+03  0.12169091694E+03  0.00000000000E+00 0. -1.
</event>
<event>
 7    1  0.2794945E-009  0.1055223E+03  0.7561462E-02  0.1269094E+00
          1   -1    0    0  501    0  0.00000000000E+00  0.00000000000E+00  0.18889147351E+03  0.18889147351E+03  0.00000000000E+00 0. -1.
         -1   -1    0    0    0  501 -0.00000000000E+00 -0.00000000000E+00 -0.81044721393E+02  0.81044721393E+02  0.00000000000E+00 0.  1.
         25    2    1    2    0    0  0.24229566429E+02 -0.39081883269E+02  0.10722596069E+03  0.17105479282E+03  0.12509144659E+03 0.  0.
          5    1    3    3  502    0  0.69849404419E+02  0.29649134346E+01  0.67476842020E+02  0.97253928550E+02  0.41800000000E+01 0.  1.
         -5    1    3    3    0  502 -0.45619837990E+02 -0.42046796704E+02  0.39749118672E+02  0.73800864266E+02  0.41800000000E+01 0.  1.
        -11    1    1    2    0    0 -0.45749627900E+02  0.19507557389E+02 -0.28828899664E+02  0.57486334934E+02  0.00000000000E+00 0.  1.
         11    1    1    2    0    0  0.21520061471E+02  0.19574325881E+02  0.29449691091E+02  0.41395067155E+02  0.00000000000E+00 0. -1.
</event>
<event>
 7    1  0.2794945E-009  0.1510330E+03  0.7561462E-02  0.1199209E+00
          1   -1    0    0  501    0  0.00000000000E+00  0.00000000000E+00  0.23485195141E+03  0.23485195141E+03  0.00000000000E+00 0. -1.
         -1   -1    0    0    0  501 -0.00000000000E+00 -0.00000000000E+00 -0.12671129908E+03  0.12671129908E+03  0.00000000000E+00 0.  1.
         25    2    1    2    0    0 -0.33825898397E+02 -0.10694586491E+03  0.13072062735E+03  0.21287804677E+03  0.12509025125E+03 0.  0.
          5    1    3    3  502    0  0.45178267205E+02 -0.46006120889E+02  0.73176776927E+02  0.97621473397E+02  0.41800000000E+01 0. -1.
         -5    1    3    3    0  502 -0.79004165602E+02 -0.60939744016E+02  0.57543850423E+02  0.11525657337E+03  0.41800000000E+01 0. -1.
        -11    1    1    2    0    0 -0.24521509895E+02  0.51764825625E+02 -0.35436532948E+02  0.67354654530E+02  0.00000000000E+00 0.  1.
         11    1    1    2    0    0  0.58347408292E+02  0.55181039281E+02  0.12856557924E+02  0.81330549194E+02  0.00000000000E+00 0. -1.
</event>
<event>
 7    1  0.2794945E-009  0.6516374E+02  0.7561462E-02  0.1377357E+00
          2   -1    0    0  501    0  0.00000000000E+00  0.00000000000E+00  0.21415348636E+03  0.21415348636E+03  0.00000000000E+00 0. -1.
         -2   -1    0    0    0  501 -0.00000000000E+00 -0.00000000000E+00 -0.68643342953E+02  0.68643342953E+02  0.00000000000E+00 0.  1.
         25    2    1    2    0    0 -0.27809455270E+02 -0.14671398982E+02  0.13432757876E+03  0.18622552837E+03  0.12508970081E+03 0.  0.
          5    1    3    3  502    0 -0.54238746044E+01 -0.43344870946E+02 -0.31113201531E+01  0.43992601266E+02  0.41800000000E+01 0. -1.
         -5    1    3    3    0  502 -0.22385580666E+02  0.28673471964E+02  0.13743889892E+03  0.14223292710E+03  0.41800000000E+01 0. -1.
        -11    1    1    2    0    0  0.24196598792E+02  0.27424983699E+02 -0.33724446462E+02  0.49748803133E+02  0.00000000000E+00 0.  1.
         11    1    1    2    0    0  0.36128564785E+01 -0.12753584716E+02  0.44907011106E+02  0.46822497814E+02  0.00000000000E+00 0. -1.
</event>
<event>
 7    1  0.2794945E-009  0.3695516E+03  0.7561462E-02  0.1054865E+00
         -2   -1    0    0    0  501 -0.00000000000E+00  0.00000000000E+00  0.31176035847E+03  0.31176035847E+03  0.00000000000E+00 0.  1.
          2   -1    0    0  501    0  0.00000000000E+00 -0.00000000000E+00 -0.46888806779E+03  0.46888806779E+03  0.00000000000E+00 0. -1.
         25    2    1    2    0    0 -0.97740162627E+02 -0.35296125394E+03 -0.89700838303E+02  0.39727541229E+03  0.12508687640E+03 0.  0.
          5    1    3    3  502    0 -0.87501967429E+02 -0.18967135506E+03  0.34630673367E+01  0.20895282355E+03  0.41800000000E+01 0. -1.
         -5    1    3    3    0  502 -0.10238195198E+02 -0.16328989888E+03 -0.93163905640E+02  0.18832258874E+03  0.41800000000E+01 0. -1.
        -11    1    1    2    0    0  0.21172104429E+01  0.19493249899E+02  0.17433456099E+02  0.26237278122E+02  0.00000000000E+00 0.  1.
         11    1    1    2    0    0  0.95622952184E+02  0.33346800404E+03 -0.84860327117E+02  0.35713573585E+03  0.00000000000E+00 0. -1.
</event>
<event>
 7    1  0.2794945E-009  0.8155124E+02  0.7561462E-02  0.1324706E+00
         -2   -1    0    0    0  501 -0.00000000000E+00  0.00000000000E+00  0.71378856911E+02  0.71378856911E+02  0.00000000000E+00 0.  1.
          2   -1    0    0  501    0  0.00000000000E+00 -0.00000000000E+00 -0.21603278926E+03  0.21603278926E+03  0.00000000000E+00 0. -1.
         25    2    1    2    0    0 -0.57561828379E+02  0.23333200033E+00 -0.59494980100E+02  0.15000273470E+03  0.12509096382E+03 0.  0.
          5    1    3    3  502    0 -0.23865656562E+02  0.39718205644E+02 -0.81199818017E+02  0.93584124021E+02  0.41800000000E+01 0. -1.
         -5    1    3    3    0  502 -0.33696171817E+02 -0.39484873644E+02  0.21704837917E+02  0.56418610678E+02  0.41800000000E+01 0. -1.
        -11    1    1    2    0    0  0.30342769712E+02  0.14412579824E+02 -0.98255898906E+02  0.10383943278E+03  0.00000000000E+00 0. -1.
         11    1    1    2    0    0  0.27219058667E+02 -0.14645911824E+02  0.13096946656E+02  0.33569478691E+02  0.00000000000E+00 0.  1.
</event>
<event>
 7    1  0.2794945E-009  0.1440895E+03  0.7561462E-02  0.1207930E+00
          1   -1    0    0  501    0  0.00000000000E+00  0.00000000000E+00  0.69182790038E+02  0.69182790038E+02  0.00000000000E+00 0. -1.
         -1   -1    0    0    0  501 -0.00000000000E+00 -0.00000000000E+00 -0.31075340541E+03  0.31075340541E+03  0.00000000000E+00 0.  1.
         25    2    1    2    0    0  0.36258978518E+02  0.90997711977E+02 -0.11519260466E+03  0.19624448018E+03  0.12508901921E+03 0.  0.
          5    1    3    3  502    0  0.59837599323E+02 -0.41217603290E+01 -0.52612240559E+02  0.79893976353E+02  0.41800000000E+01 0.  1.
         -5    1    3    3    0  502 -0.23578620805E+02  0.95119472306E+02 -0.62580364097E+02  0.11635050383E+03  0.41800000000E+01 0.  1.
        -11    1    1    2    0    0  0.94464427613E+01  0.13173175630E+02 -0.32040444254E+02  0.35907630178E+02  0.00000000000E+00 0.  1.
         11    1    1    2    0    0 -0.45705421279E+02 -0.10417088761E+03 -0.94337566462E+02  0.14778408509E+03  0.00000000000E+00 0. -1.
</event>
<event>
 7    1  0.2794945E-009  0.1106931E+03  0.7561462E-02  0.1259292E+00
         -2   -1    0    0    0  501 -0.00000000000E+00  0.00000000000E+00  0.21687016263E+03  0.21687016263E+03  0.00000000000E+00 0.  1.
          2   -1    0    0  501    0  0.00000000000E+00 -0.00000000000E+00 -0.99365895722E+02  0.99365895722E+02  0.00000000000E+00 0. -1.
         25    2    1    2    0    0 -0.46480388118E+02 -0.74526443913E+02  0.11269360647E+03  0.18990015050E+03  0.12509037093E+03 0.  0.
          5    1    3    3  502    0  0.18724617128E+02 -0.64678620843E+00 -0.17900518116E+02  0.26247486886E+02  0.41800000000E+01 0.  1.
         -5    1    3    3    0  502 -0.65205005246E+02 -0.73879657705E+02  0.13059412458E+03  0.16365266361E+03  0.41800000000E+01 0.  1.
        -11    1    1    2    0    0 -0.10697630142E+02  0.27575367256E+02  0.35527481235E+02  0.46228152600E+02  0.00000000000E+00 0.  1.
         11    1    1    2    0    0  0.57178018259E+02  0.46951076657E+02 -0.30716820798E+02  0.80107755250E+02  0.00000000000E+00 0. -1.
</event>
<event>
 7    1  0.2794945E-009  0.9820244E+02  0.7561462E-02  0.1284122E+00
         -2   -1    0    0    0  501 -0.00000000000E+00  0.00000000000E+00  0.71087769687E+02  0.71087769687E+02  0.00000000000E+00 0. -1.
          2   -1    0    0  501    0  0.00000000000E+00 -0.00000000000E+00 -0.20341220502E+03  0.20341220502E+03  0.00000000000E+00 0.  1.
         25    2    1    2    0    0  0.25606496788E+01 -0.27865553150E+02 -0.12299092630E+03  0.17763458119E+03  0.12507689836E+03 0.  0.
          5    1    3    3  502    0  0.44109728639E+01  0.45928138537E+02 -0.79055920357E+02  0.91630570961E+02  0.41800000000E+01 0. -1.
         -5    1    3    3    0  502 -0.18503231851E+01 -0.73793691687E+02 -0.43935005946E+02  0.86004010233E+02  0.41800000000E+01 0. -1.
        -11    1    1    2    0    0  0.17475812216E+02  0.45943409920E+02 -0.34429524415E+02  0.60013274191E+02  0.00000000000E+00 0.  1.
         11    1    1    2    0    0 -0.20036461895E+02 -0.18077856769E+02  0.25096015383E+02  0.36852119325E+02  0.00000000000E+00 0. -1.
</event>
<event>
 7    1  0.2794945E-009  0.1847246E+03  0.7561462E-02  0.1163307E+00
         -3   -1    0    0    0  501 -0.00000000000E+00  0.00000000000E+00  0.20800109369E+03  0.20800109369E+03  0.00000000000E+00 0.  1.
          3   -1    0    0  501    0  0.00000000000E+00 -0.00000000000E+00 -0.26045476569E+03  0.26045476569E+03  0.00000000000E+00 0. -1.
         25    2    1    2    0    0 -0.12520974764E+03  0.11803464560E+03 -0.14136181970E+03  0.25541664348E+03  0.12507933174E+03 0.  0.
          5    1    3    3  502    0 -0.94573840389E+02  0.23159167241E+02 -0.11779538629E+03  0.15288487088E+03  0.41800000000E+01 0. -1.
         -5    1    3    3    0  502 -0.30635907254E+02  0.94875478364E+02 -0.23566433406E+02  0.10253177260E+03  0.41800000000E+01 0. -1.
        -11    1    1    2    0    0  0.78678874222E+02 -0.69684798980E+02  0.44862410823E+01  0.10519725670E+03  0.00000000000E+00 0. -1.
         11    1    1    2    0    0  0.46530873421E+02 -0.48349846624E+02  0.84421906614E+02  0.10784195921E+03  0.00000000000E+00 0.  1.
</event>
<event>
 7    1  0.2794945E-009  0.1164624E+03  0.7561462E-02  0.1249050E+00
          1   -1    0    0  501    0  0.00000000000E+00  0.00000000000E+00  0.70345252483E+03  0.70345252483E+03  0.00000000000E+00 0. -1.
         -1   -1    0    0    0  501 -0.00000000000E+00 -0.00000000000E+00 -0.28712940319E+02  0.28712940319E+02  0.00000000000E+00 0.  1.
         25    2    1    2    0    0  0.42256057970E+02 -0.68873500510E+02  0.25781313889E+03  0.29773193404E+03  0.12509019327E+03 0.  0.
          5    1    3    3  502    0 -0.57462203602E+01 -0.69939865365E+02  0.23329781356E+03  0.24365948787E+03  0.41800000000E+01 0. -1.
         -5    1    3    3    0  502  0.48002278330E+02  0.10663648558E+01  0.24515325334E+02  0.54072446173E+02  0.41800000000E+01 0. -1.
        -11    1    1    2    0    0 -0.28356301369E+01 -0.18425530789E+02  0.26317181066E+02  0.32251124048E+02  0.00000000000E+00 0.  1.
         11    1    1    2    0    0 -0.39420427833E+02  0.87299031298E+02  0.39060926456E+03  0.40218240707E+03  0.00000000000E+00 0. -1.
</event>
<event>
 7    1  0.2794945E-009  0.1141147E+03  0.7561462E-02  0.1253134E+00
          1   -1    0    0  501    0  0.00000000000E+00  0.00000000000E+00  0.25659841770E+03  0.25659841770E+03  0.00000000000E+00 0. -1.
         -1   -1    0    0    0  501 -0.00000000000E+00 -0.00000000000E+00 -0.89614438275E+02  0.89614438275E+02  0.00000000000E+00 0.  1.
         25    2    1    2    0    0  0.55048052448E+02  0.51894481254E+01  0.19317345980E+03  0.23668869796E+03  0.12509330806E+03 0.  0.
          5    1    3    3  502    0 -0.21671696856E+02 -0.36417561177E+02  0.10137001798E+03  0.10995114438E+03  0.41800000000E+01 0. -1.
         -5    1    3    3    0  502  0.76719749305E+02  0.41607009302E+02  0.91803441825E+02  0.12673755358E+03  0.41800000000E+01 0. -1.
        -11    1    1    2    0    0 -0.59880089553E+02 -0.34133372288E+02 -0.37028210383E+02  0.78241936280E+02  0.00000000000E+00 0.  1.
         11    1    1    2    0    0  0.48320371050E+01  0.28943924162E+02  0.10838730010E+02  0.31282221736E+02  0.00000000000E+00 0. -1.
</event>
<event>
 7    1  0.2794945E-009  0.1257355E+03  0.7561462E-02  0.1233924E+00
          1   -1    0    0  501    0  0.00000000000E+00  0.00000000000E+00  0.90275009109E+02  0.90275009109E+02  0.00000000000E+00 0. -1.
         -1   -1    0    0    0  501 -0.00000000000E+00 -0.00000000000E+00 -0.19170772087E+03  0.19170772087E+03  0.00000000000E+00 0.  1.
         25    2    1    2    0    0  0.72055076810E+02  0.30193047434E+02 -0.42238856961E+02  0.15341260772E+03  0.12509097875E+03 0.  0.
          5    1    3    3  502    0  0.81470566642E+02  0.65362725552E+02 -0.10730840390E+02  0.10508264584E+03  0.41800000000E+01 0. -1.
         -5    1    3    3    0  502 -0.94154898321E+01 -0.35169678118E+02 -0.31508016571E+02  0.48329961886E+02  0.41800000000E+01 0. -1.
        -11    1    1    2    0    0  0.16071821622E+02 -0.12605770314E+02  0.93077567683E+00  0.20446888243E+02  0.00000000000E+00 0. -1.
         11    1    1    2    0    0 -0.88126898432E+02 -0.17587277120E+02 -0.60124630479E+02  0.10812323402E+03  0.00000000000E+00 0.  1.
</event>
<event>
 7    1  0.2794945E-009  0.1133569E+03  0.7561462E-02  0.1254477E+00
          1   -1    0    0  501    0  0.00000000000E+00  0.00000000000E+00  0.19177983142E+03  0.19177983142E+03  0.00000000000E+00 0. -1.
         -1   -1    0    0    0  501 -0.00000000000E+00 -0.00000000000E+00 -0.69324795738E+02  0.69324795738E+02  0.00000000000E+00 0.  1.
         25    2    1    2    0    0  0.73263100116E+01 -0.38088951984E+02  0.80090862170E+02  0.15351377625E+03  0.12508992850E+03 0.  0.
          5    1    3    3  502    0  0.36157364565E+02  0.35658410058E+02  0.23591423823E+02  0.56150733728E+02  0.41800000000E+01 0. -1.
         -5    1    3    3    0  502 -0.28831054554E+02 -0.73747362043E+02  0.56499438347E+02  0.97363042519E+02  0.41800000000E+01 0. -1.
        -11    1    1    2    0    0  0.35819005411E+02  0.39468789768E+02  0.35094982292E+02  0.63815705719E+02  0.00000000000E+00 0. -1.
         11    1    1    2    0    0 -0.43145315423E+02 -0.13798377833E+01  0.72691912154E+01  0.43775145187E+02  0.00000000000E+00 0.  1.
</event>
<event>
 7    1  0.2794945E-009  0.1095778E+03  0.7561462E-02  0.1261354E+00
         -3   -1    0    0    0  501 -0.00000000000E+00  0.00000000000E+00  0.48134191070E+02  0.48134191070E+02  0.00000000000E+00 0.  1.
          3   -1    0    0  501    0  0.00000000000E+00 -0.00000000000E+00 -0.50927021531E+03  0.50927021531E+03  0.00000000000E+00 0. -1.
         25    2    1    2    0    0 -0.20153428688E+02  0.87099811586E+02 -0.13387022129E+03  0.20386844823E+03  0.12509424514E+03 0.  0.
          5    1    3    3  502    0 -0.14975206374E+01  0.22419850107E+02 -0.13449103854E+03  0.13641922187E+03  0.41800000000E+01 0. -1.
         -5    1    3    3    0  502 -0.18655908050E+02  0.64679961479E+02  0.62081725501E+00  0.67449226357E+02  0.41800000000E+01 0. -1.
        -11    1    1    2    0    0  0.57463272362E+02 -0.48850068872E+02 -0.14288368246E+03  0.16156764408E+03  0.00000000000E+00 0.  1.
         11    1    1    2    0    0 -0.37309843675E+02 -0.38249742713E+02 -0.18438212049E+03  0.19196831408E+03  0.00000000000E+00 0. -1.
</event>
<event>
 7    1  0.2794945E-009  0.8851757E+02  0.7561462E-02  0.1306482E+00
          1   -1    0    0  501    0  0.00000000000E+00  0.00000000000E+00  0.15697260626E+03  0.15697260626E+03  0.00000000000E+00 0. -1.
         -1   -1    0    0    0  501 -0.00000000000E+00 -0.00000000000E+00 -0.87236909549E+02  0.87236909549E+02  0.00000000000E+00 0.  1.
         25    2    1    2    0    0  0.24282137147E+02 -0.14965607126E+02  0.79041724515E+02  0.15069695371E+03  0.12509350927E+03 0.  0.
          5    1    3    3  502    0  0.52938933212E+02  0.14577839784E+01 -0.11390376333E+02  0.54331103953E+02  0.41800000000E+01 0.  1.
         -5    1    3    3    0  502 -0.28656796065E+02 -0.16423391104E+02  0.90432100848E+02  0.96365849759E+02  0.41800000000E+01 0.  1.
        -11    1    1    2    0    0  0.27663078118E+02  0.25491900642E+02  0.65652761171E+01  0.38186198289E+02  0.00000000000E+00 0. -1.
         11    1    1    2    0    0 -0.51945215265E+02 -0.10526293516E+02 -0.15871303920E+02  0.55326363808E+02  0.00000000000E+00 0.  1.
</event>
<event>
 7    1  0.2794945E-009  0.1392916E+03  0.7561462E-02  0.1214285E+00
         -1   -1    0    0    0  501 -0.00000000000E+00  0.00000000000E+00  0.35686670061E+02  0.35686670061E+02  0.00000000000E+00 0.  1.
          1   -1    0    0  501    0  0.00000000000E+00 -0.00000000000E+00 -0.65833487026E+03  0.65833487026E+03  0.00000000000E+00 0. -1.
         25    2    1    2    0    0  0.95960504733E+02  0.31851160669E+02 -0.41697646834E+03  0.44692354069E+03  0.12509340978E+03 0.  0.
          5    1    3    3  502    0  0.50533006547E+02 -0.38879921917E+02 -0.97695950562E+02  0.11673561682E+03  0.41800000000E+01 0. -1.
         -5    1    3    3    0  502  0.45427498185E+02  0.70731082585E+02 -0.31928051777E+03  0.33018792386E+03  0.41800000000E+01 0. -1.
        -11    1    1    2    0    0 -0.23933010222E+02  0.28026485284E+02 -0.28130006379E+02  0.46363456672E+02  0.00000000000E+00 0.  1.
         11    1    1    2    0    0 -0.72027494510E+02 -0.59877645953E+02 -0.17754172549E+03  0.20073454297E+03  0.00000000000E+00 0. -1.
</event>
<event>
 7    1  0.2794945E-009  0.8576816E+02  0.7561462E-02  0.1313436E+00
         -1   -1    0    0    0  501 -0.00000000000E+00  0.00000000000E+00  0.22552263290E+03  0.22552263290E+03  0.00000000000E+00 0.  1.
          1   -1    0    0  501    0  0.00000000000E+00 -0.00000000000E+00 -0.71594021105E+02  0.71594021105E+02  0.00000000000E+00 0. -1.
         25    2    1    2    0    0  0.16354376192E+02  0.38483969279E+02  0.14584549093E+03  0.19663932961E+03  0.12509051607E+03 0.  0.
          5    1    3    3  502    0  0.34186568700E+02  0.20876191749E+01 -0.97031615938E+01  0.35842759077E+02  0.41800000000E+01 0.  1.
         -5    1    3    3    0  502 -0.17832192508E+02  0.36396350104E+02  0.15554865253E+03  0.16079657053E+03  0.41800000000E+01 0.  1.
        -11    1    1    2    0    0 -0.47733035499E+02 -0.43414445383E+02  0.18373604776E+02  0.67088345473E+02  0.00000000000E+00 0.  1.
         11    1    1    2    0    0  0.31378659307E+02  0.49304761041E+01 -0.10290483916E+02  0.33388978926E+02  0.00000000000E+00 0. -1.
</event>
<event>
 7    1  0.2794945E-009  0.3950451E+02  0.7561462E-02  0.1511890E+00
          1   -1    0    0  501    0  0.00000000000E+00  0.00000000000E+00  0.95648450976E+02  0.95648450976E+02  0.00000000000E+00 0. -1.
         -1   -1    0    0    0  501 -0.00000000000E+00 -0.00000000000E+00 -0.12977636582E+03  0.12977636582E+03  0.00000000000E+00 0.  1.
         25    2    1    2    0    0  0.20508292584E+02 -0.42736072194E+01 -0.17606400025E+02  0.12804851561E+03  0.12509030036E+03 0.  0.
          5    1    3    3  502    0  0.16709025922E+02 -0.83168832547E+01  0.53390215618E+02  0.56712869951E+02  0.41800000000E+01 0. -1.
         -5    1    3    3    0  502  0.37992666627E+01  0.40432760353E+01 -0.70996615643E+02  0.71335645655E+02  0.41800000000E+01 0. -1.
        -11    1    1    2    0    0 -0.25059480687E+02 -0.17581378308E+02 -0.49113231719E+02  0.57872203737E+02  0.00000000000E+00 0.  1.
         11    1    1    2    0    0  0.45511881027E+01  0.21854985527E+02  0.32591716897E+02  0.39504097456E+02  0.00000000000E+00 0. -1.
</event>
<event>
 7    1  0.2794945E-009  0.2037098E+03  0.7561462E-02  0.1146646E+00
         -1   -1    0    0    0  501 -0.00000000000E+00  0.00000000000E+00  0.11406545481E+03  0.11406545481E+03  0.00000000000E+00 0.  1.
          1   -1    0    0  501    0  0.00000000000E+00 -0.00000000000E+00 -0.57421503830E+03  0.57421503830E+03  0.00000000000E+00 0. -1.
         25    2    1    2    0    0 -0.15850805296E+03 -0.11265932780E+03 -0.40748910929E+03  0.46852084945E+03  0.12508990843E+03 0.  0.
          5    1    3    3  502    0 -0.55601100378E+01 -0.28779068111E+02 -0.52550661673E+01  0.30070545479E+02  0.41800000000E+01 0. -1.
         -5    1    3    3    0  502 -0.15294794292E+03 -0.83880259685E+02 -0.40223404312E+03  0.43845030397E+03  0.41800000000E+01 0. -1.
        -11    1    1    2    0    0  0.57022492707E+02  0.76871259124E+02  0.83180411866E+01  0.96072602562E+02  0.00000000000E+00 0.  1.
         11    1    1    2    0    0  0.10148556025E+03  0.35788068671E+02 -0.60978515383E+02  0.12368704110E+03  0.00000000000E+00 0. -1.
</event>
<event>
 7    1  0.2794945E-009  0.1329257E+03  0.7561462E-02  0.1223178E+00
         -1   -1    0    0    0  501 -0.00000000000E+00  0.00000000000E+00  0.53362997943E+03  0.53362997943E+03  0.00000000000E+00 0.  1.
          1   -1    0    0  501    0  0.00000000000E+00 -0.00000000000E+00 -0.44428185068E+02  0.44428185068E+02  0.00000000000E+00 0. -1.
         25    2    1    2    0    0 -0.43289751164E+02 -0.96417440307E+02  0.22036427386E+03  0.27457192318E+03  0.12513593591E+03 0.  0.
          5    1    3    3  502    0 -0.76813097445E+02 -0.72642403826E+02  0.93662482217E+02  0.14130571024E+03  0.41800000000E+01 0.  1.
         -5    1    3    3    0  502  0.33523346282E+02 -0.23775036482E+02  0.12670179164E+03  0.13326621294E+03  0.41800000000E+01 0.  1.
        -11    1    1    2    0    0 -0.99988501457E+01  0.39587025344E+02  0.18328206755E+03  0.18777493407E+03  0.00000000000E+00 0.  1.
         11    1    1    2    0    0  0.53288601310E+02  0.56830414963E+02  0.85555452959E+02  0.11571130725E+03  0.00000000000E+00 0. -1.
</event>
<event>
 7    1  0.2794945E-009  0.1338037E+03  0.7561462E-02  0.1221918E+00
         -4   -1    0    0    0  501 -0.00000000000E+00  0.00000000000E+00  0.13924405091E+03  0.13924405091E+03  0.00000000000E+00 0.  1.
          4   -1    0    0  501    0  0.00000000000E+00 -0.00000000000E+00 -0.13480664235E+03  0.13480664235E+03  0.00000000000E+00 0. -1.
         25    2    1    2    0    0 -0.54696161678E+02 -0.13476810034E+02  0.18933372843E+02  0.13849025674E+03  0.12509110318E+03 0.  0.
          5    1    3    3  502    0 -0.31227768076E+01  0.51303444431E+02 -0.59952323601E+01  0.51915415404E+02  0.41800000000E+01 0.  1.
         -5    1    3    3    0  502 -0.51573384871E+02 -0.64780254466E+02  0.24928605203E+02  0.86574841340E+02  0.41800000000E+01 0.  1.
        -11    1    1    2    0    0 -0.31626695192E+02 -0.23318132795E+02 -0.14025325830E+02  0.41721612271E+02  0.00000000000E+00 0. -1.
         11    1    1    2    0    0  0.86322856871E+02  0.36794942829E+02 -0.47063844945E+00  0.93838824250E+02  0.00000000000E+00 0.  1.
</event>
<event>
 7    1  0.2794945E-009  0.1865491E+03  0.7561462E-02  0.1161611E+00
          1   -1    0    0  501    0  0.00000000000E+00  0.00000000000E+00  0.89360700538E+03  0.89360700538E+03  0.00000000000E+00 0. -1.
         -1   -1    0    0    0  501 -0.00000000000E+00 -0.00000000000E+00 -0.42995440844E+02  0.42995440844E+02  0.00000000000E+00 0.  1.
         25    2    1    2    0    0 -0.44420884628E+02  0.15274343567E+03  0.53380933809E+03  0.57087973539E+03  0.12508993051E+03 0.  0.
          5    1    3    3  502    0  0.39041539788E+02  0.50838832928E+02  0.24742419996E+03  0.25562675112E+03  0.41800000000E+01 0.  1.
         -5    1    3    3    0  502 -0.83462424416E+02  0.10190460275E+03  0.28638513813E+03  0.31525298427E+03  0.41800000000E+01 0.  1.
        -11    1    1    2    0    0 -0.15745392655E+02 -0.85100598514E+02  0.10992985228E+03  0.13990926231E+03  0.00000000000E+00 0.  1.
         11    1    1    2    0    0  0.60166277284E+02 -0.67642837160E+02  0.20687237417E+03  0.22581344853E+03  0.00000000000E+00 0. -1.
</event>
<event>
 7    1  0.2794945E-009  0.1432583E+03  0.7561462E-02  0.1209011E+00
         -1   -1    0    0    0  501 -0.00000000000E+00  0.00000000000E+00  0.93424145554E+03  0.93424145554E+03  0.00000000000E+00 0.  1.
          1   -1    0    0  501    0  0.00000000000E+00 -0.00000000000E+00 -0.25109368021E+02  0.25109368021E+02  0.00000000000E+00 0. -1.
         25    2    1    2    0    0  0.11348729874E+03 -0.21449129194E+02  0.57583943679E+03  0.60048257992E+03  0.12509532245E+03 0.  0.
          5    1    3    3  502    0  0.94141044641E+02  0.31432958797E+02  0.47143579934E+03  0.48178807839E+03  0.41800000000E+01 0. -1.
         -5    1    3    3    0  502  0.19346254104E+02 -0.52882087992E+02  0.10440363745E+03  0.11869450152E+03  0.41800000000E+01 0. -1.
        -11    1    1    2    0    0 -0.71967934787E+02  0.43101767018E+02  0.18009601106E+03  0.19867490823E+03  0.00000000000E+00 0. -1.
         11    1    1    2    0    0 -0.41519363958E+02 -0.21652637824E+02  0.15319663966E+03  0.16019333541E+03  0.00000000000E+00 0.  1.
</event>
<event>
 7    1  0.2794945E-009  0.1480879E+03  0.7561462E-02  0.1202842E+00
          2   -1    0    0  501    0  0.00000000000E+00  0.00000000000E+00  0.73042223123E+02  0.73042223123E+02  0.00000000000E+00 0.  1.
         -2   -1    0    0    0  501 -0.00000000000E+00 -0.00000000000E+00 -0.47745628389E+03  0.47745628389E+03  0.00000000000E+00 0. -1.
         25    2    1    2    0    0  0.88934032377E+02 -0.11314497088E+03 -0.13032358806E+03  0.23096173772E+03  0.12509212660E+03 0.  0.
          5    1    3    3  502    0  0.84162049184E+02 -0.80521913811E+02 -0.23249857763E+02  0.11884888478E+03  0.41800000000E+01 0. -1.
         -5    1    3    3    0  502  0.47719831936E+01 -0.32623057074E+02 -0.10707373030E+03  0.11211285295E+03  0.41800000000E+01 0. -1.
        -11    1    1    2    0    0 -0.67833250629E+02  0.10208073090E+03 -0.26837199691E+03  0.29503449670E+03  0.00000000000E+00 0.  1.
         11    1    1    2    0    0 -0.21100781748E+02  0.11064239984E+02 -0.57184757916E+01  0.24502272592E+02  0.00000000000E+00 0. -1.
</event>
<event>
 7    1  0.2794945E-009  0.9788698E+02  0.7561462E-02  0.1284803E+00
          3   -1    0    0  501    0  0.00000000000E+00  0.00000000000E+00  0.20425061713E+02  0.20425061713E+02  0.00000000000E+00 0. -1.
         -3   -1    0    0    0  501 -0.00000000000E+00 -0.00000000000E+00 -0.74465278132E+03  0.74465278132E+03  0.00000000000E+00 0.  1.
         25    2    1    2    0    0  0.50303157487E+02  0.30752185889E+02 -0.42864687456E+03  0.45040200433E+03  0.12509083836E+03 0.  0.
          5    1    3    3  502    0  0.64972323467E+02  0.46538013323E+02 -0.41873992835E+03  0.42631888241E+03  0.41800000000E+01 0. -1.
         -5    1    3    3    0  502 -0.14669165980E+02 -0.15785827434E+02 -0.99069462104E+01  0.24083121923E+02  0.41800000000E+01 0. -1.
        -11    1    1    2    0    0 -0.56166424296E+02  0.60829841212E+01 -0.24727080803E+03  0.25364250909E+03  0.00000000000E+00 0.  1.
         11    1    1    2    0    0  0.58632668084E+01 -0.36835170010E+02 -0.48310037021E+02  0.61033329618E+02  0.00000000000E+00 0. -1.
</event>
<event>
 7    1  0.2794945E-009  0.1055592E+03  0.7561462E-02  0.1269022E+00
         -2   -1    0    0    0  501 -0.00000000000E+00  0.00000000000E+00  0.48683189632E+02  0.48683189632E+02  0.00000000000E+00 0.  1.
          2   -1    0    0  501    0  0.00000000000E+00 -0.00000000000E+00 -0.38898306251E+03  0.38898306251E+03  0.00000000000E+00 0. -1.
         25    2    1    2    0    0  0.52941792083E+02 -0.11889593015E+02 -0.84914588959E+02  0.16063168384E+03  0.12509138526E+03 0.  0.
          5    1    3    3  502    0 -0.46083892819E+00 -0.45003416403E+02 -0.86543293721E+02  0.97635720659E+02  0.41800000000E+01 0.  1.
         -5    1    3    3    0  502  0.53402631011E+02  0.33113823388E+02  0.16287047617E+01  0.62995963184E+02  0.41800000000E+01 0.  1.
        -11    1    1    2    0    0 -0.55125210907E+02 -0.28800590695E+02 -0.11361869241E+03  0.12952787409E+03  0.00000000000E+00 0.  1.
         11    1    1    2    0    0  0.21834188239E+01  0.40690183710E+02 -0.14176659151E+03  0.14750669421E+03  0.00000000000E+00 0. -1.
</event>
<event>
 7    1  0.2794945E-009  0.1045193E+03  0.7561462E-02  0.1271070E+00
         -4   -1    0    0    0  501 -0.00000000000E+00  0.00000000000E+00  0.69445179234E+03  0.69445179234E+03  0.00000000000E+00 0.  1.
          4   -1    0    0  501    0  0.00000000000E+00 -0.00000000000E+00 -0.18943627067E+02  0.18943627067E+02  0.00000000000E+00 0. -1.
         25    2    1    2    0    0  0.13790125187E+02 -0.23877218784E+02  0.32271154225E+03  0.34720686689E+03  0.12509828048E+03 0.  0.
          5    1    3    3  502    0  0.23472109074E+02  0.39786208628E+02  0.22754775439E+03  0.23222690462E+03  0.41800000000E+01 0.  1.
         -5    1    3    3    0  502 -0.96819838866E+01 -0.63663427412E+02  0.95163787864E+02  0.11497996227E+03  0.41800000000E+01 0.  1.
        -11    1    1    2    0    0 -0.52972155728E+02  0.14790735398E+01  0.18994604198E+03  0.19719973582E+03  0.00000000000E+00 0.  1.
         11    1    1    2    0    0  0.39182030541E+02  0.22398145244E+02  0.16285058104E+03  0.16898881671E+03  0.00000000000E+00 0. -1.
</event>
<event>
 7    1  0.2794945E-009  0.1319799E+03  0.7561462E-02  0.1224547E+00
          1   -1    0    0  501    0  0.00000000000E+00  0.00000000000E+00  0.54402700182E+03  0.54402700182E+03  0.00000000000E+00 0. -1.
         -1   -1    0    0    0  501 -0.00000000000E+00 -0.00000000000E+00 -0.77341253304E+02  0.77341253304E+02  0.00000000000E+00 0.  1.
         25    2    1    2    0    0 -0.19632795639E+02 -0.72889129055E+02  0.68727529907E+01  0.14626591334E+03  0.12509280904E+03 0.  0.
          5    1    3    3  502    0 -0.54136264815E+02 -0.91592344115E+02  0.80386346725E+01  0.10678007640E+03  0.41800000000E+01 0.  1.
         -5    1    3    3    0  502  0.34503469176E+02  0.18703215060E+02 -0.11658816817E+01  0.39485836940E+02  0.41800000000E+01 0.  1.
        -11    1    1    2    0    0  0.25833333708E+02 -0.15022711992E+02  0.15258542601E+03  0.15548426041E+03  0.00000000000E+00 0.  1.
         11    1    1    2    0    0 -0.62005380695E+01  0.87911841046E+02  0.30722756951E+03  0.31961808137E+03  0.00000000000E+00 0. -1.
</event>
<event>
 7    1  0.2794945E-009  0.1045699E+03  0.7561462E-02  0.1270969E+00
         -1   -1    0    0    0  501 -0.00000000000E+00  0.00000000000E+00  0.48491183538E+02  0.48491183538E+02  0.00000000000E+00 0.  1.
          1   -1    0    0  501    0  0.00000000000E+00 -0.00000000000E+00 -0.29664434947E+03  0.29664434947E+03  0.00000000000E+00 0. -1.
         25    2    1    2    0    0 -0.49311875392E+02 -0.70859593810E+01 -0.12434816428E+03  0.18327998826E+03  0.12508883349E+03 0.  0.
          5    1    3    3  502    0 -0.84144107207E+02  0.13701336180E+02 -0.51200130136E+02  0.99533326664E+02  0.41800000000E+01 0.  1.
         -5    1    3    3    0  502  0.34832231815E+02 -0.20787295561E+02 -0.73148034142E+02  0.83746661598E+02  0.41800000000E+01 0.  1.
        -11    1    1    2    0    0  0.60070957917E+02 -0.11849209858E+02 -0.35225827068E+02  0.70638393611E+02  0.00000000000E+00 0.  1.
         11    1    1    2    0    0 -0.10759082524E+02  0.18935169239E+02 -0.88579174581E+02  0.91217151130E+02  0.00000000000E+00 0. -1.
</event>
<event>
 7    1  0.2794945E-009  0.1381493E+03  0.7561462E-02  0.1215841E+00
         -2   -1    0    0    0  501 -0.00000000000E+00  0.00000000000E+00  0.87656981411E+02  0.87656981411E+02  0.00000000000E+00 0.  1.
          2   -1    0    0  501    0  0.00000000000E+00 -0.00000000000E+00 -0.23756475746E+03  0.23756475746E+03  0.00000000000E+00 0. -1.
         25    2    1    2    0    0  0.91974050050E+02  0.26088564149E+02 -0.10035087626E+03  0.18670421271E+03  0.12509326767E+03 0.  0.
          5    1    3    3  502    0  0.10414430111E+03  0.59021851057E+02 -0.90120496868E+02  0.14989593294E+03  0.41800000000E+01 0.  1.
         -5    1    3    3    0  502 -0.12170251061E+02 -0.32933286909E+02 -0.10230379390E+02  0.36808279774E+02  0.41800000000E+01 0.  1.
        -11    1    1    2    0    0  0.10454696099E+02 -0.14788900346E+02  0.87516377554E+01  0.20114755961E+02  0.00000000000E+00 0.  1.
         11    1    1    2    0    0 -0.10242874615E+03 -0.11299663802E+02 -0.58308537550E+02  0.11840277020E+03  0.00000000000E+00 0. -1.
</event>
<event>
 7    1  0.2794945E-009  0.8446487E+02  0.7561462E-02  0.1316838E+00
          1   -1    0    0  501    0  0.00000000000E+00  0.00000000000E+00  0.11974818579E+02  0.11974818579E+02  0.00000000000E+00 0. -1.
         -1   -1    0    0    0  501 -0.00000000000E+00 -0.00000000000E+00 -0.14301400886E+04  0.14301400886E+04  0.00000000000E+00 0.  1.
         25    2    1    2    0    0 -0.24225333865E+02  0.21753046209E+01 -0.11685280609E+04  0.11754559497E+04  0.12508901564E+03 0.  0.
          5    1    3    3  502    0  0.12886019711E+02  0.28369902089E+02 -0.10101579420E+04  0.10106470408E+04  0.41800000000E+01 0. -1.
         -5    1    3    3    0  502 -0.37111353576E+02 -0.26194597468E+02 -0.15837011890E+03  0.16480890892E+03  0.41800000000E+01 0. -1.
        -11    1    1    2    0    0  0.23393532321E+02 -0.44111200472E+02 -0.10883082184E+03  0.11973806055E+03  0.00000000000E+00 0. -1.
         11    1    1    2    0    0  0.83180154446E+00  0.41935895851E+02 -0.14080638726E+03  0.14692089691E+03  0.00000000000E+00 0.  1.
</event>
<event>
 7    1  0.2794945E-009  0.1180674E+03  0.7561462E-02  0.1246320E+00
          1   -1    0    0  501    0  0.00000000000E+00  0.00000000000E+00  0.24456289502E+03  0.24456289502E+03  0.00000000000E+00 0. -1.
         -1   -1    0    0    0  501 -0.00000000000E+00 -0.00000000000E+00 -0.89729039165E+02  0.89729039165E+02  0.00000000000E+00 0.  1.
         25    2    1    2    0    0 -0.59480553871E+02 -0.59146901783E+02  0.21122995672E+02  0.15208530095E+03  0.12508982988E+03 0.  0.
          5    1    3    3  502    0 -0.75401485461E+02 -0.35143402962E+02  0.60623469388E+02  0.10301999914E+03  0.41800000000E+01 0.  1.
         -5    1    3    3    0  502  0.15920931590E+02 -0.24003498821E+02 -0.39500473716E+02  0.49065301815E+02  0.41800000000E+01 0.  1.
        -11    1    1    2    0    0  0.64622642245E+02  0.79666689963E+02  0.10904774869E+03  0.14971399024E+03  0.00000000000E+00 0.  1.
         11    1    1    2    0    0 -0.51420883748E+01 -0.20519788180E+02  0.24663111494E+02  0.32492642989E+02  0.00000000000E+00 0. -1.
</event>
<event>
 7    1  0.2794945E-009  0.7734219E+02  0.7561462E-02  0.1336768E+00
          1   -1    0    0  501    0  0.00000000000E+00  0.00000000000E+00  0.13514986684E+03  0.13514986684E+03  0.00000000000E+00 0. -1.
         -1   -1    0    0    0  501 -0.00000000000E+00 -0.00000000000E+00 -0.11974644935E+03  0.11974644935E+03  0.00000000000E+00 0.  1.
         25    2    1    2    0    0 -0.27843222960E+02  0.53578176129E+02  0.27161897648E+01  0.13892755621E+03  0.12509045593E+03 0.  0.
          5    1    3    3  502    0 -0.71889173012E+01  0.38060928627E+02  0.62510637354E+02  0.73657090645E+02  0.41800000000E+01 0.  1.
         -5    1    3    3    0  502 -0.20654305659E+02  0.15517247502E+02 -0.59794447589E+02  0.65270465563E+02  0.41800000000E+01 0.  1.
        -11    1    1    2    0    0  0.37893404613E+02 -0.30257275953E+01 -0.30490552719E+02  0.48731293290E+02  0.00000000000E+00 0.  1.
         11    1    1    2    0    0 -0.10050181652E+02 -0.50552448534E+02  0.43177780441E+02  0.67237466697E+02  0.00000000000E+00 0. -1.
</event>
<event>
 7    1  0.2794945E-009  0.1525724E+03  0.7561462E-02  0.1197347E+00
          1   -1    0    0  501    0  0.00000000000E+00  0.00000000000E+00  0.16745808000E+03  0.16745808000E+03  0.00000000000E+00 0. -1.
         -1   -1    0    0    0  501 -0.00000000000E+00 -0.00000000000E+00 -0.19825328620E+03  0.19825328620E+03  0.00000000000E+00 0.  1.
         25    2    1    2    0    0  0.79144274874E+02  0.12090700112E+03 -0.39670071013E+02  0.19519235014E+03  0.12507605627E+03 0.  0.
          5    1    3    3  502    0 -0.10362911420E+02  0.17358093698E+02 -0.53708167617E+02  0.57538969566E+02  0.41800000000E+01 0. -1.
         -5    1    3    3    0  502  0.89507186294E+02  0.10354890742E+03  0.14038096605E+02  0.13765338057E+03  0.41800000000E+01 0. -1.
        -11    1    1    2    0    0 -0.40179138742E+02 -0.35202207680E+02 -0.37797462521E+02  0.65438572636E+02  0.00000000000E+00 0.  1.
         11    1    1    2    0    0 -0.38965136131E+02 -0.85704793437E+02  0.46672327340E+02  0.10508044343E+03  0.00000000000E+00 0. -1.
</event>
<event>
 7    1  0.2794945E-009  0.4058208E+03  0.7561462E-02  0.1041783E+00
         -2   -1    0    0    0  501 -0.00000000000E+00  0.00000000000E+00  0.38698876268E+03  0.38698876268E+03  0.00000000000E+00 0.  1.
          2   -1    0    0  501    0  0.00000000000E+00 -0.00000000000E+00 -0.43565423385E+03  0.43565423385E+03  0.00000000000E+00 0. -1.
         25    2    1    2    0    0  0.62876116824E+02 -0.39032202103E+03 -0.93415133123E+01  0.41477705720E+03  0.12509219457E+03 0.  0.
          5    1    3    3  502    0 -0.24200376004E+02 -0.16520802909E+03  0.31426946291E+02  0.16995433630E+03  0.41800000000E+01 0.  1.
         -5    1    3    3    0  502  0.87076492828E+02 -0.22511399194E+03 -0.40768459603E+02  0.24482272090E+03  0.41800000000E+01 0.  1.
        -11    1    1    2    0    0  0.67654017389E+01  0.20698193189E+03  0.35074752206E+01  0.20712216967E+03  0.00000000000E+00 0.  1.
         11    1    1    2    0    0 -0.69641518563E+02  0.18334008915E+03 -0.42831433070E+02  0.20074376965E+03  0.00000000000E+00 0. -1.
</event>
<event>
 7    1  0.2794945E-009  0.9437463E+02  0.7561462E-02  0.1292591E+00
          1   -1    0    0  501    0  0.00000000000E+00  0.00000000000E+00  0.25064440125E+03  0.25064440125E+03  0.00000000000E+00 0. -1.
         -1   -1    0    0    0  501 -0.00000000000E+00 -0.00000000000E+00 -0.51361114041E+02  0.51361114041E+02  0.00000000000E+00 0.  1.
         25    2    1    2    0    0 -0.30314104246E+02 -0.13680607784E+02  0.11813267863E+03  0.17523962234E+03  0.12508993378E+03 0.  0.
          5    1    3    3  502    0 -0.31006453090E+02 -0.52764420077E+02  0.12601666472E+02  0.62623945557E+02  0.41800000000E+01 0. -1.
         -5    1    3    3    0  502  0.69234884361E+00  0.39083812292E+02  0.10553101216E+03  0.11261567679E+03  0.41800000000E+01 0. -1.
        -11    1    1    2    0    0  0.14622515916E+02  0.48095969004E+02  0.72065513325E+02  0.87866253004E+02  0.00000000000E+00 0. -1.
         11    1    1    2    0    0  0.15691588330E+02 -0.34415361220E+02  0.90850952515E+01  0.38899639946E+02  0.00000000000E+00 0.  1.
</event>
<event>
 7    1  0.2794945E-009  0.8644987E+02  0.7561462E-02  0.1311684E+00
          4   -1    0    0  501    0  0.00000000000E+00  0.00000000000E+00  0.13486721109E+03  0.13486721109E+03  0.00000000000E+00 0. -1.
         -4   -1    0    0    0  501 -0.00000000000E+00 -0.00000000000E+00 -0.99473310023E+02  0.99473310023E+02  0.00000000000E+00 0.  1.
         25    2    1    2    0    0 -0.58217182239E+01 -0.44944543052E+02  0.32849839375E+02  0.13704172877E+03  0.12508964435E+03 0.  0.
          5    1    3    3  502    0  0.27922709560E+01  0.40565142801E+02 -0.82277378150E+01  0.41695271400E+02  0.41800000000E+01 0.  1.
         -5    1    3    3    0  502 -0.86139891799E+01 -0.85509685853E+02  0.41077577190E+02  0.95346457365E+02  0.41800000000E+01 0.  1.
        -11    1    1    2    0    0  0.55670297446E+01  0.14459466263E+02 -0.41178568787E+02  0.43997073904E+02  0.00000000000E+00 0.  1.
         11    1    1    2    0    0  0.25468847929E+00  0.30485076789E+02  0.43722630474E+02  0.53301718440E+02  0.00000000000E+00 0. -1.
</event>
<event>
 7    1  0.2794945E-009  0.1104083E+03  0.7561462E-02  0.1259816E+00
          2   -1    0    0  501    0  0.00000000000E+00  0.00000000000E+00  0.14187374287E+03  0.14187374287E+03  0.00000000000E+00 0. -1.
         -2   -1    0    0    0  501 -0.00000000000E+00 -0.00000000000E+00 -0.13349641276E+03  0.13349641276E+03  0.00000000000E+00 0.  1.
         25    2    1    2    0    0  0.77500971293E+02  0.26623554074E+02 -0.18365747981E+02  0.15065390143E+03  0.12507630924E+03 0.  0.
          5    1    3    3  502    0 -0.96959233123E+01  0.47463419546E+02  0.20603507640E+02  0.52808749757E+02  0.41800000000E+01 0.  1.
         -5    1    3    3    0  502  0.87196894605E+02 -0.20839865472E+02 -0.38969255621E+02  0.97845151670E+02  0.41800000000E+01 0.  1.
        -11    1    1    2    0    0 -0.28128145668E+02 -0.14304450259E+02  0.57260586458E+02  0.65380307719E+02  0.00000000000E+00 0. -1.
         11    1    1    2    0    0 -0.49372825625E+02 -0.12319103815E+02 -0.30517508365E+02  0.59335946489E+02  0.00000000000E+00 0.  1.
</event>
<event>
 7    1  0.2794945E-009  0.1326831E+03  0.7561462E-02  0.1223528E+00
         -1   -1    0    0    0  501 -0.00000000000E+00  0.00000000000E+00  0.92341873455E+02  0.92341873455E+02  0.00000000000E+00 0.  1.
          1   -1    0    0  501    0  0.00000000000E+00 -0.00000000000E+00 -0.25584361409E+03  0.25584361409E+03  0.00000000000E+00 0. -1.
         25    2    1    2    0    0 -0.10191198230E+03  0.16791118572E+02 -0.54929470922E+02  0.17126688177E+03  0.12508838562E+03 0.  0.
          5    1    3    3  502    0 -0.91079801182E+02 -0.18149631873E+02 -0.83268736943E+02  0.12480422378E+03  0.41800000000E+01 0. -1.
         -5    1    3    3    0  502 -0.10832181117E+02  0.34940750444E+02  0.28339266020E+02  0.46462657995E+02  0.41800000000E+01 0. -1.
        -11    1    1    2    0    0  0.96833278185E+02  0.19634971129E+02 -0.58611560692E+02  0.11488050706E+03  0.00000000000E+00 0.  1.
         11    1    1    2    0    0  0.50787041147E+01 -0.36426089701E+02 -0.49960709015E+02  0.62038098711E+02  0.00000000000E+00 0. -1.
</event>
<event>
 7    1  0.2794945E-009  0.9205196E+02  0.7561462E-02  0.1297957E+00
          3   -1    0    0  501    0  0.00000000000E+00  0.00000000000E+00  0.20185358003E+03  0.20185358003E+03  0.00000000000E+00 0. -1.
         -3   -1    0    0    0  501 -0.00000000000E+00 -0.00000000000E+00 -0.73476159133E+02  0.73476159133E+02  0.00000000000E+00 0.  1.
         25    2    1    2    0    0  0.43822396207E+02  0.71938610437E+01  0.11015001737E+03  0.17249353934E+03  0.12509532662E+03 0.  0.
          5    1    3    3  502    0  0.12416357944E+02 -0.33213184664E+02 -0.13839737852E+02  0.38292196645E+02  0.41800000000E+01 0. -1.
         -5    1    3    3    0  502  0.31406038263E+02  0.40407045707E+02  0.12398975522E+03  0.13420134270E+03  0.41800000000E+01 0. -1.
        -11    1    1    2    0    0 -0.66581399807E+02 -0.21742088827E+02  0.26027449434E+02  0.74721010103E+02  0.00000000000E+00 0.  1.
         11    1    1    2    0    0  0.22759003599E+02  0.14548227783E+02 -0.78000459091E+01  0.28115189714E+02  0.00000000000E+00 0. -1.
</event>
<event>
 7    1  0.2794945E-009  0.7539475E+02  0.7561462E-02  0.1342653E+00
          2   -1    0    0  501    0  0.00000000000E+00  0.00000000000E+00  0.84103963708E+03  0.84103963708E+03  0.00000000000E+00 0. -1.
         -2   -1    0    0    0  501 -0.00000000000E+00 -0.00000000000E+00 -0.17161346885E+02  0.17161346885E+02  0.00000000000E+00 0.  1.
         25    2    1    2    0    0  0.69004023950E+01  0.41130297170E+02  0.54923003823E+03  0.56483747697E+03  0.12509365931E+03 0.  0.
          5    1    3    3  502    0  0.10613667429E+02  0.44956754900E+02  0.61345026656E+02  0.76905425315E+02  0.41800000000E+01 0.  1.
         -5    1    3    3    0  502 -0.37132650340E+01 -0.38264577299E+01  0.48788501157E+03  0.48793205166E+03  0.41800000000E+01 0.  1.
        -11    1    1    2    0    0 -0.22818122836E+02 -0.65030309904E+02  0.23144310522E+03  0.24148606355E+03  0.00000000000E+00 0. -1.
         11    1    1    2    0    0  0.15917720441E+02  0.23900012734E+02  0.43205146751E+02  0.51877443446E+02  0.00000000000E+00 0.  1.
</event>
<event>
 7    1  0.2794945E-009  0.9163975E+02  0.7561462E-02  0.1298929E+00
          2   -1    0    0  501    0  0.00000000000E+00  0.00000000000E+00  0.43655970797E+03  0.43655970797E+03  0.00000000000E+00 0. -1.
         -2   -1    0    0    0  501 -0.00000000000E+00 -0.00000000000E+00 -0.60418309329E+02  0.60418309329E+02  0.00000000000E+00 0.  1.
         25    2    1    2    0    0  0.70623509437E+01 -0.79988679217E+02  0.28066142519E+03  0.31759162455E+03  0.12508212818E+03 0.  0.
          5    1    3    3  502    0  0.11919807567E+02 -0.29869154209E+01  0.21724311175E+03  0.21763052515E+03  0.41800000000E+01 0.  1.
         -5    1    3    3    0  502 -0.48574566229E+01 -0.77001763796E+02  0.63418313437E+02  0.99961099392E+02  0.41800000000E+01 0.  1.
        -11    1    1    2    0    0 -0.22675724031E+02  0.72013912265E+02  0.12442860283E+03  0.14554267148E+03  0.00000000000E+00 0. -1.
         11    1    1    2    0    0  0.15613373087E+02  0.79747669522E+01 -0.28948629372E+02  0.33843721273E+02  0.00000000000E+00 0.  1.
</event>
<event>
 7    1  0.2794945E-009  0.8910943E+02  0.7561462E-02  0.1305023E+00
         -2   -1    0    0    0  501 -0.00000000000E+00  0.00000000000E+00  0.22380008719E+02  0.22380008719E+02  0.00000000000E+00 0. -1.
          2   -1    0    0  501    0  0.00000000000E+00 -0.00000000000E+00 -0.73008275465E+03  0.73008275465E+03  0.00000000000E+00 0.  1.
         25    2    1    2    0    0 -0.52202731287E+02  0.24722876979E+01 -0.49697514517E+03  0.51513112060E+03  0.12507813213E+03 0.  0.
          5    1    3    3  502    0  0.11441904534E+02 -0.25618922506E+02 -0.36305411504E+03  0.36416069147E+03  0.41800000000E+01 0.  1.
         -5    1    3    3    0  502 -0.63644635821E+02  0.28091210203E+02 -0.13392103013E+03  0.15097042913E+03  0.41800000000E+01 0.  1.
        -11    1    1    2    0    0  0.26271174275E+02 -0.31642828453E+02 -0.26295569355E+02  0.48814958343E+02  0.00000000000E+00 0. -1.
         11    1    1    2    0    0  0.25931557012E+02  0.29170540755E+02 -0.18443203141E+03  0.18851668443E+03  0.00000000000E+00 0.  1.
</event>
<event>
 7    1  0.2794945E-009  0.1254487E+03  0.7561462E-02  0.1234370E+00
          3   -1    0    0  501    0  0.00000000000E+00  0.00000000000E+00  0.14023142758E+03  0.14023142758E+03  0.00000000000E+00 0.  1.
         -3   -1    0    0    0  501 -0.00000000000E+00 -0.00000000000E+00 -0.17465179433E+03  0.17465179433E+03  0.00000000000E+00 0. -1.
         25    2    1    2    0    0 -0.97892849070E+02  0.10721781027E+02 -0.78994676372E+02  0.17772482886E+03  0.12509192385E+03 0.  0.
          5    1    3    3  502    0 -0.47941492907E+02 -0.52300016174E+02 -0.10171392528E+02  0.71795599168E+02  0.41800000000E+01 0. -1.
         -5    1    3    3    0  502 -0.49951356164E+02  0.63021797201E+02 -0.68823283844E+02  0.10592922970E+03  0.41800000000E+01 0. -1.
        -11    1    1    2    0    0  0.16834089148E+02  0.29681356264E+01  0.51884043289E+02  0.54627377153E+02  0.00000000000E+00 0.  1.
         11    1    1    2    0    0  0.81058759922E+02 -0.13689916653E+02 -0.73097336589E+01  0.82531015893E+02  0.00000000000E+00 0. -1.
</event>
<event>
 7    1  0.2794945E-009  0.1115805E+03  0.7561462E-02  0.1257671E+00
          2   -1    0    0  501    0  0.00000000000E+00  0.00000000000E+00  0.57430922371E+03  0.57430922371E+03  0.00000000000E+00 0. -1.
         -2   -1    0    0    0  501 -0.00000000000E+00 -0.00000000000E+00 -0.25386488192E+02  0.25386488192E+02  0.00000000000E+00 0.  1.
         25    2    1    2    0    0 -0.49271141250E+02 -0.18761846211E+02  0.32323608204E+03  0.35058316891E+03  0.12508933352E+03 0.  0.
          5    1    3    3  502    0 -0.69414685909E+02 -0.48200488880E+02  0.13781740587E+03  0.16171825967E+03  0.41800000000E+01 0. -1.
         -5    1    3    3    0  502  0.20143544658E+02  0.29438642669E+02  0.18541867616E+03  0.18886490925E+03  0.41800000000E+01 0. -1.
        -11    1    1    2    0    0  0.56954434064E+02  0.46704111695E+02  0.18532148206E+03  0.19942199808E+03  0.00000000000E+00 0. -1.
         11    1    1    2    0    0 -0.76832928135E+01 -0.27942265484E+02  0.40365171421E+02  0.49690544903E+02  0.00000000000E+00 0.  1.
</event>
<event>
 7    1  0.2794945E-009  0.9928497E+02  0.7561462E-02  0.1281807E+00
         -1   -1    0    0    0  501 -0.00000000000E+00  0.00000000000E+00  0.29029900611E+03  0.29029900611E+03  0.00000000000E+00 0.  1.
          1   -1    0    0  501    0  0.00000000000E+00 -0.00000000000E+00 -0.69018824940E+02  0.69018824940E+02  0.00000000000E+00 0. -1.
         25    2    1    2    0    0  0.39854007646E+02 -0.61510928328E+02  0.19005300139E+03  0.23903754155E+03  0.12508743623E+03 0.  0.
          5    1    3    3  502    0  0.64613120911E+02 -0.10746284345E+02  0.35901212519E+02  0.74811145436E+02  0.41800000000E+01 0.  1.
         -5    1    3    3    0  502 -0.24759113265E+02 -0.50764643984E+02  0.15415178887E+03  0.16422639611E+03  0.41800000000E+01 0.  1.
        -11    1    1    2    0    0  0.67214222145E+00  0.13310705016E+02  0.52224809530E+02  0.53898584152E+02  0.00000000000E+00 0.  1.
         11    1    1    2    0    0 -0.40526149867E+02  0.48200223313E+02 -0.20997629746E+02  0.66381705352E+02  0.00000000000E+00 0. -1.
</event>
<event>
 7    1  0.2794945E-009  0.1980725E+03  0.7561462E-02  0.1151376E+00
          1   -1    0    0  501    0  0.00000000000E+00  0.00000000000E+00  0.96317383574E+02  0.96317383574E+02  0.00000000000E+00 0. -1.
         -1   -1    0    0    0  501 -0.00000000000E+00 -0.00000000000E+00 -0.46663013355E+03  0.46663013355E+03  0.00000000000E+00 0.  1.
         25    2    1    2    0    0  0.13350177732E+03  0.10018220056E+03 -0.28834838144E+03  0.35588138735E+03  0.12509026713E+03 0.  0.
          5    1    3    3  502    0  0.15640795079E+03  0.83505039123E+02 -0.26528789339E+03  0.31911076041E+03  0.41800000000E+01 0. -1.
         -5    1    3    3    0  502 -0.22906173473E+02  0.16677161441E+02 -0.23060488052E+02  0.36770626947E+02  0.41800000000E+01 0. -1.
        -11    1    1    2    0    0 -0.87181469224E+02 -0.11239936061E+03 -0.60932430097E+02  0.15474813691E+03  0.00000000000E+00 0.  1.
         11    1    1    2    0    0 -0.46320308098E+02  0.12217160043E+02 -0.21031938442E+02  0.52317992856E+02  0.00000000000E+00 0. -1.
</event>
<event>
 7    1  0.2794945E-009  0.1108272E+03  0.7561462E-02  0.1259046E+00
          2   -1    0    0  501    0  0.00000000000E+00  0.00000000000E+00  0.12617150551E+04  0.12617150551E+04  0.00000000000E+00 0. -1.
         -2   -1    0    0    0  501 -0.00000000000E+00 -0.00000000000E+00 -0.12195546503E+02  0.12195546503E+02  0.00000000000E+00 0.  1.
         25    2    1    2    0    0  0.86219579163E+01  0.56210140040E+02  0.81382538875E+03  0.82534427363E+03  0.12508992218E+03 0.  0.
          5    1    3    3  502    0  0.17208456378E+02 -0.35999191595E+02  0.35409321068E+03  0.35635873360E+03  0.41800000000E+01 0.  1.
         -5    1    3    3    0  502 -0.85864984622E+01  0.92209331635E+02  0.45973217807E+03  0.46898554002E+03  0.41800000000E+01 0.  1.
        -11    1    1    2    0    0 -0.14075613610E+02  0.13147592231E+02  0.22776460881E+02  0.29828664909E+02  0.00000000000E+00 0.  1.
         11    1    1    2    0    0  0.54536556937E+01 -0.69357732271E+02  0.41291765897E+03  0.41873766307E+03  0.00000000000E+00 0. -1.
</event>
<event>
 7    1  0.2794945E-009  0.1212484E+03  0.7561462E-02  0.1241052E+00
         -2   -1    0    0    0  501 -0.00000000000E+00  0.00000000000E+00  0.13097261057E+03  0.13097261057E+03  0.00000000000E+00 0.  1.
          2   -1    0    0  501    0  0.00000000000E+00 -0.00000000000E+00 -0.16725898966E+03  0.16725898966E+03  0.00000000000E+00 0. -1.
         25    2    1    2    0    0  0.64642177426E+02  0.75598265459E+02 -0.37774276210E+01  0.15985720603E+03  0.12508536492E+03 0.  0.
          5    1    3    3  502    0 -0.42396301608E+01  0.15485984793E+02 -0.53283442715E+02  0.55806700821E+02  0.41800000000E+01 0. -1.
         -5    1    3    3    0  502  0.68881807587E+02  0.60112280666E+02  0.49506015094E+02  0.10405050521E+03  0.41800000000E+01 0. -1.
        -11    1    1    2    0    0  0.14147294375E+02 -0.49354114195E+02 -0.96546886181E+01  0.52241626491E+02  0.00000000000E+00 0.  1.
         11    1    1    2    0    0 -0.78789471800E+02 -0.26244151264E+02 -0.22854262850E+02  0.86132767705E+02  0.00000000000E+00 0. -1.
</event>
<event>
 7    1  0.2794945E-009  0.2077021E+03  0.7561462E-02  0.1143399E+00
          2   -1    0    0  501    0  0.00000000000E+00  0.00000000000E+00  0.59770474348E+03  0.59770474348E+03  0.00000000000E+00 0. -1.
         -2   -1    0    0    0  501 -0.00000000000E+00 -0.00000000000E+00 -0.80723082359E+02  0.80723082359E+02  0.00000000000E+00 0.  1.
         25    2    1    2    0    0 -0.11416700211E+03 -0.14509747780E+03  0.19599903288E+03  0.29690485425E+03  0.12509791826E+03 0.  0.
          5    1    3    3  502    0  0.21477317783E+02 -0.47245084577E+02  0.71068061741E+02  0.88099460813E+02  0.41800000000E+01 0.  1.
         -5    1    3    3    0  502 -0.13564431990E+03 -0.97852393219E+02  0.12493097114E+03  0.20880539344E+03  0.41800000000E+01 0.  1.
        -11    1    1    2    0    0 -0.86852876367E+01  0.13009462553E+02  0.74257970983E+02  0.75887591817E+02  0.00000000000E+00 0. -1.
         11    1    1    2    0    0  0.12285228975E+03  0.13208801524E+03  0.24672465725E+03  0.30563537977E+03  0.00000000000E+00 0.  1.
</event>
<event>
 7    1  0.2794945E-009  0.1405795E+03  0.7561462E-02  0.1212551E+00
         -2   -1    0    0    0  501 -0.00000000000E+00  0.00000000000E+00  0.10730739848E+04  0.10730739848E+04  0.00000000000E+00 0.  1.
          2   -1    0    0  501    0  0.00000000000E+00 -0.00000000000E+00 -0.30428668988E+02  0.30428668988E+02  0.00000000000E+00 0. -1.
         25    2    1    2    0    0 -0.11243747331E+03  0.62972672526E+02  0.76816221791E+03  0.78887721167E+03  0.12508524766E+03 0.  0.
          5    1    3    3  502    0 -0.24754371086E+02  0.11033893346E+02  0.20368684354E+02  0.34159645674E+02  0.41800000000E+01 0.  1.
         -5    1    3    3    0  502 -0.87683102228E+02  0.51938779180E+02  0.74779353355E+03  0.75471756599E+03  0.41800000000E+01 0.  1.
        -11    1    1    2    0    0  0.10728903529E+01  0.15478993660E+02  0.46770396991E+02  0.49276976096E+02  0.00000000000E+00 0.  1.
         11    1    1    2    0    0  0.11136458296E+03 -0.78451666186E+02  0.22771270094E+03  0.26534846605E+03  0.00000000000E+00 0. -1.
</event>
<event>
 7    1  0.2794945E-009  0.1134457E+03  0.7561462E-02  0.1254319E+00
         -2   -1    0    0    0  501 -0.00000000000E+00  0.00000000000E+00  0.91068981598E+02  0.91068981598E+02  0.00000000000E+00 0.  1.
          2   -1    0    0  501    0  0.00000000000E+00 -0.00000000000E+00 -0.19039992605E+03  0.19039992605E+03  0.00000000000E+00 0. -1.
         25    2    1    2    0    0 -0.52805901548E+02  0.42039686591E+02 -0.24708124220E+02  0.14427595158E+03  0.12509700362E+03 0.  0.
          5    1    3    3  502    0 -0.69216048138E+02  0.76793076394E+02 -0.16979087737E+02  0.10485132199E+03  0.41800000000E+01 0. -1.
         -5    1    3    3    0  502  0.16410146590E+02 -0.34753389803E+02 -0.77290364835E+01  0.39424629597E+02  0.41800000000E+01 0. -1.
        -11    1    1    2    0    0  0.27044064144E+02  0.82378626614E+01  0.14423723390E+02  0.31737794238E+02  0.00000000000E+00 0.  1.
         11    1    1    2    0    0  0.25761837404E+02 -0.50277549252E+02 -0.89046543626E+02  0.10545516183E+03  0.00000000000E+00 0. -1.
</event>
<event>
 7    1  0.2794945E-009  0.1096196E+03  0.7561462E-02  0.1261276E+00
          1   -1    0    0  501    0  0.00000000000E+00  0.00000000000E+00  0.82495401503E+02  0.82495401503E+02  0.00000000000E+00 0. -1.
         -1   -1    0    0    0  501 -0.00000000000E+00 -0.00000000000E+00 -0.22724306697E+03  0.22724306697E+03  0.00000000000E+00 0.  1.
         25    2    1    2    0    0  0.40039268718E+02 -0.19807467288E+02 -0.16132873975E+03  0.20897421373E+03  0.12509109056E+03 0.  0.
          5    1    3    3  502    0 -0.19493954939E+02  0.34052039780E+02 -0.10109249047E+03  0.10852059584E+03  0.41800000000E+01 0. -1.
         -5    1    3    3    0  502  0.59533223657E+02 -0.53859507068E+02 -0.60236249275E+02  0.10045361789E+03  0.41800000000E+01 0. -1.
        -11    1    1    2    0    0  0.24656975180E+00  0.49401821177E+02  0.83979549772E+01  0.50111140279E+02  0.00000000000E+00 0.  1.
         11    1    1    2    0    0 -0.40285838470E+02 -0.29594353889E+02  0.81831192994E+01  0.50653114463E+02  0.00000000000E+00 0. -1.
</event>
<event>
 7    1  0.2794945E-009  0.1242090E+03  0.7561462E-02  0.1236311E+00
          1   -1    0    0  501    0  0.00000000000E+00  0.00000000000E+00  0.24164410291E+03  0.24164410291E+03  0.00000000000E+00 0. -1.
         -1   -1    0    0    0  501 -0.00000000000E+00 -0.00000000000E+00 -0.76609759264E+02  0.76609759264E+02  0.00000000000E+00 0.  1.
         25    2    1    2    0    0  0.35205936864E+02 -0.65868312182E+02  0.13287856934E+03  0.19718407807E+03  0.12508698539E+03 0.  0.
          5    1    3    3  502    0 -0.10654563191E+01  0.36584077838E+02  0.36604945532E+02  0.51931920683E+02  0.41800000000E+01 0. -1.
         -5    1    3    3    0  502  0.36271393184E+02 -0.10245239002E+03  0.96273623804E+02  0.14525215738E+03  0.41800000000E+01 0. -1.
        -11    1    1    2    0    0  0.21286036119E+02  0.10575868558E+02  0.34607609949E+02  0.41983699168E+02  0.00000000000E+00 0. -1.
         11    1    1    2    0    0 -0.56491972984E+02  0.55292443624E+02 -0.24518356366E+01  0.79086084942E+02  0.00000000000E+00 0.  1.
</event>
<event>
 7    1  0.2794945E-009  0.8728272E+02  0.7561462E-02  0.1309569E+00
          2   -1    0    0  501    0  0.00000000000E+00  0.00000000000E+00  0.26584722628E+03  0.26584722628E+03  0.00000000000E+00 0. -1.
         -2   -1    0    0    0  501 -0.00000000000E+00 -0.00000000000E+00 -0.51001671829E+02  0.51001671829E+02  0.00000000000E+00 0.  1.
         25    2    1    2    0    0  0.15140211141E+02 -0.22701478933E+02  0.16583930842E+03  0.20951444037E+03  0.12509612851E+03 0.  0.
          5    1    3    3  502    0  0.44200441538E+02 -0.36232792735E+01  0.16860662548E+03  0.17439172497E+03  0.41800000000E+01 0. -1.
         -5    1    3    3    0  502 -0.29060230398E+02 -0.19078199660E+02 -0.27673170594E+01  0.35122715395E+02  0.41800000000E+01 0. -1.
        -11    1    1    2    0    0 -0.50923428597E+02  0.29106420226E+02  0.24932338546E+02  0.63733827626E+02  0.00000000000E+00 0.  1.
         11    1    1    2    0    0  0.35783217456E+02 -0.64049412929E+01  0.24073907486E+02  0.43600630112E+02  0.00000000000E+00 0. -1.
</event>
<event>
 7    1  0.2794945E-009  0.1257151E+03  0.7561462E-02  0.1233956E+00
          2   -1    0    0  501    0  0.00000000000E+00  0.00000000000E+00  0.22907895558E+03  0.22907895558E+03  0.00000000000E+00 0. -1.
         -2   -1    0    0    0  501 -0.00000000000E+00 -0.00000000000E+00 -0.91984203005E+02  0.91984203005E+02  0.00000000000E+00 0.  1.
         25    2    1    2    0    0  0.13705806940E+02  0.74173370547E+02  0.59938655373E+01  0.14618513445E+03  0.12507849163E+03 0.  0.
          5    1    3    3  502    0  0.17144702454E+02 -0.33007227187E+02  0.10173879094E+02  0.38786570931E+02  0.41800000000E+01 0.  1.
         -5    1    3    3    0  502 -0.34388955135E+01  0.10718059773E+03 -0.41800135563E+01  0.10739856352E+03  0.41800000000E+01 0.  1.
        -11    1    1    2    0    0 -0.29350100196E+02  0.15219598170E+01  0.71398603238E+02  0.77210784788E+02  0.00000000000E+00 0. -1.
         11    1    1    2    0    0  0.15644293256E+02 -0.75695330364E+02  0.59702283796E+02  0.97667239342E+02  0.00000000000E+00 0.  1.
</event>
<event>
 7    1  0.2794945E-009  0.1257881E+03  0.7561462E-02  0.1233843E+00
         -2   -1    0    0    0  501 -0.00000000000E+00  0.00000000000E+00  0.22022580741E+02  0.22022580741E+02  0.00000000000E+00 0.  1.
          2   -1    0    0  501    0  0.00000000000E+00 -0.00000000000E+00 -0.86825036932E+03  0.86825036932E+03  0.00000000000E+00 0. -1.
         25    2    1    2    0    0  0.77679273920E+02  0.56011060375E+00 -0.34796896289E+03  0.37784235897E+03  0.12509222908E+03 0.  0.
          5    1    3    3  502    0  0.10151977336E+03 -0.26850011448E+02 -0.29751150009E+03  0.31552773664E+03  0.41800000000E+01 0.  1.
         -5    1    3    3    0  502 -0.23840499444E+02  0.27410122052E+02 -0.50457462795E+02  0.62314622331E+02  0.41800000000E+01 0.  1.
        -11    1    1    2    0    0 -0.60684369935E+02 -0.36036910718E+02 -0.40670589556E+03  0.41278437128E+03  0.00000000000E+00 0.  1.
         11    1    1    2    0    0 -0.16994903986E+02  0.35476800114E+02 -0.91552930137E+02  0.99646219821E+02  0.00000000000E+00 0. -1.
</event>
<event>
 7    1  0.2794945E-009  0.1419657E+03  0.7561462E-02  0.1210708E+00
         -3   -1    0    0    0  501 -0.00000000000E+00  0.00000000000E+00  0.88570652015E+02  0.88570652015E+02  0.00000000000E+00 0.  1.
          3   -1    0    0  501    0  0.00000000000E+00 -0.00000000000E+00 -0.28842397450E+03  0.28842397450E+03  0.00000000000E+00 0. -1.
         25    2    1    2    0    0 -0.60263095279E+02 -0.97518997663E+02 -0.13233699642E+03  0.21518514187E+03  0.12509983653E+03 0.  0.
          5    1    3    3  502    0 -0.61073098690E+02 -0.12477254333E+03 -0.12429325353E+03  0.18645212851E+03  0.41800000000E+01 0. -1.
         -5    1    3    3    0  502  0.81000341090E+00  0.27253545667E+02 -0.80437428947E+01  0.28733013359E+02  0.41800000000E+01 0. -1.
        -11    1    1    2    0    0  0.31232445749E+02  0.72878100945E+02 -0.88098707396E+02  0.11852453548E+03  0.00000000000E+00 0. -1.
         11    1    1    2    0    0  0.29030649530E+02  0.24640896718E+02  0.20582381336E+02  0.43284949170E+02  0.00000000000E+00 0.  1.
</event>
<event>
 7    1  0.2794945E-009  0.2355896E+03  0.7561462E-02  0.1122766E+00
         -1   -1    0    0    0  501 -0.00000000000E+00  0.00000000000E+00  0.38422775780E+03  0.38422775780E+03  0.00000000000E+00 0.  1.
          1   -1    0    0  501    0  0.00000000000E+00 -0.00000000000E+00 -0.16713632129E+03  0.16713632129E+03  0.00000000000E+00 0. -1.
         25    2    1    2    0    0  0.19056653197E+03 -0.10718754260E+03  0.18507501421E+03  0.31257889388E+03  0.12509209255E+03 0.  0.
          5    1    3    3  502    0  0.17952261417E+03 -0.42140164849E+02  0.12157637179E+03  0.22091276348E+03  0.41800000000E+01 0.  1.
         -5    1    3    3    0  502  0.11043917801E+02 -0.65047377747E+02  0.63498642429E+02  0.91666130400E+02  0.41800000000E+01 0.  1.
        -11    1    1    2    0    0 -0.70426758004E+02  0.56223359193E+02 -0.29075536693E+02  0.94690977373E+02  0.00000000000E+00 0. -1.
         11    1    1    2    0    0 -0.12013977397E+03  0.50964183403E+02  0.61091958983E+02  0.14409420784E+03  0.00000000000E+00 0.  1.
</event>
<event>
 7    1  0.2794945E-009  0.8845031E+02  0.7561462E-02  0.1306648E+00
          2   -1    0    0  501    0  0.00000000000E+00  0.00000000000E+00  0.31840550429E+02  0.31840550429E+02  0.00000000000E+00 0. -1.
         -2   -1    0    0    0  501 -0.00000000000E+00 -0.00000000000E+00 -0.46887796971E+03  0.46887796971E+03  0.00000000000E+00 0.  1.
         25    2    1    2    0    0  0.28929458281E+02  0.44802349447E+02 -0.26695387355E+03  0.29959319567E+03  0.12509016036E+03 0.  0.
          5    1    3    3  502    0  0.50467341763E+02  0.34136371174E+02 -0.43907980907E+02  0.75217202879E+02  0.41800000000E+01 0. -1.
         -5    1    3    3    0  502 -0.21537883482E+02  0.10665978273E+02 -0.22304589264E+03  0.22437599280E+03  0.41800000000E+01 0. -1.
        -11    1    1    2    0    0  0.15073893264E+02 -0.44971481105E+02 -0.14001248556E+03  0.14782811804E+03  0.00000000000E+00 0.  1.
         11    1    1    2    0    0 -0.44003351545E+02  0.16913165774E+00 -0.30071060167E+02  0.53297206421E+02  0.00000000000E+00 0. -1.
</event>
<event>
 7    1  0.2794945E-009  0.1343377E+03  0.7561462E-02  0.1221158E+00
         -2   -1    0    0    0  501 -0.00000000000E+00  0.00000000000E+00  0.20323949386E+03  0.20323949386E+03  0.00000000000E+00 0.  1.
          2   -1    0    0  501    0  0.00000000000E+00 -0.00000000000E+00 -0.10870183537E+03  0.10870183537E+03  0.00000000000E+00 0. -1.
         25    2    1    2    0    0 -0.47355775407E+02 -0.90293053952E+02  0.58256119207E+02  0.17157392023E+03  0.12509368338E+03 0.  0.
          5    1    3    3  502    0 -0.75751321181E+02 -0.48947890092E+02 -0.53719305914E+01  0.90446053775E+02  0.41800000000E+01 0. -1.
         -5    1    3    3    0  502  0.28395545774E+02 -0.41345163860E+02  0.63628049799E+02  0.81127866456E+02  0.41800000000E+01 0. -1.
        -11    1    1    2    0    0  0.47792983287E+02  0.11361014133E+02 -0.81374991767E+01  0.49794184264E+02  0.00000000000E+00 0. -1.
         11    1    1    2    0    0 -0.43720788008E+00  0.78932039820E+02  0.44419038463E+02  0.90573224735E+02  0.00000000000E+00 0.  1.
</event>
<event>
 7    1  0.2794945E-009  0.1295123E+03  0.7561462E-02  0.1228181E+00
         -3   -1    0    0    0  501 -0.00000000000E+00  0.00000000000E+00  0.19821711925E+03  0.19821711925E+03  0.00000000000E+00 0.  1.
          3   -1    0    0  501    0  0.00000000000E+00 -0.00000000000E+00 -0.10216365116E+03  0.10216365116E+03  0.00000000000E+00 0. -1.
         25    2    1    2    0    0  0.22841939483E+02 -0.68570152970E+02  0.10887743227E+03  0.18090189877E+03  0.12509029396E+03 0.  0.
          5    1    3    3  502    0  0.60188043663E+02 -0.83609141529E+02  0.68873562565E+02  0.12399245609E+03  0.41800000000E+01 0.  1.
         -5    1    3    3    0  502 -0.37346104180E+02  0.15038988559E+02  0.40003869709E+02  0.56909442679E+02  0.41800000000E+01 0.  1.
        -11    1    1    2    0    0  0.19466313439E+02 -0.13100741973E+02  0.86825693516E+01  0.25019068921E+02  0.00000000000E+00 0.  1.
         11    1    1    2    0    0 -0.42308252921E+02  0.81670894942E+02 -0.21506533533E+02  0.94459802723E+02  0.00000000000E+00 0. -1.
</event>
<event>
 7    1  0.2794945E-009  0.1011714E+03  0.7561462E-02  0.1277852E+00
          3   -1    0    0  501    0  0.00000000000E+00  0.00000000000E+00  0.13473145902E+03  0.13473145902E+03  0.00000000000E+00 0. -1.
         -3   -1    0    0    0  501 -0.00000000000E+00 -0.00000000000E+00 -0.11197632750E+03  0.11197632750E+03  0.00000000000E+00 0.  1.
         25    2    1    2    0    0  0.21293699783E+02 -0.52939039577E+02  0.16692945511E+02  0.13850057811E+03  0.12509113535E+03 0.  0.
          5    1    3    3  502    0  0.36269432871E+02 -0.70457249151E+02  0.52904984476E+02  0.95373505237E+02  0.41800000000E+01 0.  1.
         -5    1    3    3    0  502 -0.14975733088E+02  0.17518209574E+02 -0.36212038965E+02  0.43127072869E+02  0.41800000000E+01 0.  1.
        -11    1    1    2    0    0 -0.52092591724E+02  0.24196243697E+02  0.24217145608E+02  0.62334312084E+02  0.00000000000E+00 0. -1.
         11    1    1    2    0    0  0.30798891941E+02  0.28742795880E+02 -0.18154959606E+02  0.45872896334E+02  0.00000000000E+00 0.  1.
</event>
<event>
 7    1  0.2794945E-009  0.2257734E+03  0.7561462E-02  0.1129651E+00
          1   -1    0    0  501    0  0.00000000000E+00  0.00000000000E+00  0.41878960451E+03  0.41878960451E+03  0.00000000000E+00 0. -1.
         -1   -1    0    0    0  501 -0.00000000000E+00 -0.00000000000E+00 -0.15236111237E+03  0.15236111237E+03  0.00000000000E+00 0.  1.
         25    2    1    2    0    0  0.12829221151E+03 -0.18509044615E+03  0.17462518236E+03  0.31122195010E+03  0.12509109930E+03 0.  0.
          5    1    3    3  502    0  0.50502290445E+02 -0.67148052979E+02  0.14372780651E+03  0.16653677408E+03  0.41800000000E+01 0.  1.
         -5    1    3    3    0  502  0.77789921066E+02 -0.11794239317E+03  0.30897375854E+02  0.14468517602E+03  0.41800000000E+01 0.  1.
        -11    1    1    2    0    0 -0.58152997415E+02  0.10128213512E+03 -0.63556322699E+00  0.11679146349E+03  0.00000000000E+00 0.  1.
         11    1    1    2    0    0 -0.70139214095E+02  0.83808311023E+02  0.92438873007E+02  0.14313730329E+03  0.00000000000E+00 0. -1.
</event>
<event>
 7    1  0.2794945E-009  0.1634866E+03  0.7561462E-02  0.1184816E+00
         -2   -1    0    0    0  501 -0.00000000000E+00  0.00000000000E+00  0.17541397523E+02  0.17541397523E+02  0.00000000000E+00 0. -1.
          2   -1    0    0  501    0  0.00000000000E+00 -0.00000000000E+00 -0.28714060831E+04  0.28714060831E+04  0.00000000000E+00 0.  1.
         25    2    1    2    0    0 -0.98838598786E+02 -0.76350062294E+02 -0.24393745579E+04  0.24457706935E+04  0.12509056924E+03 0.  0.
          5    1    3    3  502    0 -0.18938743917E+02 -0.92890749503E+02 -0.12570519750E+04  0.12606286161E+04  0.41800000000E+01 0.  1.
         -5    1    3    3    0  502 -0.79899854869E+02  0.16540687209E+02 -0.11823225829E+04  0.11851420774E+04  0.41800000000E+01 0.  1.
        -11    1    1    2    0    0  0.11050954525E+03  0.49476160604E+02 -0.37460746236E+03  0.39368896468E+03  0.00000000000E+00 0.  1.
         11    1    1    2    0    0 -0.11670946460E+02  0.26873901690E+02 -0.39882665321E+02  0.49487822507E+02  0.00000000000E+00 0. -1.
</event>
<event>
 7    1  0.2867101E-009  0.1418056E+03  0.7561462E-02  0.1210920E+00
         -1   -1    0    0    0  501 -0.00000000000E+00  0.00000000000E+00  0.27287053649E+03  0.27287053649E+03  0.00000000000E+00 0.  1.
          1   -1    0    0  501    0  0.00000000000E+00 -0.00000000000E+00 -0.97624814846E+02  0.97624814846E+02  0.00000000000E+00 0. -1.
         25    2    1    2    0    0 -0.10655203294E+03 -0.55437586426E+02  0.11697757150E+03  0.20918359886E+03  0.12508942436E+03 0.  0.
          5    1    3    3  502    0 -0.18952355428E+02  0.33311873603E+02  0.59219117283E+00  0.38557694298E+02  0.41800000000E+01 0. -1.
         -5    1    3    3    0  502 -0.87599677510E+02 -0.88749460028E+02  0.11638538033E+03  0.17062590457E+03  0.41800000000E+01 0. -1.
        -11    1    1    2    0    0  0.50094517675E+02  0.29735169217E+02  0.76961924766E+02  0.96523462708E+02  0.00000000000E+00 0.  1.
         11    1    1    2    0    0  0.56457515264E+02  0.25702417209E+02 -0.18693774625E+02  0.64788289759E+02  0.00000000000E+00 0. -1.
</event>
<event>
 7    1  0.2794945E-009  0.2274529E+03  0.7561462E-02  0.1128445E+00
         -1   -1    0    0    0  501 -0.00000000000E+00  0.00000000000E+00  0.31844193378E+03  0.31844193378E+03  0.00000000000E+00 0.  1.
          1   -1    0    0  501    0  0.00000000000E+00 -0.00000000000E+00 -0.19477324359E+03  0.19477324359E+03  0.00000000000E+00 0. -1.
         25    2    1    2    0    0  0.15316020729E+03  0.15764486473E+03  0.10512492711E+03  0.27387207009E+03  0.12507880716E+03 0.  0.
          5    1    3    3  502    0  0.69637820983E+02  0.54015984871E+02 -0.20743865600E+02  0.90636268087E+02  0.41800000000E+01 0.  1.
         -5    1    3    3    0  502  0.83522386307E+02  0.10362887986E+03  0.12586879271E+03  0.18323580200E+03  0.41800000000E+01 0.  1.
        -11    1    1    2    0    0 -0.67382651346E+02 -0.12447789111E+03  0.35256309722E+02  0.14587040294E+03  0.00000000000E+00 0. -1.
         11    1    1    2    0    0 -0.85777555944E+02 -0.33166973620E+02 -0.16712546643E+02  0.93472704348E+02  0.00000000000E+00 0.  1.
</event>
<event>
 7    1  0.2794945E-009  0.1173761E+03  0.7561462E-02  0.1247490E+00
          1   -1    0    0  501    0  0.00000000000E+00  0.00000000000E+00  0.53470603119E+02  0.53470603119E+02  0.00000000000E+00 0. -1.
         -1   -1    0    0    0  501 -0.00000000000E+00 -0.00000000000E+00 -0.46899618700E+03  0.46899618700E+03  0.00000000000E+00 0.  1.
         25    2    1    2    0    0  0.70679507749E+02  0.89214160468E+02 -0.24992608444E+03  0.30177623322E+03  0.12510430853E+03 0.  0.
          5    1    3    3  502    0  0.32273702005E+02  0.62980360077E+02 -0.30052415810E+02  0.76998296686E+02  0.41800000000E+01 0. -1.
         -5    1    3    3    0  502  0.38405805744E+02  0.26233800391E+02 -0.21987366863E+03  0.22477793653E+03  0.41800000000E+01 0. -1.
        -11    1    1    2    0    0 -0.20683576270E+02 -0.48360668328E+02 -0.14286548717E+03  0.15224031001E+03  0.00000000000E+00 0.  1.
         11    1    1    2    0    0 -0.49995931479E+02 -0.40853492139E+02 -0.22734012274E+02  0.68450246884E+02  0.00000000000E+00 0. -1.
</event>
<event>
 7    1  0.2794945E-009  0.2310635E+03  0.7561462E-02  0.1125893E+00
          2   -1    0    0  501    0  0.00000000000E+00  0.00000000000E+00  0.48271232643E+02  0.48271232643E+02  0.00000000000E+00 0. -1.
         -2   -1    0    0    0  501 -0.00000000000E+00 -0.00000000000E+00 -0.12611283057E+04  0.12611283057E+04  0.00000000000E+00 0.  1.
         25    2    1    2    0    0 -0.71051212234E+02  0.19837325900E+03 -0.80528033631E+03  0.84174054243E+03  0.12510194277E+03 0.  0.
          5    1    3    3  502    0  0.33964090832E+02  0.32513324217E+02 -0.12224402988E+03  0.13104102777E+03  0.41800000000E+01 0. -1.
         -5    1    3    3    0  502 -0.10501530307E+03  0.16585993478E+03 -0.68303630642E+03  0.71069951466E+03  0.41800000000E+01 0. -1.
        -11    1    1    2    0    0  0.99561414827E+01 -0.11380975053E+03 -0.28287143337E+03  0.30507053592E+03  0.00000000000E+00 0.  1.
         11    1    1    2    0    0  0.61095070751E+02 -0.84563508471E+02 -0.12470530342E+03  0.16258846003E+03  0.00000000000E+00 0. -1.
</event>
<event>
 7    1  0.3198347E-009  0.1511224E+03  0.7561462E-02  0.1199101E+00
         -2   -1    0    0    0  501 -0.00000000000E+00  0.00000000000E+00  0.19863069143E+02  0.19863069143E+02  0.00000000000E+00 0.  1.
          2   -1    0    0  501    0  0.00000000000E+00 -0.00000000000E+00 -0.18058131664E+04  0.18058131664E+04  0.00000000000E+00 0. -1.
         25    2    1    2    0    0 -0.71023490065E+02 -0.12740881314E+03 -0.11892997286E+04  0.12047229802E+04  0.12508506152E+03 0.  0.
          5    1    3    3  502    0 -0.47406900052E+02 -0.89259603490E+02 -0.35292328312E+03  0.36713350045E+03  0.41800000000E+01 0. -1.
         -5    1    3    3    0  502 -0.23616590013E+02 -0.38149209653E+02 -0.83637644551E+03  0.83758947972E+03  0.41800000000E+01 0. -1.
        -11    1    1    2    0    0  0.12124026908E+01  0.56530017073E+02 -0.10418508190E+03  0.11853963067E+03  0.00000000000E+00 0.  1.
         11    1    1    2    0    0  0.69811087374E+02  0.70878796070E+02 -0.49246528678E+03  0.50241362475E+03  0.00000000000E+00 0. -1.
</event>
<event>
 7    1  0.2794945E-009  0.1535438E+03  0.7561462E-02  0.1196185E+00
         -3   -1    0    0    0  501 -0.00000000000E+00  0.00000000000E+00  0.11472453848E+03  0.11472453848E+03  0.00000000000E+00 0.  1.
          3   -1    0    0  501    0  0.00000000000E+00 -0.00000000000E+00 -0.33728414170E+03  0.33728414170E+03  0.00000000000E+00 0. -1.
         25    2    1    2    0    0 -0.19103149030E+01 -0.14425587539E+03 -0.20451686631E+03  0.27979992547E+03  0.12508973899E+03 0.  0.
          5    1    3    3  502    0 -0.34972044056E+02 -0.10788879863E+03 -0.62723395599E+02  0.12967163719E+03  0.41800000000E+01 0. -1.
         -5    1    3    3    0  502  0.33061729153E+02 -0.36367076760E+02 -0.14179347071E+03  0.15012828828E+03  0.41800000000E+01 0. -1.
        -11    1    1    2    0    0  0.82957511069E+00  0.57069958832E+02  0.37990825192E+02  0.68563628803E+02  0.00000000000E+00 0.  1.
         11    1    1    2    0    0  0.10807397923E+01  0.87185916557E+02 -0.56033562102E+02  0.10364512592E+03  0.00000000000E+00 0. -1.
</event>
<event>
 7    1  0.2794945E-009  0.1398205E+03  0.7561462E-02  0.1213571E+00
          2   -1    0    0  501    0  0.00000000000E+00  0.00000000000E+00  0.49247843075E+03  0.49247843075E+03  0.00000000000E+00 0. -1.
         -2   -1    0    0    0  501 -0.00000000000E+00 -0.00000000000E+00 -0.51766872197E+02  0.51766872197E+02  0.00000000000E+00 0.  1.
         25    2    1    2    0    0 -0.88213724133E+02 -0.62044011076E+02  0.30753896276E+03  0.34908187600E+03  0.12508725794E+03 0.  0.
          5    1    3    3  502    0 -0.10466656254E+03 -0.43937587062E+02  0.14272822531E+03  0.18241277250E+03  0.41800000000E+01 0. -1.
         -5    1    3    3    0  502  0.16452838404E+02 -0.18106424013E+02  0.16481073745E+03  0.16666910350E+03  0.41800000000E+01 0. -1.
        -11    1    1    2    0    0 -0.85382866337E+01  0.41437102140E+02  0.27748126655E+02  0.50595398064E+02  0.00000000000E+00 0.  1.
         11    1    1    2    0    0  0.96752010767E+02  0.20606908936E+02  0.10542446914E+03  0.14456802889E+03  0.00000000000E+00 0. -1.
</event>
<event>
 7    1  0.2794945E-009  0.1979187E+03  0.7561462E-02  0.1151507E+00
         -2   -1    0    0    0  501 -0.00000000000E+00  0.00000000000E+00  0.35260558095E+03  0.35260558095E+03  0.00000000000E+00 0.  1.
          2   -1    0    0  501    0  0.00000000000E+00 -0.00000000000E+00 -0.18343795043E+03  0.18343795043E+03  0.00000000000E+00 0. -1.
         25    2    1    2    0    0 -0.14700806731E+03 -0.98904126081E+02  0.24059747618E+03  0.32393118584E+03  0.12510343562E+03 0.  0.
          5    1    3    3  502    0  0.22654341544E+02 -0.12486455406E+02  0.24280518526E+02  0.35723196096E+02  0.41800000000E+01 0.  1.
         -5    1    3    3    0  502 -0.16966240886E+03 -0.86417670675E+02  0.21631695765E+03  0.28820798974E+03  0.41800000000E+01 0.  1.
        -11    1    1    2    0    0  0.19476241660E+02  0.25331343165E+02 -0.55473481417E+02  0.64018029306E+02  0.00000000000E+00 0. -1.
         11    1    1    2    0    0  0.12753182565E+03  0.73572782916E+02 -0.15956364239E+02  0.14809431623E+03  0.00000000000E+00 0.  1.
</event>
<event>
 7    1  0.2794945E-009  0.1092186E+03  0.7561462E-02  0.1262024E+00
         -1   -1    0    0    0  501 -0.00000000000E+00  0.00000000000E+00  0.18692208359E+02  0.18692208359E+02  0.00000000000E+00 0. -1.
          1   -1    0    0  501    0  0.00000000000E+00 -0.00000000000E+00 -0.86801430533E+03  0.86801430533E+03  0.00000000000E+00 0.  1.
         25    2    1    2    0    0  0.45505956163E+02 -0.10358719833E+02 -0.63790845097E+03  0.65172980161E+03  0.12508576001E+03 0.  0.
          5    1    3    3  502    0  0.35417377997E+02 -0.65788586649E+02 -0.30395566839E+03  0.31303202639E+03  0.41800000000E+01 0.  1.
         -5    1    3    3    0  502  0.10088578166E+02  0.55429866816E+02 -0.33395278258E+03  0.33869777522E+03  0.41800000000E+01 0.  1.
        -11    1    1    2    0    0 -0.48045587653E+02  0.36816267346E+02 -0.19394478479E+03  0.20317085318E+03  0.00000000000E+00 0.  1.
         11    1    1    2    0    0  0.25396314900E+01 -0.26457547513E+02 -0.17468861206E+02  0.31805858899E+02  0.00000000000E+00 0. -1.
</event>
<event>
 7    1  0.2794945E-009  0.1043872E+03  0.7561462E-02  0.1271332E+00
          2   -1    0    0  501    0  0.00000000000E+00  0.00000000000E+00  0.24536149274E+03  0.24536149274E+03  0.00000000000E+00 0. -1.
         -2   -1    0    0    0  501 -0.00000000000E+00 -0.00000000000E+00 -0.58769984264E+02  0.58769984264E+02  0.00000000000E+00 0.  1.
         25    2    1    2    0    0  0.36873530694E+02 -0.34608211353E+02  0.10443035525E+03  0.17061798541E+03  0.12508961703E+03 0.  0.
          5    1    3    3  502    0 -0.27182009451E+02 -0.30207294503E+02  0.97733955725E+02  0.10592799810E+03  0.41800000000E+01 0. -1.
         -5    1    3    3    0  502  0.64055540145E+02 -0.44009168501E+01  0.66963995252E+01  0.64689987316E+02  0.41800000000E+01 0. -1.
        -11    1    1    2    0    0  0.42525463318E+01 -0.28192986608E+02  0.33781441763E+02  0.44205366775E+02  0.00000000000E+00 0. -1.
         11    1    1    2    0    0 -0.41126077025E+02  0.62801197961E+02  0.48379711462E+02  0.89308124815E+02  0.00000000000E+00 0.  1.
</event>
<event>
 7    1  0.2794945E-009  0.2133572E+03  0.7561462E-02  0.1138935E+00
         -2   -1    0    0    0  501 -0.00000000000E+00  0.00000000000E+00  0.35468855009E+02  0.35468855009E+02  0.00000000000E+00 0. -1.
          2   -1    0    0  501    0  0.00000000000E+00 -0.00000000000E+00 -0.14792910444E+04  0.14792910444E+04  0.00000000000E+00 0.  1.
         25    2    1    2    0    0  0.69590912424E+02  0.18807019865E+03 -0.74327992450E+03  0.77995215432E+03  0.12508805757E+03 0.  0.
          5    1    3    3  502    0  0.96669098690E+02  0.14560421896E+03 -0.45802288653E+03  0.49025293492E+03  0.41800000000E+01 0. -1.
         -5    1    3    3    0  502 -0.27078186267E+02  0.42465979684E+02 -0.28525703798E+03  0.28969921939E+03  0.41800000000E+01 0. -1.
        -11    1    1    2    0    0 -0.50990507637E+02 -0.11230167826E+03 -0.56599355855E+03  0.57927576086E+03  0.00000000000E+00 0.  1.
         11    1    1    2    0    0 -0.18600404787E+02 -0.75768520389E+02 -0.13454870637E+03  0.15553198426E+03  0.00000000000E+00 0. -1.
</event>
<event>
 7    1  0.2794945E-009  0.9187288E+02  0.7561462E-02  0.1298379E+00
          2   -1    0    0  501    0  0.00000000000E+00  0.00000000000E+00  0.19358785401E+03  0.19358785401E+03  0.00000000000E+00 0. -1.
         -2   -1    0    0    0  501 -0.00000000000E+00 -0.00000000000E+00 -0.61509974119E+02  0.61509974119E+02  0.00000000000E+00 0.  1.
         25    2    1    2    0    0  0.35866807974E+01  0.14248330299E+02  0.71436086561E+02  0.14480015489E+03  0.12509233069E+03 0.  0.
          5    1    3    3  502    0 -0.37761457628E+02 -0.18476724169E+02  0.80708395677E+02  0.91096841608E+02  0.41800000000E+01 0.  1.
         -5    1    3    3    0  502  0.41348138425E+02  0.32725054467E+02 -0.92723091160E+01  0.53703313282E+02  0.41800000000E+01 0.  1.
        -11    1    1    2    0    0  0.15605168875E+02 -0.47616570649E+02  0.19000339291E+02  0.53589849684E+02  0.00000000000E+00 0.  1.
         11    1    1    2    0    0 -0.19191849672E+02  0.33368240350E+02  0.41641454036E+02  0.56707823553E+02  0.00000000000E+00 0. -1.
</event>
<event>
 7    1  0.4314131E-009  0.1328078E+03  0.7561462E-02  0.1223348E+00
         -4   -1    0    0    0  501 -0.00000000000E+00  0.00000000000E+00  0.10252760108E+03  0.10252760108E+03  0.00000000000E+00 0.  1.
          4   -1    0    0  501    0  0.00000000000E+00 -0.00000000000E+00 -0.25284776029E+03  0.25284776029E+03  0.00000000000E+00 0. -1.
         25    2    1    2    0    0  0.48970004026E+02 -0.86895197963E+02 -0.98304981999E+01  0.16029343434E+03  0.12509400334E+03 0.  0.
          5    1    3    3  502    0  0.70571332764E+02 -0.16689628399E+02 -0.37429473094E+02  0.81714714466E+02  0.41800000000E+01 0.  1.
         -5    1    3    3    0  502 -0.21601328738E+02 -0.70205569564E+02  0.27598974894E+02  0.78578719869E+02  0.41800000000E+01 0.  1.
        -11    1    1    2    0    0  0.12682277956E+02  0.39947155301E+02 -0.96388176163E+01  0.43006071616E+02  0.00000000000E+00 0.  1.
         11    1    1    2    0    0 -0.61652281981E+02  0.46948042662E+02 -0.13085084339E+03  0.15207585541E+03  0.00000000000E+00 0. -1.
</event>
<event>
 7    1  0.2794945E-009  0.1073717E+03  0.7561462E-02  0.1265516E+00
          2   -1    0    0  501    0  0.00000000000E+00  0.00000000000E+00  0.63833787951E+02  0.63833787951E+02  0.00000000000E+00 0. -1.
         -2   -1    0    0    0  501 -0.00000000000E+00 -0.00000000000E+00 -0.21959802876E+03  0.21959802876E+03  0.00000000000E+00 0.  1.
         25    2    1    2    0    0  0.46348998810E+02 -0.35069220197E+01 -0.83066562135E+02  0.15718804614E+03  0.12508996727E+03 0.  0.
          5    1    3    3  502    0 -0.11444293426E+02 -0.42846253348E+02 -0.74266008911E+02  0.86600726079E+02  0.41800000000E+01 0. -1.
         -5    1    3    3    0  502  0.57793292236E+02  0.39339331328E+02 -0.88005532245E+01  0.70587320064E+02  0.41800000000E+01 0. -1.
        -11    1    1    2    0    0 -0.20954178615E+02  0.46062785749E+02 -0.21478037910E+02  0.54974211634E+02  0.00000000000E+00 0. -1.
         11    1    1    2    0    0 -0.25394820195E+02 -0.42555863729E+02 -0.51219640761E+02  0.71269558931E+02  0.00000000000E+00 0.  1.
</event>
<event>
 7    1  0.2794945E-009  0.1394035E+03  0.7561462E-02  0.1214134E+00
         -3   -1    0    0    0  501 -0.00000000000E+00  0.00000000000E+00  0.44189559821E+03  0.44189559821E+03  0.00000000000E+00 0.  1.
          3   -1    0    0  501    0  0.00000000000E+00 -0.00000000000E+00 -0.66604441617E+02  0.66604441617E+02  0.00000000000E+00 0. -1.
         25    2    1    2    0    0 -0.11662890918E+03 -0.47210499531E+02  0.14023158646E+03  0.22614780633E+03  0.12508716459E+03 0.  0.
          5    1    3    3  502    0 -0.91246057621E+02 -0.61042391490E+02  0.32559447341E+02  0.11458449547E+03  0.41800000000E+01 0.  1.
         -5    1    3    3    0  502 -0.25382851562E+02  0.13831891958E+02  0.10767213912E+03  0.11156331087E+03  0.41800000000E+01 0.  1.
        -11    1    1    2    0    0  0.31428670294E+02  0.44519591513E+02  0.15910690562E+03  0.16818074433E+03  0.00000000000E+00 0.  1.
         11    1    1    2    0    0  0.85200238890E+02  0.26909080180E+01  0.75952664506E+02  0.11417148917E+03  0.00000000000E+00 0. -1.
</event>
<event>
 7    1  0.2794945E-009  0.1609562E+03  0.7561462E-02  0.1187621E+00
          1   -1    0    0  501    0  0.00000000000E+00  0.00000000000E+00  0.11951584393E+04  0.11951584393E+04  0.00000000000E+00 0. -1.
         -1   -1    0    0    0  501 -0.00000000000E+00 -0.00000000000E+00 -0.28842164565E+02  0.28842164565E+02  0.00000000000E+00 0.  1.
         25    2    1    2    0    0  0.87329738063E+02 -0.98291995515E+02  0.37571825654E+03  0.41725090747E+03  0.12508521880E+03 0.  0.
          5    1    3    3  502    0  0.83907368228E+02 -0.24454674213E+02  0.29508716525E+03  0.30778626517E+03  0.41800000000E+01 0.  1.
         -5    1    3    3    0  502  0.34223698350E+01 -0.73837321302E+02  0.80631091283E+02  0.10946464230E+03  0.41800000000E+01 0.  1.
        -11    1    1    2    0    0 -0.72877116308E+02  0.13192707980E+02  0.38733669330E+03  0.39435369353E+03  0.00000000000E+00 0.  1.
         11    1    1    2    0    0 -0.14452621754E+02  0.85099287535E+02  0.40326132491E+03  0.41239600287E+03  0.00000000000E+00 0. -1.
</event>
<event>
 7    1  0.2794945E-009  0.1822903E+03  0.7561462E-02  0.1165605E+00
          2   -1    0    0  501    0  0.00000000000E+00  0.00000000000E+00  0.51908232258E+03  0.51908232258E+03  0.00000000000E+00 0. -1.
         -2   -1    0    0    0  501 -0.00000000000E+00 -0.00000000000E+00 -0.83498306249E+02  0.83498306249E+02  0.00000000000E+00 0.  1.
         25    2    1    2    0    0 -0.14520368136E+03 -0.90964164462E+02  0.16723277506E+03  0.27013552559E+03  0.12509121805E+03 0.  0.
          5    1    3    3  502    0 -0.73465436370E+02 -0.23074335665E+02  0.15154847982E+03  0.17004119925E+03  0.41800000000E+01 0.  1.
         -5    1    3    3    0  502 -0.71738244987E+02 -0.67889828797E+02  0.15684295247E+02  0.10009432634E+03  0.41800000000E+01 0.  1.
        -11    1    1    2    0    0  0.12785510322E+03  0.38770525675E+02  0.22788208812E+03  0.26415966226E+03  0.00000000000E+00 0.  1.
         11    1    1    2    0    0  0.17348578133E+02  0.52193638787E+02  0.40469153151E+02  0.68285440981E+02  0.00000000000E+00 0. -1.
</event>
<event>
 7    1  0.2794945E-009  0.1072853E+03  0.7561462E-02  0.1265681E+00
         -1   -1    0    0    0  501 -0.00000000000E+00  0.00000000000E+00  0.33652513728E+02  0.33652513728E+02  0.00000000000E+00 0.  1.
          1   -1    0    0  501    0  0.00000000000E+00 -0.00000000000E+00 -0.54069575982E+03  0.54069575982E+03  0.00000000000E+00 0. -1.
         25    2    1    2    0    0  0.10894798573E+02  0.72291696103E+02 -0.21053525058E+03  0.25556894079E+03  0.12508239603E+03 0.  0.
          5    1    3    3  502    0  0.21704214747E+02 -0.36620495195E+01 -0.16446153544E+03  0.16598057894E+03  0.41800000000E+01 0. -1.
         -5    1    3    3    0  502 -0.10809416174E+02  0.75953745623E+02 -0.46073715138E+02  0.89588361849E+02  0.41800000000E+01 0. -1.
        -11    1    1    2    0    0  0.69464808013E+01  0.20083596160E+02 -0.36017874798E+02  0.41819752931E+02  0.00000000000E+00 0.  1.
         11    1    1    2    0    0 -0.17841279375E+02 -0.92375292264E+02 -0.26049012071E+03  0.27695957983E+03  0.00000000000E+00 0. -1.
</event>
<event>
 7    1  0.2794945E-009  0.1981882E+03  0.7561462E-02  0.1151277E+00
         -2   -1    0    0    0  501 -0.00000000000E+00  0.00000000000E+00  0.89517027404E+02  0.89517027404E+02  0.00000000000E+00 0.  1.
          2   -1    0    0  501    0  0.00000000000E+00 -0.00000000000E+00 -0.50611007715E+03  0.50611007715E+03  0.00000000000E+00 0. -1.
         25    2    1    2    0    0  0.17689456052E+03 -0.17147474753E+02 -0.15116433384E+03  0.26473387837E+03  0.12509056359E+03 0.  0.
          5    1    3    3  502    0  0.16626829640E+03 -0.53430802042E+02 -0.10103135528E+03  0.20180387545E+03  0.41800000000E+01 0.  1.
         -5    1    3    3    0  502  0.10626264113E+02  0.36283327289E+02 -0.50132978559E+02  0.62930002918E+02  0.41800000000E+01 0.  1.
        -11    1    1    2    0    0 -0.75644803747E+02  0.30415772702E+02 -0.18056075855E+03  0.19811472204E+03  0.00000000000E+00 0.  1.
         11    1    1    2    0    0 -0.10124975677E+03 -0.13268297950E+02 -0.84867957361E+02  0.13277850415E+03  0.00000000000E+00 0. -1.
</event>
<event>
 7    1  0.2794945E-009  0.1541074E+03  0.7561462E-02  0.1195515E+00
          2   -1    0    0  501    0  0.00000000000E+00  0.00000000000E+00  0.32662111426E+03  0.32662111426E+03  0.00000000000E+00 0. -1.
         -2   -1    0    0    0  501 -0.00000000000E+00 -0.00000000000E+00 -0.13298321807E+03  0.13298321807E+03  0.00000000000E+00 0.  1.
         25    2    1    2    0    0  0.10035448970E+03  0.11537867596E+03  0.19840190566E+03  0.27998994280E+03  0.12509112452E+03 0.  0.
          5    1    3    3  502    0  0.76131367394E+02  0.10166150000E+03  0.63268354039E+02  0.14195563640E+03  0.41800000000E+01 0. -1.
         -5    1    3    3    0  502  0.24223122301E+02  0.13717175962E+02  0.13513355162E+03  0.13803430640E+03  0.41800000000E+01 0. -1.
        -11    1    1    2    0    0 -0.12225765223E+02 -0.16501879571E+02 -0.37877310723E+02  0.43086796495E+02  0.00000000000E+00 0.  1.
         11    1    1    2    0    0 -0.88128724473E+02 -0.98876796388E+02  0.33113301252E+02  0.13652759304E+03  0.00000000000E+00 0. -1.
</event>
<event>
 7    1  0.2794945E-009  0.1200254E+03  0.7561462E-02  0.1243055E+00
          1   -1    0    0  501    0  0.00000000000E+00  0.00000000000E+00  0.14221782501E+03  0.14221782501E+03  0.00000000000E+00 0. -1.
         -1   -1    0    0    0  501 -0.00000000000E+00 -0.00000000000E+00 -0.13615027759E+03  0.13615027759E+03  0.00000000000E+00 0.  1.
         25    2    1    2    0    0 -0.69160048493E+02 -0.53674986744E+02  0.11442667771E+02  0.15310579596E+03  0.12508530530E+03 0.  0.
          5    1    3    3  502    0 -0.12990559900E+02 -0.63341272249E+02 -0.40056627447E+02  0.76176618585E+02  0.41800000000E+01 0. -1.
         -5    1    3    3    0  502 -0.56169488593E+02  0.96662855053E+01  0.51499295217E+02  0.76929177379E+02  0.41800000000E+01 0. -1.
        -11    1    1    2    0    0  0.17135150360E+02 -0.20995942668E+02 -0.19197511144E+02  0.33211254426E+02  0.00000000000E+00 0.  1.
         11    1    1    2    0    0  0.52024898133E+02  0.74670929412E+02  0.13822390791E+02  0.92051052205E+02  0.00000000000E+00 0. -1.
</event>
<event>
 7    1  0.2794945E-009  0.2882776E+03  0.7561462E-02  0.1091252E+00
          2   -1    0    0  501    0  0.00000000000E+00  0.00000000000E+00  0.18451957879E+04  0.18451957879E+04  0.00000000000E+00 0. -1.
         -2   -1    0    0    0  501 -0.00000000000E+00 -0.00000000000E+00 -0.45779356369E+02  0.45779356369E+02  0.00000000000E+00 0.  1.
         25    2    1    2    0    0 -0.22664136810E+03  0.14122591327E+03  0.10376842749E+04  0.10787708211E+04  0.12508701728E+03 0.  0.
          5    1    3    3  502    0 -0.13645955657E+02 -0.22134607155E+02  0.10050840004E+03  0.10390170267E+03  0.41800000000E+01 0. -1.
         -5    1    3    3    0  502 -0.21299541244E+03  0.16336052042E+03  0.93717587483E+03  0.97486911845E+03  0.41800000000E+01 0. -1.
        -11    1    1    2    0    0  0.14234410834E+03 -0.35805876390E+02  0.38636760744E+03  0.41330840064E+03  0.00000000000E+00 0.  1.
         11    1    1    2    0    0  0.84297259758E+02 -0.10542003688E+03  0.37536454927E+03  0.39889592255E+03  0.00000000000E+00 0. -1.
</event>
<event>
 7    1  0.2794945E-009  0.1632274E+03  0.7561462E-02  0.1185100E+00
         -2   -1    0    0    0  501 -0.00000000000E+00  0.00000000000E+00  0.18987024477E+02  0.18987024477E+02  0.00000000000E+00 0.  1.
          2   -1    0    0  501    0  0.00000000000E+00 -0.00000000000E+00 -0.30061365356E+04  0.30061365356E+04  0.00000000000E+00 0. -1.
         25    2    1    2    0    0 -0.12270809389E+03 -0.74066033163E+02 -0.25347484455E+04  0.25418774553E+04  0.12509301429E+03 0.  0.
          5    1    3    3  502    0 -0.11447280884E+03 -0.67144774130E+01 -0.12238277994E+04  0.12291952909E+04  0.41800000000E+01 0.  1.
         -5    1    3    3    0  502 -0.82352850567E+01 -0.67351555750E+02 -0.13109206461E+04  0.13126821644E+04  0.41800000000E+01 0.  1.
        -11    1    1    2    0    0  0.10164069212E+03  0.65888216671E+02 -0.44213048860E+03  0.45842279213E+03  0.00000000000E+00 0. -1.
         11    1    1    2    0    0  0.21067401774E+02  0.81778164914E+01 -0.10270577074E+02  0.24823312702E+02  0.00000000000E+00 0.  1.
</event>
<event>
 7    1  0.2794945E-009  0.1000595E+03  0.7561462E-02  0.1280171E+00
          1   -1    0    0  501    0  0.00000000000E+00  0.00000000000E+00  0.10086997219E+04  0.10086997219E+04  0.00000000000E+00 0. -1.
         -1   -1    0    0    0  501 -0.00000000000E+00 -0.00000000000E+00 -0.17041144973E+02  0.17041144973E+02  0.00000000000E+00 0.  1.
         25    2    1    2    0    0 -0.26311628801E+02 -0.54220243970E+02  0.76630003944E+03  0.77878068758E+03  0.12510584414E+03 0.  0.
          5    1    3    3  502    0 -0.23449214863E+02  0.20475461490E+02  0.52942325869E+03  0.53035419245E+03  0.41800000000E+01 0.  1.
         -5    1    3    3    0  502 -0.28624139386E+01 -0.74695705460E+02  0.23687678075E+03  0.24842649513E+03  0.41800000000E+01 0.  1.
        -11    1    1    2    0    0  0.47505411792E+02  0.15979973449E+02  0.73719714750E+02  0.89144377522E+02  0.00000000000E+00 0.  1.
         11    1    1    2    0    0 -0.21193782990E+02  0.38240270520E+02  0.15163882272E+03  0.15781580176E+03  0.00000000000E+00 0. -1.
</event>
<event>
 7    1  0.2794945E-009  0.1154782E+03  0.7561462E-02  0.1250749E+00
         -1   -1    0    0    0  501 -0.00000000000E+00  0.00000000000E+00  0.22208832672E+02  0.22208832672E+02  0.00000000000E+00 0.  1.
          1   -1    0    0  501    0  0.00000000000E+00 -0.00000000000E+00 -0.64911283086E+03  0.64911283086E+03  0.00000000000E+00 0. -1.
         25    2    1    2    0    0  0.34999426660E+02  0.35879447141E+02 -0.30131438495E+03  0.33007601557E+03  0.12509005909E+03 0.  0.
          5    1    3    3  502    0  0.55835653319E+02  0.69402620409E+02 -0.15865453322E+03  0.18199746485E+03  0.41800000000E+01 0.  1.
         -5    1    3    3    0  502 -0.20836226659E+02 -0.33523173267E+02 -0.14265985173E+03  0.14807855072E+03  0.41800000000E+01 0.  1.
        -11    1    1    2    0    0 -0.47449898735E+02 -0.59071558568E+02 -0.23543893978E+03  0.24733062140E+03  0.00000000000E+00 0.  1.
         11    1    1    2    0    0  0.12450472075E+02  0.23192111427E+02 -0.90150673458E+02  0.93915026552E+02  0.00000000000E+00 0. -1.
</event>
<event>
 7    1  0.2794945E-009  0.1191048E+03  0.7561462E-02  0.1244581E+00
          1   -1    0    0  501    0  0.00000000000E+00  0.00000000000E+00  0.19873564089E+03  0.19873564089E+03  0.00000000000E+00 0. -1.
         -1   -1    0    0    0  501 -0.00000000000E+00 -0.00000000000E+00 -0.86192254404E+02  0.86192254404E+02  0.00000000000E+00 0.  1.
         25    2    1    2    0    0  0.32147820650E+02 -0.63800054425E+02  0.44572043457E+02  0.15079118609E+03  0.12508950966E+03 0.  0.
          5    1    3    3  502    0  0.42935545140E+01 -0.88870050301E+02  0.62725490325E+02  0.10894163569E+03  0.41800000000E+01 0. -1.
         -5    1    3    3    0  502  0.27854266136E+02  0.25069995875E+02 -0.18153446868E+02  0.41849550396E+02  0.41800000000E+01 0. -1.
        -11    1    1    2    0    0  0.76990486011E+01 -0.18474459393E+02  0.27869670449E+02  0.34311798702E+02  0.00000000000E+00 0.  1.
         11    1    1    2    0    0 -0.39846869251E+02  0.82274513818E+02  0.40101672580E+02  0.99824910503E+02  0.00000000000E+00 0. -1.
</event>
<event>
 7    1  0.2794945E-009  0.1089619E+03  0.7561462E-02  0.1262505E+00
          2   -1    0    0  501    0  0.00000000000E+00  0.00000000000E+00  0.35060803407E+03  0.35060803407E+03  0.00000000000E+00 0. -1.
         -2   -1    0    0    0  501 -0.00000000000E+00 -0.00000000000E+00 -0.38149343672E+02  0.38149343672E+02  0.00000000000E+00 0.  1.
         25    2    1    2    0    0 -0.14014464049E+02 -0.29601462895E+02  0.22778051230E+03  0.26192331742E+03  0.12508881092E+03 0.  0.
          5    1    3    3  502    0  0.52805894729E+02  0.60748375894E+00  0.69117411358E+02  0.87083411208E+02  0.41800000000E+01 0. -1.
         -5    1    3    3    0  502 -0.66820358778E+02 -0.30208946654E+02  0.15866310094E+03  0.17483990622E+03  0.41800000000E+01 0. -1.
        -11    1    1    2    0    0 -0.35878547969E+02  0.62804616285E+01  0.18873053126E+02  0.41023243861E+02  0.00000000000E+00 0.  1.
         11    1    1    2    0    0  0.49893012018E+02  0.23321001267E+02  0.65805124974E+02  0.85810816458E+02  0.00000000000E+00 0. -1.
</event>
<event>
 7    1  0.2794945E-009  0.1139398E+03  0.7561462E-02  0.1253443E+00
         -1   -1    0    0    0  501 -0.00000000000E+00  0.00000000000E+00  0.23547339890E+03  0.23547339890E+03  0.00000000000E+00 0.  1.
          1   -1    0    0  501    0  0.00000000000E+00 -0.00000000000E+00 -0.61499644866E+02  0.61499644866E+02  0.00000000000E+00 0. -1.
         25    2    1    2    0    0 -0.21806649904E+02 -0.42465364838E+02  0.12952150455E+03  0.18628742929E+03  0.12509336105E+03 0.  0.
          5    1    3    3  502    0  0.42817410457E+02 -0.50898991795E+02  0.49593876077E+02  0.83072636580E+02  0.41800000000E+01 0. -1.
         -5    1    3    3    0  502 -0.64624060361E+02  0.84336269571E+01  0.79927628469E+02  0.10321479271E+03  0.41800000000E+01 0. -1.
        -11    1    1    2    0    0  0.51134643886E+02  0.98644205411E+01  0.61084790327E+01  0.52434455409E+02  0.00000000000E+00 0. -1.
         11    1    1    2    0    0 -0.29327993981E+02  0.32600944297E+02  0.38343770452E+02  0.58251159065E+02  0.00000000000E+00 0.  1.
</event>
<event>
 7    1  0.2794945E-009  0.1508633E+03  0.7561462E-02  0.1199416E+00
         -3   -1    0    0    0  501 -0.00000000000E+00  0.00000000000E+00  0.17894681251E+02  0.17894681251E+02  0.00000000000E+00 0. -1.
          3   -1    0    0  501    0  0.00000000000E+00 -0.00000000000E+00 -0.16995606410E+04  0.16995606410E+04  0.00000000000E+00 0.  1.
         25    2    1    2    0    0  0.70939453818E+02 -0.10239812295E+03 -0.11920729928E+04  0.12050740239E+04  0.12509037162E+03 0.  0.
          5    1    3    3  502    0 -0.29059940022E+02 -0.53392677763E+02 -0.55420267613E+03  0.55754222870E+03  0.41800000000E+01 0. -1.
         -5    1    3    3    0  502  0.99999393840E+02 -0.49005445191E+02 -0.63787031671E+03  0.64753179518E+03  0.41800000000E+01 0. -1.
        -11    1    1    2    0    0 -0.63376656477E+02  0.63454381300E+02 -0.43911537592E+03  0.44818006700E+03  0.00000000000E+00 0.  1.
         11    1    1    2    0    0 -0.75627973412E+01  0.38943741654E+02 -0.50477591010E+02  0.64201231389E+02  0.00000000000E+00 0. -1.
</event>
<event>
 7    1  0.2794945E-009  0.1010551E+03  0.7561462E-02  0.1278093E+00
         -1   -1    0    0    0  501 -0.00000000000E+00  0.00000000000E+00  0.87920324689E+02  0.87920324689E+02  0.00000000000E+00 0.  1.
          1   -1    0    0  501    0  0.00000000000E+00 -0.00000000000E+00 -0.26349296367E+03  0.26349296367E+03  0.00000000000E+00 0. -1.
         25    2    1    2    0    0  0.58119553564E+02  0.16027728272E+02  0.80517481382E+01  0.13909411358E+03  0.12509025224E+03 0.  0.
          5    1    3    3  502    0  0.73509603019E+02  0.25395053464E+02 -0.40035883276E+02  0.87572340531E+02  0.41800000000E+01 0.  1.
         -5    1    3    3    0  502 -0.15390049455E+02 -0.93673251921E+01  0.48087631414E+02  0.51521773053E+02  0.41800000000E+01 0.  1.
        -11    1    1    2    0    0  0.10407370011E+02  0.24147426552E+02 -0.58077109842E+02  0.63752350915E+02  0.00000000000E+00 0.  1.
         11    1    1    2    0    0 -0.68526923575E+02 -0.40175154824E+02 -0.12554727728E+03  0.14856682386E+03  0.00000000000E+00 0. -1.
</event>
<event>
 7    1  0.2794945E-009  0.7605396E+02  0.7561462E-02  0.1340638E+00
          3   -1    0    0  501    0  0.00000000000E+00  0.00000000000E+00  0.11058683641E+03  0.11058683641E+03  0.00000000000E+00 0. -1.
         -3   -1    0    0    0  501 -0.00000000000E+00 -0.00000000000E+00 -0.15568104545E+03  0.15568104545E+03  0.00000000000E+00 0.  1.
         25    2    1    2    0    0 -0.17306174509E+02  0.14691779125E+02  0.45555421904E+02  0.13504861363E+03  0.12508988579E+03 0.  0.
          5    1    3    3  502    0 -0.49031205871E+01 -0.21250571698E+02  0.80336308836E+02  0.83348799070E+02  0.41800000000E+01 0. -1.
         -5    1    3    3    0  502 -0.12403053922E+02  0.35942350823E+02 -0.34780886932E+02  0.51699814555E+02  0.41800000000E+01 0. -1.
        -11    1    1    2    0    0 -0.12933271490E+02 -0.46201925276E+02 -0.30371909238E+02  0.56783274663E+02  0.00000000000E+00 0. -1.
         11    1    1    2    0    0  0.30239445999E+02  0.31510146151E+02 -0.60277721704E+02  0.74435993569E+02  0.00000000000E+00 0.  1.
</event>
<event>
 7    1  0.2794945E-009  0.1299732E+03  0.7561462E-02  0.1227496E+00
         -2   -1    0    0    0  501 -0.00000000000E+00  0.00000000000E+00  0.26827118022E+03  0.26827118022E+03  0.00000000000E+00 0. -1.
          2   -1    0    0  501    0  0.00000000000E+00 -0.00000000000E+00 -0.66336530284E+02  0.66336530284E+02  0.00000000000E+00 0.  1.
         25    2    1    2    0    0 -0.61402385404E+02 -0.38771228434E+02  0.14502684324E+03  0.20482583078E+03  0.12508946641E+03 0.  0.
          5    1    3    3  502    0  0.28866529933E+02  0.20508689048E+02  0.26507294501E+02  0.44429629062E+02  0.41800000000E+01 0.  1.
         -5    1    3    3    0  502 -0.90268915337E+02 -0.59279917482E+02  0.11851954873E+03  0.16039620172E+03  0.41800000000E+01 0.  1.
        -11    1    1    2    0    0  0.44504738499E+02 -0.24447790654E+02  0.19407431545E+02  0.54360046137E+02  0.00000000000E+00 0. -1.
         11    1    1    2    0    0  0.16897646904E+02  0.63219019089E+02  0.37500375158E+02  0.75421833592E+02  0.00000000000E+00 0.  1.
</event>
<event>
 7    1  0.2794945E-009  0.1341554E+03  0.7561462E-02  0.1221417E+00
          1   -1    0    0  501    0  0.00000000000E+00  0.00000000000E+00  0.14654692608E+03  0.14654692608E+03  0.00000000000E+00 0. -1.
         -1   -1    0    0    0  501 -0.00000000000E+00 -0.00000000000E+00 -0.16574532567E+03  0.16574532567E+03  0.00000000000E+00 0.  1.
         25    2    1    2    0    0  0.48405553350E+02 -0.97079582822E+02  0.18167157056E+02  0.16656885835E+03  0.12509035127E+03 0.  0.
          5    1    3    3  502    0 -0.79837247167E+01 -0.84502818938E+02 -0.31131457617E+02  0.90504730939E+02  0.41800000000E+01 0. -1.
         -5    1    3    3    0  502  0.56389278067E+02 -0.12576763883E+02  0.49298614674E+02  0.76064127415E+02  0.41800000000E+01 0. -1.
        -11    1    1    2    0    0 -0.63551178411E+02  0.71368907877E+02 -0.55787483471E+02  0.11065494386E+03  0.00000000000E+00 0.  1.
         11    1    1    2    0    0  0.15145625061E+02  0.25710674944E+02  0.18421926822E+02  0.35068449530E+02  0.00000000000E+00 0. -1.
</event>
<event>
 7    1  0.2794945E-009  0.7146462E+02  0.7561462E-02  0.1355182E+00
         -3   -1    0    0    0  501 -0.00000000000E+00  0.00000000000E+00  0.10891830997E+03  0.10891830997E+03  0.00000000000E+00 0.  1.
          3   -1    0    0  501    0  0.00000000000E+00 -0.00000000000E+00 -0.13257693591E+03  0.13257693591E+03  0.00000000000E+00 0. -1.
         25    2    1    2    0    0  0.29841146548E+02 -0.40425283842E+02 -0.29139037990E+02  0.13792085543E+03  0.12509348994E+03 0.  0.
          5    1    3    3  502    0  0.35322040248E+02 -0.58574750940E+02  0.30641534865E+02  0.75066797146E+02  0.41800000000E+01 0. -1.
         -5    1    3    3    0  502 -0.54808937000E+01  0.18149467098E+02 -0.59780572854E+02  0.62854058282E+02  0.41800000000E+01 0. -1.
        -11    1    1    2    0    0 -0.15353538441E+02  0.41188419391E+01  0.45158810376E+02  0.47874984660E+02  0.00000000000E+00 0.  1.
         11    1    1    2    0    0 -0.14487608106E+02  0.36306441903E+02 -0.39678398321E+02  0.55699405793E+02  0.00000000000E+00 0. -1.
</event>
<event>
 7    1  0.2794945E-009  0.1143108E+03  0.7561462E-02  0.1252789E+00
         -2   -1    0    0    0  501 -0.00000000000E+00  0.00000000000E+00  0.71375071844E+02  0.71375071844E+02  0.00000000000E+00 0.  1.
          2   -1    0    0  501    0  0.00000000000E+00 -0.00000000000E+00 -0.22944271774E+03  0.22944271774E+03  0.00000000000E+00 0. -1.
         25    2    1    2    0    0  0.11848769364E+02 -0.28473625141E+02 -0.28335274631E+02  0.13191232486E+03  0.12508730151E+03 0.  0.
          5    1    3    3  502    0 -0.48065481304E+02  0.16413835965E+02 -0.25234142829E+02  0.56867731345E+02  0.41800000000E+01 0. -1.
         -5    1    3    3    0  502  0.59914250668E+02 -0.44887461106E+02 -0.31011318021E+01  0.75044593517E+02  0.41800000000E+01 0. -1.
        -11    1    1    2    0    0  0.20911667710E+02 -0.29457818862E+02 -0.22071007975E+02  0.42334268997E+02  0.00000000000E+00 0.  1.
         11    1    1    2    0    0 -0.32760437074E+02  0.57931444003E+02 -0.10766136329E+03  0.12657119572E+03  0.00000000000E+00 0. -1.
</event>
<event>
 7    1  0.2794945E-009  0.1051869E+03  0.7561462E-02  0.1269752E+00
          3   -1    0    0  501    0  0.00000000000E+00  0.00000000000E+00  0.55337693745E+02  0.55337693745E+02  0.00000000000E+00 0. -1.
         -3   -1    0    0    0  501 -0.00000000000E+00 -0.00000000000E+00 -0.21548331544E+03  0.21548331544E+03  0.00000000000E+00 0.  1.
         25    2    1    2    0    0  0.79152654566E+01  0.48565118390E+00 -0.77391848228E+02  0.14730940019E+03  0.12509066283E+03 0.  0.
          5    1    3    3  502    0  0.62128859426E+02  0.16790496280E+02 -0.22395221501E+02  0.68271035476E+02  0.41800000000E+01 0.  1.
         -5    1    3    3    0  502 -0.54213593969E+02 -0.16304845096E+02 -0.54996626727E+02  0.79038364710E+02  0.41800000000E+01 0.  1.
        -11    1    1    2    0    0 -0.38857238138E+02 -0.27850561241E+02 -0.58725164831E+02  0.75724393042E+02  0.00000000000E+00 0.  1.
         11    1    1    2    0    0  0.30941972681E+02  0.27364910057E+02 -0.24028608634E+02  0.47787215955E+02  0.00000000000E+00 0. -1.
</event>
<event>
 7    1  0.2794945E-009  0.1235387E+03  0.7561462E-02  0.1237371E+00
          2   -1    0    0  501    0  0.00000000000E+00  0.00000000000E+00  0.11532976147E+03  0.11532976147E+03  0.00000000000E+00 0. -1.
         -2   -1    0    0    0  501 -0.00000000000E+00 -0.00000000000E+00 -0.16034784878E+03  0.16034784878E+03  0.00000000000E+00 0.  1.
         25    2    1    2    0    0  0.15033335273E+02  0.71128027052E+02 -0.63453425162E+02  0.15798627989E+03  0.12509248606E+03 0.  0.
          5    1    3    3  502    0 -0.46263765345E+02  0.17902097917E+02  0.71798271733E+01  0.50297548767E+02  0.41800000000E+01 0.  1.
         -5    1    3    3    0  502  0.61297100618E+02  0.53225929134E+02 -0.70633252335E+02  0.10768873113E+03  0.41800000000E+01 0.  1.
        -11    1    1    2    0    0  0.10253890637E+02 -0.86040767940E+02  0.16984324748E+02  0.88298489840E+02  0.00000000000E+00 0.  1.
         11    1    1    2    0    0 -0.25287225911E+02  0.14912740888E+02  0.14510131027E+01  0.29392840524E+02  0.00000000000E+00 0. -1.
</event>
<event>
 7    1  0.2794945E-009  0.1214366E+03  0.7561462E-02  0.1240746E+00
          2   -1    0    0  501    0  0.00000000000E+00  0.00000000000E+00  0.68933590413E+03  0.68933590413E+03  0.00000000000E+00 0. -1.
         -2   -1    0    0    0  501 -0.00000000000E+00 -0.00000000000E+00 -0.28563509608E+02  0.28563509608E+02  0.00000000000E+00 0.  1.
         25    2    1    2    0    0  0.61771963294E+02  0.44808932289E+02  0.47850977835E+03  0.50044301802E+03  0.12509192796E+03 0.  0.
          5    1    3    3  502    0  0.65895188834E+02 -0.15893605196E+02  0.13033581835E+03  0.14696829775E+03  0.41800000000E+01 0.  1.
         -5    1    3    3    0  502 -0.41232255407E+01  0.60702537485E+02  0.34817396000E+03  0.35347472027E+03  0.41800000000E+01 0.  1.
        -11    1    1    2    0    0 -0.57920850409E+02  0.10215440663E+02  0.63752122004E+02  0.86738187669E+02  0.00000000000E+00 0.  1.
         11    1    1    2    0    0 -0.38511128851E+01 -0.55024372952E+02  0.11851049416E+03  0.13071820805E+03  0.00000000000E+00 0. -1.
</event>
<event>
 7    1  0.2794945E-009  0.9137322E+02  0.7561462E-02  0.1299560E+00
         -2   -1    0    0    0  501 -0.00000000000E+00  0.00000000000E+00  0.21744252422E+02  0.21744252422E+02  0.00000000000E+00 0.  1.
          2   -1    0    0  501    0  0.00000000000E+00 -0.00000000000E+00 -0.59063068702E+03  0.59063068702E+03  0.00000000000E+00 0. -1.
         25    2    1    2    0    0  0.22003127592E+02  0.18566349725E+02 -0.37446477642E+03  0.39585433644E+03  0.12509172607E+03 0.  0.
          5    1    3    3  502    0 -0.23889011530E+02 -0.34619551199E+02 -0.58652802272E+02  0.72296762109E+02  0.41800000000E+01 0.  1.
         -5    1    3    3    0  502  0.45892139122E+02  0.53185900924E+02 -0.31581197415E+03  0.32355757433E+03  0.41800000000E+01 0.  1.
        -11    1    1    2    0    0  0.11788543433E+02  0.17230902077E+02 -0.59251675776E+01  0.21702104817E+02  0.00000000000E+00 0.  1.
         11    1    1    2    0    0 -0.33791671026E+02 -0.35797251802E+02 -0.18849649060E+03  0.19481849818E+03  0.00000000000E+00 0. -1.
</event>
<event>
 7    1  0.2794945E-009  0.1040231E+03  0.7561462E-02  0.1272056E+00
          2   -1    0    0  501    0  0.00000000000E+00  0.00000000000E+00  0.11312404882E+04  0.11312404882E+04  0.00000000000E+00 0. -1.
         -2   -1    0    0    0  501 -0.00000000000E+00 -0.00000000000E+00 -0.28467122465E+02  0.28467122465E+02  0.00000000000E+00 0.  1.
         25    2    1    2    0    0 -0.17644361791E+02 -0.72681329325E+02  0.98175744111E+03  0.99251685980E+03  0.12509254441E+03 0.  0.
          5    1    3    3  502    0  0.32989641570E+02 -0.47909849646E+02  0.80117941797E+03  0.80329919851E+03  0.41800000000E+01 0. -1.
         -5    1    3    3    0  502 -0.50634003361E+02 -0.24771479679E+02  0.18057802314E+03  0.18921766128E+03  0.41800000000E+01 0. -1.
        -11    1    1    2    0    0  0.81947461125E+01  0.80513861923E+02  0.12918896385E+03  0.15244482348E+03  0.00000000000E+00 0. -1.
         11    1    1    2    0    0  0.94496156789E+01 -0.78325325980E+01 -0.81730392476E+01  0.14745927367E+02  0.00000000000E+00 0.  1.
</event>
<event>
 7    1  0.2794945E-009  0.1097754E+03  0.7561462E-02  0.1260986E+00
         -2   -1    0    0    0  501 -0.00000000000E+00  0.00000000000E+00  0.35832573415E+02  0.35832573415E+02  0.00000000000E+00 0.  1.
          2   -1    0    0  501    0  0.00000000000E+00 -0.00000000000E+00 -0.56455379014E+03  0.56455379014E+03  0.00000000000E+00 0. -1.
         25    2    1    2    0    0  0.25542975797E+02 -0.25835592528E+02 -0.46625283433E+03  0.48410697008E+03  0.12509169242E+03 0.  0.
          5    1    3    3  502    0  0.37670806646E+02  0.43304579460E+02 -0.25663992475E+03  0.26301311688E+03  0.41800000000E+01 0. -1.
         -5    1    3    3    0  502 -0.12127830850E+02 -0.69140171988E+02 -0.20961290958E+03  0.22109385321E+03  0.41800000000E+01 0. -1.
        -11    1    1    2    0    0 -0.29735369721E+02 -0.26107402065E+02 -0.70231065486E+01  0.40188464522E+02  0.00000000000E+00 0.  1.
         11    1    1    2    0    0  0.41923939247E+01  0.51942994593E+02 -0.55445275851E+02  0.76090928948E+02  0.00000000000E+00 0. -1.
</event>
<event>
 7    1  0.2794945E-009  0.1440354E+03  0.7561462E-02  0.1208000E+00
         -1   -1    0    0    0  501 -0.00000000000E+00  0.00000000000E+00  0.34820062229E+03  0.34820062229E+03  0.00000000000E+00 0.  1.
          1   -1    0    0  501    0  0.00000000000E+00 -0.00000000000E+00 -0.74862679202E+02  0.74862679202E+02  0.00000000000E+00 0. -1.
         25    2    1    2    0    0  0.95150979803E+02 -0.10317357959E+02  0.53930581903E+02  0.16646477644E+03  0.12506741101E+03 0.  0.
          5    1    3    3  502    0 -0.20787072660E+02 -0.31856834346E+02  0.22346777363E+02  0.44314908810E+02  0.41800000000E+01 0.  1.
         -5    1    3    3    0  502  0.11593805246E+03  0.21539476386E+02  0.31583804539E+02  0.12214986763E+03  0.41800000000E+01 0.  1.
        -11    1    1    2    0    0 -0.10648835888E+03  0.28629034892E+02  0.16912308502E+03  0.20189603786E+03  0.00000000000E+00 0. -1.
         11    1    1    2    0    0  0.11337379075E+02 -0.18311676932E+02  0.50284276166E+02  0.54702487200E+02  0.00000000000E+00 0.  1.
</event>
<event>
 7    1  0.2794945E-009  0.1166722E+03  0.7561462E-02  0.1248690E+00
          2   -1    0    0  501    0  0.00000000000E+00  0.00000000000E+00  0.23545058811E+03  0.23545058811E+03  0.00000000000E+00 0. -1.
         -2   -1    0    0    0  501 -0.00000000000E+00 -0.00000000000E+00 -0.97782138903E+02  0.97782138903E+02  0.00000000000E+00 0.  1.
         25    2    1    2    0    0 -0.46239360532E+00  0.10505281682E+03  0.90361413606E+02  0.18668079336E+03  0.12509286715E+03 0.  0.
          5    1    3    3  502    0  0.53495989523E+01  0.10083937391E+03  0.52912998121E+01  0.10120606599E+03  0.41800000000E+01 0.  1.
         -5    1    3    3    0  502 -0.58119925576E+01  0.42134429142E+01  0.85070113794E+02  0.85474727374E+02  0.41800000000E+01 0.  1.
        -11    1    1    2    0    0 -0.32652320879E+02 -0.49645218927E+02 -0.99738374266E+01  0.60251964732E+02  0.00000000000E+00 0.  1.
         11    1    1    2    0    0  0.33114714484E+02 -0.55407597897E+02  0.57280873023E+02  0.86299968913E+02  0.00000000000E+00 0. -1.
</event>
<event>
 7    1  0.2794945E-009  0.1301607E+03  0.7561462E-02  0.1227217E+00
          1   -1    0    0  501    0  0.00000000000E+00  0.00000000000E+00  0.82487476188E+02  0.82487476188E+02  0.00000000000E+00 0. -1.
         -1   -1    0    0    0  501 -0.00000000000E+00 -0.00000000000E+00 -0.25738490358E+03  0.25738490358E+03  0.00000000000E+00 0.  1.
         25    2    1    2    0    0  0.38458497897E+02  0.84444303170E+02 -0.61552308128E+02  0.16746872162E+03  0.12508872725E+03 0.  0.
          5    1    3    3  502    0  0.70650568190E+02  0.74479466008E+02 -0.67067601229E+01  0.10296187000E+03  0.41800000000E+01 0.  1.
         -5    1    3    3    0  502 -0.32192070293E+02  0.99648371618E+01 -0.54845548005E+02  0.64506851616E+02  0.41800000000E+01 0.  1.
        -11    1    1    2    0    0  0.21908477181E+02 -0.28056217132E+01 -0.44650710270E+02  0.49815046053E+02  0.00000000000E+00 0.  1.
         11    1    1    2    0    0 -0.60366975078E+02 -0.81638681457E+02 -0.68694408998E+02  0.12258861210E+03  0.00000000000E+00 0. -1.
</event>
<event>
 7    1  0.2794945E-009  0.7176455E+02  0.7561462E-02  0.1354193E+00
          2   -1    0    0  501    0  0.00000000000E+00  0.00000000000E+00  0.41414819051E+03  0.41414819051E+03  0.00000000000E+00 0. -1.
         -2   -1    0    0    0  501 -0.00000000000E+00 -0.00000000000E+00 -0.32217810219E+02  0.32217810219E+02  0.00000000000E+00 0.  1.
         25    2    1    2    0    0 -0.39759203627E+02 -0.62015249930E+00  0.21589430769E+03  0.25266178985E+03  0.12508576695E+03 0.  0.
          5    1    3    3  502    0 -0.26727250965E+02  0.86357957679E+01 -0.69262054472E+01  0.29229567813E+02  0.41800000000E+01 0.  1.
         -5    1    3    3    0  502 -0.13031952662E+02 -0.92559482672E+01  0.22282051314E+03  0.22343222203E+03  0.41800000000E+01 0.  1.
        -11    1    1    2    0    0  0.78614825270E+00 -0.41337191367E+02  0.84439146531E+02  0.94017822172E+02  0.00000000000E+00 0.  1.
         11    1    1    2    0    0  0.38973055374E+02  0.41957343867E+02  0.81596926070E+02  0.99686388708E+02  0.00000000000E+00 0. -1.
</event>
<event>
 7    1  0.2794945E-009  0.1245257E+03  0.7561462E-02  0.1235812E+00
         -2   -1    0    0    0  501 -0.00000000000E+00  0.00000000000E+00  0.12090142613E+03  0.12090142613E+03  0.00000000000E+00 0.  1.
          2   -1    0    0  501    0  0.00000000000E+00 -0.00000000000E+00 -0.19099728820E+03  0.19099728820E+03  0.00000000000E+00 0. -1.
         25    2    1    2    0    0  0.64862029659E+02 -0.69607521316E+02 -0.85752138453E+02  0.17903844268E+03  0.12509614220E+03 0.  0.
          5    1    3    3  502    0  0.63232733458E+02  0.16231065295E+02 -0.13602472955E+02  0.66815609941E+02  0.41800000000E+01 0.  1.
         -5    1    3    3    0  502  0.16292962010E+01 -0.85838586612E+02 -0.72149665498E+02  0.11222283274E+03  0.41800000000E+01 0.  1.
        -11    1    1    2    0    0 -0.35699531398E+02  0.22258600595E+02  0.51652578649E+02  0.66617495627E+02  0.00000000000E+00 0.  1.
         11    1    1    2    0    0 -0.29162498261E+02  0.47348920721E+02 -0.35996302265E+02  0.66242776022E+02  0.00000000000E+00 0. -1.
</event>
<event>
 7    1  0.2794945E-009  0.9946390E+02  0.7561462E-02  0.1281427E+00
          2   -1    0    0  501    0  0.00000000000E+00  0.00000000000E+00  0.25042861983E+03  0.25042861983E+03  0.00000000000E+00 0.  1.
         -2   -1    0    0    0  501 -0.00000000000E+00 -0.00000000000E+00 -0.73488879124E+02  0.73488879124E+02  0.00000000000E+00 0. -1.
         25    2    1    2    0    0 -0.53120275034E+01 -0.30731992870E+02  0.94136150165E+01  0.12926320018E+03  0.12509071009E+03 0.  0.
          5    1    3    3  502    0  0.55239588536E+02 -0.18326344484E+02 -0.18642294275E+02  0.61255812619E+02  0.41800000000E+01 0.  1.
         -5    1    3    3    0  502 -0.60551616039E+02 -0.12405648386E+02  0.28055909291E+02  0.68007387562E+02  0.41800000000E+01 0.  1.
        -11    1    1    2    0    0 -0.11516912301E+02  0.50999370479E+02  0.15835032302E+03  0.16675850761E+03  0.00000000000E+00 0.  1.
         11    1    1    2    0    0  0.16828939804E+02 -0.20267377609E+02  0.91758026655E+01  0.27895791164E+02  0.00000000000E+00 0. -1.
</event>
<event>
 7    1  0.2794945E-009  0.1460611E+03  0.7561462E-02  0.1205398E+00
         -1   -1    0    0    0  501 -0.00000000000E+00  0.00000000000E+00  0.13390153611E+03  0.13390153611E+03  0.00000000000E+00 0.  1.
          1   -1    0    0  501    0  0.00000000000E+00 -0.00000000000E+00 -0.25893477747E+03  0.25893477747E+03  0.00000000000E+00 0. -1.
         25    2    1    2    0    0 -0.70422375076E+02  0.11151254126E+03 -0.14637071382E+03  0.23338549877E+03  0.12510014950E+03 0.  0.
          5    1    3    3  502    0  0.99540121702E+01  0.59975528258E+02 -0.29143890954E+01  0.61009117449E+02  0.41800000000E+01 0.  1.
         -5    1    3    3    0  502 -0.80376387246E+02  0.51537013001E+02 -0.14345632472E+03  0.17237638132E+03  0.41800000000E+01 0.  1.
        -11    1    1    2    0    0  0.51316043549E+02 -0.51793196146E+02  0.52097880691E+02  0.89610605762E+02  0.00000000000E+00 0. -1.
         11    1    1    2    0    0  0.19106331527E+02 -0.59719345112E+02 -0.30760408238E+02  0.69840209049E+02  0.00000000000E+00 0.  1.
</event>
<event>
 7    1  0.2794945E-009  0.1430874E+03  0.7561462E-02  0.1209234E+00
         -2   -1    0    0    0  501 -0.00000000000E+00  0.00000000000E+00  0.49723411263E+02  0.49723411263E+02  0.00000000000E+00 0.  1.
          2   -1    0    0  501    0  0.00000000000E+00 -0.00000000000E+00 -0.54287878611E+03  0.54287878611E+03  0.00000000000E+00 0. -1.
         25    2    1    2    0    0  0.33793492453E+01  0.11769459280E+03 -0.31933316887E+03  0.36260736151E+03  0.12508792391E+03 0.  0.
          5    1    3    3  502    0 -0.41158839404E+02  0.47291964722E+01 -0.13945923216E+03  0.14554300119E+03  0.41800000000E+01 0. -1.
         -5    1    3    3    0  502  0.44538188650E+02  0.11296539633E+03 -0.17987393671E+03  0.21706436032E+03  0.41800000000E+01 0. -1.
        -11    1    1    2    0    0 -0.18618314681E+02 -0.43933131805E+02 -0.86951028097E+01  0.48501201270E+02  0.00000000000E+00 0.  1.
         11    1    1    2    0    0  0.15238965436E+02 -0.73761460995E+02 -0.16512710317E+03  0.18149363459E+03  0.00000000000E+00 0. -1.
</event>
<event>
 7    1  0.2794945E-009  0.9663100E+02  0.7561462E-02  0.1287544E+00
         -2   -1    0    0    0  501 -0.00000000000E+00  0.00000000000E+00  0.33336390384E+03  0.33336390384E+03  0.00000000000E+00 0.  1.
          2   -1    0    0  501    0  0.00000000000E+00 -0.00000000000E+00 -0.54580067532E+02  0.54580067532E+02  0.00000000000E+00 0. -1.
         25    2    1    2    0    0 -0.33251762981E+02 -0.36812933672E+02  0.62929304221E+02  0.14855302147E+03  0.12508809308E+03 0.  0.
          5    1    3    3  502    0 -0.56284294693E+02 -0.11644210474E+02  0.88572318701E+02  0.10566947292E+03  0.41800000000E+01 0. -1.
         -5    1    3    3    0  502  0.23032531712E+02 -0.25168723198E+02 -0.25643014480E+02  0.42883548549E+02  0.41800000000E+01 0. -1.
        -11    1    1    2    0    0 -0.15311299360E+02  0.48880191196E+02  0.13395507937E+03  0.14341433774E+03  0.00000000000E+00 0.  1.
         11    1    1    2    0    0  0.48563062341E+02 -0.12067257524E+02  0.81899452721E+02  0.95976612172E+02  0.00000000000E+00 0. -1.
</event>
<event>
 7    1  0.2794945E-009  0.8688224E+02  0.7561462E-02  0.1310582E+00
          1   -1    0    0  501    0  0.00000000000E+00  0.00000000000E+00  0.56767990938E+03  0.56767990938E+03  0.00000000000E+00 0. -1.
         -1   -1    0    0    0  501 -0.00000000000E+00 -0.00000000000E+00 -0.36447834734E+02  0.36447834734E+02  0.00000000000E+00 0.  1.
         25    2    1    2    0    0  0.19692462521E+02 -0.48792320206E+02  0.45404233470E+03  0.47388877548E+03  0.12509055214E+03 0.  0.
          5    1    3    3  502    0 -0.16573287613E+02 -0.25385005707E+02  0.17611586179E+02  0.35308819646E+02  0.41800000000E+01 0.  1.
         -5    1    3    3    0  502  0.36265750134E+02 -0.23407314499E+02  0.43643074852E+03  0.43857995583E+03  0.41800000000E+01 0.  1.
        -11    1    1    2    0    0  0.33660028146E+02  0.17368120678E+02  0.10648693503E+02  0.39345187558E+02  0.00000000000E+00 0.  1.
         11    1    1    2    0    0 -0.53352490666E+02  0.31424199528E+02  0.66541046439E+02  0.90893781072E+02  0.00000000000E+00 0. -1.
</event>
<event>
 7    1  0.3155219E-009  0.1425073E+03  0.7561462E-02  0.1209995E+00
         -1   -1    0    0    0  501 -0.00000000000E+00  0.00000000000E+00  0.62733706864E+02  0.62733706864E+02  0.00000000000E+00 0.  1.
          1   -1    0    0  501    0  0.00000000000E+00 -0.00000000000E+00 -0.58282183613E+03  0.58282183613E+03  0.00000000000E+00 0. -1.
         25    2    1    2    0    0 -0.12001996221E+03 -0.18880738724E+02 -0.10524804100E+03  0.20368106480E+03  0.12509017707E+03 0.  0.
          5    1    3    3  502    0 -0.13207378299E+03 -0.17578680390E+02 -0.42913777291E+02  0.14004127548E+03  0.41800000000E+01 0.  1.
         -5    1    3    3    0  502  0.12053820783E+02 -0.13020583340E+01 -0.62334263711E+02  0.63639789313E+02  0.41800000000E+01 0.  1.
        -11    1    1    2    0    0  0.21246092894E+02  0.32857716881E+02 -0.21485876916E+03  0.21839257475E+03  0.00000000000E+00 0. -1.
         11    1    1    2    0    0  0.98773869312E+02 -0.13976978156E+02 -0.19998131911E+03  0.22348190345E+03  0.00000000000E+00 0.  1.
</event>
<event>
 7    1  0.2794945E-009  0.1431072E+03  0.7561462E-02  0.1209208E+00
         -1   -1    0    0    0  501 -0.00000000000E+00  0.00000000000E+00  0.50600802240E+02  0.50600802240E+02  0.00000000000E+00 0.  1.
          1   -1    0    0  501    0  0.00000000000E+00 -0.00000000000E+00 -0.46004606166E+03  0.46004606166E+03  0.00000000000E+00 0. -1.
         25    2    1    2    0    0  0.23565218807E+01 -0.10600634905E+03 -0.25323571680E+03  0.30169345437E+03  0.12509081867E+03 0.  0.
          5    1    3    3  502    0  0.57224513200E+02 -0.39613724729E+02 -0.16087870717E+03  0.17533773957E+03  0.41800000000E+01 0.  1.
         -5    1    3    3    0  502 -0.54867991319E+02 -0.66392624321E+02 -0.92357009630E+02  0.12635571480E+03  0.41800000000E+01 0.  1.
        -11    1    1    2    0    0 -0.37061341545E+02  0.75272386402E+02 -0.63234291253E+02  0.10506212820E+03  0.00000000000E+00 0.  1.
         11    1    1    2    0    0  0.34704819665E+02  0.30733962648E+02 -0.92975251368E+02  0.10389128132E+03  0.00000000000E+00 0. -1.
</event>
<event>
 7    1  0.2794945E-009  0.2523584E+03  0.7561462E-02  0.1111823E+00
         -1   -1    0    0    0  501 -0.00000000000E+00  0.00000000000E+00  0.45514589353E+03  0.45514589353E+03  0.00000000000E+00 0.  1.
          1   -1    0    0  501    0  0.00000000000E+00 -0.00000000000E+00 -0.15862098542E+03  0.15862098542E+03  0.00000000000E+00 0. -1.
         25    2    1    2    0    0  0.15220149114E+03 -0.19321185751E+03  0.12126304467E+03  0.30141882049E+03  0.12510980599E+03 0.  0.
          5    1    3    3  502    0  0.44074163514E+02 -0.60047067647E+02 -0.22117017361E+02  0.77812705129E+02  0.41800000000E+01 0. -1.
         -5    1    3    3    0  502  0.10812732762E+03 -0.13316478987E+03  0.14338006203E+03  0.22360611536E+03  0.41800000000E+01 0. -1.
        -11    1    1    2    0    0 -0.33751902735E+02  0.22684292269E+01  0.21767784301E+02  0.40226522877E+02  0.00000000000E+00 0. -1.
         11    1    1    2    0    0 -0.11844958840E+03  0.19094342829E+03  0.15349407914E+03  0.27212153559E+03  0.00000000000E+00 0.  1.
</event>
<event>
 7    1  0.2794945E-009  0.1013355E+03  0.7561462E-02  0.1277512E+00
          1   -1    0    0  501    0  0.00000000000E+00  0.00000000000E+00  0.20211208327E+02  0.20211208327E+02  0.00000000000E+00 0. -1.
         -1   -1    0    0    0  501 -0.00000000000E+00 -0.00000000000E+00 -0.72338710819E+03  0.72338710819E+03  0.00000000000E+00 0.  1.
         25    2    1    2    0    0  0.15637699748E+02 -0.51256076096E+02 -0.41826044410E+03  0.43984033209E+03  0.12508395438E+03 0.  0.
          5    1    3    3  502    0 -0.34090029541E+01  0.31658580202E+02 -0.36164095309E+02  0.48365289113E+02  0.41800000000E+01 0.  1.
         -5    1    3    3    0  502  0.19046702702E+02 -0.82914656298E+02 -0.38209634879E+03  0.39147504298E+03  0.41800000000E+01 0.  1.
        -11    1    1    2    0    0 -0.39586695177E+02  0.15866522716E+02 -0.53441568767E+02  0.68372905821E+02  0.00000000000E+00 0. -1.
         11    1    1    2    0    0  0.23948995428E+02  0.35389553380E+02 -0.23147388699E+03  0.23538507860E+03  0.00000000000E+00 0.  1.
</event>
<event>
 7    1  0.2794945E-009  0.1188280E+03  0.7561462E-02  0.1245043E+00
          2   -1    0    0  501    0  0.00000000000E+00  0.00000000000E+00  0.10248834968E+04  0.10248834968E+04  0.00000000000E+00 0. -1.
         -2   -1    0    0    0  501 -0.00000000000E+00 -0.00000000000E+00 -0.23842375412E+02  0.23842375412E+02  0.00000000000E+00 0.  1.
         25    2    1    2    0    0 -0.85274886722E+02  0.61983216894E+02  0.41093718332E+03  0.44230243427E+03  0.12509336211E+03 0.  0.
          5    1    3    3  502    0 -0.54583974431E+02  0.38159581384E+02  0.61694400096E+02  0.90880335163E+02  0.41800000000E+01 0. -1.
         -5    1    3    3    0  502 -0.30690912292E+02  0.23823635510E+02  0.34924278323E+03  0.35142209911E+03  0.41800000000E+01 0. -1.
        -11    1    1    2    0    0  0.25892534380E+02  0.18505030555E+02  0.71518036903E+02  0.78279557324E+02  0.00000000000E+00 0.  1.
         11    1    1    2    0    0  0.59382352342E+02 -0.80488247449E+02  0.51858590118E+03  0.52814388063E+03  0.00000000000E+00 0. -1.
</event>
<event>
 7    1  0.2794945E-009  0.8495814E+02  0.7561462E-02  0.1315542E+00
          2   -1    0    0  501    0  0.00000000000E+00  0.00000000000E+00  0.19387795881E+03  0.19387795881E+03  0.00000000000E+00 0. -1.
         -2   -1    0    0    0  501 -0.00000000000E+00 -0.00000000000E+00 -0.84160632518E+02  0.84160632518E+02  0.00000000000E+00 0.  1.
         25    2    1    2    0    0  0.16184566476E+02 -0.50416194210E+02  0.10808720380E+03  0.17359624201E+03  0.12509627806E+03 0.  0.
          5    1    3    3  502    0  0.35854048317E+02 -0.31965982923E+02  0.12996386895E+03  0.13861968286E+03  0.41800000000E+01 0. -1.
         -5    1    3    3    0  502 -0.19669481841E+02 -0.18450211287E+02 -0.21876665146E+02  0.34976559155E+02  0.41800000000E+01 0. -1.
        -11    1    1    2    0    0  0.24661843660E+02 -0.53978502465E+01 -0.19745806341E+02  0.32050587952E+02  0.00000000000E+00 0.  1.
         11    1    1    2    0    0 -0.40846410136E+02  0.55814044456E+02  0.21375928832E+02  0.72391761362E+02  0.00000000000E+00 0. -1.
</event>
<event>
 7    1  0.2794945E-009  0.1145605E+03  0.7561462E-02  0.1252350E+00
          3   -1    0    0  501    0  0.00000000000E+00  0.00000000000E+00  0.12353901676E+03  0.12353901676E+03  0.00000000000E+00 0. -1.
         -3   -1    0    0    0  501 -0.00000000000E+00 -0.00000000000E+00 -0.18861392552E+03  0.18861392552E+03  0.00000000000E+00 0.  1.
         25    2    1    2    0    0  0.46760962880E+02 -0.77463594234E+02  0.22641315744E+02  0.15603189226E+03  0.12508447602E+03 0.  0.
          5    1    3    3  502    0 -0.17537049473E+02  0.44920210100E+01  0.45637001070E+02  0.49274076588E+02  0.41800000000E+01 0. -1.
         -5    1    3    3    0  502  0.64298012352E+02 -0.81955615244E+02 -0.22995685326E+02  0.10675781567E+03  0.41800000000E+01 0. -1.
        -11    1    1    2    0    0 -0.35413275473E+02  0.85269011551E+01  0.83174017056E+01  0.37362913353E+02  0.00000000000E+00 0. -1.
         11    1    1    2    0    0 -0.11347687406E+02  0.68936693079E+02 -0.96033626213E+02  0.11875813667E+03  0.00000000000E+00 0.  1.
</event>
<event>
 7    1  0.2794945E-009  0.2287218E+03  0.7561462E-02  0.1127543E+00
         -2   -1    0    0    0  501 -0.00000000000E+00  0.00000000000E+00  0.45180232195E+02  0.45180232195E+02  0.00000000000E+00 0.  1.
          2   -1    0    0  501    0  0.00000000000E+00 -0.00000000000E+00 -0.16249927431E+04  0.16249927431E+04  0.00000000000E+00 0. -1.
         25    2    1    2    0    0  0.62469265953E+02  0.19817261017E+03 -0.12282501108E+04  0.12519667034E+04  0.12508996441E+03 0.  0.
          5    1    3    3  502    0  0.95252639491E+02  0.96854477394E+02 -0.67554851846E+03  0.68908426793E+03  0.41800000000E+01 0. -1.
         -5    1    3    3    0  502 -0.32783373538E+02  0.10131813278E+03 -0.55270159237E+03  0.56288243552E+03  0.41800000000E+01 0. -1.
        -11    1    1    2    0    0  0.83148403401E+01 -0.50753099755E+02 -0.15045079173E+03  0.15899828438E+03  0.00000000000E+00 0. -1.
         11    1    1    2    0    0 -0.70784106293E+02 -0.14741951042E+03 -0.20111160840E+03  0.25920798751E+03  0.00000000000E+00 0.  1.
</event>
<event>
 7    1  0.2794945E-009  0.9819855E+02  0.7561462E-02  0.1284130E+00
          1   -1    0    0  501    0  0.00000000000E+00  0.00000000000E+00  0.13668112122E+02  0.13668112122E+02  0.00000000000E+00 0. -1.
         -1   -1    0    0    0  501 -0.00000000000E+00 -0.00000000000E+00 -0.13105642003E+04  0.13105642003E+04  0.00000000000E+00 0.  1.
         25    2    1    2    0    0  0.26501600733E+02  0.15897058450E+02 -0.10735275167E+04  0.10812329414E+04  0.12509313817E+03 0.  0.
          5    1    3    3  502    0 -0.26109025962E+02 -0.27761523879E+02 -0.72648104386E+03  0.72749196761E+03  0.41800000000E+01 0. -1.
         -5    1    3    3    0  502  0.52610626695E+02  0.43658582328E+02 -0.34704647284E+03  0.35374097382E+03  0.41800000000E+01 0. -1.
        -11    1    1    2    0    0 -0.41365594758E+02 -0.42363550072E+02 -0.18397033880E+03  0.19326372748E+03  0.00000000000E+00 0.  1.
         11    1    1    2    0    0  0.14863994024E+02  0.26466491622E+02 -0.39398232719E+02  0.49735643542E+02  0.00000000000E+00 0. -1.
</event>
<event>
 7    1  0.2794945E-009  0.6706598E+02  0.7561462E-02  0.1370364E+00
          1   -1    0    0  501    0  0.00000000000E+00  0.00000000000E+00  0.15198115684E+03  0.15198115684E+03  0.00000000000E+00 0. -1.
         -1   -1    0    0    0  501 -0.00000000000E+00 -0.00000000000E+00 -0.10714088053E+03  0.10714088053E+03  0.00000000000E+00 0.  1.
         25    2    1    2    0    0  0.14613996076E+02  0.59411369289E+02  0.53992626661E+02  0.14935290401E+03  0.12509119282E+03 0.  0.
          5    1    3    3  502    0 -0.35186441458E+01  0.22518155829E+02  0.90987244043E+02  0.93891422277E+02  0.41800000000E+01 0.  1.
         -5    1    3    3    0  502  0.18132640222E+02  0.36893213459E+02 -0.36994617382E+02  0.55461481733E+02  0.41800000000E+01 0.  1.
        -11    1    1    2    0    0 -0.17571897825E+02 -0.10155570901E+02  0.37002646556E+02  0.42203116777E+02  0.00000000000E+00 0. -1.
         11    1    1    2    0    0  0.29579017490E+01 -0.49255798388E+02 -0.46154996910E+02  0.67566016586E+02  0.00000000000E+00 0.  1.
</event>
<event>
 7    1  0.2794945E-009  0.8882193E+02  0.7561462E-02  0.1305730E+00
         -1   -1    0    0    0  501 -0.00000000000E+00  0.00000000000E+00  0.15321068058E+03  0.15321068058E+03  0.00000000000E+00 0. -1.
          1   -1    0    0  501    0  0.00000000000E+00 -0.00000000000E+00 -0.88359288385E+02  0.88359288385E+02  0.00000000000E+00 0.  1.
         25    2    1    2    0    0  0.12185352977E+02 -0.12936428804E+02  0.76616202316E+02  0.14776884520E+03  0.12509898135E+03 0.  0.
          5    1    3    3  502    0  0.50683136162E+02 -0.16318168499E+02 -0.86080326038E+01  0.54098369104E+02  0.41800000000E+01 0.  1.
         -5    1    3    3    0  502 -0.38497783185E+02  0.33817396950E+01  0.85224234919E+02  0.93670476091E+02  0.41800000000E+01 0.  1.
        -11    1    1    2    0    0 -0.35067954104E+02 -0.23587956173E+02 -0.24509921560E+02  0.48855801460E+02  0.00000000000E+00 0.  1.
         11    1    1    2    0    0  0.22882601127E+02  0.36524384976E+02  0.12745111442E+02  0.44945322314E+02  0.00000000000E+00 0. -1.
</event>
<event>
 7    1  0.2794945E-009  0.1092672E+03  0.7561462E-02  0.1261933E+00
         -1   -1    0    0    0  501 -0.00000000000E+00  0.00000000000E+00  0.50171741455E+03  0.50171741455E+03  0.00000000000E+00 0.  1.
          1   -1    0    0  501    0  0.00000000000E+00 -0.00000000000E+00 -0.37785808097E+02  0.37785808097E+02  0.00000000000E+00 0. -1.
         25    2    1    2    0    0  0.72312282060E+02 -0.69533648704E+01  0.31917652131E+03  0.35043194625E+03  0.12510588227E+03 0.  0.
          5    1    3    3  502    0  0.50100836591E+02  0.50413443718E+02  0.23844623606E+03  0.24884872720E+03  0.41800000000E+01 0. -1.
         -5    1    3    3    0  502  0.22211445469E+02 -0.57366808588E+02  0.80730285247E+02  0.10158321905E+03  0.41800000000E+01 0. -1.
        -11    1    1    2    0    0 -0.27088174682E+02  0.25119028015E+02  0.65002169859E+00  0.36948035188E+02  0.00000000000E+00 0. -1.
         11    1    1    2    0    0 -0.45224107378E+02 -0.18165663145E+02  0.14410506344E+03  0.15212324121E+03  0.00000000000E+00 0.  1.
</event>
<event>
 7    1  0.2794945E-009  0.4143942E+02  0.7561462E-02  0.1497878E+00
         -1   -1    0    0    0  501 -0.00000000000E+00  0.00000000000E+00  0.99884935376E+02  0.99884935376E+02  0.00000000000E+00 0.  1.
          1   -1    0    0  501    0  0.00000000000E+00 -0.00000000000E+00 -0.12908118914E+03  0.12908118914E+03  0.00000000000E+00 0. -1.
         25    2    1    2    0    0  0.10471850241E+02  0.92158719449E+01  0.11573700508E+02  0.12639095452E+03  0.12508449504E+03 0.  0.
          5    1    3    3  502    0 -0.62431923945E+01 -0.22713812851E+01  0.66877904174E+02  0.67336937047E+02  0.41800000000E+01 0.  1.
         -5    1    3    3    0  502  0.16715042635E+02  0.11487253230E+02 -0.55304203666E+02  0.59054017477E+02  0.41800000000E+01 0.  1.
        -11    1    1    2    0    0 -0.21938607669E+02 -0.25984505547E+02  0.19342305089E+02  0.39123161952E+02  0.00000000000E+00 0.  1.
         11    1    1    2    0    0  0.11466757428E+02  0.16768633603E+02 -0.60112259356E+02  0.63452008035E+02  0.00000000000E+00 0. -1.
</event>
<event>
 7    1  0.2794945E-009  0.1732098E+03  0.7561462E-02  0.1174541E+00
          2   -1    0    0  501    0  0.00000000000E+00  0.00000000000E+00  0.89637626680E+03  0.89637626680E+03  0.00000000000E+00 0. -1.
         -2   -1    0    0    0  501 -0.00000000000E+00 -0.00000000000E+00 -0.35163777198E+02  0.35163777198E+02  0.00000000000E+00 0.  1.
         25    2    1    2    0    0  0.13880378452E+03 -0.82490282686E+01  0.46911166637E+03  0.50502248952E+03  0.12508965719E+03 0.  0.
          5    1    3    3  502    0  0.16220987382E+03 -0.71241053329E+01  0.39186206795E+03  0.42418881261E+03  0.41800000000E+01 0.  1.
         -5    1    3    3    0  502 -0.23406089301E+02 -0.11249229357E+01  0.77249598418E+02  0.80833676916E+02  0.41800000000E+01 0.  1.
        -11    1    1    2    0    0 -0.43496500976E+02  0.40647615566E+02  0.21192860066E+03  0.22013156527E+03  0.00000000000E+00 0. -1.
         11    1    1    2    0    0 -0.95307283544E+02 -0.32398587297E+02  0.18017222257E+03  0.20638598921E+03  0.00000000000E+00 0.  1.
</event>
<event>
 7    1  0.3184037E-009  0.9941135E+02  0.7561462E-02  0.1281539E+00
         -2   -1    0    0    0  501 -0.00000000000E+00  0.00000000000E+00  0.73798680370E+02  0.73798680370E+02  0.00000000000E+00 0.  1.
          2   -1    0    0  501    0  0.00000000000E+00 -0.00000000000E+00 -0.21905373767E+03  0.21905373767E+03  0.00000000000E+00 0. -1.
         25    2    1    2    0    0  0.24045882233E+02 -0.59767648189E+02 -0.60404094876E+02  0.15312309882E+03  0.12509057715E+03 0.  0.
          5    1    3    3  502    0  0.57201800217E+02 -0.52845858214E+02  0.62516088214E+01  0.78238645766E+02  0.41800000000E+01 0.  1.
         -5    1    3    3    0  502 -0.33155917983E+02 -0.69217899741E+01 -0.66655703698E+02  0.74884453054E+02  0.41800000000E+01 0.  1.
        -11    1    1    2    0    0 -0.27175615572E+02  0.32094020900E+00  0.89672949936E+01  0.28618690813E+02  0.00000000000E+00 0.  1.
         11    1    1    2    0    0  0.31297333390E+01  0.59446707980E+02 -0.93818257421E+02  0.11111062841E+03  0.00000000000E+00 0. -1.
</event>
<event>
 7    1  0.2794945E-009  0.2900793E+03  0.7561462E-02  0.1090308E+00
         -2   -1    0    0    0  501 -0.00000000000E+00  0.00000000000E+00  0.19407809607E+03  0.19407809607E+03  0.00000000000E+00 0.  1.
          2   -1    0    0  501    0  0.00000000000E+00 -0.00000000000E+00 -0.45841638040E+03  0.45841638040E+03  0.00000000000E+00 0. -1.
         25    2    1    2    0    0  0.67189452502E+02  0.26942213007E+03 -0.13713441216E+03  0.33399976671E+03  0.12508913009E+03 0.  0.
          5    1    3    3  502    0 -0.28664088459E+02  0.20164603437E+02 -0.38486008561E+01  0.35503877641E+02  0.41800000000E+01 0. -1.
         -5    1    3    3    0  502  0.95853540962E+02  0.24925752663E+03 -0.13328581130E+03  0.29849588907E+03  0.41800000000E+01 0. -1.
        -11    1    1    2    0    0 -0.25509238492E+02 -0.87502079156E+02  0.25634134555E+01  0.91180624003E+02  0.00000000000E+00 0.  1.
         11    1    1    2    0    0 -0.41680214010E+02 -0.18192005091E+03 -0.12976728563E+03  0.22731408576E+03  0.00000000000E+00 0. -1.
</event>
<event>
 7    1  0.2794945E-009  0.1625556E+03  0.7561462E-02  0.1185841E+00
         -2   -1    0    0    0  501 -0.00000000000E+00  0.00000000000E+00  0.27800810192E+03  0.27800810192E+03  0.00000000000E+00 0.  1.
          2   -1    0    0  501    0  0.00000000000E+00 -0.00000000000E+00 -0.14771007573E+03  0.14771007573E+03  0.00000000000E+00 0. -1.
         25    2    1    2    0    0 -0.36830166989E+02 -0.11870288901E+03  0.19116486416E+03  0.26006439235E+03  0.12507056336E+03 0.  0.
          5    1    3    3  502    0 -0.64672724936E+02 -0.12781765454E+03  0.13655248216E+03  0.19794940502E+03  0.41800000000E+01 0.  1.
         -5    1    3    3    0  502  0.27842557948E+02  0.91147655334E+01  0.54612381991E+02  0.62114987326E+02  0.41800000000E+01 0.  1.
        -11    1    1    2    0    0  0.58236540438E+02  0.40008368003E+02 -0.41095314846E+02  0.81737317394E+02  0.00000000000E+00 0. -1.
         11    1    1    2    0    0 -0.21406373450E+02  0.78694521002E+02 -0.19771523112E+02  0.83916467908E+02  0.00000000000E+00 0.  1.
</event>
<event>
 7    1  0.2794945E-009  0.1255075E+03  0.7561462E-02  0.1234278E+00
          3   -1    0    0  501    0  0.00000000000E+00  0.00000000000E+00  0.19693595319E+02  0.19693595319E+02  0.00000000000E+00 0. -1.
         -3   -1    0    0    0  501 -0.00000000000E+00 -0.00000000000E+00 -0.95055274784E+03  0.95055274784E+03  0.00000000000E+00 0.  1.
         25    2    1    2    0    0 -0.36941543826E+02 -0.64989344110E+02 -0.59580614092E+03  0.61336856844E+03  0.12509096963E+03 0.  0.
          5    1    3    3  502    0 -0.77529552246E+02 -0.14951786791E+02 -0.27560033904E+03  0.28671834033E+03  0.41800000000E+01 0.  1.
         -5    1    3    3    0  502  0.40588008420E+02 -0.50037557319E+02 -0.32020580187E+03  0.32665022811E+03  0.41800000000E+01 0.  1.
        -11    1    1    2    0    0  0.43381148525E+02  0.13345178315E+01 -0.22855308742E+03  0.23263752654E+03  0.00000000000E+00 0.  1.
         11    1    1    2    0    0 -0.64396046986E+01  0.63654826279E+02 -0.10649992418E+03  0.12424024818E+03  0.00000000000E+00 0. -1.
</event>
<event>
 7    1  0.2794945E-009  0.1062555E+03  0.7561462E-02  0.1267665E+00
         -1   -1    0    0    0  501 -0.00000000000E+00  0.00000000000E+00  0.10964624826E+04  0.10964624826E+04  0.00000000000E+00 0.  1.
          1   -1    0    0  501    0  0.00000000000E+00 -0.00000000000E+00 -0.13566779814E+02  0.13566779814E+02  0.00000000000E+00 0. -1.
         25    2    1    2    0    0 -0.52365561696E+02 -0.23363293190E+02  0.63350592765E+03  0.64827861972E+03  0.12508961945E+03 0.  0.
          5    1    3    3  502    0 -0.24977383747E+02  0.39485562582E+02  0.44828799365E+03  0.45073559544E+03  0.41800000000E+01 0.  1.
         -5    1    3    3    0  502 -0.27388177949E+02 -0.62848855772E+02  0.18521793400E+03  0.19754302428E+03  0.41800000000E+01 0.  1.
        -11    1    1    2    0    0  0.68903276186E+02  0.34422086282E+02  0.41442848052E+03  0.42152521509E+03  0.00000000000E+00 0.  1.
         11    1    1    2    0    0 -0.16537714490E+02 -0.11058793092E+02  0.34961294666E+02  0.40225427654E+02  0.00000000000E+00 0. -1.
</event>
<event>
 7    1  0.2794945E-009  0.1652973E+03  0.7561462E-02  0.1182843E+00
          2   -1    0    0  501    0  0.00000000000E+00  0.00000000000E+00  0.53767328797E+03  0.53767328797E+03  0.00000000000E+00 0. -1.
         -2   -1    0    0    0  501 -0.00000000000E+00 -0.00000000000E+00 -0.72605596852E+02  0.72605596852E+02  0.00000000000E+00 0.  1.
         25    2    1    2    0    0  0.80983929063E+02  0.13768668943E+03  0.18004110762E+03  0.27125329342E+03  0.12509007772E+03 0.  0.
          5    1    3    3  502    0  0.15708590044E+02  0.36039380769E+02 -0.14590471463E+02  0.42142033944E+02  0.41800000000E+01 0.  1.
         -5    1    3    3    0  502  0.65275339019E+02  0.10164730866E+03  0.19463157908E+03  0.22911125947E+03  0.41800000000E+01 0.  1.
        -11    1    1    2    0    0 -0.17561040407E+01 -0.57267520215E+02  0.16305809489E+03  0.17283111723E+03  0.00000000000E+00 0. -1.
         11    1    1    2    0    0 -0.79227825022E+02 -0.80419169210E+02  0.12196848861E+03  0.16619447418E+03  0.00000000000E+00 0.  1.
</event>
<event>
 7    1  0.2857089E-009  0.9248076E+02  0.7561462E-02  0.1296953E+00
         -2   -1    0    0    0  501 -0.00000000000E+00  0.00000000000E+00  0.15983727588E+02  0.15983727588E+02  0.00000000000E+00 0. -1.
          2   -1    0    0  501    0  0.00000000000E+00 -0.00000000000E+00 -0.88217612616E+03  0.88217612616E+03  0.00000000000E+00 0.  1.
         25    2    1    2    0    0 -0.93927191518E+01  0.30156120311E+02 -0.63331181574E+03  0.64631993351E+03  0.12509190914E+03 0.  0.
          5    1    3    3  502    0 -0.49316037900E+02  0.18291207795E+02 -0.55518125457E+03  0.55768300826E+03  0.41800000000E+01 0. -1.
         -5    1    3    3    0  502  0.39923318748E+02  0.11864912516E+02 -0.78130561169E+02  0.88636925248E+02  0.41800000000E+01 0. -1.
        -11    1    1    2    0    0 -0.37834071126E+02 -0.15545348748E+02 -0.14864105615E+03  0.15416626861E+03  0.00000000000E+00 0.  1.
         11    1    1    2    0    0  0.47226790278E+02 -0.14610771563E+02 -0.84239526683E+02  0.97673651624E+02  0.00000000000E+00 0. -1.
</event>
<event>
 7    1  0.2794945E-009  0.1591507E+03  0.7561462E-02  0.1189659E+00
          2   -1    0    0  501    0  0.00000000000E+00  0.00000000000E+00  0.54197012668E+03  0.54197012668E+03  0.00000000000E+00 0.  1.
         -2   -1    0    0    0  501 -0.00000000000E+00 -0.00000000000E+00 -0.55057215993E+02  0.55057215993E+02  0.00000000000E+00 0. -1.
         25    2    1    2    0    0 -0.65223372703E+02  0.10896117694E+03  0.33540860425E+03  0.37983305806E+03  0.12509034239E+03 0.  0.
          5    1    3    3  502    0 -0.83078914767E+02  0.41818180414E+02  0.26478077348E+03  0.28067275731E+03  0.41800000000E+01 0. -1.
         -5    1    3    3    0  502  0.17855542064E+02  0.67142996523E+02  0.70627830776E+02  0.99160300749E+02  0.41800000000E+01 0. -1.
        -11    1    1    2    0    0  0.87986535955E+02 -0.81572407807E+02  0.11496578276E+03  0.16617105473E+03  0.00000000000E+00 0. -1.
         11    1    1    2    0    0 -0.22763163252E+02 -0.27388769129E+02  0.36538523678E+02  0.51023229888E+02  0.00000000000E+00 0.  1.
</event>
<event>
 7    1  0.2794945E-009  0.1616404E+03  0.7561462E-02  0.1186857E+00
          1   -1    0    0  501    0  0.00000000000E+00  0.00000000000E+00  0.50640796746E+02  0.50640796746E+02  0.00000000000E+00 0. -1.
         -1   -1    0    0    0  501 -0.00000000000E+00 -0.00000000000E+00 -0.64069915129E+03  0.64069915129E+03  0.00000000000E+00 0.  1.
         25    2    1    2    0    0 -0.91079844892E+02 -0.90381834528E+02 -0.43792816457E+03  0.47317482189E+03  0.12509564574E+03 0.  0.
          5    1    3    3  502    0 -0.46942722000E+02 -0.11171046666E+03 -0.36959011769E+03  0.38896937540E+03  0.41800000000E+01 0. -1.
         -5    1    3    3    0  502 -0.44137122892E+02  0.21328632127E+02 -0.68338046884E+02  0.84205446484E+02  0.41800000000E+01 0. -1.
        -11    1    1    2    0    0  0.70187340820E+02  0.10573540979E+03 -0.14168528941E+03  0.19021293576E+03  0.00000000000E+00 0.  1.
         11    1    1    2    0    0  0.20892504073E+02 -0.15353575262E+02 -0.10444900559E+02  0.27952190387E+02  0.00000000000E+00 0. -1.
</event>
<event>
 7    1  0.2794945E-009  0.9995619E+02  0.7561462E-02  0.1280388E+00
         -1   -1    0    0    0  501 -0.00000000000E+00  0.00000000000E+00  0.17591474452E+02  0.17591474452E+02  0.00000000000E+00 0.  1.
          1   -1    0    0  501    0  0.00000000000E+00 -0.00000000000E+00 -0.90634656873E+03  0.90634656873E+03  0.00000000000E+00 0. -1.
         25    2    1    2    0    0 -0.61301625041E+02  0.14809207262E+02 -0.51732852877E+03  0.53596002825E+03  0.12508854203E+03 0.  0.
          5    1    3    3  502    0 -0.38034105859E+02 -0.30482256712E+02 -0.44343007377E+03  0.44612045897E+03  0.41800000000E+01 0. -1.
         -5    1    3    3    0  502 -0.23267519182E+02  0.45291463974E+02 -0.73898455001E+02  0.89839569285E+02  0.41800000000E+01 0. -1.
        -11    1    1    2    0    0 -0.10802169752E+02  0.17757192720E+02 -0.24426410133E+02  0.32072640625E+02  0.00000000000E+00 0.  1.
         11    1    1    2    0    0  0.72103794793E+02 -0.32566399982E+02 -0.34700015538E+03  0.35590537431E+03  0.00000000000E+00 0. -1.
</event>
<event>
 7    1  0.2794945E-009  0.7019198E+02  0.7561462E-02  0.1359441E+00
         -1   -1    0    0    0  501 -0.00000000000E+00  0.00000000000E+00  0.15530297109E+03  0.15530297109E+03  0.00000000000E+00 0.  1.
          1   -1    0    0  501    0  0.00000000000E+00 -0.00000000000E+00 -0.11312821669E+03  0.11312821669E+03  0.00000000000E+00 0. -1.
         25    2    1    2    0    0 -0.27733677531E+01  0.19942413709E+02  0.97615018292E+02  0.15993511234E+03  0.12508060173E+03 0.  0.
          5    1    3    3  502    0 -0.22320622906E+02  0.10243652726E+02 -0.25017807677E+02  0.35305888022E+02  0.41800000000E+01 0. -1.
         -5    1    3    3    0  502  0.19547255153E+02  0.96987609830E+01  0.12263282597E+03  0.12462922432E+03  0.41800000000E+01 0. -1.
        -11    1    1    2    0    0  0.44371759448E+02 -0.25671584063E+02 -0.31179036646E+02  0.60000129924E+02  0.00000000000E+00 0.  1.
         11    1    1    2    0    0 -0.41598391695E+02  0.57291703538E+01 -0.24261227242E+02  0.48495945519E+02  0.00000000000E+00 0. -1.
</event>
<event>
 7    1  0.2794945E-009  0.1006665E+03  0.7561462E-02  0.1278901E+00
         -2   -1    0    0    0  501 -0.00000000000E+00  0.00000000000E+00  0.11083972321E+03  0.11083972321E+03  0.00000000000E+00 0.  1.
          2   -1    0    0  501    0  0.00000000000E+00 -0.00000000000E+00 -0.20162236231E+03  0.20162236231E+03  0.00000000000E+00 0. -1.
         25    2    1    2    0    0 -0.31772857603E+02 -0.14016617827E+02 -0.15092959637E+03  0.19908342710E+03  0.12509391603E+03 0.  0.
          5    1    3    3  502    0 -0.49212330136E+02  0.43593080345E+02 -0.55299424096E+02  0.86009934291E+02  0.41800000000E+01 0.  1.
         -5    1    3    3    0  502  0.17439472533E+02 -0.57609698172E+02 -0.95630172277E+02  0.11307349281E+03  0.41800000000E+01 0.  1.
        -11    1    1    2    0    0 -0.12352571600E+02  0.26521590162E+02 -0.88169943065E+01  0.30556834889E+02  0.00000000000E+00 0. -1.
         11    1    1    2    0    0  0.44125429202E+02 -0.12504972336E+02  0.68963951584E+02  0.82821823534E+02  0.00000000000E+00 0.  1.
</event>
<event>
 7    1  0.2794945E-009  0.1258064E+03  0.7561462E-02  0.1233814E+00
         -3   -1    0    0    0  501 -0.00000000000E+00  0.00000000000E+00  0.10881089171E+03  0.10881089171E+03  0.00000000000E+00 0.  1.
          3   -1    0    0  501    0  0.00000000000E+00 -0.00000000000E+00 -0.16086694568E+03  0.16086694568E+03  0.00000000000E+00 0. -1.
         25    2    1    2    0    0  0.31339861384E+02  0.66535806343E+02 -0.95992153805E+01  0.14542460752E+03  0.12508785352E+03 0.  0.
          5    1    3    3  502    0  0.15732729793E+01  0.96907326525E+02 -0.24697262828E+02  0.10010460685E+03  0.41800000000E+01 0. -1.
         -5    1    3    3    0  502  0.29766588405E+02 -0.30371520182E+02  0.15098047447E+02  0.45320000664E+02  0.41800000000E+01 0. -1.
        -11    1    1    2    0    0 -0.59510418262E+02 -0.56233767817E+02 -0.14305265688E+02  0.83116587701E+02  0.00000000000E+00 0.  1.
         11    1    1    2    0    0  0.28170556877E+02 -0.10302038526E+02 -0.28151572895E+02  0.41136642170E+02  0.00000000000E+00 0. -1.
</event>
<event>
 7    1  0.2794945E-009  0.2305311E+03  0.7561462E-02  0.1126267E+00
          2   -1    0    0  501    0  0.00000000000E+00  0.00000000000E+00  0.13915932373E+04  0.13915932373E+04  0.00000000000E+00 0. -1.
         -2   -1    0    0    0  501 -0.00000000000E+00 -0.00000000000E+00 -0.44108127594E+02  0.44108127594E+02  0.00000000000E+00 0.  1.
         25    2    1    2    0    0 -0.87945986229E+01 -0.21822590224E+03  0.55844491427E+03  0.61254190910E+03  0.12508788410E+03 0.  0.
          5    1    3    3  502    0  0.12479081088E+02 -0.39087209071E+01  0.15132137737E+03  0.15194287483E+03  0.41800000000E+01 0.  1.
         -5    1    3    3    0  502 -0.21273679711E+02 -0.21431718133E+03  0.40712353690E+03  0.46059903426E+03  0.41800000000E+01 0.  1.
        -11    1    1    2    0    0 -0.31183955570E+02  0.14673982145E+03  0.44918458334E+03  0.47357344118E+03  0.00000000000E+00 0.  1.
         11    1    1    2    0    0  0.39978554193E+02  0.71486080794E+02  0.33985561208E+03  0.34958601460E+03  0.00000000000E+00 0. -1.
</event>
<event>
 7    1  0.2794945E-009  0.9074813E+02  0.7561462E-02  0.1301050E+00
         -3   -1    0    0    0  501 -0.00000000000E+00  0.00000000000E+00  0.11884765167E+03  0.11884765167E+03  0.00000000000E+00 0.  1.
          3   -1    0    0  501    0  0.00000000000E+00 -0.00000000000E+00 -0.11243360592E+03  0.11243360592E+03  0.00000000000E+00 0. -1.
         25    2    1    2    0    0  0.14147685698E+01 -0.35786846309E+02 -0.18892385612E+02  0.13148239529E+03  0.12509195856E+03 0.  0.
          5    1    3    3  502    0  0.23678400055E+01  0.29598690219E+02  0.35395271630E+02  0.46389511559E+02  0.41800000000E+01 0. -1.
         -5    1    3    3    0  502 -0.95307143569E+00 -0.65385536528E+02 -0.54287657241E+02  0.85092883727E+02  0.41800000000E+01 0. -1.
        -11    1    1    2    0    0  0.29775822689E+02 -0.92695213624E+01  0.31892456977E+02  0.44605520455E+02  0.00000000000E+00 0.  1.
         11    1    1    2    0    0 -0.31190591259E+02  0.45056367671E+02 -0.65860256121E+01  0.55193341846E+02  0.00000000000E+00 0. -1.
</event>
<event>
 7    1  0.2794945E-009  0.1225978E+03  0.7561462E-02  0.1238872E+00
         -2   -1    0    0    0  501 -0.00000000000E+00  0.00000000000E+00  0.36123044764E+02  0.36123044764E+02  0.00000000000E+00 0.  1.
          2   -1    0    0  501    0  0.00000000000E+00 -0.00000000000E+00 -0.10409141029E+04  0.10409141029E+04  0.00000000000E+00 0. -1.
         25    2    1    2    0    0 -0.45930443029E+02  0.68091698195E+02 -0.90964398583E+03  0.92187086590E+03  0.12509047722E+03 0.  0.
          5    1    3    3  502    0 -0.11333079822E+02  0.85599337932E+02 -0.81405484263E+03  0.81863205689E+03  0.41800000000E+01 0.  1.
         -5    1    3    3    0  502 -0.34597363208E+02 -0.17507639738E+02 -0.95589143200E+02  0.10323880902E+03  0.41800000000E+01 0.  1.
        -11    1    1    2    0    0  0.70989296120E+02 -0.61280713372E+02 -0.87076382639E+02  0.12797305345E+03  0.00000000000E+00 0. -1.
         11    1    1    2    0    0 -0.25058853090E+02 -0.68109848226E+01 -0.80706896184E+01  0.27193228263E+02  0.00000000000E+00 0.  1.
</event>
<event>
 7    1  0.2794945E-009  0.7279182E+02  0.7561462E-02  0.1350849E+00
          1   -1    0    0  501    0  0.00000000000E+00  0.00000000000E+00  0.11268385026E+04  0.11268385026E+04  0.00000000000E+00 0. -1.
         -1   -1    0    0    0  501 -0.00000000000E+00 -0.00000000000E+00 -0.18458826416E+02  0.18458826416E+02  0.00000000000E+00 0.  1.
         25    2    1    2    0    0  0.26151601575E+02  0.69915790960E+01  0.95927161988E+03  0.96777154756E+03  0.12508772562E+03 0.  0.
          5    1    3    3  502    0  0.20705608614E+02 -0.29985578779E+02  0.83595954374E+02  0.91288625526E+02  0.41800000000E+01 0. -1.
         -5    1    3    3    0  502  0.54459929615E+01  0.36977157875E+02  0.87567566551E+03  0.87648292203E+03  0.41800000000E+01 0. -1.
        -11    1    1    2    0    0 -0.23797894277E+02  0.27703192440E+02  0.15862804744E+02  0.39817524003E+02  0.00000000000E+00 0.  1.
         11    1    1    2    0    0 -0.23537072981E+01 -0.34694771536E+02  0.13324525160E+03  0.13770825751E+03  0.00000000000E+00 0. -1.
</event>
<event>
 7    1  0.2794945E-009  0.7073977E+02  0.7561462E-02  0.1357595E+00
          3   -1    0    0  501    0  0.00000000000E+00  0.00000000000E+00  0.57143415791E+03  0.57143415791E+03  0.00000000000E+00 0. -1.
         -3   -1    0    0    0  501 -0.00000000000E+00 -0.00000000000E+00 -0.45348813396E+02  0.45348813396E+02  0.00000000000E+00 0.  1.
         25    2    1    2    0    0 -0.14561870434E+02 -0.15117050364E+02  0.51774872094E+03  0.53305934039E+03  0.12509176256E+03 0.  0.
          5    1    3    3  502    0 -0.55149494395E+02 -0.20335223630E+02  0.44969701263E+03  0.45354146846E+03  0.41800000000E+01 0. -1.
         -5    1    3    3    0  502  0.40587623961E+02  0.52181732663E+01  0.68051708311E+02  0.79517871922E+02  0.41800000000E+01 0. -1.
        -11    1    1    2    0    0 -0.45803445958E+01  0.20919456395E+02 -0.32113055536E+02  0.38598595160E+02  0.00000000000E+00 0.  1.
         11    1    1    2    0    0  0.19142215030E+02 -0.58024060309E+01  0.40449679114E+02  0.45125035761E+02  0.00000000000E+00 0. -1.
</event>
<event>
 6    1  0.2794945E-009  0.9709092E+02  0.7561462E-02  0.1286535E+00
         -2   -1    0    0    0  501 -0.00000000000E+00  0.00000000000E+00  0.11830301334E+02  0.11830301334E+02  0.00000000000E+00 0.  1.
          2   -1    0    0  501    0  0.00000000000E+00 -0.00000000000E+00 -0.11588236765E+04  0.11588236765E+04  0.00000000000E+00 0. -1.
          5    1    1    2  502    0 -0.49393279223E+02  0.14819014702E+02 -0.16880596796E+03  0.17655658144E+03  0.41800000000E+01 0.  1.
         -5    1    1    2    0  502  0.37364507929E+02 -0.31232706055E+02 -0.67038622829E+03  0.67216572053E+03  0.41800000000E+01 0.  1.
        -11    1    1    2    0    0  0.36003417871E+02 -0.26298596996E+02 -0.16722694067E+03  0.17306851818E+03  0.00000000000E+00 0. -1.
         11    1    1    2    0    0 -0.23974646577E+02  0.42712288348E+02 -0.14057423822E+03  0.14886315765E+03  0.00000000000E+00 0.  1.
</event>
<event>
 7    1  0.2794945E-009  0.1522930E+03  0.7561462E-02  0.1197683E+00
         -1   -1    0    0    0  501 -0.00000000000E+00  0.00000000000E+00  0.35595737204E+03  0.35595737204E+03  0.00000000000E+00 0.  1.
          1   -1    0    0  501    0  0.00000000000E+00 -0.00000000000E+00 -0.11477239418E+03  0.11477239418E+03  0.00000000000E+00 0. -1.
         25    2    1    2    0    0  0.50105159567E+02 -0.11593411463E+03  0.25860384613E+03  0.31380670029E+03  0.12508976763E+03 0.  0.
          5    1    3    3  502    0  0.51301409358E+02 -0.14180756146E+03  0.22927669951E+03  0.27445672961E+03  0.41800000000E+01 0. -1.
         -5    1    3    3    0  502 -0.11962497912E+01  0.25873446825E+02  0.29327146620E+02  0.39349970687E+02  0.41800000000E+01 0. -1.
        -11    1    1    2    0    0 -0.68796441466E+01  0.35661449142E+02  0.36096955167E+02  0.51206040961E+02  0.00000000000E+00 0.  1.
         11    1    1    2    0    0 -0.43225515420E+02  0.80272665491E+02 -0.53515823435E+02  0.10571702496E+03  0.00000000000E+00 0. -1.
</event>
<event>
 7    1  0.3074318E-009  0.1761744E+03  0.7561462E-02  0.1171558E+00
         -2   -1    0    0    0  501 -0.00000000000E+00  0.00000000000E+00  0.26682077992E+02  0.26682077992E+02  0.00000000000E+00 0.  1.
          2   -1    0    0  501    0  0.00000000000E+00 -0.00000000000E+00 -0.14176505357E+04  0.14176505357E+04  0.00000000000E+00 0. -1.
         25    2    1    2    0    0  0.74158168870E+02 -0.13540225239E+03 -0.89782445560E+03  0.91954840176E+03  0.12508919276E+03 0.  0.
          5    1    3    3  502    0 -0.27412745377E+02 -0.42702041277E+01 -0.73100797685E+02  0.78300014525E+02  0.41800000000E+01 0.  1.
         -5    1    3    3    0  502  0.10157091425E+03 -0.13113204826E+03 -0.82472365792E+03  0.84124838724E+03  0.41800000000E+01 0.  1.
        -11    1    1    2    0    0 -0.94236081937E+01  0.51728368616E+02 -0.29992741224E+03  0.30450136473E+03  0.00000000000E+00 0. -1.
         11    1    1    2    0    0 -0.64734560676E+02  0.83673883772E+02 -0.19321658989E+03  0.22028284723E+03  0.00000000000E+00 0.  1.
</event>
<event>
 7    1  0.2794945E-009  0.1389990E+03  0.7561462E-02  0.1214682E+00
          2   -1    0    0  501    0  0.00000000000E+00  0.00000000000E+00  0.18923983851E+03  0.18923983851E+03  0.00000000000E+00 0. -1.
         -2   -1    0    0    0  501 -0.00000000000E+00 -0.00000000000E+00 -0.15234007804E+03  0.15234007804E+03  0.00000000000E+00 0.  1.
         25    2    1    2    0    0  0.90989886034E+02  0.34952574395E+02  0.10609071255E+03  0.19079512402E+03  0.12508676285E+03 0.  0.
          5    1    3    3  502    0 -0.13923185862E+02  0.44959151454E+02  0.10396590166E+02  0.48381214238E+02  0.41800000000E+01 0.  1.
         -5    1    3    3    0  502  0.10491307190E+03 -0.10006577060E+02  0.95694122386E+02  0.14241390978E+03  0.41800000000E+01 0.  1.
        -11    1    1    2    0    0 -0.38585557946E+02  0.24745713604E+02 -0.61473952438E+00  0.45842922338E+02  0.00000000000E+00 0. -1.
         11    1    1    2    0    0 -0.52404328088E+02 -0.59698287999E+02 -0.68576212554E+02  0.10494187020E+03  0.00000000000E+00 0.  1.
</event>
<event>
 7    1  0.2794945E-009  0.1727323E+03  0.7561462E-02  0.1175028E+00
          2   -1    0    0  501    0  0.00000000000E+00  0.00000000000E+00  0.52391589687E+03  0.52391589687E+03  0.00000000000E+00 0.  1.
         -2   -1    0    0    0  501 -0.00000000000E+00 -0.00000000000E+00 -0.59407966467E+02  0.59407966467E+02  0.00000000000E+00 0. -1.
         25    2    1    2    0    0 -0.92995451827E+02  0.10382848442E+03  0.21382562336E+03  0.28424540818E+03  0.12508215951E+03 0.  0.
          5    1    3    3  502    0  0.28070560864E+02  0.10963144174E+02  0.15987890793E+02  0.34369055404E+02  0.41800000000E+01 0.  1.
         -5    1    3    3    0  502 -0.12106601269E+03  0.92865340247E+02  0.19783773256E+03  0.24987635277E+03  0.41800000000E+01 0.  1.
        -11    1    1    2    0    0  0.30438705165E+02 -0.94341540933E+02  0.13916044877E+03  0.17085804523E+03  0.00000000000E+00 0.  1.
         11    1    1    2    0    0  0.62556746663E+02 -0.94869434878E+01  0.11152185828E+03  0.12822040993E+03  0.00000000000E+00 0. -1.
</event>
<event>
 7    1  0.2794945E-009  0.1204564E+03  0.7561462E-02  0.1242346E+00
         -2   -1    0    0    0  501 -0.00000000000E+00  0.00000000000E+00  0.23822016719E+03  0.23822016719E+03  0.00000000000E+00 0.  1.
          2   -1    0    0  501    0  0.00000000000E+00 -0.00000000000E+00 -0.94225761264E+02  0.94225761264E+02  0.00000000000E+00 0. -1.
         25    2    1    2    0    0 -0.29760434117E+02 -0.85587277938E+02  0.20995052828E+02  0.15587869934E+03  0.12508601473E+03 0.  0.
          5    1    3    3  502    0 -0.14574081263E+02  0.20116667230E+02 -0.28556243203E+02  0.38079069985E+02  0.41800000000E+01 0. -1.
         -5    1    3    3    0  502 -0.15186352853E+02 -0.10570394517E+03  0.49551296031E+02  0.11779962935E+03  0.41800000000E+01 0. -1.
        -11    1    1    2    0    0  0.19628636845E+02 -0.28509449257E+01  0.70467819690E+02  0.73206044035E+02  0.00000000000E+00 0.  1.
         11    1    1    2    0    0  0.10131797271E+02  0.88438222864E+02  0.52531533404E+02  0.10336118508E+03  0.00000000000E+00 0. -1.
</event>
<event>
 7    1  0.2794945E-009  0.2841822E+03  0.7561462E-02  0.1093426E+00
          1   -1    0    0  501    0  0.00000000000E+00  0.00000000000E+00  0.23630153380E+03  0.23630153380E+03  0.00000000000E+00 0.  1.
         -1   -1    0    0    0  501 -0.00000000000E+00 -0.00000000000E+00 -0.54268711142E+03  0.54268711142E+03  0.00000000000E+00 0. -1.
         25    2    1    2    0    0 -0.17285675054E+03 -0.22384131869E+03  0.51913958666E+02  0.31358670105E+03  0.12512860507E+03 0.  0.
          5    1    3    3  502    0 -0.11169488876E+03 -0.15839972045E+03  0.92921716890E+02  0.21498404006E+03  0.41800000000E+01 0. -1.
         -5    1    3    3    0  502 -0.61161861788E+02 -0.65441598246E+02 -0.41007758225E+02  0.98602660983E+02  0.41800000000E+01 0. -1.
        -11    1    1    2    0    0  0.73862210415E+02  0.69192878117E+02 -0.68090769555E+02  0.12198210282E+03  0.00000000000E+00 0. -1.
         11    1    1    2    0    0  0.98994540129E+02  0.15464844058E+03 -0.29020876673E+03  0.34341984135E+03  0.00000000000E+00 0.  1.
</event>
<event>
 7    1  0.2794945E-009  0.1689281E+03  0.7561462E-02  0.1178970E+00
         -2   -1    0    0    0  501 -0.00000000000E+00  0.00000000000E+00  0.19289737505E+02  0.19289737505E+02  0.00000000000E+00 0.  1.
          2   -1    0    0  501    0  0.00000000000E+00 -0.00000000000E+00 -0.26073132582E+04  0.26073132582E+04  0.00000000000E+00 0. -1.
         25    2    1    2    0    0  0.13016653761E+03  0.28335330374E+02 -0.21867893202E+04  0.21944113488E+04  0.12508964172E+03 0.  0.
          5    1    3    3  502    0  0.98140261396E+02 -0.39447927816E+02 -0.14271230386E+04  0.14310434269E+04  0.41800000000E+01 0. -1.
         -5    1    3    3    0  502  0.32026276212E+02  0.67783258190E+02 -0.75966628160E+03  0.76336792195E+03  0.41800000000E+01 0. -1.
        -11    1    1    2    0    0 -0.76073427287E+02 -0.57595836999E+02 -0.28712911437E+03  0.30256829823E+03  0.00000000000E+00 0.  1.
         11    1    1    2    0    0 -0.54093110321E+02  0.29260506626E+02 -0.11410508611E+03  0.12962334862E+03  0.00000000000E+00 0. -1.
</event>
<event>
 7    1  0.2794945E-009  0.1010719E+03  0.7561462E-02  0.1278058E+00
         -2   -1    0    0    0  501 -0.00000000000E+00  0.00000000000E+00  0.87992175343E+02  0.87992175343E+02  0.00000000000E+00 0.  1.
          2   -1    0    0  501    0  0.00000000000E+00 -0.00000000000E+00 -0.20322849666E+03  0.20322849666E+03  0.00000000000E+00 0. -1.
         25    2    1    2    0    0  0.74667684263E+02  0.19933995002E+01 -0.54582176801E+02  0.15558326266E+03  0.12509077056E+03 0.  0.
          5    1    3    3  502    0  0.41035317141E+02  0.44320475585E+02 -0.76099775241E+02  0.97246336695E+02  0.41800000000E+01 0. -1.
         -5    1    3    3    0  502  0.33632367122E+02 -0.42327076085E+02  0.21517598440E+02  0.58336925962E+02  0.41800000000E+01 0. -1.
        -11    1    1    2    0    0 -0.17739008996E+02  0.19648921301E+02 -0.69243418337E+02  0.74130989009E+02  0.00000000000E+00 0. -1.
         11    1    1    2    0    0 -0.56928675267E+02 -0.21642320801E+02  0.85892738251E+01  0.61506420333E+02  0.00000000000E+00 0.  1.
</event>
<event>
 7    1  0.2794945E-009  0.9710135E+02  0.7561462E-02  0.1286512E+00
          2   -1    0    0  501    0  0.00000000000E+00  0.00000000000E+00  0.49692732630E+03  0.49692732630E+03  0.00000000000E+00 0.  1.
         -2   -1    0    0    0  501 -0.00000000000E+00 -0.00000000000E+00 -0.36905027360E+02  0.36905027360E+02  0.00000000000E+00 0. -1.
         25    2    1    2    0    0 -0.22076540280E+02 -0.56055089628E+02  0.36413275076E+03  0.38970574887E+03  0.12509342039E+03 0.  0.
          5    1    3    3  502    0 -0.52979686741E+02  0.10370932251E+02  0.82592012698E+02  0.98758880130E+02  0.41800000000E+01 0.  1.
         -5    1    3    3    0  502  0.30903146461E+02 -0.66426021879E+02  0.28154073806E+03  0.29094686874E+03  0.41800000000E+01 0.  1.
        -11    1    1    2    0    0  0.27085511496E+02  0.31188265713E+02 -0.35903969553E+01  0.41463523746E+02  0.00000000000E+00 0. -1.
         11    1    1    2    0    0 -0.50089712157E+01  0.24866823915E+02  0.99479945134E+02  0.10266308104E+03  0.00000000000E+00 0.  1.
</event>
<event>
 7    1  0.2794945E-009  0.1024632E+03  0.7561462E-02  0.1275200E+00
          1   -1    0    0  501    0  0.00000000000E+00  0.00000000000E+00  0.70605115557E+03  0.70605115557E+03  0.00000000000E+00 0. -1.
         -1   -1    0    0    0  501 -0.00000000000E+00 -0.00000000000E+00 -0.19624857620E+02  0.19624857620E+02  0.00000000000E+00 0.  1.
         25    2    1    2    0    0 -0.98018559823E+01 -0.17955573999E+02  0.50885684310E+03  0.52440552305E+03  0.12508951522E+03 0.  0.
          5    1    3    3  502    0 -0.77180891143E+01 -0.64824427533E+02  0.40652094426E+03  0.41175056263E+03  0.41800000000E+01 0.  1.
         -5    1    3    3    0  502 -0.20837668681E+01  0.46868853534E+02  0.10233589884E+03  0.11265496042E+03  0.41800000000E+01 0.  1.
        -11    1    1    2    0    0  0.49044472594E+02  0.20338859978E+02  0.79350603807E+02  0.95475378197E+02  0.00000000000E+00 0.  1.
         11    1    1    2    0    0 -0.39242616612E+02 -0.23832859790E+01  0.98218851040E+02  0.10579511194E+03  0.00000000000E+00 0. -1.
</event>
<event>
 7    1  0.2794945E-009  0.1004435E+03  0.7561462E-02  0.1279366E+00
          1   -1    0    0  501    0  0.00000000000E+00  0.00000000000E+00  0.33987611980E+03  0.33987611980E+03  0.00000000000E+00 0. -1.
         -1   -1    0    0    0  501 -0.00000000000E+00 -0.00000000000E+00 -0.48136935690E+02  0.48136935690E+02  0.00000000000E+00 0.  1.
         25    2    1    2    0    0  0.34938929437E+02 -0.40659146872E+02  0.10153982192E+03  0.16979815990E+03  0.12508870715E+03 0.  0.
          5    1    3    3  502    0 -0.22994691649E+02  0.12260591673E+02 -0.14150466929E+02  0.29946386535E+02  0.41800000000E+01 0. -1.
         -5    1    3    3    0  502  0.57933621086E+02 -0.52919738545E+02  0.11569028885E+03  0.13985177336E+03  0.41800000000E+01 0. -1.
        -11    1    1    2    0    0  0.79729722168E+01 -0.20048372809E+02  0.95040733347E+02  0.97458947940E+02  0.00000000000E+00 0.  1.
         11    1    1    2    0    0 -0.42911901654E+02  0.60707519681E+02  0.95158628850E+02  0.12075594765E+03  0.00000000000E+00 0. -1.
</event>
<event>
 7    1  0.2794945E-009  0.1222764E+03  0.7561462E-02  0.1239388E+00
          1   -1    0    0  501    0  0.00000000000E+00  0.00000000000E+00  0.31337662752E+02  0.31337662752E+02  0.00000000000E+00 0. -1.
         -1   -1    0    0    0  501 -0.00000000000E+00 -0.00000000000E+00 -0.49080631914E+03  0.49080631914E+03  0.00000000000E+00 0.  1.
         25    2    1    2    0    0 -0.45876869696E+01 -0.67635078080E+02 -0.25668758494E+03  0.29348298263E+03  0.12509274230E+03 0.  0.
          5    1    3    3  502    0 -0.61185047023E+02 -0.58334410656E+02 -0.15898962473E+03  0.18011575894E+03  0.41800000000E+01 0.  1.
         -5    1    3    3    0  502  0.56597360054E+02 -0.93006674237E+01 -0.97697960208E+02  0.11336722369E+03  0.41800000000E+01 0.  1.
        -11    1    1    2    0    0  0.38520152679E+02  0.52830687969E+02 -0.15492484450E+03  0.16815644857E+03  0.00000000000E+00 0.  1.
         11    1    1    2    0    0 -0.33932465709E+02  0.14804390111E+02 -0.47856226948E+02  0.60504550683E+02  0.00000000000E+00 0. -1.
</event>
<event>
 7    1  0.2794945E-009  0.1066353E+03  0.7561462E-02  0.1266931E+00
         -1   -1    0    0    0  501 -0.00000000000E+00  0.00000000000E+00  0.69517033367E+03  0.69517033367E+03  0.00000000000E+00 0.  1.
          1   -1    0    0  501    0  0.00000000000E+00 -0.00000000000E+00 -0.18068731983E+02  0.18068731983E+02  0.00000000000E+00 0. -1.
         25    2    1    2    0    0 -0.21242706913E+02  0.17430889425E+02  0.39776891113E+03  0.41788028343E+03  0.12509490846E+03 0.  0.
          5    1    3    3  502    0  0.14192864924E+02 -0.45807878325E+02  0.94675639397E+02  0.10621086680E+03  0.41800000000E+01 0.  1.
         -5    1    3    3    0  502 -0.35435571837E+02  0.63238767750E+02  0.30309327173E+03  0.31166941663E+03  0.41800000000E+01 0.  1.
        -11    1    1    2    0    0  0.36145886256E+02  0.27349476143E+02  0.97827749679E+02  0.10781830803E+03  0.00000000000E+00 0.  1.
         11    1    1    2    0    0 -0.14903179343E+02 -0.44780365568E+02  0.18150494089E+03  0.18754047420E+03  0.00000000000E+00 0. -1.
</event>
<event>
 7    1  0.2794945E-009  0.1463834E+03  0.7561462E-02  0.1204989E+00
          2   -1    0    0  501    0  0.00000000000E+00  0.00000000000E+00  0.77474938393E+03  0.77474938393E+03  0.00000000000E+00 0. -1.
         -2   -1    0    0    0  501 -0.00000000000E+00 -0.00000000000E+00 -0.35684087455E+02  0.35684087455E+02  0.00000000000E+00 0.  1.
         25    2    1    2    0    0  0.11036068936E+03 -0.26351204115E+02  0.25374242499E+03  0.30480570968E+03  0.12508970661E+03 0.  0.
          5    1    3    3  502    0 -0.19246017207E+02 -0.19867367443E+02  0.12076056369E+02  0.30470067359E+02  0.41800000000E+01 0.  1.
         -5    1    3    3    0  502  0.12960670656E+03 -0.64838366722E+01  0.24166636862E+03  0.27433564232E+03  0.41800000000E+01 0.  1.
        -11    1    1    2    0    0 -0.77243746661E+02 -0.18282574434E+02  0.35814627705E+03  0.36683730003E+03  0.00000000000E+00 0.  1.
         11    1    1    2    0    0 -0.33116942697E+02  0.44633778548E+02  0.12717659444E+03  0.13879046168E+03  0.00000000000E+00 0. -1.
</event>
<event>
 7    1  0.4797294E-009  0.1113397E+03  0.7561462E-02  0.1258109E+00
          1   -1    0    0  501    0  0.00000000000E+00  0.00000000000E+00  0.34455579950E+03  0.34455579950E+03  0.00000000000E+00 0. -1.
         -1   -1    0    0    0  501 -0.00000000000E+00 -0.00000000000E+00 -0.57869513121E+02  0.57869513121E+02  0.00000000000E+00 0.  1.
         25    2    1    2    0    0  0.32572347983E+02 -0.81685019183E+02  0.13054808072E+03  0.20105279752E+03  0.12508407493E+03 0.  0.
          5    1    3    3  502    0 -0.33107674579E+02 -0.36440367334E+02  0.16757857277E+01  0.49439853815E+02  0.41800000000E+01 0. -1.
         -5    1    3    3    0  502  0.65680022562E+02 -0.45244651849E+02  0.12887229499E+03  0.15161294371E+03  0.41800000000E+01 0. -1.
        -11    1    1    2    0    0 -0.12389127539E+02  0.67757256937E+02  0.34033588428E+02  0.76829821620E+02  0.00000000000E+00 0.  1.
         11    1    1    2    0    0 -0.20183220444E+02  0.13927762246E+02  0.12210461724E+03  0.12454269348E+03  0.00000000000E+00 0. -1.
</event>
<event>
 7    1  0.2794945E-009  0.1078711E+03  0.7561462E-02  0.1264564E+00
         -2   -1    0    0    0  501 -0.00000000000E+00  0.00000000000E+00  0.54047291390E+02  0.54047291390E+02  0.00000000000E+00 0. -1.
          2   -1    0    0  501    0  0.00000000000E+00 -0.00000000000E+00 -0.25130193288E+03  0.25130193288E+03  0.00000000000E+00 0.  1.
         25    2    1    2    0    0 -0.13189900578E+02 -0.62825308180E+01 -0.58426980238E+02  0.13883210081E+03  0.12508875459E+03 0.  0.
          5    1    3    3  502    0 -0.29810071236E+02  0.54636446038E+02 -0.24415953607E+02  0.66988004697E+02  0.41800000000E+01 0.  1.
         -5    1    3    3    0  502  0.16620170658E+02 -0.60918976856E+02 -0.34011026630E+02  0.71844096113E+02  0.41800000000E+01 0.  1.
        -11    1    1    2    0    0 -0.18886323025E+02  0.39573421246E+02 -0.50946583046E+02  0.67218324813E+02  0.00000000000E+00 0.  1.
         11    1    1    2    0    0  0.32076223603E+02 -0.33290890428E+02 -0.87881078209E+02  0.99298798650E+02  0.00000000000E+00 0. -1.
</event>
<event>
 7    1  0.2794945E-009  0.1709570E+03  0.7561462E-02  0.1176854E+00
          1   -1    0    0  501    0  0.00000000000E+00  0.00000000000E+00  0.37626378396E+02  0.37626378396E+02  0.00000000000E+00 0. -1.
         -1   -1    0    0    0  501 -0.00000000000E+00 -0.00000000000E+00 -0.87283289497E+03  0.87283289497E+03  0.00000000000E+00 0.  1.
         25    2    1    2    0    0 -0.13692703749E+03 -0.45067932374E+02 -0.39490108275E+03  0.43860528197E+03  0.12509035172E+03 0.  0.
          5    1    3    3  502    0 -0.70155892453E+02  0.33415953872E+02 -0.24176387670E+03  0.25397976238E+03  0.41800000000E+01 0.  1.
         -5    1    3    3    0  502 -0.66771145034E+02 -0.78483886246E+02 -0.15313720605E+03  0.18462551959E+03  0.41800000000E+01 0.  1.
        -11    1    1    2    0    0  0.76214928355E+02 -0.12577303169E+02 -0.28660125637E+03  0.29682854312E+03  0.00000000000E+00 0.  1.
         11    1    1    2    0    0  0.60712109132E+02  0.57645235542E+02 -0.15370417746E+03  0.17502544827E+03  0.00000000000E+00 0. -1.
</event>
<event>
 7    1  0.2794945E-009  0.1126296E+03  0.7561462E-02  0.1255776E+00
          1   -1    0    0  501    0  0.00000000000E+00  0.00000000000E+00  0.39034626590E+03  0.39034626590E+03  0.00000000000E+00 0. -1.
         -1   -1    0    0    0  501 -0.00000000000E+00 -0.00000000000E+00 -0.34283440454E+02  0.34283440454E+02  0.00000000000E+00 0.  1.
         25    2    1    2    0    0  0.11426529962E+02  0.33029315176E+02  0.23758442506E+03  0.27076278779E+03  0.12507848326E+03 0.  0.
          5    1    3    3  502    0 -0.43319259061E+02 -0.24159049760E+02  0.77230910290E+02  0.91882010183E+02  0.41800000000E+01 0.  1.
         -5    1    3    3    0  502  0.54745789024E+02  0.57188364936E+02  0.16035351477E+03  0.17888077761E+03  0.41800000000E+01 0.  1.
        -11    1    1    2    0    0 -0.24324387116E+02  0.26104131156E+02  0.29718762837E+02  0.46436045661E+02  0.00000000000E+00 0. -1.
         11    1    1    2    0    0  0.12897857154E+02 -0.59133446332E+02  0.88759637555E+02  0.10743087291E+03  0.00000000000E+00 0.  1.
</event>
<event>
 6    1  0.2794945E-009  0.1274678E+03  0.7561462E-02  0.1231262E+00
         -2   -1    0    0    0  501 -0.00000000000E+00  0.00000000000E+00  0.15228534651E+03  0.15228534651E+03  0.00000000000E+00 0.  1.
          2   -1    0    0  501    0  0.00000000000E+00 -0.00000000000E+00 -0.12141606507E+03  0.12141606507E+03  0.00000000000E+00 0. -1.
          5    1    1    2  502    0 -0.82973801307E+02 -0.51604976621E+02 -0.20690413568E+02  0.99966449017E+02  0.41800000000E+01 0. -1.
         -5    1    1    2    0  502  0.20590579683E+01  0.42174094364E+02  0.25400586084E+02  0.49452564428E+02  0.41800000000E+01 0. -1.
        -11    1    1    2    0    0 -0.20010041780E+01 -0.24886054149E+02  0.23832841341E+02  0.34515562218E+02  0.00000000000E+00 0.  1.
         11    1    1    2    0    0  0.82915747517E+02  0.34316936406E+02  0.23262675798E+01  0.89766835922E+02  0.00000000000E+00 0. -1.
</event>
<event>
 7    1  0.3703758E-009  0.7729373E+02  0.7561462E-02  0.1336912E+00
         -1   -1    0    0    0  501 -0.00000000000E+00  0.00000000000E+00  0.55568886402E+02  0.55568886402E+02  0.00000000000E+00 0.  1.
          1   -1    0    0  501    0  0.00000000000E+00 -0.00000000000E+00 -0.23537869064E+03  0.23537869064E+03  0.00000000000E+00 0. -1.
         25    2    1    2    0    0 -0.25738834986E+02  0.24095610473E+02 -0.11271261246E+03  0.17203132035E+03  0.12509019187E+03 0.  0.
          5    1    3    3  502    0 -0.53516727128E+02  0.52241688484E+01  0.43115685747E+00  0.53935056493E+02  0.41800000000E+01 0.  1.
         -5    1    3    3    0  502  0.27777892142E+02  0.18871441625E+02 -0.11314376932E+03  0.11809626386E+03  0.41800000000E+01 0.  1.
        -11    1    1    2    0    0  0.17561667398E+02  0.17279767697E+02  0.13395432730E+02  0.28043540281E+02  0.00000000000E+00 0.  1.
         11    1    1    2    0    0  0.81771675883E+01 -0.41375378170E+02 -0.80492624505E+02  0.90872716413E+02  0.00000000000E+00 0. -1.
</event>
<event>
 7    1  0.2794945E-009  0.1161457E+03  0.7561462E-02  0.1249594E+00
          1   -1    0    0  501    0  0.00000000000E+00  0.00000000000E+00  0.67807325466E+03  0.67807325466E+03  0.00000000000E+00 0. -1.
         -1   -1    0    0    0  501 -0.00000000000E+00 -0.00000000000E+00 -0.22722717435E+02  0.22722717435E+02  0.00000000000E+00 0.  1.
         25    2    1    2    0    0 -0.51947685097E+02  0.27935681284E+02  0.41819171781E+03  0.44046178516E+03  0.12507320685E+03 0.  0.
          5    1    3    3  502    0  0.23830869747E+02 -0.23245094988E+02  0.44554310378E+02  0.55774579937E+02  0.41800000000E+01 0.  1.
         -5    1    3    3    0  502 -0.75778554843E+02  0.51180776272E+02  0.37363740743E+03  0.38468720523E+03  0.41800000000E+01 0.  1.
        -11    1    1    2    0    0  0.34665751482E+02 -0.60846423067E+02  0.14773267500E+03  0.16348989201E+03  0.00000000000E+00 0. -1.
         11    1    1    2    0    0  0.17281933615E+02  0.32910741783E+02  0.89426144412E+02  0.96844294920E+02  0.00000000000E+00 0.  1.
</event>
<event>
 7    1  0.2794945E-009  0.9289634E+02  0.7561462E-02  0.1295986E+00
          2   -1    0    0  501    0  0.00000000000E+00  0.00000000000E+00  0.74056692634E+03  0.74056692634E+03  0.00000000000E+00 0. -1.
         -2   -1    0    0    0  501 -0.00000000000E+00 -0.00000000000E+00 -0.17972524174E+02  0.17972524174E+02  0.00000000000E+00 0.  1.
         25    2    1    2    0    0 -0.23997235961E+01 -0.47996923655E+02  0.35929096876E+03  0.38346674691E+03  0.12508909784E+03 0.  0.
          5    1    3    3  502    0  0.18302396026E+01  0.23732873991E+02  0.25843040470E+03  0.25955798111E+03  0.41800000000E+01 0.  1.
         -5    1    3    3    0  502 -0.42299631986E+01 -0.71729797646E+02  0.10086056406E+03  0.12390876580E+03  0.41800000000E+01 0.  1.
        -11    1    1    2    0    0  0.14985534833E+02 -0.17450937185E+02  0.54432230679E+02  0.59092886201E+02  0.00000000000E+00 0.  1.
         11    1    1    2    0    0 -0.12585811237E+02  0.65447860840E+02  0.30887120272E+03  0.31597981740E+03  0.00000000000E+00 0. -1.
</event>
<event>
 7    1  0.2794945E-009  0.1023899E+03  0.7561462E-02  0.1275349E+00
          2   -1    0    0  501    0  0.00000000000E+00  0.00000000000E+00  0.10971377178E+03  0.10971377178E+03  0.00000000000E+00 0. -1.
         -2   -1    0    0    0  501 -0.00000000000E+00 -0.00000000000E+00 -0.15085114209E+03  0.15085114209E+03  0.00000000000E+00 0.  1.
         25    2    1    2    0    0  0.60393288753E+02  0.24138095468E+02 -0.36896677227E+01  0.14103786902E+03  0.12509224544E+03 0.  0.
          5    1    3    3  502    0  0.72884336466E+01  0.41672037317E+02  0.48455585779E+02  0.64460035311E+02  0.41800000000E+01 0.  1.
         -5    1    3    3    0  502  0.53104855106E+02 -0.17533941849E+02 -0.52145253501E+02  0.76577833707E+02  0.41800000000E+01 0.  1.
        -11    1    1    2    0    0  0.11133443879E+01  0.26497174127E+02  0.81353308694E+01  0.27740284439E+02  0.00000000000E+00 0. -1.
         11    1    1    2    0    0 -0.61506633141E+02 -0.50635269595E+02 -0.45583033464E+02  0.91786760412E+02  0.00000000000E+00 0.  1.
</event>
<event>
 7    1  0.2794945E-009  0.8868833E+02  0.7561462E-02  0.1306060E+00
         -2   -1    0    0    0  501 -0.00000000000E+00  0.00000000000E+00  0.86288861448E+01  0.86288861448E+01  0.00000000000E+00 0.  1.
          2   -1    0    0  501    0  0.00000000000E+00 -0.00000000000E+00 -0.16784470957E+04  0.16784470957E+04  0.00000000000E+00 0. -1.
         25    2    1    2    0    0  0.17194902237E+02  0.90463156012E+01 -0.12705561083E+04  0.12768468815E+04  0.12509050306E+03 0.  0.
          5    1    3    3  502    0 -0.15808317047E+01 -0.37471238282E+02 -0.13498619582E+03  0.14016182857E+03  0.41800000000E+01 0.  1.
         -5    1    3    3    0  502  0.18775733941E+02  0.46517553883E+02 -0.11355699125E+04  0.11366850529E+04  0.41800000000E+01 0. -1.
        -11    1    1    2    0    0  0.14582457396E+02 -0.41436033175E+02 -0.13132107404E+03  0.13847316489E+03  0.00000000000E+00 0.  1.
         11    1    1    2    0    0 -0.31777359633E+02  0.32389717574E+02 -0.26794102723E+03  0.27175593547E+03  0.00000000000E+00 0. -1.
</event>
<event>
 7    1  0.2794945E-009  0.1447625E+03  0.7561462E-02  0.1207061E+00
         -2   -1    0    0    0  501 -0.00000000000E+00  0.00000000000E+00  0.22948398905E+02  0.22948398905E+02  0.00000000000E+00 0.  1.
          2   -1    0    0  501    0  0.00000000000E+00 -0.00000000000E+00 -0.15413990366E+04  0.15413990366E+04  0.00000000000E+00 0. -1.
         25    2    1    2    0    0 -0.10736128794E+02 -0.12274473481E+03 -0.11805314616E+04  0.11935172800E+04  0.12508969366E+03 0.  0.
          5    1    3    3  502    0 -0.37115618635E+02 -0.38658691736E+02 -0.15230495444E+03  0.16151264700E+03  0.41800000000E+01 0. -1.
         -5    1    3    3    0  502  0.26379489842E+02 -0.84086043069E+02 -0.10282265071E+04  0.10320046330E+04  0.41800000000E+01 0. -1.
        -11    1    1    2    0    0 -0.33904215684E+02  0.74292268240E+02 -0.23346113184E+03  0.24733163373E+03  0.00000000000E+00 0. -1.
         11    1    1    2    0    0  0.44640344478E+02  0.48452466565E+02 -0.10445804427E+03  0.12349852179E+03  0.00000000000E+00 0.  1.
</event>
<event>
 7    1  0.2794945E-009  0.1047015E+03  0.7561462E-02  0.1270709E+00
         -1   -1    0    0    0  501 -0.00000000000E+00  0.00000000000E+00  0.58483352752E+02  0.58483352752E+02  0.00000000000E+00 0.  1.
          1   -1    0    0  501    0  0.00000000000E+00 -0.00000000000E+00 -0.22361340266E+03  0.22361340266E+03  0.00000000000E+00 0. -1.
         25    2    1    2    0    0 -0.20546658464E+01 -0.23572843233E+02 -0.73928439287E+02  0.14721665452E+03  0.12508968240E+03 0.  0.
          5    1    3    3  502    0  0.37024381738E+01  0.47347859881E+02 -0.56333982655E+02  0.73800527678E+02  0.41800000000E+01 0.  1.
         -5    1    3    3    0  502 -0.57571040202E+01 -0.70920703114E+02 -0.17594456632E+02  0.73416126846E+02  0.41800000000E+01 0.  1.
        -11    1    1    2    0    0  0.21727402425E+02 -0.27890648055E+02 -0.64728294572E+02  0.73754460091E+02  0.00000000000E+00 0.  1.
         11    1    1    2    0    0 -0.19672736579E+02  0.51463491288E+02 -0.26473316047E+02  0.61125640795E+02  0.00000000000E+00 0. -1.
</event>
<event>
 7    1  0.2794945E-009  0.1254212E+03  0.7561462E-02  0.1234413E+00
          1   -1    0    0  501    0  0.00000000000E+00  0.00000000000E+00  0.93494933822E+02  0.93494933822E+02  0.00000000000E+00 0. -1.
         -1   -1    0    0    0  501 -0.00000000000E+00 -0.00000000000E+00 -0.18917489879E+03  0.18917489879E+03  0.00000000000E+00 0.  1.
         25    2    1    2    0    0  0.70207705099E+02 -0.32242620710E+02 -0.54895256597E+02  0.15694190091E+03  0.12509421497E+03 0.  0.
          5    1    3    3  502    0 -0.24935467131E+01  0.35526247331E+02  0.11132705824E+02  0.37546525319E+02  0.41800000000E+01 0. -1.
         -5    1    3    3    0  502  0.72701251812E+02 -0.67768868041E+02 -0.66027962421E+02  0.11939537559E+03  0.41800000000E+01 0. -1.
        -11    1    1    2    0    0 -0.25605506548E+02 -0.29677039129E+02  0.10896621702E-01  0.39196539845E+02  0.00000000000E+00 0. -1.
         11    1    1    2    0    0 -0.44602198550E+02  0.61919659839E+02 -0.40795604989E+02  0.86531391856E+02  0.00000000000E+00 0.  1.
</event>
<event>
 7    1  0.2794945E-009  0.1179120E+03  0.7561462E-02  0.1246582E+00
         -2   -1    0    0    0  501 -0.00000000000E+00  0.00000000000E+00  0.31625511929E+02  0.31625511929E+02  0.00000000000E+00 0.  1.
          2   -1    0    0  501    0  0.00000000000E+00 -0.00000000000E+00 -0.87594196067E+03  0.87594196067E+03  0.00000000000E+00 0. -1.
         25    2    1    2    0    0  0.20532923314E+02  0.43459599907E+02 -0.76893250085E+03  0.78052242667E+03  0.12509088655E+03 0.  0.
          5    1    3    3  502    0  0.42041321880E+02 -0.33516751029E+02 -0.31950264359E+03  0.32402200081E+03  0.41800000000E+01 0. -1.
         -5    1    3    3    0  502 -0.21508398565E+02  0.76976350936E+02 -0.44942985726E+03  0.45650042586E+03  0.41800000000E+01 0. -1.
        -11    1    1    2    0    0  0.17123783904E+02 -0.58767838333E+02 -0.39730615634E+02  0.72975369928E+02  0.00000000000E+00 0.  1.
         11    1    1    2    0    0 -0.37656707218E+02  0.15308238426E+02 -0.35653332252E+02  0.54069676001E+02  0.00000000000E+00 0. -1.
</event>
<event>
 7    1  0.2794945E-009  0.7420208E+02  0.7561462E-02  0.1346360E+00
         -1   -1    0    0    0  501 -0.00000000000E+00  0.00000000000E+00  0.11224898156E+03  0.11224898156E+03  0.00000000000E+00 0.  1.
          1   -1    0    0  501    0  0.00000000000E+00 -0.00000000000E+00 -0.11699687611E+03  0.11699687611E+03  0.00000000000E+00 0. -1.
         25    2    1    2    0    0  0.21652870220E+02 -0.13161527300E+02  0.21740038107E+02  0.12946862576E+03  0.12508966068E+03 0.  0.
          5    1    3    3  502    0 -0.63988632469E+01  0.28071523945E+02 -0.40334890744E+02  0.49732602172E+02  0.41800000000E+01 0. -1.
         -5    1    3    3    0  502  0.28051733467E+02 -0.41233051245E+02  0.62074928851E+02  0.79736023586E+02  0.41800000000E+01 0. -1.
        -11    1    1    2    0    0  0.89131892923E+01 -0.21366883549E+02 -0.44586463268E+02  0.50238843166E+02  0.00000000000E+00 0. -1.
         11    1    1    2    0    0 -0.30566059512E+02  0.34528410849E+02  0.18098530613E+02  0.49538388753E+02  0.00000000000E+00 0.  1.
</event>
<event>
 7    1  0.2794945E-009  0.9106072E+02  0.7561462E-02  0.1300303E+00
          1   -1    0    0  501    0  0.00000000000E+00  0.00000000000E+00  0.18949889236E+03  0.18949889236E+03  0.00000000000E+00 0. -1.
         -1   -1    0    0    0  501 -0.00000000000E+00 -0.00000000000E+00 -0.22251442164E+03  0.22251442164E+03  0.00000000000E+00 0.  1.
         25    2    1    2    0    0 -0.16192139618E+02  0.16258446545E+02  0.15575330738E+03  0.20109347816E+03  0.12511183689E+03 0.  0.
          5    1    3    3  502    0 -0.43049576416E+02  0.43359827726E+02  0.27345230431E+02  0.67071415054E+02  0.41800000000E+01 0. -1.
         -5    1    3    3    0  502  0.26857436798E+02 -0.27101381181E+02  0.12840807695E+03  0.13402206311E+03  0.41800000000E+01 0. -1.
        -11    1    1    2    0    0 -0.36272499510E+01  0.31019105968E+02 -0.12632753616E+03  0.13013065845E+03  0.00000000000E+00 0.  1.
         11    1    1    2    0    0  0.19819389569E+02 -0.47277552513E+02 -0.62441300502E+02  0.80789177387E+02  0.00000000000E+00 0. -1.
</event>
<event>
 7    1  0.2794945E-009  0.1093437E+03  0.7561462E-02  0.1261790E+00
          1   -1    0    0  501    0  0.00000000000E+00  0.00000000000E+00  0.79937944165E+03  0.79937944165E+03  0.00000000000E+00 0. -1.
         -1   -1    0    0    0  501 -0.00000000000E+00 -0.00000000000E+00 -0.18689022933E+02  0.18689022933E+02  0.00000000000E+00 0.  1.
         25    2    1    2    0    0 -0.34212577468E+00 -0.50981366087E+02  0.50202515647E+03  0.51988234391E+03  0.12509667078E+03 0.  0.
          5    1    3    3  502    0 -0.59505304137E+02 -0.43781844149E+02  0.31362387383E+03  0.32223460046E+03  0.41800000000E+01 0.  1.
         -5    1    3    3    0  502  0.59163178362E+02 -0.71995219386E+01  0.18840128264E+03  0.19764774345E+03  0.41800000000E+01 0.  1.
        -11    1    1    2    0    0 -0.27279512686E+02  0.36232607749E+00  0.21783715746E+02  0.34911794057E+02  0.00000000000E+00 0.  1.
         11    1    1    2    0    0  0.27621638461E+02  0.50619040010E+02  0.25688154649E+03  0.26327432661E+03  0.00000000000E+00 0. -1.
</event>
<event>
 7    1  0.4188261E-009  0.1651352E+03  0.7561462E-02  0.1183018E+00
          2   -1    0    0  501    0  0.00000000000E+00  0.00000000000E+00  0.78456410110E+03  0.78456410110E+03  0.00000000000E+00 0. -1.
         -2   -1    0    0    0  501 -0.00000000000E+00 -0.00000000000E+00 -0.36132000384E+02  0.36132000384E+02  0.00000000000E+00 0.  1.
         25    2    1    2    0    0 -0.49210535087E+02 -0.11567230937E+03  0.33716405241E+03  0.38095424962E+03  0.12507910355E+03 0.  0.
          5    1    3    3  502    0 -0.84620912449E+02 -0.45539952109E+02  0.15348405870E+03  0.18113369299E+03  0.41800000000E+01 0.  1.
         -5    1    3    3    0  502  0.35410377362E+02 -0.70132357265E+02  0.18367999371E+03  0.19982055663E+03  0.41800000000E+01 0.  1.
        -11    1    1    2    0    0  0.15639709335E+02  0.12048233260E+03  0.31067807300E+03  0.33358875584E+03  0.00000000000E+00 0.  1.
         11    1    1    2    0    0  0.33570825753E+02 -0.48100232276E+01  0.10058997531E+03  0.10615309603E+03  0.00000000000E+00 0. -1.
</event>
<event>
 7    1  0.2794945E-009  0.1228552E+03  0.7561462E-02  0.1238460E+00
          4   -1    0    0  501    0  0.00000000000E+00  0.00000000000E+00  0.42816991096E+02  0.42816991096E+02  0.00000000000E+00 0. -1.
         -4   -1    0    0    0  501 -0.00000000000E+00 -0.00000000000E+00 -0.36602355694E+03  0.36602355694E+03  0.00000000000E+00 0.  1.
         25    2    1    2    0    0  0.48063271082E+02  0.47027257389E+02 -0.19491733976E+03  0.24116794699E+03  0.12509024083E+03 0.  0.
          5    1    3    3  502    0  0.41418166893E+02 -0.35783277109E+02 -0.50936455059E+02  0.74885928741E+02  0.41800000000E+01 0. -1.
         -5    1    3    3    0  502  0.66451041894E+01  0.82810534497E+02 -0.14398088471E+03  0.16628201825E+03  0.41800000000E+01 0. -1.
        -11    1    1    2    0    0  0.10143489280E+02 -0.48359892591E+02 -0.65440447734E+02  0.82000132840E+02  0.00000000000E+00 0.  1.
         11    1    1    2    0    0 -0.58206760363E+02  0.13326352030E+01 -0.62848778348E+02  0.85672468205E+02  0.00000000000E+00 0. -1.
</event>
<event>
 7    1  0.2794945E-009  0.1208275E+03  0.7561462E-02  0.1241738E+00
         -1   -1    0    0    0  501 -0.00000000000E+00  0.00000000000E+00  0.13374643352E+03  0.13374643352E+03  0.00000000000E+00 0.  1.
          1   -1    0    0  501    0  0.00000000000E+00 -0.00000000000E+00 -0.25029743784E+03  0.25029743784E+03  0.00000000000E+00 0. -1.
         25    2    1    2    0    0 -0.57207094010E+02  0.14533385815E+02 -0.19336580382E+03  0.23774201166E+03  0.12508820533E+03 0.  0.
          5    1    3    3  502    0  0.22509839423E+02 -0.32273974841E+02 -0.93846490562E+02  0.10184762400E+03  0.41800000000E+01 0.  1.
         -5    1    3    3    0  502 -0.79716933432E+02  0.46807360656E+02 -0.99519313257E+02  0.13589438766E+03  0.41800000000E+01 0.  1.
        -11    1    1    2    0    0  0.74593086892E+02  0.14229717297E+02  0.82595423745E+02  0.11219900842E+03  0.00000000000E+00 0.  1.
         11    1    1    2    0    0 -0.17385992883E+02 -0.28763103112E+02 -0.57806242427E+01  0.34102851285E+02  0.00000000000E+00 0. -1.
</event>
<event>
 7    1  0.2794945E-009  0.1046865E+03  0.7561462E-02  0.1270739E+00
          1   -1    0    0  501    0  0.00000000000E+00  0.00000000000E+00  0.26924482736E+02  0.26924482736E+02  0.00000000000E+00 0. -1.
         -1   -1    0    0    0  501 -0.00000000000E+00 -0.00000000000E+00 -0.62616086937E+03  0.62616086937E+03  0.00000000000E+00 0.  1.
         25    2    1    2    0    0 -0.25030688710E+02 -0.60110673410E+02 -0.41039700446E+03  0.43394339962E+03  0.12506536039E+03 0.  0.
          5    1    3    3  502    0  0.34363698205E+02 -0.52147971976E+01 -0.33535900435E+02  0.48478726078E+02  0.41800000000E+01 0.  1.
         -5    1    3    3    0  502 -0.59394386915E+02 -0.54895876213E+02 -0.37686110403E+03  0.38546467354E+03  0.41800000000E+01 0.  1.
        -11    1    1    2    0    0  0.26255485734E+02 -0.62648686289E+01 -0.10702673151E+02  0.29036981982E+02  0.00000000000E+00 0. -1.
         11    1    1    2    0    0 -0.12247970240E+01  0.66375542039E+02 -0.17813670902E+03  0.19010497050E+03  0.00000000000E+00 0.  1.
</event>
<event>
 7    1  0.2794945E-009  0.5739302E+02  0.7561462E-02  0.1409109E+00
          2   -1    0    0  501    0  0.00000000000E+00  0.00000000000E+00  0.37444804878E+03  0.37444804878E+03  0.00000000000E+00 0. -1.
         -2   -1    0    0    0  501 -0.00000000000E+00 -0.00000000000E+00 -0.38587542364E+02  0.38587542364E+02  0.00000000000E+00 0.  1.
         25    2    1    2    0    0  0.44873042197E+01 -0.35470032010E+02  0.14307790903E+03  0.19337805194E+03  0.12508206846E+03 0.  0.
          5    1    3    3  502    0 -0.37010120523E+01 -0.16118335891E+02  0.16313846994E+03  0.16402783610E+03  0.41800000000E+01 0. -1.
         -5    1    3    3    0  502  0.81883162720E+01 -0.19351696119E+02 -0.20060560905E+02  0.29350215840E+02  0.41800000000E+01 0. -1.
        -11    1    1    2    0    0  0.24111700917E+02 -0.69953125069E+01  0.57659739493E+01  0.25759560822E+02  0.00000000000E+00 0.  1.
         11    1    1    2    0    0 -0.28599005137E+02  0.42465344517E+02  0.18701662344E+03  0.19389797839E+03  0.00000000000E+00 0. -1.
</event>
<event>
 7    1  0.2794945E-009  0.1016358E+03  0.7561462E-02  0.1276893E+00
          2   -1    0    0  501    0  0.00000000000E+00  0.00000000000E+00  0.63281121673E+03  0.63281121673E+03  0.00000000000E+00 0.  1.
         -2   -1    0    0    0  501 -0.00000000000E+00 -0.00000000000E+00 -0.38932604886E+02  0.38932604886E+02  0.00000000000E+00 0. -1.
         25    2    1    2    0    0 -0.62246416159E+02  0.38399595008E+01  0.52032949363E+03  0.53877595182E+03  0.12508949878E+03 0.  0.
          5    1    3    3  502    0 -0.74588898994E+02  0.20120924895E+02  0.15878946582E+03  0.17663499746E+03  0.41800000000E+01 0.  1.
         -5    1    3    3    0  502  0.12342482835E+02 -0.16280965394E+02  0.36154002782E+03  0.36214095437E+03  0.41800000000E+01 0.  1.
        -11    1    1    2    0    0 -0.12710246917E+02  0.22298254241E+02  0.38313342985E+02  0.46115884135E+02  0.00000000000E+00 0.  1.
         11    1    1    2    0    0  0.74956663076E+02 -0.26138213741E+02  0.35235775227E+02  0.86851985659E+02  0.00000000000E+00 0. -1.
</event>
<event>
 7    1  0.2794945E-009  0.1835196E+03  0.7561462E-02  0.1164440E+00
          2   -1    0    0  501    0  0.00000000000E+00  0.00000000000E+00  0.17862510786E+04  0.17862510786E+04  0.00000000000E+00 0.  1.
         -2   -1    0    0    0  501 -0.00000000000E+00 -0.00000000000E+00 -0.22395599629E+02  0.22395599629E+02  0.00000000000E+00 0. -1.
         25    2    1    2    0    0 -0.11273492048E+03  0.11690321284E+03  0.11124705949E+04  0.11311997953E+04  0.12508648526E+03 0.  0.
          5    1    3    3  502    0 -0.38821580007E+02 -0.23734837609E+02  0.22135113505E+03  0.22601826249E+03  0.41800000000E+01 0. -1.
         -5    1    3    3    0  502 -0.73913340471E+02  0.14063805045E+03  0.89111945988E+03  0.90518153279E+03  0.41800000000E+01 0. -1.
        -11    1    1    2    0    0  0.31837535427E+02 -0.32052158421E+02  0.63165918895E+02  0.77658887652E+02  0.00000000000E+00 0. -1.
         11    1    1    2    0    0  0.80897385050E+02 -0.84851054416E+02  0.58821896517E+03  0.59978799532E+03  0.00000000000E+00 0.  1.
</event>
<event>
 7    1  0.2794945E-009  0.1030151E+03  0.7561462E-02  0.1274080E+00
         -2   -1    0    0    0  501 -0.00000000000E+00  0.00000000000E+00  0.79317353537E+02  0.79317353537E+02  0.00000000000E+00 0.  1.
          2   -1    0    0  501    0  0.00000000000E+00 -0.00000000000E+00 -0.17484366985E+03  0.17484366985E+03  0.00000000000E+00 0. -1.
         25    2    1    2    0    0  0.36325241177E+02 -0.24785391324E+02 -0.74855674522E+02  0.15226777618E+03  0.12509302492E+03 0.  0.
          5    1    3    3  502    0  0.65763940901E+02 -0.43286874871E+02 -0.11226048090E+02  0.79637591718E+02  0.41800000000E+01 0.  1.
         -5    1    3    3    0  502 -0.29438699724E+02  0.18501483547E+02 -0.63629626432E+02  0.72630184460E+02  0.41800000000E+01 0.  1.
        -11    1    1    2    0    0 -0.12731952950E+01 -0.28422799228E+02  0.11291154455E+02  0.30609911975E+02  0.00000000000E+00 0.  1.
         11    1    1    2    0    0 -0.35052045882E+02  0.53208190552E+02 -0.31961796242E+02  0.71283335229E+02  0.00000000000E+00 0. -1.
</event>
<event>
 7    1  0.2794945E-009  0.1266799E+03  0.7561462E-02  0.1232467E+00
         -1   -1    0    0    0  501 -0.00000000000E+00  0.00000000000E+00  0.21065008906E+02  0.21065008906E+02  0.00000000000E+00 0.  1.
          1   -1    0    0  501    0  0.00000000000E+00 -0.00000000000E+00 -0.97244488227E+03  0.97244488227E+03  0.00000000000E+00 0. -1.
         25    2    1    2    0    0 -0.21046744206E+02  0.68230394369E+02 -0.71619039201E+03  0.73053094427E+03  0.12509368795E+03 0.  0.
          5    1    3    3  502    0 -0.34270944374E+02  0.99633057954E+02 -0.45295884507E+03  0.46507035123E+03  0.41800000000E+01 0.  1.
         -5    1    3    3    0  502  0.13224200169E+02 -0.31402663585E+02 -0.26323154694E+03  0.26546059304E+03  0.41800000000E+01 0.  1.
        -11    1    1    2    0    0  0.27556733849E+02  0.14129958000E+02 -0.98583025298E+02  0.10333267717E+03  0.00000000000E+00 0. -1.
         11    1    1    2    0    0 -0.65099896437E+01 -0.82360352368E+02 -0.13660645606E+03  0.15964626975E+03  0.00000000000E+00 0.  1.
</event>
<event>
 7    1  0.2794945E-009  0.1068106E+03  0.7561462E-02  0.1266593E+00
         -1   -1    0    0    0  501 -0.00000000000E+00  0.00000000000E+00  0.22559188831E+03  0.22559188831E+03  0.00000000000E+00 0.  1.
          1   -1    0    0  501    0  0.00000000000E+00 -0.00000000000E+00 -0.68228682749E+02  0.68228682749E+02  0.00000000000E+00 0. -1.
         25    2    1    2    0    0  0.51689036050E+02 -0.29086250564E+02  0.10803300104E+03  0.17560766068E+03  0.12509658172E+03 0.  0.
          5    1    3    3  502    0 -0.83250811637E+00 -0.67881873581E+02  0.78366703465E+02  0.10376634542E+03  0.41800000000E+01 0.  1.
         -5    1    3    3    0  502  0.52521544166E+02  0.38795623017E+02  0.29666297571E+02  0.71841315261E+02  0.41800000000E+01 0.  1.
        -11    1    1    2    0    0 -0.54469649176E+02  0.40851226435E+02  0.67833739365E+02  0.96110257406E+02  0.00000000000E+00 0.  1.
         11    1    1    2    0    0  0.27806131261E+01 -0.11764975871E+02 -0.18503534840E+02  0.22102652967E+02  0.00000000000E+00 0. -1.
</event>
<event>
 7    1  0.2794945E-009  0.9172618E+02  0.7561462E-02  0.1298725E+00
         -2   -1    0    0    0  501 -0.00000000000E+00  0.00000000000E+00  0.88961692341E+02  0.88961692341E+02  0.00000000000E+00 0.  1.
          2   -1    0    0  501    0  0.00000000000E+00 -0.00000000000E+00 -0.22518097375E+03  0.22518097375E+03  0.00000000000E+00 0. -1.
         25    2    1    2    0    0  0.13114066125E+02 -0.64825256491E+02 -0.46929497457E+01  0.14157379311E+03  0.12508725958E+03 0.  0.
          5    1    3    3  502    0 -0.29291430481E+02 -0.48684154229E+02 -0.51104826071E+02  0.76533067496E+02  0.41800000000E+01 0. -1.
         -5    1    3    3    0  502  0.42405496606E+02 -0.16141102262E+02  0.46411876325E+02  0.65040725616E+02  0.41800000000E+01 0. -1.
        -11    1    1    2    0    0 -0.22062617319E+02  0.81199985602E+01 -0.10799832643E+03  0.11052751681E+03  0.00000000000E+00 0. -1.
         11    1    1    2    0    0  0.89485511933E+01  0.56705257930E+02 -0.23528005232E+02  0.62041356172E+02  0.00000000000E+00 0.  1.
</event>
<event>
 7    1  0.2794945E-009  0.1535063E+03  0.7561462E-02  0.1196229E+00
          1   -1    0    0  501    0  0.00000000000E+00  0.00000000000E+00  0.14364221136E+04  0.14364221136E+04  0.00000000000E+00 0. -1.
         -1   -1    0    0    0  501 -0.00000000000E+00 -0.00000000000E+00 -0.17531077930E+02  0.17531077930E+02  0.00000000000E+00 0.  1.
         25    2    1    2    0    0 -0.10347953746E+03 -0.37256786769E+02  0.92969570312E+03  0.94449921162E+03  0.12509427458E+03 0.  0.
          5    1    3    3  502    0 -0.87352718453E+02  0.32897557702E+02  0.57592104787E+03  0.58345117405E+03  0.41800000000E+01 0.  1.
         -5    1    3    3    0  502 -0.16126819004E+02 -0.70154344471E+02  0.35377465524E+03  0.36104803757E+03  0.41800000000E+01 0.  1.
        -11    1    1    2    0    0  0.38285652332E+01  0.41552150541E+02  0.16945795342E+03  0.17452001921E+03  0.00000000000E+00 0. -1.
         11    1    1    2    0    0  0.99650972224E+02 -0.42953637724E+01  0.31973737915E+03  0.33493396072E+03  0.00000000000E+00 0.  1.
</event>
<event>
 7    1  0.2794945E-009  0.1067808E+03  0.7561462E-02  0.1266650E+00
          1   -1    0    0  501    0  0.00000000000E+00  0.00000000000E+00  0.36436987367E+03  0.36436987367E+03  0.00000000000E+00 0. -1.
         -1   -1    0    0    0  501 -0.00000000000E+00 -0.00000000000E+00 -0.39292513311E+02  0.39292513311E+02  0.00000000000E+00 0.  1.
         25    2    1    2    0    0  0.11067538708E+02 -0.44213210258E+02  0.14872925077E+03  0.19962618477E+03  0.12511165109E+03 0.  0.
          5    1    3    3  502    0 -0.56431278551E+02 -0.17634144187E+02  0.53533900734E+02  0.79867409923E+02  0.41800000000E+01 0. -1.
         -5    1    3    3    0  502  0.67498817259E+02 -0.26579066071E+02  0.95195350037E+02  0.11975877485E+03  0.41800000000E+01 0. -1.
        -11    1    1    2    0    0 -0.39173922366E+02  0.33515273827E+02  0.16331680339E+03  0.17126076037E+03  0.00000000000E+00 0. -1.
         11    1    1    2    0    0  0.28106383658E+02  0.10697936430E+02  0.13031306193E+02  0.32775441832E+02  0.00000000000E+00 0.  1.
</event>
<event>
 7    1  0.2794945E-009  0.1362932E+03  0.7561462E-02  0.1218406E+00
          3   -1    0    0  501    0  0.00000000000E+00  0.00000000000E+00  0.72405952167E+03  0.72405952167E+03  0.00000000000E+00 0. -1.
         -3   -1    0    0    0  501 -0.00000000000E+00 -0.00000000000E+00 -0.30654735228E+02  0.30654735228E+02  0.00000000000E+00 0.  1.
         25    2    1    2    0    0  0.95008467950E+02  0.30098049898E+02  0.41636964891E+03  0.44603115184E+03  0.12509037648E+03 0.  0.
          5    1    3    3  502    0 -0.23362537199E+02  0.26718590710E+02  0.15483580932E+03  0.15890654953E+03  0.41800000000E+01 0.  1.
         -5    1    3    3    0  502  0.11837100515E+03  0.33794591885E+01  0.26153383958E+03  0.28712460231E+03  0.41800000000E+01 0.  1.
        -11    1    1    2    0    0 -0.14389518548E+02  0.19097874771E+02  0.10885267206E+02  0.26273106154E+02  0.00000000000E+00 0.  1.
         11    1    1    2    0    0 -0.80618949402E+02 -0.49195924669E+02  0.26614987033E+03  0.28240999891E+03  0.00000000000E+00 0. -1.
</event>
<event>
 7    1  0.2794945E-009  0.1122180E+03  0.7561462E-02  0.1256517E+00
          1   -1    0    0  501    0  0.00000000000E+00  0.00000000000E+00  0.13421358371E+03  0.13421358371E+03  0.00000000000E+00 0. -1.
         -1   -1    0    0    0  501 -0.00000000000E+00 -0.00000000000E+00 -0.11257571522E+03  0.11257571522E+03  0.00000000000E+00 0.  1.
         25    2    1    2    0    0 -0.21449793155E+02 -0.45378818475E+02 -0.19659241332E+02  0.13621565849E+03  0.12509551972E+03 0.  0.
          5    1    3    3  502    0 -0.67636546419E+02 -0.33567482319E+02  0.15038468410E+02  0.77104514867E+02  0.41800000000E+01 0.  1.
         -5    1    3    3    0  502  0.46186753264E+02 -0.11811336156E+02 -0.34697709742E+02  0.59111143621E+02  0.41800000000E+01 0.  1.
        -11    1    1    2    0    0  0.55791617349E+02  0.29703463005E+02  0.16222613233E+02  0.65254681525E+02  0.00000000000E+00 0.  1.
         11    1    1    2    0    0 -0.34341824194E+02  0.15675355470E+02  0.25074496590E+02  0.45318958917E+02  0.00000000000E+00 0. -1.
</event>
<event>
 7    1  0.2794945E-009  0.2398708E+03  0.7561462E-02  0.1119879E+00
          2   -1    0    0  501    0  0.00000000000E+00  0.00000000000E+00  0.66268313901E+02  0.66268313901E+02  0.00000000000E+00 0. -1.
         -2   -1    0    0    0  501 -0.00000000000E+00 -0.00000000000E+00 -0.10480951298E+04  0.10480951298E+04  0.00000000000E+00 0.  1.
         25    2    1    2    0    0 -0.10754902380E+03  0.20698985195E+03 -0.62488362496E+03  0.67863004295E+03  0.12509036381E+03 0.  0.
          5    1    3    3  502    0 -0.38649919553E+02  0.15173475743E+03 -0.51090844919E+03  0.53438017248E+03  0.41800000000E+01 0. -1.
         -5    1    3    3    0  502 -0.68899104243E+02  0.55255094519E+02 -0.11397517577E+03  0.14424987046E+03  0.41800000000E+01 0. -1.
        -11    1    1    2    0    0  0.38205965378E+02 -0.48873400371E+02 -0.37145634374E+02  0.72305623622E+02  0.00000000000E+00 0. -1.
         11    1    1    2    0    0  0.69343058419E+02 -0.15811645157E+03 -0.31979755659E+03  0.36342777715E+03  0.00000000000E+00 0.  1.
</event>
<event>
 7    1  0.2794945E-009  0.1151541E+03  0.7561462E-02  0.1251312E+00
          1   -1    0    0  501    0  0.00000000000E+00  0.00000000000E+00  0.82344551075E+03  0.82344551075E+03  0.00000000000E+00 0. -1.
         -1   -1    0    0    0  501 -0.00000000000E+00 -0.00000000000E+00 -0.20308681459E+02  0.20308681459E+02  0.00000000000E+00 0.  1.
         25    2    1    2    0    0 -0.96956800174E+01 -0.60876073164E+02  0.34076119295E+03  0.36819225218E+03  0.12508973359E+03 0.  0.
          5    1    3    3  502    0 -0.58057796027E+02 -0.67544261312E+02  0.24292840061E+03  0.25877522126E+03  0.41800000000E+01 0.  1.
         -5    1    3    3    0  502  0.48362116010E+02  0.66681881478E+01  0.97832792336E+02  0.10941703092E+03  0.41800000000E+01 0.  1.
        -11    1    1    2    0    0  0.75048220445E+00 -0.15363794528E+02  0.14444893881E+02  0.21101288232E+02  0.00000000000E+00 0.  1.
         11    1    1    2    0    0  0.89451978130E+01  0.76239867692E+02  0.44793074247E+03  0.45446065180E+03  0.00000000000E+00 0. -1.
</event>
<event>
 7    1  0.2794945E-009  0.1292906E+03  0.7561462E-02  0.1228512E+00
         -3   -1    0    0    0  501 -0.00000000000E+00  0.00000000000E+00  0.35661170126E+02  0.35661170126E+02  0.00000000000E+00 0.  1.
          3   -1    0    0  501    0  0.00000000000E+00 -0.00000000000E+00 -0.60873258274E+03  0.60873258274E+03  0.00000000000E+00 0. -1.
         25    2    1    2    0    0  0.25788187859E+02 -0.71544472544E+02 -0.43472614124E+03  0.45871270200E+03  0.12508750104E+03 0.  0.
          5    1    3    3  502    0 -0.23704578058E+02 -0.83820574550E+02 -0.19538288290E+03  0.21396200380E+03  0.41800000000E+01 0.  1.
         -5    1    3    3    0  502  0.49492765917E+02  0.12276102007E+02 -0.23934325834E+03  0.24475069821E+03  0.41800000000E+01 0.  1.
        -11    1    1    2    0    0 -0.61161176383E+02  0.47466987944E+02 -0.10939061777E+03  0.13401534128E+03  0.00000000000E+00 0. -1.
         11    1    1    2    0    0  0.35372988525E+02  0.24077484600E+02 -0.28954653601E+02  0.51665709586E+02  0.00000000000E+00 0.  1.
</event>
<event>
 7    1  0.2794945E-009  0.2338164E+03  0.7561462E-02  0.1123982E+00
         -1   -1    0    0    0  501 -0.00000000000E+00  0.00000000000E+00  0.65974586395E+03  0.65974586395E+03  0.00000000000E+00 0.  1.
          1   -1    0    0  501    0  0.00000000000E+00 -0.00000000000E+00 -0.94013707383E+02  0.94013707383E+02  0.00000000000E+00 0. -1.
         25    2    1    2    0    0 -0.17391312595E+03 -0.14023292871E+03  0.31373426968E+03  0.40495455311E+03  0.12509176008E+03 0.  0.
          5    1    3    3  502    0 -0.12720961126E+03 -0.42982822652E+02  0.10706962810E+03  0.17178820071E+03  0.41800000000E+01 0.  1.
         -5    1    3    3    0  502 -0.46703514689E+02 -0.97250106055E+02  0.20666464158E+03  0.23316635240E+03  0.41800000000E+01 0.  1.
        -11    1    1    2    0    0  0.15667906302E+03  0.11329672461E+03  0.15857545540E+03  0.25006129579E+03  0.00000000000E+00 0. -1.
         11    1    1    2    0    0  0.17234062934E+02  0.26936204102E+02  0.93422431482E+02  0.98743722436E+02  0.00000000000E+00 0.  1.
</event>
<event>
 7    1  0.2794945E-009  0.1355804E+03  0.7561462E-02  0.1219403E+00
          2   -1    0    0  501    0  0.00000000000E+00  0.00000000000E+00  0.55296468109E+03  0.55296468109E+03  0.00000000000E+00 0. -1.
         -2   -1    0    0    0  501 -0.00000000000E+00 -0.00000000000E+00 -0.39361954917E+02  0.39361954917E+02  0.00000000000E+00 0.  1.
         25    2    1    2    0    0  0.92613528195E+02  0.34093640635E+02  0.23871343792E+03  0.28700394284E+03  0.12509003089E+03 0.  0.
          5    1    3    3  502    0  0.99499820858E+02 -0.18154042884E+02  0.11961829205E+03  0.15670287750E+03  0.41800000000E+01 0.  1.
         -5    1    3    3    0  502 -0.68862926629E+01  0.52247683519E+02  0.11909514587E+03  0.13030106534E+03  0.41800000000E+01 0.  1.
        -11    1    1    2    0    0 -0.11037690956E+02 -0.33730288585E+02  0.27700605942E+02  0.45020956889E+02  0.00000000000E+00 0.  1.
         11    1    1    2    0    0 -0.81575837240E+02 -0.36335205080E+00  0.24718868231E+03  0.26030173628E+03  0.00000000000E+00 0. -1.
</event>
<event>
 7    1  0.2794945E-009  0.9525513E+02  0.7561462E-02  0.1290602E+00
          2   -1    0    0  501    0  0.00000000000E+00  0.00000000000E+00  0.29010208813E+03  0.29010208813E+03  0.00000000000E+00 0.  1.
         -2   -1    0    0    0  501 -0.00000000000E+00 -0.00000000000E+00 -0.45811980038E+02  0.45811980038E+02  0.00000000000E+00 0. -1.
         25    2    1    2    0    0  0.74154306348E+01 -0.38647149495E+02  0.12660326942E+03  0.18227210413E+03  0.12508453678E+03 0.  0.
          5    1    3    3  502    0  0.52348335856E+02 -0.20957819992E+02  0.11946026348E+02  0.57790643112E+02  0.41800000000E+01 0.  1.
         -5    1    3    3    0  502 -0.44932905222E+02 -0.17689329502E+02  0.11465724307E+03  0.12448146102E+03  0.41800000000E+01 0.  1.
        -11    1    1    2    0    0 -0.11491816070E+02 -0.21943262131E+02  0.76125722812E+02  0.80054320703E+02  0.00000000000E+00 0.  1.
         11    1    1    2    0    0  0.40763854348E+01  0.60590411626E+02  0.41561115861E+02  0.73587643330E+02  0.00000000000E+00 0. -1.
</event>
<event>
 7    1  0.2794945E-009  0.9625226E+02  0.7561462E-02  0.1288380E+00
          1   -1    0    0  501    0  0.00000000000E+00  0.00000000000E+00  0.16744444492E+03  0.16744444492E+03  0.00000000000E+00 0. -1.
         -1   -1    0    0    0  501 -0.00000000000E+00 -0.00000000000E+00 -0.88119751212E+02  0.88119751212E+02  0.00000000000E+00 0.  1.
         25    2    1    2    0    0 -0.16430329125E+02 -0.46846699261E+02  0.57000401057E+02  0.14616055165E+03  0.12509713102E+03 0.  0.
          5    1    3    3  502    0  0.43231320779E+01 -0.60413723442E+02  0.87583186168E+02  0.10656826146E+03  0.41800000000E+01 0. -1.
         -5    1    3    3    0  502 -0.20753461203E+02  0.13567024181E+02 -0.30582785111E+02  0.39592290186E+02  0.41800000000E+01 0. -1.
        -11    1    1    2    0    0  0.45346821405E+02 -0.66542013270E+01  0.14588731341E+02  0.48098271164E+02  0.00000000000E+00 0.  1.
         11    1    1    2    0    0 -0.28916492280E+02  0.53500900588E+02  0.77355613096E+01  0.61305373323E+02  0.00000000000E+00 0. -1.
</event>
<event>
 7    1  0.2794945E-009  0.1089238E+03  0.7561462E-02  0.1262576E+00
         -2   -1    0    0    0  501 -0.00000000000E+00  0.00000000000E+00  0.21829008532E+03  0.21829008532E+03  0.00000000000E+00 0.  1.
          2   -1    0    0  501    0  0.00000000000E+00 -0.00000000000E+00 -0.57675652036E+02  0.57675652036E+02  0.00000000000E+00 0. -1.
         25    2    1    2    0    0 -0.10476514929E+02 -0.49423176646E+01  0.59584272726E+02  0.13904021050E+03  0.12509080986E+03 0.  0.
          5    1    3    3  502    0  0.45009666532E+02 -0.39576262033E+02  0.27922907391E+02  0.66251881143E+02  0.41800000000E+01 0. -1.
         -5    1    3    3    0  502 -0.55486181461E+02  0.34633944368E+02  0.31661365334E+02  0.72788329356E+02  0.41800000000E+01 0. -1.
        -11    1    1    2    0    0 -0.20710598220E+02 -0.35533563598E+02  0.49489771047E+02  0.64349051733E+02  0.00000000000E+00 0.  1.
         11    1    1    2    0    0  0.31187113149E+02  0.40475881263E+02  0.51540389516E+02  0.72576475128E+02  0.00000000000E+00 0. -1.
</event>
<event>
 7    1  0.2794945E-009  0.9041002E+02  0.7561462E-02  0.1301862E+00
         -1   -1    0    0    0  501 -0.00000000000E+00  0.00000000000E+00  0.15900920234E+02  0.15900920234E+02  0.00000000000E+00 0.  1.
          1   -1    0    0  501    0  0.00000000000E+00 -0.00000000000E+00 -0.86345189725E+03  0.86345189725E+03  0.00000000000E+00 0. -1.
         25    2    1    2    0    0  0.15941458912E+02  0.21484458710E+02 -0.61608854783E+03  0.62922854590E+03  0.12509097544E+03 0.  0.
          5    1    3    3  502    0 -0.33502427274E+01 -0.33461203956E+02 -0.51623818100E+02  0.61752467901E+02  0.41800000000E+01 0. -1.
         -5    1    3    3    0  502  0.19291701639E+02  0.54945662667E+02 -0.56446472973E+03  0.56747607800E+03  0.41800000000E+01 0. -1.
        -11    1    1    2    0    0 -0.38851573175E+02 -0.42413558468E+02 -0.18882112009E+03  0.19738736047E+03  0.00000000000E+00 0. -1.
         11    1    1    2    0    0  0.22910114263E+02  0.20929099758E+02 -0.42641309093E+02  0.52736911109E+02  0.00000000000E+00 0.  1.
</event>
<event>
 7    1  0.2794945E-009  0.7675030E+02  0.7561462E-02  0.1338535E+00
          2   -1    0    0  501    0  0.00000000000E+00  0.00000000000E+00  0.78928141024E+02  0.78928141024E+02  0.00000000000E+00 0. -1.
         -2   -1    0    0    0  501 -0.00000000000E+00 -0.00000000000E+00 -0.19388550102E+03  0.19388550102E+03  0.00000000000E+00 0.  1.
         25    2    1    2    0    0 -0.35361160500E+02 -0.50773412474E+02 -0.77033420458E+02  0.15940682833E+03  0.12509211791E+03 0.  0.
          5    1    3    3  502    0 -0.26399672358E+02 -0.45962946604E+02 -0.11133838303E+03  0.12338250726E+03  0.41800000000E+01 0.  1.
         -5    1    3    3    0  502 -0.89614881424E+01 -0.48104658702E+01  0.34304962572E+02  0.36024321072E+02  0.41800000000E+01 0.  1.
        -11    1    1    2    0    0  0.48666561369E+02  0.56740513030E+02 -0.21592220204E+01  0.74783569413E+02  0.00000000000E+00 0. -1.
         11    1    1    2    0    0 -0.13305400869E+02 -0.59671005565E+01 -0.35764717514E+02  0.38623244299E+02  0.00000000000E+00 0.  1.
</event>
<event>
 7    1  0.2794945E-009  0.1894967E+03  0.7561462E-02  0.1158916E+00
         -2   -1    0    0    0  501 -0.00000000000E+00  0.00000000000E+00  0.79319148316E+02  0.79319148316E+02  0.00000000000E+00 0.  1.
          2   -1    0    0  501    0  0.00000000000E+00 -0.00000000000E+00 -0.83675500792E+03  0.83675500792E+03  0.00000000000E+00 0. -1.
         25    2    1    2    0    0 -0.16703576492E+03 -0.70409407007E+02 -0.64852967205E+03  0.68490526842E+03  0.12508421089E+03 0.  0.
          5    1    3    3  502    0 -0.39580482721E+02 -0.55393846070E+02 -0.39356837324E+03  0.39943538853E+03  0.41800000000E+01 0.  1.
         -5    1    3    3    0  502 -0.12745528220E+03 -0.15015560937E+02 -0.25496129882E+03  0.28546987989E+03  0.41800000000E+01 0.  1.
        -11    1    1    2    0    0  0.10782959285E+03  0.55731000658E+02 -0.11825021365E+03  0.16945878129E+03  0.00000000000E+00 0. -1.
         11    1    1    2    0    0  0.59206172063E+02  0.14678406349E+02  0.93440261035E+01  0.61710106523E+02  0.00000000000E+00 0.  1.
</event>
<event>
 7    1  0.2794945E-009  0.2160843E+03  0.7561462E-02  0.1136837E+00
          2   -1    0    0  501    0  0.00000000000E+00  0.00000000000E+00  0.41019565321E+03  0.41019565321E+03  0.00000000000E+00 0. -1.
         -2   -1    0    0    0  501 -0.00000000000E+00 -0.00000000000E+00 -0.15194248096E+03  0.15194248096E+03  0.00000000000E+00 0.  1.
         25    2    1    2    0    0 -0.15961885456E+00  0.21046436100E+03  0.22003491748E+03  0.32918034082E+03  0.12509619956E+03 0.  0.
          5    1    3    3  502    0  0.13474169261E+02  0.39202094252E+01  0.74955761960E+02  0.76372507686E+02  0.41800000000E+01 0. -1.
         -5    1    3    3    0  502 -0.13633788116E+02  0.20654415157E+03  0.14507915552E+03  0.25280783313E+03  0.41800000000E+01 0. -1.
        -11    1    1    2    0    0  0.17247922711E+01 -0.96748362627E+02 -0.28792997663E+02  0.10095671000E+03  0.00000000000E+00 0.  1.
         11    1    1    2    0    0 -0.15651734165E+01 -0.11371599837E+03  0.67011252429E+02  0.13200108335E+03  0.00000000000E+00 0. -1.
</event>
<event>
 7    1  0.2794945E-009  0.8991654E+02  0.7561462E-02  0.1303054E+00
         -3   -1    0    0    0  501 -0.00000000000E+00  0.00000000000E+00  0.93411349675E+02  0.93411349675E+02  0.00000000000E+00 0.  1.
          3   -1    0    0  501    0  0.00000000000E+00 -0.00000000000E+00 -0.22925167571E+03  0.22925167571E+03  0.00000000000E+00 0. -1.
         25    2    1    2    0    0  0.17853772818E+02 -0.73516753544E+02 -0.14441992865E+03  0.20549349727E+03  0.12508793456E+03 0.  0.
          5    1    3    3  502    0  0.28322332590E+02 -0.75432018037E+02 -0.16402694884E+03  0.18279621499E+03  0.41800000000E+01 0. -1.
         -5    1    3    3    0  502 -0.10468559771E+02  0.19152644924E+01  0.19607020195E+02  0.22697282275E+02  0.41800000000E+01 0. -1.
        -11    1    1    2    0    0 -0.28669750935E+02  0.25092743477E+02  0.42490964157E+02  0.57070854461E+02  0.00000000000E+00 0.  1.
         11    1    1    2    0    0  0.10815978116E+02  0.48424010067E+02 -0.33911361542E+02  0.60098673656E+02  0.00000000000E+00 0. -1.
</event>
<event>
 7    1  0.2794945E-009  0.1118452E+03  0.7561462E-02  0.1257191E+00
          1   -1    0    0  501    0  0.00000000000E+00  0.00000000000E+00  0.49855252756E+03  0.49855252756E+03  0.00000000000E+00 0. -1.
         -1   -1    0    0    0  501 -0.00000000000E+00 -0.00000000000E+00 -0.30118988585E+02  0.30118988585E+02  0.00000000000E+00 0.  1.
         25    2    1    2    0    0 -0.18288484211E+01  0.56023296179E+02  0.30018318993E+03  0.32999592731E+03  0.12508161386E+03 0.  0.
          5    1    3    3  502    0 -0.54383193642E+02  0.53389462212E+02  0.22894501568E+03  0.24133225858E+03  0.41800000000E+01 0. -1.
         -5    1    3    3    0  502  0.52554345221E+02  0.26338339675E+01  0.71238174254E+02  0.88663668737E+02  0.41800000000E+01 0. -1.
        -11    1    1    2    0    0  0.39173764416E+01  0.19064563355E+02  0.82101890166E+02  0.84377270535E+02  0.00000000000E+00 0.  1.
         11    1    1    2    0    0 -0.20885280206E+01 -0.75087859534E+02  0.86148458883E+02  0.11429831830E+03  0.00000000000E+00 0. -1.
</event>
<event>
 7    1  0.2794945E-009  0.9796230E+02  0.7561462E-02  0.1284640E+00
         -2   -1    0    0    0  501 -0.00000000000E+00  0.00000000000E+00  0.85996282871E+02  0.85996282871E+02  0.00000000000E+00 0.  1.
          2   -1    0    0  501    0  0.00000000000E+00 -0.00000000000E+00 -0.15441876051E+03  0.15441876051E+03  0.00000000000E+00 0. -1.
         25    2    1    2    0    0 -0.12213299492E+02 -0.33645468780E+02 -0.21911231514E+02  0.13192354020E+03  0.12507012489E+03 0.  0.
          5    1    3    3  502    0  0.21242074036E+02 -0.61681067338E+02  0.22864098285E+02  0.69253297161E+02  0.41800000000E+01 0.  1.
         -5    1    3    3    0  502 -0.33455373528E+02  0.28035598558E+02 -0.44775329799E+02  0.62670243043E+02  0.41800000000E+01 0.  1.
        -11    1    1    2    0    0 -0.28271698850E+02  0.36443540767E+02  0.83742612532E+00  0.46131571640E+02  0.00000000000E+00 0.  1.
         11    1    1    2    0    0  0.40484998342E+02 -0.27980719865E+01 -0.47348672252E+02  0.62359931539E+02  0.00000000000E+00 0. -1.
</event>
<event>
 7    1  0.2794945E-009  0.1087248E+03  0.7561462E-02  0.1262950E+00
         -2   -1    0    0    0  501 -0.00000000000E+00  0.00000000000E+00  0.15379451806E+02  0.15379451806E+02  0.00000000000E+00 0.  1.
          2   -1    0    0  501    0  0.00000000000E+00 -0.00000000000E+00 -0.25818617007E+04  0.25818617007E+04  0.00000000000E+00 0. -1.
         25    2    1    2    0    0 -0.20009464468E+01 -0.48229407615E+02 -0.22896956119E+04  0.22936183107E+04  0.12509548497E+03 0.  0.
          5    1    3    3  502    0  0.45649833180E+02 -0.68259800473E+02 -0.14120124216E+04  0.14144044184E+04  0.41800000000E+01 0. -1.
         -5    1    3    3    0  502 -0.47650779627E+02  0.20030392858E+02 -0.87768319034E+03  0.87921389232E+03  0.41800000000E+01 0. -1.
        -11    1    1    2    0    0 -0.91817106320E+01  0.63655533106E+02 -0.27720223556E+03  0.28456530024E+03  0.00000000000E+00 0. -1.
         11    1    1    2    0    0  0.11182657079E+02 -0.15426125491E+02  0.41559861940E+00  0.19057541531E+02  0.00000000000E+00 0.  1.
</event>
<event>
 7    1  0.2794945E-009  0.1954138E+03  0.7561462E-02  0.1153667E+00
         -1   -1    0    0    0  501 -0.00000000000E+00  0.00000000000E+00  0.29194834866E+02  0.29194834866E+02  0.00000000000E+00 0.  1.
          1   -1    0    0  501    0  0.00000000000E+00 -0.00000000000E+00 -0.13479072830E+04  0.13479072830E+04  0.00000000000E+00 0. -1.
         25    2    1    2    0    0 -0.11704056641E+03 -0.11431173334E+03 -0.72878217543E+03  0.75732212175E+03  0.12509064834E+03 0.  0.
          5    1    3    3  502    0  0.20967577712E+02 -0.41154537772E+02 -0.23031781339E+03  0.23494063688E+03  0.41800000000E+01 0. -1.
         -5    1    3    3    0  502 -0.13800814412E+03 -0.73157195564E+02 -0.49846436204E+03  0.52238148487E+03  0.41800000000E+01 0. -1.
        -11    1    1    2    0    0  0.35363514335E+02 -0.12371231985E+02 -0.86397936485E+02  0.94171274579E+02  0.00000000000E+00 0.  1.
         11    1    1    2    0    0  0.81677052078E+02  0.12668296532E+03 -0.50353233623E+03  0.52560872155E+03  0.00000000000E+00 0. -1.
</event>
<event>
 7    1  0.2794945E-009  0.2058555E+03  0.7561462E-02  0.1144891E+00
         -1   -1    0    0    0  501 -0.00000000000E+00  0.00000000000E+00  0.57883550443E+02  0.57883550443E+02  0.00000000000E+00 0.  1.
          1   -1    0    0  501    0  0.00000000000E+00 -0.00000000000E+00 -0.88660773601E+03  0.88660773601E+03  0.00000000000E+00 0. -1.
         25    2    1    2    0    0  0.11704336515E+03  0.14335469194E+03 -0.27809428244E+03  0.35669861527E+03  0.12509098761E+03 0.  0.
          5    1    3    3  502    0  0.14086531818E+02  0.11011583630E+03 -0.17443425864E+03  0.20680597373E+03  0.41800000000E+01 0. -1.
         -5    1    3    3    0  502  0.10295683333E+03  0.33238855642E+02 -0.10366002380E+03  0.14989264154E+03  0.41800000000E+01 0. -1.
        -11    1    1    2    0    0 -0.77144635591E+02 -0.53055254894E+02 -0.16486280104E+03  0.18959403482E+03  0.00000000000E+00 0.  1.
         11    1    1    2    0    0 -0.39898729555E+02 -0.90299437048E+02 -0.38576710209E+03  0.39819863637E+03  0.00000000000E+00 0. -1.
</event>
<event>
 7    1  0.2794945E-009  0.1141474E+03  0.7561462E-02  0.1253077E+00
          1   -1    0    0  501    0  0.00000000000E+00  0.00000000000E+00  0.18842091158E+03  0.18842091158E+03  0.00000000000E+00 0. -1.
         -1   -1    0    0    0  501 -0.00000000000E+00 -0.00000000000E+00 -0.10228468488E+03  0.10228468488E+03  0.00000000000E+00 0.  1.
         25    2    1    2    0    0 -0.33386675348E+02  0.63311228074E+02  0.96930842580E+02  0.17368489126E+03  0.12509145262E+03 0.  0.
          5    1    3    3  502    0 -0.29263699893E+02 -0.25675762309E+02  0.70545563217E+02  0.80683070040E+02  0.41800000000E+01 0. -1.
         -5    1    3    3    0  502 -0.41229754557E+01  0.88986990382E+02  0.26385279363E+02  0.93001821224E+02  0.41800000000E+01 0. -1.
        -11    1    1    2    0    0 -0.12886950413E+02 -0.50252827970E+02 -0.35599410545E+02  0.62918504759E+02  0.00000000000E+00 0.  1.
         11    1    1    2    0    0  0.46273625762E+02 -0.13058400104E+02  0.24804794659E+02  0.54102200440E+02  0.00000000000E+00 0. -1.
</event>
<event>
 7    1  0.2794945E-009  0.1083224E+03  0.7561462E-02  0.1263708E+00
          1   -1    0    0  501    0  0.00000000000E+00  0.00000000000E+00  0.11068161331E+04  0.11068161331E+04  0.00000000000E+00 0. -1.
         -1   -1    0    0    0  501 -0.00000000000E+00 -0.00000000000E+00 -0.11530520494E+02  0.11530520494E+02  0.00000000000E+00 0.  1.
         25    2    1    2    0    0  0.32504409111E+01  0.31399269494E+02  0.69771255634E+03  0.70953660956E+03  0.12507161767E+03 0.  0.
          5    1    3    3  502    0  0.57973820332E+02 -0.83837502359E+01  0.39392833320E+03  0.39828162800E+03  0.41800000000E+01 0.  1.
         -5    1    3    3    0  502 -0.54723379420E+02  0.39783019730E+02  0.30378422314E+03  0.31125498156E+03  0.41800000000E+01 0.  1.
        -11    1    1    2    0    0 -0.43621232906E+02 -0.21172190656E+02  0.27788223940E+03  0.28208086179E+03  0.00000000000E+00 0. -1.
         11    1    1    2    0    0  0.40370791995E+02 -0.10227078838E+02  0.11969081688E+03  0.12672918225E+03  0.00000000000E+00 0.  1.
</event>
<event>
 7    1  0.2794945E-009  0.1538311E+03  0.7561462E-02  0.1195843E+00
         -3   -1    0    0    0  501 -0.00000000000E+00  0.00000000000E+00  0.11653692666E+03  0.11653692666E+03  0.00000000000E+00 0.  1.
          3   -1    0    0  501    0  0.00000000000E+00 -0.00000000000E+00 -0.25601275523E+03  0.25601275523E+03  0.00000000000E+00 0. -1.
         25    2    1    2    0    0 -0.12503612066E+03  0.26760212823E+02 -0.34122094827E+02  0.18210711175E+03  0.12509413390E+03 0.  0.
          5    1    3    3  502    0  0.67974731625E+01 -0.26250236286E+02  0.15535847728E+02  0.31529597382E+02  0.41800000000E+01 0.  1.
         -5    1    3    3    0  502 -0.13183359382E+03  0.53010449109E+02 -0.49657942555E+02  0.15057751437E+03  0.41800000000E+01 0.  1.
        -11    1    1    2    0    0  0.24596847476E+02 -0.28462871363E+02  0.85429436456E+01  0.38576182264E+02  0.00000000000E+00 0.  1.
         11    1    1    2    0    0  0.10043927319E+03  0.17026585400E+01 -0.11389667739E+03  0.15186638787E+03  0.00000000000E+00 0. -1.
</event>
<event>
 7    1  0.2794945E-009  0.1132713E+03  0.7561462E-02  0.1254629E+00
          2   -1    0    0  501    0  0.00000000000E+00  0.00000000000E+00  0.85747437832E+02  0.85747437832E+02  0.00000000000E+00 0. -1.
         -2   -1    0    0    0  501 -0.00000000000E+00 -0.00000000000E+00 -0.21806120330E+03  0.21806120330E+03  0.00000000000E+00 0.  1.
         25    2    1    2    0    0 -0.24966985354E+02  0.79238386860E+02 -0.70125487833E+02  0.16573126027E+03  0.12508874561E+03 0.  0.
          5    1    3    3  502    0  0.36290362719E+02  0.66389763969E+02 -0.59810507195E+01  0.76012081631E+02  0.41800000000E+01 0. -1.
         -5    1    3    3    0  502 -0.61257348073E+02  0.12848622891E+02 -0.64144437113E+02  0.89719178639E+02  0.41800000000E+01 0. -1.
        -11    1    1    2    0    0  0.31583334571E+02 -0.62217152166E+02  0.35351358420E+01  0.69863998109E+02  0.00000000000E+00 0. -1.
         11    1    1    2    0    0 -0.66163492172E+01 -0.17021234694E+02 -0.65723413475E+02  0.68213382750E+02  0.00000000000E+00 0.  1.
</event>
<event>
 7    1  0.2794945E-009  0.2740594E+03  0.7561462E-02  0.1098979E+00
         -1   -1    0    0    0  501 -0.00000000000E+00  0.00000000000E+00  0.37032694064E+03  0.37032694064E+03  0.00000000000E+00 0.  1.
          1   -1    0    0  501    0  0.00000000000E+00 -0.00000000000E+00 -0.29542886770E+03  0.29542886770E+03  0.00000000000E+00 0. -1.
         25    2    1    2    0    0  0.23764980964E+03 -0.10468943266E+03  0.21305872293E+03  0.35844039246E+03  0.12509271041E+03 0.  0.
          5    1    3    3  502    0  0.19337094673E+03 -0.22438297847E+02  0.14165832843E+03  0.24079110172E+03  0.41800000000E+01 0.  1.
         -5    1    3    3    0  502  0.44278862908E+02 -0.82251134812E+02  0.71400394495E+02  0.11764929074E+03  0.41800000000E+01 0.  1.
        -11    1    1    2    0    0 -0.26741333039E+02  0.15493730980E+02  0.12355386950E+02  0.33283782524E+02  0.00000000000E+00 0.  1.
         11    1    1    2    0    0 -0.21090847660E+03  0.89195701680E+02 -0.15051603694E+03  0.27403163335E+03  0.00000000000E+00 0. -1.
</event>
<event>
 7    1  0.2794945E-009  0.1037952E+03  0.7561462E-02  0.1272512E+00
          1   -1    0    0  501    0  0.00000000000E+00  0.00000000000E+00  0.65131627759E+03  0.65131627759E+03  0.00000000000E+00 0. -1.
         -1   -1    0    0    0  501 -0.00000000000E+00 -0.00000000000E+00 -0.23513668245E+02  0.23513668245E+02  0.00000000000E+00 0.  1.
         25    2    1    2    0    0  0.22875702083E+02  0.36698250791E+02  0.50036575013E+03  0.51757455428E+03  0.12508987160E+03 0.  0.
          5    1    3    3  502    0 -0.73999266575E+01  0.71343783826E+02  0.40823323639E+03  0.41450758992E+03  0.41800000000E+01 0. -1.
         -5    1    3    3    0  502  0.30275628740E+02 -0.34645533035E+02  0.92132513735E+02  0.10306696436E+03  0.41800000000E+01 0. -1.
        -11    1    1    2    0    0 -0.51811089311E+02 -0.16960995198E+02  0.58712176973E+02  0.80119810650E+02  0.00000000000E+00 0.  1.
         11    1    1    2    0    0  0.28935387228E+02 -0.19737255593E+02  0.68724682245E+02  0.77135580909E+02  0.00000000000E+00 0. -1.
</event>
<event>
 7    1  0.2794945E-009  0.1117695E+03  0.7561462E-02  0.1257328E+00
          2   -1    0    0  501    0  0.00000000000E+00  0.00000000000E+00  0.19974614433E+03  0.19974614433E+03  0.00000000000E+00 0. -1.
         -2   -1    0    0    0  501 -0.00000000000E+00 -0.00000000000E+00 -0.10934137698E+03  0.10934137698E+03  0.00000000000E+00 0.  1.
         25    2    1    2    0    0  0.44428629354E+02 -0.17253816631E+02 -0.43461401709E+02  0.14074327501E+03  0.12509268055E+03 0.  0.
          5    1    3    3  502    0  0.69707454464E+02 -0.53518350913E+02 -0.18859692947E+02  0.89980572961E+02  0.41800000000E+01 0. -1.
         -5    1    3    3    0  502 -0.25278825110E+02  0.36264534282E+02 -0.24601708762E+02  0.50762702052E+02  0.41800000000E+01 0. -1.
        -11    1    1    2    0    0 -0.21784927040E+02  0.48149960370E+02  0.37953096185E+02  0.65064884844E+02  0.00000000000E+00 0.  1.
         11    1    1    2    0    0 -0.22643702314E+02 -0.30896143739E+02  0.95913072880E+02  0.10327936145E+03  0.00000000000E+00 0. -1.
</event>
<event>
 7    1  0.2794945E-009  0.1514305E+03  0.7561462E-02  0.1198726E+00
         -2   -1    0    0    0  501 -0.00000000000E+00  0.00000000000E+00  0.59696370291E+02  0.59696370291E+02  0.00000000000E+00 0.  1.
          2   -1    0    0  501    0  0.00000000000E+00 -0.00000000000E+00 -0.63186693344E+03  0.63186693344E+03  0.00000000000E+00 0. -1.
         25    2    1    2    0    0  0.13094458484E+03 -0.68757728677E+02 -0.40533023076E+03  0.44923785207E+03  0.12509173519E+03 0.  0.
          5    1    3    3  502    0  0.64594033107E+02 -0.13759903064E+02 -0.32392247688E+03  0.33061301770E+03  0.41800000000E+01 0.  1.
         -5    1    3    3    0  502  0.66350551730E+02 -0.54997825613E+02 -0.81407753876E+02  0.11862483437E+03  0.41800000000E+01 0.  1.
        -11    1    1    2    0    0 -0.26743195572E+02  0.27418798949E+02  0.34419731905E+01  0.38455639699E+02  0.00000000000E+00 0.  1.
         11    1    1    2    0    0 -0.10420138926E+03  0.41338929728E+02 -0.17028230558E+03  0.20386981196E+03  0.00000000000E+00 0. -1.
</event>
<event>
 7    1  0.2794945E-009  0.2086846E+03  0.7561462E-02  0.1142612E+00
         -1   -1    0    0    0  501 -0.00000000000E+00  0.00000000000E+00  0.26361270497E+02  0.26361270497E+02  0.00000000000E+00 0.  1.
          1   -1    0    0  501    0  0.00000000000E+00 -0.00000000000E+00 -0.18739582589E+04  0.18739582589E+04  0.00000000000E+00 0. -1.
         25    2    1    2    0    0  0.15435262863E+03 -0.10508854700E+03 -0.73232547552E+03  0.76603908968E+03  0.12508776181E+03 0.  0.
          5    1    3    3  502    0 -0.13346518965E+02  0.24742124857E+01 -0.14776557109E+03  0.14844658195E+03  0.41800000000E+01 0.  1.
         -5    1    3    3    0  502  0.16769914760E+03 -0.10756275948E+03 -0.58455990443E+03  0.61759250773E+03  0.41800000000E+01 0.  1.
        -11    1    1    2    0    0 -0.39237061160E+02 -0.10646008468E+02 -0.15552606913E+03  0.16075211552E+03  0.00000000000E+00 0. -1.
         11    1    1    2    0    0 -0.11511556747E+03  0.11573455546E+03 -0.95974544378E+03  0.97352832422E+03  0.00000000000E+00 0.  1.
</event>
<event>
 7    1  0.2794945E-009  0.1044792E+03  0.7561462E-02  0.1271149E+00
          1   -1    0    0  501    0  0.00000000000E+00  0.00000000000E+00  0.51161751177E+03  0.51161751177E+03  0.00000000000E+00 0. -1.
         -1   -1    0    0    0  501 -0.00000000000E+00 -0.00000000000E+00 -0.39224790902E+02  0.39224790902E+02  0.00000000000E+00 0.  1.
         25    2    1    2    0    0 -0.58468493782E+02  0.92426367260E+01  0.39970741166E+03  0.42298928906E+03  0.12509969076E+03 0.  0.
          5    1    3    3  502    0  0.23356410056E+02  0.30589711324E+02  0.23107418892E+03  0.23429469801E+03  0.41800000000E+01 0.  1.
         -5    1    3    3    0  502 -0.81824903838E+02 -0.21347074598E+02  0.16863322273E+03  0.18869459105E+03  0.41800000000E+01 0.  1.
        -11    1    1    2    0    0  0.71650540433E+02 -0.54311440894E+01  0.21711514702E+02  0.75064553160E+02  0.00000000000E+00 0.  1.
         11    1    1    2    0    0 -0.13182046651E+02 -0.38114926366E+01  0.50973794509E+02  0.52788460450E+02  0.00000000000E+00 0. -1.
</event>
<event>
 7    1  0.2794945E-009  0.1053475E+03  0.7561462E-02  0.1269436E+00
         -1   -1    0    0    0  501 -0.00000000000E+00  0.00000000000E+00  0.98584489429E+02  0.98584489429E+02  0.00000000000E+00 0.  1.
          1   -1    0    0  501    0  0.00000000000E+00 -0.00000000000E+00 -0.18035852828E+03  0.18035852828E+03  0.00000000000E+00 0. -1.
         25    2    1    2    0    0 -0.34793080938E+02  0.84305975562E+01  0.23696020609E+02  0.13225503728E+03  0.12509300555E+03 0.  0.
          5    1    3    3  502    0 -0.76044052347E+02  0.23579647373E+00  0.41107115798E+02  0.86544906647E+02  0.41800000000E+01 0. -1.
         -5    1    3    3    0  502  0.41250971409E+02  0.81948010825E+01 -0.17411095189E+02  0.45710130635E+02  0.41800000000E+01 0. -1.
        -11    1    1    2    0    0 -0.14488626766E+02 -0.33849981174E+02 -0.13349361997E+02  0.39165635406E+02  0.00000000000E+00 0. -1.
         11    1    1    2    0    0  0.49281707704E+02  0.25419383618E+02 -0.92120697465E+02  0.10752234502E+03  0.00000000000E+00 0.  1.
</event>
<event>
 7    1  0.2794945E-009  0.1587452E+03  0.7561462E-02  0.1190121E+00
          3   -1    0    0  501    0  0.00000000000E+00  0.00000000000E+00  0.61617143350E+03  0.61617143350E+03  0.00000000000E+00 0. -1.
         -3   -1    0    0    0  501 -0.00000000000E+00 -0.00000000000E+00 -0.62614055188E+02  0.62614055188E+02  0.00000000000E+00 0.  1.
         25    2    1    2    0    0 -0.15557006567E+03  0.51906099881E+01  0.20440412476E+03  0.28575942613E+03  0.12509362749E+03 0.  0.
          5    1    3    3  502    0 -0.68805465285E+02  0.23931738809E+02  0.12165834756E+02  0.73975672426E+02  0.41800000000E+01 0. -1.
         -5    1    3    3    0  502 -0.86764600381E+02 -0.18741128821E+02  0.19223829000E+03  0.21178375370E+03  0.41800000000E+01 0. -1.
        -11    1    1    2    0    0  0.38756763109E+02 -0.99989697449E+00  0.19899089291E+03  0.20273248862E+03  0.00000000000E+00 0. -1.
         11    1    1    2    0    0  0.11681330256E+03 -0.41907130136E+01  0.15016236065E+03  0.19029357394E+03  0.00000000000E+00 0.  1.
</event>
<event>
 7    1  0.2794945E-009  0.1261312E+03  0.7561462E-02  0.1233312E+00
         -1   -1    0    0    0  501 -0.00000000000E+00  0.00000000000E+00  0.15731775398E+03  0.15731775398E+03  0.00000000000E+00 0.  1.
          1   -1    0    0  501    0  0.00000000000E+00 -0.00000000000E+00 -0.15285899654E+03  0.15285899654E+03  0.00000000000E+00 0. -1.
         25    2    1    2    0    0  0.22435550559E+02 -0.80498497992E+02 -0.68364865958E+02  0.16523957346E+03  0.12508796757E+03 0.  0.
          5    1    3    3  502    0  0.17223142688E+01  0.33763414362E+02 -0.18828136259E+02  0.38921788639E+02  0.41800000000E+01 0.  1.
         -5    1    3    3    0  502  0.20713236290E+02 -0.11426191235E+03 -0.49536729699E+02  0.12631778482E+03  0.41800000000E+01 0.  1.
        -11    1    1    2    0    0 -0.22748584672E+02  0.12857973450E+01 -0.14524088852E+02  0.27020372617E+02  0.00000000000E+00 0. -1.
         11    1    1    2    0    0  0.31303411333E+00  0.79212700647E+02  0.87347712248E+02  0.11791680444E+03  0.00000000000E+00 0.  1.
</event>
<event>
 7    1  0.2794945E-009  0.1358576E+03  0.7561462E-02  0.1219014E+00
         -2   -1    0    0    0  501 -0.00000000000E+00  0.00000000000E+00  0.21292205245E+02  0.21292205245E+02  0.00000000000E+00 0.  1.
          2   -1    0    0  501    0  0.00000000000E+00 -0.00000000000E+00 -0.11212458857E+04  0.11212458857E+04  0.00000000000E+00 0. -1.
         25    2    1    2    0    0  0.72730456611E+02  0.66185485329E+02 -0.78228893140E+03  0.79830882300E+03  0.12510302517E+03 0.  0.
          5    1    3    3  502    0  0.86858400874E+02  0.25046489899E+01 -0.32795489525E+03  0.33929712758E+03  0.41800000000E+01 0.  1.
         -5    1    3    3    0  502 -0.14127944263E+02  0.63680836339E+02 -0.45433403615E+03  0.45901169542E+03  0.41800000000E+01 0.  1.
        -11    1    1    2    0    0 -0.36478520541E+02  0.74957704185E+01 -0.18100110995E+03  0.18479250753E+03  0.00000000000E+00 0. -1.
         11    1    1    2    0    0 -0.36251936070E+02 -0.73681255747E+02 -0.13666363908E+03  0.15943676039E+03  0.00000000000E+00 0.  1.
</event>
<event>
 7    1  0.2846118E-009  0.1311298E+03  0.7561462E-02  0.1225789E+00
         -2   -1    0    0    0  501 -0.00000000000E+00  0.00000000000E+00  0.26530876448E+02  0.26530876448E+02  0.00000000000E+00 0.  1.
          2   -1    0    0  501    0  0.00000000000E+00 -0.00000000000E+00 -0.69878588714E+03  0.69878588714E+03  0.00000000000E+00 0. -1.
         25    2    1    2    0    0 -0.72034608260E+02  0.17081694159E+02 -0.27645256499E+03  0.31233569981E+03  0.12508716810E+03 0.  0.
          5    1    3    3  502    0 -0.28154798803E+02  0.69974212123E+02 -0.12664644362E+03  0.14746483357E+03  0.41800000000E+01 0. -1.
         -5    1    3    3    0  502 -0.43879809458E+02 -0.52892517964E+02 -0.14980612137E+03  0.16487086624E+03  0.41800000000E+01 0. -1.
        -11    1    1    2    0    0 -0.16614142358E+01 -0.40503843579E+02 -0.13424563795E+03  0.14023270999E+03  0.00000000000E+00 0.  1.
         11    1    1    2    0    0  0.73696022496E+02  0.23422149420E+02 -0.26155680774E+03  0.27274835378E+03  0.00000000000E+00 0. -1.
</event>
<event>
 7    1  0.2794945E-009  0.1277875E+03  0.7561462E-02  0.1230776E+00
         -1   -1    0    0    0  501 -0.00000000000E+00  0.00000000000E+00  0.12167973295E+04  0.12167973295E+04  0.00000000000E+00 0.  1.
          1   -1    0    0  501    0  0.00000000000E+00 -0.00000000000E+00 -0.16580010957E+02  0.16580010957E+02  0.00000000000E+00 0. -1.
         25    2    1    2    0    0 -0.82823183043E+02  0.53394161663E+01  0.76214213737E+03  0.77678610475E+03  0.12509127053E+03 0.  0.
          5    1    3    3  502    0  0.23432276405E+01 -0.45422740649E+02  0.15506999561E+03  0.16165671042E+03  0.41800000000E+01 0.  1.
         -5    1    3    3    0  502 -0.85166410683E+02  0.50762156816E+02  0.60707214176E+03  0.61512939434E+03  0.41800000000E+01 0.  1.
        -11    1    1    2    0    0  0.48913942338E+02 -0.39245940108E+02  0.35643327615E+03  0.36190813464E+03  0.00000000000E+00 0.  1.
         11    1    1    2    0    0  0.33909240705E+02  0.33906523942E+02  0.81641904970E+02  0.94683101016E+02  0.00000000000E+00 0. -1.
</event>
<event>
 7    1  0.3529207E-009  0.1453757E+03  0.7561462E-02  0.1206273E+00
          2   -1    0    0  501    0  0.00000000000E+00  0.00000000000E+00  0.71443274690E+02  0.71443274690E+02  0.00000000000E+00 0.  1.
         -2   -1    0    0    0  501 -0.00000000000E+00 -0.00000000000E+00 -0.37688313241E+03  0.37688313241E+03  0.00000000000E+00 0. -1.
         25    2    1    2    0    0  0.24978081460E+02 -0.11264194107E+03 -0.22038874084E+03  0.27844635762E+03  0.12509622513E+03 0.  0.
          5    1    3    3  502    0 -0.31502766398E+02 -0.10161927228E+03 -0.10552890482E+03  0.14990904890E+03  0.41800000000E+01 0. -1.
         -5    1    3    3    0  502  0.56480847858E+02 -0.11022668786E+02 -0.11485983602E+03  0.12853730872E+03  0.41800000000E+01 0. -1.
        -11    1    1    2    0    0 -0.24129771268E+02  0.13923095145E+02 -0.62770056334E+02  0.68674437836E+02  0.00000000000E+00 0. -1.
         11    1    1    2    0    0 -0.84831019268E+00  0.98718845920E+02 -0.22281060549E+02  0.10120561165E+03  0.00000000000E+00 0.  1.
</event>
<event>
 7    1  0.2794945E-009  0.1288332E+03  0.7561462E-02  0.1229197E+00
         -2   -1    0    0    0  501 -0.00000000000E+00  0.00000000000E+00  0.13269365738E+02  0.13269365738E+02  0.00000000000E+00 0.  1.
          2   -1    0    0  501    0  0.00000000000E+00 -0.00000000000E+00 -0.15516339749E+04  0.15516339749E+04  0.00000000000E+00 0. -1.
         25    2    1    2    0    0 -0.60397847455E+02 -0.67803207251E+02 -0.98799916961E+03  0.10000160076E+04  0.12507790135E+03 0.  0.
          5    1    3    3  502    0 -0.88705503486E+02 -0.68316398511E+02 -0.56217526841E+03  0.57323145541E+03  0.41800000000E+01 0. -1.
         -5    1    3    3    0  502  0.28307656032E+02  0.51319125972E+00 -0.42582390120E+03  0.42678455219E+03  0.41800000000E+01 0. -1.
        -11    1    1    2    0    0 -0.85706604796E+01  0.42792663441E+02 -0.10808229586E+03  0.11656093232E+03  0.00000000000E+00 0.  1.
         11    1    1    2    0    0  0.68968507934E+02  0.25010543811E+02 -0.44228314369E+03  0.44832640072E+03  0.00000000000E+00 0. -1.
</event>
<event>
 7    1  0.2794945E-009  0.9482917E+02  0.7561462E-02  0.1291561E+00
         -1   -1    0    0    0  501 -0.00000000000E+00  0.00000000000E+00  0.32569491264E+02  0.32569491264E+02  0.00000000000E+00 0.  1.
          1   -1    0    0  501    0  0.00000000000E+00 -0.00000000000E+00 -0.36759307013E+03  0.36759307013E+03  0.00000000000E+00 0. -1.
         25    2    1    2    0    0  0.27329153409E+01 -0.96956038079E+01 -0.22611317250E+03  0.25860300048E+03  0.12508745548E+03 0.  0.
          5    1    3    3  502    0 -0.14567566422E+02 -0.61107758627E+02 -0.16593318169E+03  0.17747581622E+03  0.41800000000E+01 0. -1.
         -5    1    3    3    0  502  0.17300481763E+02  0.51412154819E+02 -0.60179990812E+02  0.81127184263E+02  0.41800000000E+01 0. -1.
        -11    1    1    2    0    0  0.25571711514E+02 -0.19098940532E+02 -0.92716828115E+02  0.98056576398E+02  0.00000000000E+00 0.  1.
         11    1    1    2    0    0 -0.28304626855E+02  0.28794544340E+02 -0.16193578245E+02  0.43502984513E+02  0.00000000000E+00 0. -1.
</event>
<event>
 7    1  0.2794945E-009  0.1037483E+03  0.7561462E-02  0.1272606E+00
          2   -1    0    0  501    0  0.00000000000E+00  0.00000000000E+00  0.60666368575E+02  0.60666368575E+02  0.00000000000E+00 0. -1.
         -2   -1    0    0    0  501 -0.00000000000E+00 -0.00000000000E+00 -0.20252053729E+03  0.20252053729E+03  0.00000000000E+00 0.  1.
         25    2    1    2    0    0 -0.16147618998E+02  0.53516745299E+01 -0.91954222676E+02  0.15618103921E+03  0.12509017516E+03 0.  0.
          5    1    3    3  502    0  0.39827101474E+02 -0.32335105389E+02 -0.66149460744E+02  0.83815157394E+02  0.41800000000E+01 0. -1.
         -5    1    3    3    0  502 -0.55974720472E+02  0.37686779919E+02 -0.25804761932E+02  0.72365881816E+02  0.41800000000E+01 0. -1.
        -11    1    1    2    0    0 -0.21345918058E+02 -0.34743198493E+02 -0.42315842352E+02  0.58765368825E+02  0.00000000000E+00 0.  1.
         11    1    1    2    0    0  0.37493537056E+02  0.29391523963E+02 -0.75841036844E+01  0.48240497827E+02  0.00000000000E+00 0. -1.
</event>
<event>
 7    1  0.2794945E-009  0.1113190E+03  0.7561462E-02  0.1258147E+00
         -3   -1    0    0    0  501 -0.00000000000E+00  0.00000000000E+00  0.22646217773E+03  0.22646217773E+03  0.00000000000E+00 0.  1.
          3   -1    0    0  501    0  0.00000000000E+00 -0.00000000000E+00 -0.63717035560E+02  0.63717035560E+02  0.00000000000E+00 0. -1.
         25    2    1    2    0    0 -0.13257758591E+02  0.41253996055E+02  0.12511334503E+03  0.18213094363E+03  0.12506266896E+03 0.  0.
          5    1    3    3  502    0 -0.47764462872E+02 -0.26920409891E+02  0.62581093726E+02  0.83306770878E+02  0.41800000000E+01 0. -1.
         -5    1    3    3    0  502  0.34506704281E+02  0.68174405946E+02  0.62532251307E+02  0.98824172751E+02  0.41800000000E+01 0. -1.
        -11    1    1    2    0    0  0.39545290461E+02 -0.49702117724E+02  0.27683935145E+01  0.63575109174E+02  0.00000000000E+00 0. -1.
         11    1    1    2    0    0 -0.26287531869E+02  0.84481216691E+01  0.34863403619E+02  0.44473160484E+02  0.00000000000E+00 0.  1.
</event>
<event>
 7    1  0.2794945E-009  0.1073089E+03  0.7561462E-02  0.1265636E+00
         -2   -1    0    0    0  501 -0.00000000000E+00  0.00000000000E+00  0.30937462408E+02  0.30937462408E+02  0.00000000000E+00 0.  1.
          2   -1    0    0  501    0  0.00000000000E+00 -0.00000000000E+00 -0.62331680140E+03  0.62331680140E+03  0.00000000000E+00 0. -1.
         25    2    1    2    0    0  0.12149771743E+02 -0.84347330820E+02 -0.32768594644E+03  0.36095481763E+03  0.12509281235E+03 0.  0.
          5    1    3    3  502    0 -0.21220776509E+02 -0.82481998068E+02 -0.31264745261E+03  0.32406712789E+03  0.41800000000E+01 0.  1.
         -5    1    3    3    0  502  0.33370548252E+02 -0.18653327515E+01 -0.15038493836E+02  0.36887689732E+02  0.41800000000E+01 0.  1.
        -11    1    1    2    0    0 -0.18907651687E+02  0.10735626114E+02 -0.37199631386E+01  0.22058809717E+02  0.00000000000E+00 0.  1.
         11    1    1    2    0    0  0.67578799440E+01  0.73611704706E+02 -0.26097342942E+03  0.27124063647E+03  0.00000000000E+00 0. -1.
</event>
<event>
 7    1  0.2794945E-009  0.1177195E+03  0.7561462E-02  0.1246907E+00
          1   -1    0    0  501    0  0.00000000000E+00  0.00000000000E+00  0.48509018261E+03  0.48509018261E+03  0.00000000000E+00 0. -1.
         -1   -1    0    0    0  501 -0.00000000000E+00 -0.00000000000E+00 -0.34446829900E+02  0.34446829900E+02  0.00000000000E+00 0.  1.
         25    2    1    2    0    0 -0.12460367823E+01  0.58214123665E+02  0.33093403008E+03  0.35854495181E+03  0.12508682345E+03 0.  0.
          5    1    3    3  502    0 -0.58815791098E+02  0.14512181382E+02  0.10500125986E+03  0.12129566218E+03  0.41800000000E+01 0.  1.
         -5    1    3    3    0  502  0.57569754316E+02  0.43701942283E+02  0.22593277022E+03  0.23724928963E+03  0.41800000000E+01 0.  1.
        -11    1    1    2    0    0  0.52792669462E+01  0.21683546935E+02  0.82462250692E+01  0.23791744263E+02  0.00000000000E+00 0.  1.
         11    1    1    2    0    0 -0.40332301640E+01 -0.79897670601E+02  0.11146309756E+03  0.13720031644E+03  0.00000000000E+00 0. -1.
</event>
<event>
 6    1  0.2794945E-009  0.1220434E+03  0.7561462E-02  0.1239764E+00
         -1   -1    0    0    0  501 -0.00000000000E+00  0.00000000000E+00  0.80069829930E+02  0.80069829930E+02  0.00000000000E+00 0.  1.
          1   -1    0    0  501    0  0.00000000000E+00 -0.00000000000E+00 -0.23348510804E+03  0.23348510804E+03  0.00000000000E+00 0. -1.
          5    1    1    2  502    0  0.94948280518E+02 -0.40515827179E+02 -0.96225500348E+02  0.14118614501E+03  0.41800000000E+01 0.  1.
         -5    1    1    2    0  502 -0.17164337320E+02  0.11713324189E+02  0.18155522405E+02  0.27908991974E+02  0.41800000000E+01 0.  1.
        -11    1    1    2    0    0  0.83003038271E+01 -0.19266677023E+02 -0.28266212210E+02  0.35200548857E+02  0.00000000000E+00 0. -1.
         11    1    1    2    0    0 -0.86084247025E+02  0.48069180013E+02 -0.47079087954E+02  0.10925925213E+03  0.00000000000E+00 0.  1.
</event>
<event>
 7    1  0.2794945E-009  0.1112598E+03  0.7561462E-02  0.1258255E+00
         -1   -1    0    0    0  501 -0.00000000000E+00  0.00000000000E+00  0.81270221090E+02  0.81270221090E+02  0.00000000000E+00 0.  1.
          1   -1    0    0  501    0  0.00000000000E+00 -0.00000000000E+00 -0.21613308924E+03  0.21613308924E+03  0.00000000000E+00 0. -1.
         25    2    1    2    0    0 -0.70101965759E+02  0.25756275705E+02 -0.68263162030E+02  0.16088753952E+03  0.12508904724E+03 0.  0.
          5    1    3    3  502    0 -0.54011375003E+01  0.43626031018E+02 -0.81173091632E+02  0.92406417925E+02  0.41800000000E+01 0.  1.
         -5    1    3    3    0  502 -0.64700828259E+02 -0.17869755313E+02  0.12909929602E+02  0.68481121593E+02  0.41800000000E+01 0.  1.
        -11    1    1    2    0    0  0.32682562739E+02  0.29731547172E+02 -0.31525015065E+01  0.44295068238E+02  0.00000000000E+00 0.  1.
         11    1    1    2    0    0  0.37419403021E+02 -0.55487822877E+02 -0.63447204617E+02  0.92220702577E+02  0.00000000000E+00 0. -1.
</event>
<event>
 7    1  0.2794945E-009  0.1410903E+03  0.7561462E-02  0.1211869E+00
         -2   -1    0    0    0  501 -0.00000000000E+00  0.00000000000E+00  0.40929853189E+02  0.40929853189E+02  0.00000000000E+00 0.  1.
          2   -1    0    0  501    0  0.00000000000E+00 -0.00000000000E+00 -0.49902521710E+03  0.49902521710E+03  0.00000000000E+00 0. -1.
         25    2    1    2    0    0 -0.82675166423E+02 -0.42605079841E+02 -0.25360632507E+03  0.29769622944E+03  0.12512594030E+03 0.  0.
          5    1    3    3  502    0 -0.11593268346E+03 -0.29598062047E+02 -0.18804972260E+03  0.22292734902E+03  0.41800000000E+01 0.  1.
         -5    1    3    3    0  502  0.33257517040E+02 -0.13007017795E+02 -0.65556602478E+02  0.74768880425E+02  0.41800000000E+01 0.  1.
        -11    1    1    2    0    0  0.98101644842E+02  0.49172730286E+02 -0.15428968953E+03  0.18933356390E+03  0.00000000000E+00 0.  1.
         11    1    1    2    0    0 -0.15426478419E+02 -0.65676504451E+01 -0.50199349304E+02  0.52925276942E+02  0.00000000000E+00 0. -1.
</event>
<event>
 7    1  0.2794945E-009  0.1224369E+03  0.7561462E-02  0.1239130E+00
         -3   -1    0    0    0  501 -0.00000000000E+00  0.00000000000E+00  0.25622111825E+02  0.25622111825E+02  0.00000000000E+00 0.  1.
          3   -1    0    0  501    0  0.00000000000E+00 -0.00000000000E+00 -0.68747879583E+03  0.68747879583E+03  0.00000000000E+00 0. -1.
         25    2    1    2    0    0  0.73137898428E+02  0.12879503333E+02 -0.32445431464E+03  0.35557421021E+03  0.12508949952E+03 0.  0.
          5    1    3    3  502    0 -0.75033236140E+01  0.40599810941E+02 -0.36621685903E+02  0.55346768579E+02  0.41800000000E+01 0.  1.
         -5    1    3    3    0  502  0.80641222042E+02 -0.27720307608E+02 -0.28783262874E+03  0.30022744164E+03  0.41800000000E+01 0.  1.
        -11    1    1    2    0    0 -0.94961638690E+02 -0.61409519499E+01 -0.26231116385E+03  0.27903865466E+03  0.00000000000E+00 0.  1.
         11    1    1    2    0    0  0.21823740262E+02 -0.67385513827E+01 -0.75091205516E+02  0.78488042781E+02  0.00000000000E+00 0. -1.
</event>
<event>
 7    1  0.2794945E-009  0.1626570E+03  0.7561462E-02  0.1185729E+00
          2   -1    0    0  501    0  0.00000000000E+00  0.00000000000E+00  0.19065334211E+02  0.19065334211E+02  0.00000000000E+00 0. -1.
         -2   -1    0    0    0  501 -0.00000000000E+00 -0.00000000000E+00 -0.15764094844E+04  0.15764094844E+04  0.00000000000E+00 0.  1.
         25    2    1    2    0    0  0.64570182665E+02  0.11649168895E+03 -0.87714450532E+03  0.89597397055E+03  0.12508897079E+03 0.  0.
          5    1    3    3  502    0  0.72558884392E+02  0.35702961351E+02 -0.23194110940E+03  0.24566978606E+03  0.41800000000E+01 0.  1.
         -5    1    3    3    0  502 -0.79887017269E+01  0.80788727602E+02 -0.64520339592E+03  0.65030418449E+03  0.41800000000E+01 0.  1.
        -11    1    1    2    0    0  0.94962884173E+01 -0.79852611438E+02 -0.32109982811E+03  0.33101619093E+03  0.00000000000E+00 0. -1.
         11    1    1    2    0    0 -0.74066471082E+02 -0.36639077515E+02 -0.35909981675E+03  0.36848465712E+03  0.00000000000E+00 0.  1.
</event>
<event>
 7    1  0.2794945E-009  0.2212077E+03  0.7561462E-02  0.1132986E+00
          1   -1    0    0  501    0  0.00000000000E+00  0.00000000000E+00  0.13633356679E+04  0.13633356679E+04  0.00000000000E+00 0. -1.
         -1   -1    0    0    0  501 -0.00000000000E+00 -0.00000000000E+00 -0.61912132708E+02  0.61912132708E+02  0.00000000000E+00 0.  1.
         25    2    1    2    0    0 -0.19876883381E+03  0.73414988737E+02  0.10741797360E+04  0.11020020647E+04  0.12509050972E+03 0.  0.
          5    1    3    3  502    0 -0.13407258261E+03  0.35417780497E+02  0.92091607364E+03  0.93130755589E+03  0.41800000000E+01 0. -1.
         -5    1    3    3    0  502 -0.64696251197E+02  0.37997208239E+02  0.15326366234E+03  0.17069450884E+03  0.41800000000E+01 0. -1.
        -11    1    1    2    0    0  0.17157963358E+03 -0.25528982206E+02  0.15679459757E+03  0.23382866680E+03  0.00000000000E+00 0.  1.
         11    1    1    2    0    0  0.27189200229E+02 -0.47886006531E+02  0.70449201664E+02  0.89417069095E+02  0.00000000000E+00 0. -1.
</event>
<event>
 7    1  0.2794945E-009  0.2799440E+03  0.7561462E-02  0.1095720E+00
          2   -1    0    0  501    0  0.00000000000E+00  0.00000000000E+00  0.48049613899E+03  0.48049613899E+03  0.00000000000E+00 0. -1.
         -2   -1    0    0    0  501 -0.00000000000E+00 -0.00000000000E+00 -0.26451984456E+03  0.26451984456E+03  0.00000000000E+00 0.  1.
         25    2    1    2    0    0 -0.21884335945E+03 -0.14406489499E+03  0.33523181728E+03  0.44348580315E+03  0.12510865810E+03 0.  0.
          5    1    3    3  502    0 -0.75252814813E+02  0.77312508109E+01  0.53719369237E+02  0.92876269346E+02  0.41800000000E+01 0. -1.
         -5    1    3    3    0  502 -0.14359054464E+03 -0.15179614580E+03  0.28151244804E+03  0.35060953380E+03  0.41800000000E+01 0. -1.
        -11    1    1    2    0    0  0.32446486644E+02  0.65021331623E+02 -0.16647855699E+02  0.74549977605E+02  0.00000000000E+00 0.  1.
         11    1    1    2    0    0  0.18639687281E+03  0.79043563369E+02 -0.10260766715E+03  0.22698020279E+03  0.00000000000E+00 0. -1.
</event>
<event>
 7    1  0.2794945E-009  0.3126894E+03  0.7561462E-02  0.1079064E+00
         -1   -1    0    0    0  501 -0.00000000000E+00  0.00000000000E+00  0.59807375701E+02  0.59807375701E+02  0.00000000000E+00 0.  1.
          1   -1    0    0  501    0  0.00000000000E+00 -0.00000000000E+00 -0.19796002920E+04  0.19796002920E+04  0.00000000000E+00 0. -1.
         25    2    1    2    0    0 -0.15235833448E+03 -0.26821411328E+03 -0.12936488792E+04  0.13357838125E+04  0.12505638059E+03 0.  0.
          5    1    3    3  502    0 -0.43015997484E+02 -0.38495502503E+02 -0.10204012309E+03  0.11731129048E+03  0.41800000000E+01 0. -1.
         -5    1    3    3    0  502 -0.10934233700E+03 -0.22971861077E+03 -0.11916087561E+04  0.12184725220E+04  0.41800000000E+01 0. -1.
        -11    1    1    2    0    0  0.11629026298E+03  0.15207348337E+03 -0.45535197355E+03  0.49395869202E+03  0.00000000000E+00 0. -1.
         11    1    1    2    0    0  0.36068071502E+02  0.11614062990E+03 -0.17079206354E+03  0.20966516321E+03  0.00000000000E+00 0.  1.
</event>
<event>
 6    1  0.2794945E-009  0.1179554E+03  0.7561462E-02  0.1246509E+00
         -1   -1    0    0    0  501 -0.00000000000E+00  0.00000000000E+00  0.10043803321E+03  0.10043803321E+03  0.00000000000E+00 0.  1.
          1   -1    0    0  501    0  0.00000000000E+00 -0.00000000000E+00 -0.22798656652E+03  0.22798656652E+03  0.00000000000E+00 0. -1.
          5    1    1    2  502    0 -0.15916392502E+02  0.40336257363E+02 -0.25834176766E+02  0.50648023629E+02  0.41800000000E+01 0. -1.
         -5    1    1    2    0  502  0.10087829455E+03 -0.33385386383E+02 -0.10957889960E+03  0.15269584792E+03  0.41800000000E+01 0. -1.
        -11    1    1    2    0    0 -0.36734390263E+02 -0.86835851367E+01  0.48872211635E+02  0.61752029513E+02  0.00000000000E+00 0.  1.
         11    1    1    2    0    0 -0.48227511787E+02  0.17327141566E+01 -0.41007668587E+02  0.63328698664E+02  0.00000000000E+00 0. -1.
</event>
<event>
 7    1  0.2794945E-009  0.8610720E+02  0.7561462E-02  0.1312562E+00
         -1   -1    0    0    0  501 -0.00000000000E+00  0.00000000000E+00  0.36308245641E+02  0.36308245641E+02  0.00000000000E+00 0.  1.
          1   -1    0    0  501    0  0.00000000000E+00 -0.00000000000E+00 -0.63192961421E+03  0.63192961421E+03  0.00000000000E+00 0. -1.
         25    2    1    2    0    0  0.84813986070E+01 -0.61248849528E+02 -0.50896412179E+03  0.52774546031E+03  0.12508971946E+03 0.  0.
          5    1    3    3  502    0 -0.64832885455E+01 -0.22830996520E+02 -0.47077567400E+03  0.47139208210E+03  0.41800000000E+01 0. -1.
         -5    1    3    3    0  502  0.14964687152E+02 -0.38417853008E+02 -0.38188447792E+02  0.56353378214E+02  0.41800000000E+01 0. -1.
        -11    1    1    2    0    0 -0.35164491956E+02  0.70212585702E+02 -0.78848508139E+02  0.11128088749E+03  0.00000000000E+00 0. -1.
         11    1    1    2    0    0  0.26683093349E+02 -0.89637361744E+01 -0.78087386341E+01  0.29211512044E+02  0.00000000000E+00 0.  1.
</event>
<event>
 7    1  0.2794945E-009  0.1545515E+03  0.7561462E-02  0.1194989E+00
          2   -1    0    0  501    0  0.00000000000E+00  0.00000000000E+00  0.32464574165E+03  0.32464574165E+03  0.00000000000E+00 0. -1.
         -2   -1    0    0    0  501 -0.00000000000E+00 -0.00000000000E+00 -0.84219074216E+02  0.84219074216E+02  0.00000000000E+00 0.  1.
         25    2    1    2    0    0  0.74827906249E+02  0.98981593556E+02  0.11655462838E+03  0.21125644726E+03  0.12509090172E+03 0.  0.
          5    1    3    3  502    0  0.49216934435E+02  0.11466918220E+03  0.12803344431E+03  0.17883333930E+03  0.41800000000E+01 0.  1.
         -5    1    3    3    0  502  0.25610971814E+02 -0.15687588646E+02 -0.11478815928E+02  0.32423107961E+02  0.41800000000E+01 0.  1.
        -11    1    1    2    0    0 -0.85597905936E+01 -0.85965327320E+02  0.67317763224E+02  0.10952163604E+03  0.00000000000E+00 0.  1.
         11    1    1    2    0    0 -0.66268115655E+02 -0.13016266237E+02  0.56554275822E+02  0.88086732559E+02  0.00000000000E+00 0. -1.
</event>
<event>
 7    1  0.2794945E-009  0.8553599E+02  0.7561462E-02  0.1314037E+00
          2   -1    0    0  501    0  0.00000000000E+00  0.00000000000E+00  0.47938035334E+02  0.47938035334E+02  0.00000000000E+00 0.  1.
         -2   -1    0    0    0  501 -0.00000000000E+00 -0.00000000000E+00 -0.25940912245E+03  0.25940912245E+03  0.00000000000E+00 0. -1.
         25    2    1    2    0    0  0.12534850429E+02  0.88265094343E+01 -0.12918582530E+03  0.18047617230E+03  0.12509053347E+03 0.  0.
          5    1    3    3  502    0 -0.39211351683E+02 -0.37523608843E+01  0.11400116207E+01  0.39628049908E+02  0.41800000000E+01 0. -1.
         -5    1    3    3    0  502  0.51746202112E+02  0.12578870319E+02 -0.13032583692E+03  0.14084812239E+03  0.41800000000E+01 0. -1.
        -11    1    1    2    0    0  0.16693761716E+02  0.27038439276E+02  0.78385295739E+00  0.31786369786E+02  0.00000000000E+00 0.  1.
         11    1    1    2    0    0 -0.29228612145E+02 -0.35864948710E+02 -0.83069114773E+02  0.95084615701E+02  0.00000000000E+00 0. -1.
</event>
<event>
 7    1  0.2794945E-009  0.1059983E+03  0.7561462E-02  0.1268165E+00
         -2   -1    0    0    0  501 -0.00000000000E+00  0.00000000000E+00  0.95172246467E+02  0.95172246467E+02  0.00000000000E+00 0. -1.
          2   -1    0    0  501    0  0.00000000000E+00 -0.00000000000E+00 -0.27731582884E+03  0.27731582884E+03  0.00000000000E+00 0.  1.
         25    2    1    2    0    0  0.12715137358E+02  0.68622503375E+02 -0.20873431342E+03  0.25315401174E+03  0.12508484069E+03 0.  0.
          5    1    3    3  502    0  0.20324643716E+02 -0.10981614626E+02  0.57827952551E+01  0.24178505391E+02  0.41800000000E+01 0. -1.
         -5    1    3    3    0  502 -0.76095063580E+01  0.79604118001E+02 -0.21451710868E+03  0.22897550634E+03  0.41800000000E+01 0. -1.
        -11    1    1    2    0    0  0.29830247039E+02 -0.57008732790E+02 -0.58187340530E+01  0.64604155584E+02  0.00000000000E+00 0. -1.
         11    1    1    2    0    0 -0.42545384398E+02 -0.11613770586E+02  0.32409465099E+02  0.54729907992E+02  0.00000000000E+00 0.  1.
</event>
<event>
 7    1  0.2794945E-009  0.6794205E+02  0.7561462E-02  0.1367234E+00
          2   -1    0    0  501    0  0.00000000000E+00  0.00000000000E+00  0.61258139086E+02  0.61258139086E+02  0.00000000000E+00 0. -1.
         -2   -1    0    0    0  501 -0.00000000000E+00 -0.00000000000E+00 -0.17627939494E+03  0.17627939494E+03  0.00000000000E+00 0.  1.
         25    2    1    2    0    0  0.17638873965E+02 -0.90572336367E+01 -0.99769504004E+02  0.16122716283E+03  0.12508829182E+03 0.  0.
          5    1    3    3  502    0  0.10102345541E+02  0.24740305450E+02 -0.11856162586E+03  0.12160786005E+03  0.41800000000E+01 0. -1.
         -5    1    3    3    0  502  0.75365284239E+01 -0.33797539087E+02  0.18792121857E+02  0.39619302782E+02  0.41800000000E+01 0. -1.
        -11    1    1    2    0    0  0.22958780444E+02 -0.14369460095E+02 -0.21539791853E+00  0.27085667412E+02  0.00000000000E+00 0. -1.
         11    1    1    2    0    0 -0.40597654409E+02  0.23426693732E+02 -0.15036353930E+02  0.49224703780E+02  0.00000000000E+00 0.  1.
</event>
<event>
 7    1  0.2794945E-009  0.4112594E+02  0.7561462E-02  0.1500086E+00
          1   -1    0    0  501    0  0.00000000000E+00  0.00000000000E+00  0.44481513997E+02  0.44481513997E+02  0.00000000000E+00 0. -1.
         -1   -1    0    0    0  501 -0.00000000000E+00 -0.00000000000E+00 -0.25819753740E+03  0.25819753740E+03  0.00000000000E+00 0.  1.
         25    2    1    2    0    0 -0.26943178681E+02 -0.26235675696E+01 -0.18306261068E+03  0.22336853129E+03  0.12509501732E+03 0.  0.
          5    1    3    3  502    0 -0.84575454359E+01  0.18911185660E+02  0.13267825379E+02  0.24953368673E+02  0.41800000000E+01 0.  1.
         -5    1    3    3    0  502 -0.18485633245E+02 -0.21534753229E+02 -0.19633043606E+03  0.19841516262E+03  0.41800000000E+01 0.  1.
        -11    1    1    2    0    0  0.18220633250E+02 -0.69306635996E+01  0.19465579238E+02  0.27548763112E+02  0.00000000000E+00 0. -1.
         11    1    1    2    0    0  0.87225454313E+01  0.95542311691E+01 -0.50118991953E+02  0.51761756988E+02  0.00000000000E+00 0.  1.
</event>
<event>
 7    1  0.2794945E-009  0.2362242E+03  0.7561462E-02  0.1122334E+00
          1   -1    0    0  501    0  0.00000000000E+00  0.00000000000E+00  0.51593675806E+03  0.51593675806E+03  0.00000000000E+00 0. -1.
         -1   -1    0    0    0  501 -0.00000000000E+00 -0.00000000000E+00 -0.15939254171E+03  0.15939254171E+03  0.00000000000E+00 0.  1.
         25    2    1    2    0    0  0.23215649756E+02  0.21692669388E+03  0.46732187492E+01  0.25152687779E+03  0.12509106429E+03 0.  0.
          5    1    3    3  502    0 -0.35995426954E+02  0.12230167041E+02 -0.19439174752E+01  0.38294894733E+02  0.41800000000E+01 0.  1.
         -5    1    3    3    0  502  0.59211076710E+02  0.20469652684E+03  0.66171362244E+01  0.21323198306E+03  0.41800000000E+01 0.  1.
        -11    1    1    2    0    0 -0.40464641894E+01 -0.17416459659E+03  0.20185153935E+03  0.26663406481E+03  0.00000000000E+00 0.  1.
         11    1    1    2    0    0 -0.19169185566E+02 -0.42762097290E+02  0.15001945825E+03  0.15716835717E+03  0.00000000000E+00 0. -1.
</event>
<event>
 7    1  0.2794945E-009  0.9771213E+02  0.7561462E-02  0.1285182E+00
          2   -1    0    0  501    0  0.00000000000E+00  0.00000000000E+00  0.24042221488E+03  0.24042221488E+03  0.00000000000E+00 0. -1.
         -2   -1    0    0    0  501 -0.00000000000E+00 -0.00000000000E+00 -0.61292879168E+02  0.61292879168E+02  0.00000000000E+00 0.  1.
         25    2    1    2    0    0 -0.51148322100E+02 -0.10910129947E+02  0.11145292688E+03  0.17552542621E+03  0.12510890674E+03 0.  0.
          5    1    3    3  502    0 -0.44273772058E+02 -0.64595603452E+02  0.83175091292E+02  0.11431678393E+03  0.41800000000E+01 0. -1.
         -5    1    3    3    0  502 -0.68745500418E+01  0.53685473505E+02  0.28277835593E+02  0.61208642278E+02  0.41800000000E+01 0. -1.
        -11    1    1    2    0    0  0.15983280333E+02 -0.12653670909E+02 -0.20169241346E+02  0.28677150036E+02  0.00000000000E+00 0.  1.
         11    1    1    2    0    0  0.35165041767E+02  0.23563800856E+02  0.87845650173E+02  0.97512517799E+02  0.00000000000E+00 0. -1.
</event>
<event>
 7    1  0.3633809E-009  0.8087359E+02  0.7561462E-02  0.1326590E+00
         -4   -1    0    0    0  501 -0.00000000000E+00  0.00000000000E+00  0.85431042987E+02  0.85431042987E+02  0.00000000000E+00 0.  1.
          4   -1    0    0  501    0  0.00000000000E+00 -0.00000000000E+00 -0.21682758257E+03  0.21682758257E+03  0.00000000000E+00 0. -1.
         25    2    1    2    0    0  0.28452133387E+02  0.67584294917E+02 -0.31775984908E+02  0.14843916789E+03  0.12508921829E+03 0.  0.
          5    1    3    3  502    0  0.17533312435E+01  0.58147823526E+02  0.40296245129E+02  0.70890784470E+02  0.41800000000E+01 0.  1.
         -5    1    3    3    0  502  0.26698802143E+02  0.94364713910E+01 -0.72072230037E+02  0.77548383418E+02  0.41800000000E+01 0.  1.
        -11    1    1    2    0    0 -0.24328904275E+02 -0.39340006663E+02 -0.11314435968E+03  0.12223411077E+03  0.00000000000E+00 0. -1.
         11    1    1    2    0    0 -0.41232291123E+01 -0.28244288254E+02  0.13523805003E+02  0.31585346904E+02  0.00000000000E+00 0.  1.
</event>
<event>
 7    1  0.2794945E-009  0.9575176E+02  0.7561462E-02  0.1289492E+00
          1   -1    0    0  501    0  0.00000000000E+00  0.00000000000E+00  0.85883481073E+02  0.85883481073E+02  0.00000000000E+00 0. -1.
         -1   -1    0    0    0  501 -0.00000000000E+00 -0.00000000000E+00 -0.22283226612E+03  0.22283226612E+03  0.00000000000E+00 0.  1.
         25    2    1    2    0    0 -0.34439954622E+02  0.29544555530E+02 -0.15734176885E+03  0.20606562710E+03  0.12509044412E+03 0.  0.
          5    1    3    3  502    0  0.25791883918E+02  0.44081158414E+02 -0.12699881024E+03  0.13694721613E+03  0.41800000000E+01 0. -1.
         -5    1    3    3    0  502 -0.60231838541E+02 -0.14536602884E+02 -0.30342958602E+02  0.69118410963E+02  0.41800000000E+01 0. -1.
        -11    1    1    2    0    0  0.28654804060E+02 -0.49601706371E+02  0.43188776277E+02  0.71740486944E+02  0.00000000000E+00 0.  1.
         11    1    1    2    0    0  0.57851505621E+01  0.20057150841E+02 -0.22795792478E+02  0.30909633152E+02  0.00000000000E+00 0. -1.
</event>
<event>
 7    1  0.2794945E-009  0.1027245E+03  0.7561462E-02  0.1274669E+00
          2   -1    0    0  501    0  0.00000000000E+00  0.00000000000E+00  0.73426722884E+03  0.73426722884E+03  0.00000000000E+00 0. -1.
         -2   -1    0    0    0  501 -0.00000000000E+00 -0.00000000000E+00 -0.18107991826E+02  0.18107991826E+02  0.00000000000E+00 0.  1.
         25    2    1    2    0    0  0.31546146145E+02  0.20651955440E+02  0.44672278058E+03  0.46543808752E+03  0.12509879303E+03 0.  0.
          5    1    3    3  502    0  0.69785511484E+02  0.23855527211E+02  0.16121303791E+03  0.17733082018E+03  0.41800000000E+01 0.  1.
         -5    1    3    3    0  502 -0.38239365339E+02 -0.32035717715E+01  0.28550974267E+03  0.28810726734E+03  0.41800000000E+01 0.  1.
        -11    1    1    2    0    0  0.53789447476E+01  0.29899107201E+02  0.13867101000E+03  0.14195963748E+03  0.00000000000E+00 0. -1.
         11    1    1    2    0    0 -0.36925090893E+02 -0.50551062641E+02  0.13076544643E+03  0.14497749568E+03  0.00000000000E+00 0.  1.
</event>
<event>
 7    1  0.2794945E-009  0.1303826E+03  0.7561462E-02  0.1226889E+00
         -1   -1    0    0    0  501 -0.00000000000E+00  0.00000000000E+00  0.22713549446E+03  0.22713549446E+03  0.00000000000E+00 0.  1.
          1   -1    0    0  501    0  0.00000000000E+00 -0.00000000000E+00 -0.10700577917E+03  0.10700577917E+03  0.00000000000E+00 0. -1.
         25    2    1    2    0    0  0.22575253529E+02 -0.98874342972E+02  0.11969789910E+03  0.20065092056E+03  0.12508967624E+03 0.  0.
          5    1    3    3  502    0 -0.44956340259E+02 -0.71482566648E+02  0.43314338730E+02  0.94997022078E+02  0.41800000000E+01 0. -1.
         -5    1    3    3    0  502  0.67531593788E+02 -0.27391776324E+02  0.76383560373E+02  0.10565389848E+03  0.41800000000E+01 0. -1.
        -11    1    1    2    0    0  0.34964784326E+01  0.14266848139E+02  0.35380475817E+02  0.38308568053E+02  0.00000000000E+00 0.  1.
         11    1    1    2    0    0 -0.26071731962E+02  0.84607494832E+02 -0.34948659631E+02  0.95181785019E+02  0.00000000000E+00 0. -1.
</event>
<event>
 7    1  0.2794945E-009  0.1033237E+03  0.7561462E-02  0.1273458E+00
         -1   -1    0    0    0  501 -0.00000000000E+00  0.00000000000E+00  0.39873884161E+02  0.39873884161E+02  0.00000000000E+00 0.  1.
          1   -1    0    0  501    0  0.00000000000E+00 -0.00000000000E+00 -0.50260922643E+03  0.50260922643E+03  0.00000000000E+00 0. -1.
         25    2    1    2    0    0  0.24173288401E+02  0.83204089698E+02 -0.20512119020E+03  0.25539991083E+03  0.12508854213E+03 0.  0.
          5    1    3    3  502    0  0.28291364624E+02  0.51488726449E+02 -0.21399138967E+03  0.22194881733E+03  0.41800000000E+01 0.  1.
         -5    1    3    3    0  502 -0.41180762232E+01  0.31715363249E+02  0.88701994715E+01  0.33451093502E+02  0.41800000000E+01 0.  1.
        -11    1    1    2    0    0 -0.42721822890E+02 -0.15741094619E+02 -0.16405664343E+03  0.17025721266E+03  0.00000000000E+00 0. -1.
         11    1    1    2    0    0  0.18548534489E+02 -0.67462995079E+02 -0.93557508648E+02  0.11682598710E+03  0.00000000000E+00 0.  1.
</event>
<event>
 7    1  0.2794945E-009  0.7267212E+02  0.7561462E-02  0.1351235E+00
          2   -1    0    0  501    0  0.00000000000E+00  0.00000000000E+00  0.43249798110E+03  0.43249798110E+03  0.00000000000E+00 0. -1.
         -2   -1    0    0    0  501 -0.00000000000E+00 -0.00000000000E+00 -0.38119615106E+02  0.38119615106E+02  0.00000000000E+00 0.  1.
         25    2    1    2    0    0  0.34307615437E+02 -0.42861164189E+02  0.28814909480E+03  0.31889158608E+03  0.12509137048E+03 0.  0.
          5    1    3    3  502    0 -0.58480530804E+01  0.21422237155E+01  0.24378917552E+03  0.24390453736E+03  0.41800000000E+01 0.  1.
         -5    1    3    3    0  502  0.40155668518E+02 -0.45003387904E+02  0.44359919280E+02  0.74987048718E+02  0.41800000000E+01 0.  1.
        -11    1    1    2    0    0 -0.39937698530E+02  0.63467155659E+01  0.12752066898E+01  0.40458950981E+02  0.00000000000E+00 0.  1.
         11    1    1    2    0    0  0.56300830930E+01  0.36514448623E+02  0.10495406451E+03  0.11126705914E+03  0.00000000000E+00 0. -1.
</event>
<event>
 7    1  0.2794945E-009  0.1110049E+03  0.7561462E-02  0.1258720E+00
         -1   -1    0    0    0  501 -0.00000000000E+00  0.00000000000E+00  0.16610729489E+03  0.16610729489E+03  0.00000000000E+00 0.  1.
          1   -1    0    0  501    0  0.00000000000E+00 -0.00000000000E+00 -0.12127000199E+03  0.12127000199E+03  0.00000000000E+00 0. -1.
         25    2    1    2    0    0  0.54670152821E+02 -0.62665292634E+02 -0.13532595919E+02  0.15080203743E+03  0.12506941605E+03 0.  0.
          5    1    3    3  502    0  0.16361532822E+01  0.29678674231E+02  0.23349876399E+02  0.38028802631E+02  0.41800000000E+01 0.  1.
         -5    1    3    3    0  502  0.53033999539E+02 -0.92343966865E+02 -0.36882472318E+02  0.11277323480E+03  0.41800000000E+01 0.  1.
        -11    1    1    2    0    0 -0.49261385919E+02  0.44210574795E+02  0.82466846587E+02  0.10574516468E+03  0.00000000000E+00 0.  1.
         11    1    1    2    0    0 -0.54087669019E+01  0.18454717839E+02 -0.24096957774E+02  0.30830094775E+02  0.00000000000E+00 0. -1.
</event>
<event>
 7    1  0.2794945E-009  0.1660221E+03  0.7561462E-02  0.1182061E+00
         -1   -1    0    0    0  501 -0.00000000000E+00  0.00000000000E+00  0.62648099637E+02  0.62648099637E+02  0.00000000000E+00 0.  1.
          1   -1    0    0  501    0  0.00000000000E+00 -0.00000000000E+00 -0.52926132835E+03  0.52926132835E+03  0.00000000000E+00 0. -1.
         25    2    1    2    0    0  0.11959493261E+03 -0.53945591768E+02 -0.14125382737E+03  0.22980607963E+03  0.12508043696E+03 0.  0.
          5    1    3    3  502    0  0.85744533057E+02  0.29030135099E+02 -0.59330362165E+02  0.10831637904E+03  0.41800000000E+01 0. -1.
         -5    1    3    3    0  502  0.33850399552E+02 -0.82975726868E+02 -0.81923465201E+02  0.12148970059E+03  0.41800000000E+01 0. -1.
        -11    1    1    2    0    0 -0.10532596666E+03  0.72820609628E+02 -0.22397636184E+03  0.25799575792E+03  0.00000000000E+00 0.  1.
         11    1    1    2    0    0 -0.14268965951E+02 -0.18875017860E+02 -0.10138303951E+03  0.10410759044E+03  0.00000000000E+00 0. -1.
</event>
<event>
 7    1  0.2794945E-009  0.1279497E+03  0.7561462E-02  0.1230530E+00
          2   -1    0    0  501    0  0.00000000000E+00  0.00000000000E+00  0.96445322950E+03  0.96445322950E+03  0.00000000000E+00 0. -1.
         -2   -1    0    0    0  501 -0.00000000000E+00 -0.00000000000E+00 -0.26284936133E+02  0.26284936133E+02  0.00000000000E+00 0.  1.
         25    2    1    2    0    0  0.61583638999E+02 -0.41705073017E+02  0.77616400900E+03  0.78968953355E+03  0.12508849996E+03 0.  0.
          5    1    3    3  502    0  0.23170998154E+02  0.40037856000E+02  0.14986418871E+03  0.15689701248E+03  0.41800000000E+01 0. -1.
         -5    1    3    3    0  502  0.38412640845E+02 -0.81742929017E+02  0.62629982029E+03  0.63279252107E+03  0.41800000000E+01 0. -1.
        -11    1    1    2    0    0  0.24267131585E+02  0.17122790728E+01  0.31529648928E+02  0.39823916639E+02  0.00000000000E+00 0.  1.
         11    1    1    2    0    0 -0.85850770583E+02  0.39992793945E+02  0.13047463544E+03  0.16122471544E+03  0.00000000000E+00 0. -1.
</event>
<event>
 7    1  0.2794945E-009  0.9723799E+02  0.7561462E-02  0.1286214E+00
          1   -1    0    0  501    0  0.00000000000E+00  0.00000000000E+00  0.12077905259E+03  0.12077905259E+03  0.00000000000E+00 0. -1.
         -1   -1    0    0    0  501 -0.00000000000E+00 -0.00000000000E+00 -0.11565581068E+03  0.11565581068E+03  0.00000000000E+00 0.  1.
         25    2    1    2    0    0 -0.82307021912E+01 -0.29668007130E+02  0.38824662780E+02  0.13454600657E+03  0.12508932144E+03 0.  0.
          5    1    3    3  502    0 -0.56987637300E+02 -0.35138403968E+02 -0.67914361528E+01  0.67423247056E+02  0.41800000000E+01 0. -1.
         -5    1    3    3    0  502  0.48756935109E+02  0.54703968385E+01  0.45616098933E+02  0.67122759513E+02  0.41800000000E+01 0. -1.
        -11    1    1    2    0    0 -0.31893218316E+02  0.96909290630E+01 -0.44677974206E+02  0.55742379388E+02  0.00000000000E+00 0.  1.
         11    1    1    2    0    0  0.40123920507E+02  0.19977078067E+02  0.10976553334E+02  0.46146477309E+02  0.00000000000E+00 0. -1.
</event>
<event>
 7    1  0.2794945E-009  0.1087543E+03  0.7561462E-02  0.1262894E+00
          3   -1    0    0  501    0  0.00000000000E+00  0.00000000000E+00  0.11863228181E+03  0.11863228181E+03  0.00000000000E+00 0. -1.
         -3   -1    0    0    0  501 -0.00000000000E+00 -0.00000000000E+00 -0.17724373459E+03  0.17724373459E+03  0.00000000000E+00 0.  1.
         25    2    1    2    0    0 -0.65622569749E+02  0.21617977369E+02 -0.98326980868E+02  0.17346290859E+03  0.12509007507E+03 0.  0.
          5    1    3    3  502    0  0.12757226315E+02  0.52822771973E+02 -0.19376751354E+02  0.57843953489E+02  0.41800000000E+01 0.  1.
         -5    1    3    3    0  502 -0.78379796065E+02 -0.31204794603E+02 -0.78950229514E+02  0.11561895510E+03  0.41800000000E+01 0.  1.
        -11    1    1    2    0    0  0.43412014547E+02  0.51960181425E+01  0.65734644684E+02  0.78947103325E+02  0.00000000000E+00 0. -1.
         11    1    1    2    0    0  0.22210555202E+02 -0.26813995512E+02 -0.26019116592E+02  0.43466004486E+02  0.00000000000E+00 0.  1.
</event>
<event>
 7    1  0.2794945E-009  0.1283613E+03  0.7561462E-02  0.1229908E+00
          1   -1    0    0  501    0  0.00000000000E+00  0.00000000000E+00  0.11751932279E+03  0.11751932279E+03  0.00000000000E+00 0. -1.
         -1   -1    0    0    0  501 -0.00000000000E+00 -0.00000000000E+00 -0.20412481455E+03  0.20412481455E+03  0.00000000000E+00 0.  1.
         25    2    1    2    0    0 -0.61600592814E+02 -0.88978550480E+02 -0.24349797125E+02  0.16720223671E+03  0.12510739331E+03 0.  0.
          5    1    3    3  502    0 -0.41857088753E+02  0.44852221932E+01 -0.52597811487E+02  0.67499150144E+02  0.41800000000E+01 0.  1.
         -5    1    3    3    0  502 -0.19743504061E+02 -0.93463772673E+02  0.28248014362E+02  0.99703086564E+02  0.41800000000E+01 0.  1.
        -11    1    1    2    0    0  0.34033257474E+02  0.84206202619E+02 -0.80232671022E+02  0.12118675123E+03  0.00000000000E+00 0.  1.
         11    1    1    2    0    0  0.27567335340E+02  0.47723478614E+01  0.17976976390E+02  0.33255149406E+02  0.00000000000E+00 0. -1.
</event>
<event>
 7    1  0.2794945E-009  0.1299287E+03  0.7561462E-02  0.1227562E+00
         -2   -1    0    0    0  501 -0.00000000000E+00  0.00000000000E+00  0.32000960513E+02  0.32000960513E+02  0.00000000000E+00 0.  1.
          2   -1    0    0  501    0  0.00000000000E+00 -0.00000000000E+00 -0.71328837412E+03  0.71328837412E+03  0.00000000000E+00 0. -1.
         25    2    1    2    0    0 -0.37349593914E+01 -0.97439043804E+02 -0.47682537100E+03  0.50251225372E+03  0.12509122081E+03 0.  0.
          5    1    3    3  502    0 -0.61219827117E+02 -0.63509695604E+02 -0.21855539485E+03  0.23572289173E+03  0.41800000000E+01 0. -1.
         -5    1    3    3    0  502  0.57484867726E+02 -0.33929348200E+02 -0.25826997615E+03  0.26678936199E+03  0.41800000000E+01 0. -1.
        -11    1    1    2    0    0  0.20583330851E+02  0.42900598032E+02 -0.23586006917E+02  0.53107763488E+02  0.00000000000E+00 0.  1.
         11    1    1    2    0    0 -0.16848371459E+02  0.54538445772E+02 -0.18087603569E+03  0.18966931743E+03  0.00000000000E+00 0. -1.
</event>
<event>
 7    1  0.2794945E-009  0.1004444E+03  0.7561462E-02  0.1279364E+00
          1   -1    0    0  501    0  0.00000000000E+00  0.00000000000E+00  0.15463532131E+03  0.15463532131E+03  0.00000000000E+00 0. -1.
         -1   -1    0    0    0  501 -0.00000000000E+00 -0.00000000000E+00 -0.10410764063E+03  0.10410764063E+03  0.00000000000E+00 0.  1.
         25    2    1    2    0    0 -0.10449759529E+02 -0.45862112282E+02  0.72210388330E+02  0.15190539599E+03  0.12509347837E+03 0.  0.
          5    1    3    3  502    0 -0.33625054248E+02 -0.82320558228E+02  0.57944397454E+02  0.10621837965E+03  0.41800000000E+01 0.  1.
         -5    1    3    3    0  502  0.23175294719E+02  0.36458445946E+02  0.14265990876E+02  0.45687016338E+02  0.41800000000E+01 0.  1.
        -11    1    1    2    0    0  0.29718623877E+02  0.36421300048E+02 -0.51741234059E+02  0.69906101338E+02  0.00000000000E+00 0.  1.
         11    1    1    2    0    0 -0.19268864349E+02  0.94408122339E+01  0.30058526402E+02  0.36931464612E+02  0.00000000000E+00 0. -1.
</event>
<event>
 6    1  0.2794945E-009  0.1522644E+03  0.7561462E-02  0.1197718E+00
         -2   -1    0    0    0  501 -0.00000000000E+00  0.00000000000E+00  0.10294765046E+04  0.10294765046E+04  0.00000000000E+00 0.  1.
          2   -1    0    0  501    0  0.00000000000E+00 -0.00000000000E+00 -0.23471861143E+02  0.23471861143E+02  0.00000000000E+00 0. -1.
          5    1    1    2  502    0  0.13707718223E+02 -0.13176973137E+03  0.42664501432E+03  0.44676011940E+03  0.41800000000E+01 0.  1.
         -5    1    1    2    0  502 -0.25638888579E+02  0.20519402399E+02  0.16073497912E+03  0.16410851408E+03  0.41800000000E+01 0.  1.
        -11    1    1    2    0    0  0.26672178044E+02  0.16989488668E-01  0.12343396512E+03  0.12628281401E+03  0.00000000000E+00 0.  1.
         11    1    1    2    0    0 -0.14741007688E+02  0.11123333948E+03  0.29519068490E+03  0.31579691825E+03  0.00000000000E+00 0. -1.
</event>
<event>
 7    1  0.2794945E-009  0.8465160E+02  0.7561462E-02  0.1316346E+00
          2   -1    0    0  501    0  0.00000000000E+00  0.00000000000E+00  0.90867109067E+02  0.90867109067E+02  0.00000000000E+00 0. -1.
         -2   -1    0    0    0  501 -0.00000000000E+00 -0.00000000000E+00 -0.15983735243E+03  0.15983735243E+03  0.00000000000E+00 0.  1.
         25    2    1    2    0    0  0.50375066395E+02 -0.11794956823E+02 -0.24113746473E+02  0.13749931482E+03  0.12509124864E+03 0.  0.
          5    1    3    3  502    0  0.49652465297E+02  0.15291218644E+02  0.41346473555E+02  0.66529632143E+02  0.41800000000E+01 0.  1.
         -5    1    3    3    0  502  0.72260109852E+00 -0.27086175467E+02 -0.65460220028E+02  0.70969682681E+02  0.41800000000E+01 0.  1.
        -11    1    1    2    0    0  0.78523150286E+01  0.28198539840E+02 -0.43826247038E+02  0.52702527737E+02  0.00000000000E+00 0.  1.
         11    1    1    2    0    0 -0.58227381424E+02 -0.16403583018E+02 -0.10302498515E+01  0.60502618936E+02  0.00000000000E+00 0. -1.
</event>
<event>
 7    1  0.2794945E-009  0.1075707E+03  0.7561462E-02  0.1265136E+00
          1   -1    0    0  501    0  0.00000000000E+00  0.00000000000E+00  0.93170294570E+02  0.93170294570E+02  0.00000000000E+00 0. -1.
         -1   -1    0    0    0  501 -0.00000000000E+00 -0.00000000000E+00 -0.13935777796E+03  0.13935777796E+03  0.00000000000E+00 0.  1.
         25    2    1    2    0    0  0.11059958368E+02 -0.28473237620E+02 -0.27793588888E+02  0.13173373458E+03  0.12509294665E+03 0.  0.
          5    1    3    3  502    0  0.64089179145E+02 -0.33921635107E+02 -0.29100287676E+02  0.78245762535E+02  0.41800000000E+01 0.  1.
         -5    1    3    3    0  502 -0.53029220777E+02  0.54483974868E+01  0.13066987878E+01  0.53487972042E+02  0.41800000000E+01 0.  1.
        -11    1    1    2    0    0  0.73083734751E+01 -0.28371358125E+02 -0.27719044449E+02  0.40332266361E+02  0.00000000000E+00 0.  1.
         11    1    1    2    0    0 -0.18368331843E+02  0.56844595745E+02  0.93251499439E+01  0.60462071595E+02  0.00000000000E+00 0. -1.
</event>
<event>
 7    1  0.2794945E-009  0.1519236E+03  0.7561462E-02  0.1198129E+00
          1   -1    0    0  501    0  0.00000000000E+00  0.00000000000E+00  0.53353624589E+03  0.53353624589E+03  0.00000000000E+00 0. -1.
         -1   -1    0    0    0  501 -0.00000000000E+00 -0.00000000000E+00 -0.61192746223E+02  0.61192746223E+02  0.00000000000E+00 0.  1.
         25    2    1    2    0    0 -0.88078416478E+02 -0.11896200969E+03  0.27679021110E+03  0.33788927334E+03  0.12508626175E+03 0.  0.
          5    1    3    3  502    0 -0.68596219668E+02 -0.92566855401E+02  0.84916821793E+02  0.14318660236E+03  0.41800000000E+01 0. -1.
         -5    1    3    3    0  502 -0.19482196810E+02 -0.26395154292E+02  0.19187338931E+03  0.19470267098E+03  0.41800000000E+01 0. -1.
        -11    1    1    2    0    0  0.72371229703E+02  0.58619902384E+02  0.69498110909E+02  0.11620617567E+03  0.00000000000E+00 0.  1.
         11    1    1    2    0    0  0.15707186776E+02  0.60342107309E+02  0.12605517765E+03  0.14063354309E+03  0.00000000000E+00 0. -1.
</event>
<event>
 7    1  0.2794945E-009  0.9870575E+02  0.7561462E-02  0.1283041E+00
          2   -1    0    0  501    0  0.00000000000E+00  0.00000000000E+00  0.23623907993E+03  0.23623907993E+03  0.00000000000E+00 0. -1.
         -2   -1    0    0    0  501 -0.00000000000E+00 -0.00000000000E+00 -0.63831269522E+02  0.63831269522E+02  0.00000000000E+00 0.  1.
         25    2    1    2    0    0  0.38939067571E+02 -0.39450101571E+02  0.78241262381E+02  0.15761209903E+03  0.12508923665E+03 0.  0.
          5    1    3    3  502    0  0.67336188849E+02  0.16009985364E+02  0.19866351628E+02  0.72129233235E+02  0.41800000000E+01 0.  1.
         -5    1    3    3    0  502 -0.28397121278E+02 -0.55460086935E+02  0.58374910753E+02  0.85482865799E+02  0.41800000000E+01 0.  1.
        -11    1    1    2    0    0  0.78802056832E+00  0.22365950621E+02 -0.13703973235E+02  0.26242248495E+02  0.00000000000E+00 0.  1.
         11    1    1    2    0    0 -0.39727088140E+02  0.17084150950E+02  0.10787052126E+03  0.11621600192E+03  0.00000000000E+00 0. -1.
</event>
<event>
 7    1  0.2794945E-009  0.7705157E+02  0.7561462E-02  0.1337633E+00
          1   -1    0    0  501    0  0.00000000000E+00  0.00000000000E+00  0.64313782811E+03  0.64313782811E+03  0.00000000000E+00 0. -1.
         -1   -1    0    0    0  501 -0.00000000000E+00 -0.00000000000E+00 -0.20868444367E+02  0.20868444367E+02  0.00000000000E+00 0.  1.
         25    2    1    2    0    0 -0.24749270975E+01  0.23464270279E+02  0.25838657105E+03  0.28804177450E+03  0.12509095298E+03 0.  0.
          5    1    3    3  502    0  0.24834825499E+02  0.26912532228E+02  0.10124603760E+02  0.38223460725E+02  0.41800000000E+01 0. -1.
         -5    1    3    3    0  502 -0.27309752596E+02 -0.34482619485E+01  0.24826196729E+03  0.24981831378E+03  0.41800000000E+01 0. -1.
        -11    1    1    2    0    0  0.33138815823E+02 -0.42055740252E+02  0.15405404539E+03  0.16309357836E+03  0.00000000000E+00 0. -1.
         11    1    1    2    0    0 -0.30663888725E+02  0.18591469973E+02  0.20982876730E+03  0.21287091961E+03  0.00000000000E+00 0.  1.
</event>
<event>
 7    1  0.2794945E-009  0.1272020E+03  0.7561462E-02  0.1231667E+00
         -2   -1    0    0    0  501 -0.00000000000E+00  0.00000000000E+00  0.46439706513E+02  0.46439706513E+02  0.00000000000E+00 0.  1.
          2   -1    0    0  501    0  0.00000000000E+00 -0.00000000000E+00 -0.43460750380E+03  0.43460750380E+03  0.00000000000E+00 0. -1.
         25    2    1    2    0    0  0.51916587805E+02 -0.78845455012E+02 -0.20944731608E+03  0.26158666829E+03  0.12508984351E+03 0.  0.
          5    1    3    3  502    0  0.80584529544E+02 -0.13530267217E+02 -0.13870526648E+03  0.16103899491E+03  0.41800000000E+01 0. -1.
         -5    1    3    3    0  502 -0.28667941739E+02 -0.65315187794E+02 -0.70742049606E+02  0.10054767338E+03  0.41800000000E+01 0. -1.
        -11    1    1    2    0    0 -0.26744159497E+02  0.11271417580E+02 -0.25870083239E+01  0.29137390644E+02  0.00000000000E+00 0.  1.
         11    1    1    2    0    0 -0.25172428308E+02  0.67574037432E+02 -0.17613347288E+03  0.19032315138E+03  0.00000000000E+00 0. -1.
</event>
<event>
 7    1  0.2794945E-009  0.1356605E+03  0.7561462E-02  0.1219290E+00
         -1   -1    0    0    0  501 -0.00000000000E+00  0.00000000000E+00  0.11578227961E+03  0.11578227961E+03  0.00000000000E+00 0.  1.
          1   -1    0    0  501    0  0.00000000000E+00 -0.00000000000E+00 -0.16403335853E+03  0.16403335853E+03  0.00000000000E+00 0. -1.
         25    2    1    2    0    0  0.69471206248E+02 -0.47262675391E+02 -0.41869153238E+02  0.15639661482E+03  0.12508743402E+03 0.  0.
          5    1    3    3  502    0 -0.18258056020E+02 -0.59154381010E+02 -0.16405539478E+02  0.64181083879E+02  0.41800000000E+01 0.  1.
         -5    1    3    3    0  502  0.87729262267E+02  0.11891705619E+02 -0.25463613760E+02  0.92215530938E+02  0.41800000000E+01 0.  1.
        -11    1    1    2    0    0 -0.14718521062E+02  0.62176184031E+02 -0.15987581548E+02  0.65864371907E+02  0.00000000000E+00 0. -1.
         11    1    1    2    0    0 -0.54752685185E+02 -0.14913508640E+02  0.96056558652E+01  0.57554651416E+02  0.00000000000E+00 0.  1.
</event>
<event>
 7    1  0.2794945E-009  0.1107527E+03  0.7561462E-02  0.1259182E+00
         -3   -1    0    0    0  501 -0.00000000000E+00  0.00000000000E+00  0.33557320582E+02  0.33557320582E+02  0.00000000000E+00 0.  1.
          3   -1    0    0  501    0  0.00000000000E+00 -0.00000000000E+00 -0.54601689663E+03  0.54601689663E+03  0.00000000000E+00 0. -1.
         25    2    1    2    0    0 -0.49597905056E+02 -0.33463273981E+02 -0.16628635727E+03  0.21652350923E+03  0.12510609315E+03 0.  0.
          5    1    3    3  502    0  0.24075520295E+02  0.10154174091E+02  0.31400476585E+01  0.26647142966E+02  0.41800000000E+01 0. -1.
         -5    1    3    3    0  502 -0.73673425352E+02 -0.43617448073E+02 -0.16942640493E+03  0.18987636627E+03  0.41800000000E+01 0. -1.
        -11    1    1    2    0    0 -0.50148879613E+01  0.51551320737E+02 -0.17104351761E+03  0.17871366117E+03  0.00000000000E+00 0.  1.
         11    1    1    2    0    0  0.54612793018E+02 -0.18088046755E+02 -0.17512970117E+03  0.18433704681E+03  0.00000000000E+00 0. -1.
</event>
<event>
 7    1  0.3893922E-009  0.1095736E+03  0.7561462E-02  0.1261362E+00
         -2   -1    0    0    0  501 -0.00000000000E+00  0.00000000000E+00  0.23181406951E+03  0.23181406951E+03  0.00000000000E+00 0. -1.
          2   -1    0    0  501    0  0.00000000000E+00 -0.00000000000E+00 -0.77741942511E+02  0.77741942511E+02  0.00000000000E+00 0.  1.
         25    2    1    2    0    0  0.22364546637E+02 -0.72715634311E+02  0.10785147171E+03  0.18184330333E+03  0.12508921054E+03 0.  0.
          5    1    3    3  502    0 -0.33229074250E+02  0.87953149198E+01 -0.12972721419E+01  0.34650891115E+02  0.41800000000E+01 0.  1.
         -5    1    3    3    0  502  0.55593620887E+02 -0.81510949231E+02  0.10914874385E+03  0.14719241221E+03  0.41800000000E+01 0.  1.
        -11    1    1    2    0    0  0.11132572673E+02  0.26005216694E+02 -0.23907970311E+02  0.37037771450E+02  0.00000000000E+00 0.  1.
         11    1    1    2    0    0 -0.33497119310E+02  0.46710417617E+02  0.70128625600E+02  0.90674937246E+02  0.00000000000E+00 0. -1.
</event>
<event>
 7    1  0.2794945E-009  0.1320724E+03  0.7561462E-02  0.1224413E+00
         -1   -1    0    0    0  501 -0.00000000000E+00  0.00000000000E+00  0.41397823112E+02  0.41397823112E+02  0.00000000000E+00 0.  1.
          1   -1    0    0  501    0  0.00000000000E+00 -0.00000000000E+00 -0.47270383590E+03  0.47270383590E+03  0.00000000000E+00 0. -1.
         25    2    1    2    0    0 -0.53567547371E+02 -0.72769244419E+02 -0.24053438826E+03  0.28577847343E+03  0.12509076255E+03 0.  0.
          5    1    3    3  502    0 -0.36848377834E+02 -0.10729715153E+03 -0.15682952309E+03  0.19360643943E+03  0.41800000000E+01 0.  1.
         -5    1    3    3    0  502 -0.16719169537E+02  0.34527907109E+02 -0.83704865169E+02  0.92172034003E+02  0.41800000000E+01 0.  1.
        -11    1    1    2    0    0  0.55412391942E+02  0.19522058621E+02 -0.15042573790E+03  0.16149163005E+03  0.00000000000E+00 0. -1.
         11    1    1    2    0    0 -0.18448445708E+01  0.53247185798E+02 -0.40345886626E+02  0.66831555530E+02  0.00000000000E+00 0.  1.
</event>
<event>
 7    1  0.2794945E-009  0.5439169E+02  0.7561462E-02  0.1422998E+00
         -1   -1    0    0    0  501 -0.00000000000E+00  0.00000000000E+00  0.29137888386E+02  0.29137888386E+02  0.00000000000E+00 0.  1.
          1   -1    0    0  501    0  0.00000000000E+00 -0.00000000000E+00 -0.91403110590E+03  0.91403110590E+03  0.00000000000E+00 0. -1.
         25    2    1    2    0    0  0.28998515112E+02  0.29222742647E+02 -0.80147040036E+03  0.81221748357E+03  0.12509018904E+03 0.  0.
          5    1    3    3  502    0 -0.79121147903E+01  0.39076361035E+01 -0.71220874336E+03  0.71227567536E+03  0.41800000000E+01 0.  1.
         -5    1    3    3    0  502  0.36910629902E+02  0.25315106544E+02 -0.89261656995E+02  0.99941808211E+02  0.41800000000E+01 0.  1.
        -11    1    1    2    0    0 -0.93600977553E+01 -0.32796120899E+02 -0.99587840366E+02  0.10526601980E+03  0.00000000000E+00 0. -1.
         11    1    1    2    0    0 -0.19638417356E+02  0.35733782517E+01  0.16165023209E+02  0.25685490919E+02  0.00000000000E+00 0.  1.
</event>
<event>
 7    1  0.2794945E-009  0.1207384E+03  0.7561462E-02  0.1241884E+00
          2   -1    0    0  501    0  0.00000000000E+00  0.00000000000E+00  0.56094078403E+03  0.56094078403E+03  0.00000000000E+00 0. -1.
         -2   -1    0    0    0  501 -0.00000000000E+00 -0.00000000000E+00 -0.28816226857E+02  0.28816226857E+02  0.00000000000E+00 0.  1.
         25    2    1    2    0    0  0.18640305365E+02 -0.63443369235E+02  0.34038899907E+03  0.36862752613E+03  0.12509620396E+03 0.  0.
          5    1    3    3  502    0  0.66451997359E+02 -0.24105125496E+02  0.24334480954E+03  0.25343854040E+03  0.41800000000E+01 0. -1.
         -5    1    3    3    0  502 -0.47811691995E+02 -0.39338243739E+02  0.97044189530E+02  0.11518898573E+03  0.41800000000E+01 0. -1.
        -11    1    1    2    0    0 -0.34462492788E+02 -0.80459740802E+01  0.46032370105E+02  0.58063587605E+02  0.00000000000E+00 0. -1.
         11    1    1    2    0    0  0.15822187424E+02  0.71489343315E+02  0.14570318800E+03  0.16306589715E+03  0.00000000000E+00 0.  1.
</event>
<event>
 7    1  0.2794945E-009  0.2105902E+03  0.7561462E-02  0.1141099E+00
         -1   -1    0    0    0  501 -0.00000000000E+00  0.00000000000E+00  0.50750098907E+03  0.50750098907E+03  0.00000000000E+00 0.  1.
          1   -1    0    0  501    0  0.00000000000E+00 -0.00000000000E+00 -0.10162120237E+03  0.10162120237E+03  0.00000000000E+00 0. -1.
         25    2    1    2    0    0  0.24252677613E+02  0.18593722859E+03  0.11944253755E+03  0.25509910690E+03  0.12509272248E+03 0.  0.
          5    1    3    3  502    0 -0.27329434936E+02  0.79704673682E+01 -0.83662174927E+01  0.29964852062E+02  0.41800000000E+01 0. -1.
         -5    1    3    3    0  502  0.51582112549E+02  0.17796676122E+03  0.12780875504E+03  0.22513425484E+03  0.41800000000E+01 0. -1.
        -11    1    1    2    0    0 -0.34132964894E+02 -0.17529158427E+02  0.67335631022E+02  0.77501083171E+02  0.00000000000E+00 0.  1.
         11    1    1    2    0    0  0.98802872806E+01 -0.16840807016E+03  0.21910161814E+03  0.27652200137E+03  0.00000000000E+00 0. -1.
</event>
<event>
 7    1  0.3187063E-009  0.8712747E+02  0.7561462E-02  0.1309961E+00
          2   -1    0    0  501    0  0.00000000000E+00  0.00000000000E+00  0.25036498627E+03  0.25036498627E+03  0.00000000000E+00 0.  1.
         -2   -1    0    0    0  501 -0.00000000000E+00 -0.00000000000E+00 -0.51756390017E+02  0.51756390017E+02  0.00000000000E+00 0. -1.
         25    2    1    2    0    0  0.32113485620E+02  0.11956431488E+02  0.10654351904E+03  0.16784946388E+03  0.12509072253E+03 0.  0.
          5    1    3    3  502    0 -0.23579629588E+02  0.53719562399E+02  0.37732514949E+02  0.69878504565E+02  0.41800000000E+01 0. -1.
         -5    1    3    3    0  502  0.55693115208E+02 -0.41763130911E+02  0.68811004086E+02  0.97970959311E+02  0.41800000000E+01 0. -1.
        -11    1    1    2    0    0 -0.14498080091E+01 -0.14832726075E+02 -0.16022450167E+02  0.21882198597E+02  0.00000000000E+00 0. -1.
         11    1    1    2    0    0 -0.30663677610E+02  0.28762945873E+01  0.10808752738E+03  0.11238971381E+03  0.00000000000E+00 0.  1.
</event>
<event>
 7    1  0.2794945E-009  0.7717345E+02  0.7561462E-02  0.1337270E+00
          2   -1    0    0  501    0  0.00000000000E+00  0.00000000000E+00  0.36173624349E+03  0.36173624349E+03  0.00000000000E+00 0. -1.
         -2   -1    0    0    0  501 -0.00000000000E+00 -0.00000000000E+00 -0.62828461977E+02  0.62828461977E+02  0.00000000000E+00 0.  1.
         25    2    1    2    0    0 -0.17845498347E+02 -0.60321203806E+02  0.44034051243E+02  0.14677698219E+03  0.12508946954E+03 0.  0.
          5    1    3    3  502    0  0.40905414641E+00  0.79438960180E+01  0.70599551253E+02  0.71169107388E+02  0.41800000000E+01 0. -1.
         -5    1    3    3    0  502 -0.18254552493E+02 -0.68265099824E+02 -0.26565500010E+02  0.75607874798E+02  0.41800000000E+01 0. -1.
        -11    1    1    2    0    0  0.18177106873E+02  0.44659990705E+01  0.20065608310E+01  0.18824947499E+02  0.00000000000E+00 0.  1.
         11    1    1    2    0    0 -0.33160852617E+00  0.55855204735E+02  0.25286716944E+03  0.25896277578E+03  0.00000000000E+00 0. -1.
</event>
<event>
 7    1  0.2794945E-009  0.1096813E+03  0.7561462E-02  0.1261161E+00
          3   -1    0    0  501    0  0.00000000000E+00  0.00000000000E+00  0.14273825177E+03  0.14273825177E+03  0.00000000000E+00 0. -1.
         -3   -1    0    0    0  501 -0.00000000000E+00 -0.00000000000E+00 -0.12616064839E+03  0.12616064839E+03  0.00000000000E+00 0.  1.
         25    2    1    2    0    0  0.55372824395E+02  0.39359889089E+01  0.64659591115E+02  0.15135634758E+03  0.12508492931E+03 0.  0.
          5    1    3    3  502    0 -0.36241956026E+01 -0.43958207852E+02  0.60698757612E+02  0.75148322715E+02  0.41800000000E+01 0. -1.
         -5    1    3    3    0  502  0.58997019998E+02  0.47894196761E+02  0.39608335030E+01  0.76208024866E+02  0.41800000000E+01 0. -1.
        -11    1    1    2    0    0 -0.40698585957E+02 -0.41802481625E+02 -0.50072310344E+02  0.76883409342E+02  0.00000000000E+00 0.  1.
         11    1    1    2    0    0 -0.14674238439E+02  0.37866492716E+02  0.19903226141E+01  0.40659143234E+02  0.00000000000E+00 0. -1.
</event>
<event>
 7    1  0.2794945E-009  0.1098242E+03  0.7561462E-02  0.1260896E+00
          2   -1    0    0  501    0  0.00000000000E+00  0.00000000000E+00  0.47594349154E+02  0.47594349154E+02  0.00000000000E+00 0. -1.
         -2   -1    0    0    0  501 -0.00000000000E+00 -0.00000000000E+00 -0.31292397719E+03  0.31292397719E+03  0.00000000000E+00 0.  1.
         25    2    1    2    0    0 -0.24112896468E+02 -0.45597466734E+02 -0.17858600015E+03  0.22405538057E+03  0.12508914166E+03 0.  0.
          5    1    3    3  502    0 -0.65164731853E+02 -0.60690058240E+02 -0.13769477862E+03  0.16403368528E+03  0.41800000000E+01 0. -1.
         -5    1    3    3    0  502  0.41051835385E+02  0.15092591506E+02 -0.40891221536E+02  0.60021695291E+02  0.41800000000E+01 0. -1.
        -11    1    1    2    0    0 -0.36249017547E+01 -0.17377117614E+02  0.79146735230E+01  0.19435693614E+02  0.00000000000E+00 0. -1.
         11    1    1    2    0    0  0.27737798223E+02  0.62974584348E+02 -0.94658301409E+02  0.11702725217E+03  0.00000000000E+00 0.  1.
</event>
<event>
 7    1  0.2794945E-009  0.1039344E+03  0.7561462E-02  0.1272233E+00
          1   -1    0    0  501    0  0.00000000000E+00  0.00000000000E+00  0.86878254546E+02  0.86878254546E+02  0.00000000000E+00 0. -1.
         -1   -1    0    0    0  501 -0.00000000000E+00 -0.00000000000E+00 -0.22479301879E+03  0.22479301879E+03  0.00000000000E+00 0.  1.
         25    2    1    2    0    0  0.19409513212E+02 -0.62914251331E+02 -0.10628651537E+02  0.14175876491E+03  0.12509055508E+03 0.  0.
          5    1    3    3  502    0 -0.47398100043E+02 -0.53963255742E+02  0.60398016071E+01  0.72198091813E+02  0.41800000000E+01 0.  1.
         -5    1    3    3    0  502  0.66807613255E+02 -0.89509955884E+01 -0.16668453144E+02  0.69560673092E+02  0.41800000000E+01 0.  1.
        -11    1    1    2    0    0  0.26144611168E+01  0.19841303658E+02 -0.11919518556E+03  0.12086358012E+03  0.00000000000E+00 0.  1.
         11    1    1    2    0    0 -0.22023974329E+02  0.43072947673E+02 -0.80909271444E+01  0.49048928312E+02  0.00000000000E+00 0. -1.
</event>
<event>
 7    1  0.2794945E-009  0.2784841E+03  0.7561462E-02  0.1096520E+00
          1   -1    0    0  501    0  0.00000000000E+00  0.00000000000E+00  0.20277920287E+03  0.20277920287E+03  0.00000000000E+00 0. -1.
         -1   -1    0    0    0  501 -0.00000000000E+00 -0.00000000000E+00 -0.40754771135E+03  0.40754771135E+03  0.00000000000E+00 0.  1.
         25    2    1    2    0    0 -0.22711206567E+03 -0.11850429160E+03 -0.17745743980E+03  0.33580187707E+03  0.12509436519E+03 0.  0.
          5    1    3    3  502    0 -0.14776529635E+03 -0.75295525960E+01 -0.81625594831E+02  0.16903102408E+03  0.41800000000E+01 0.  1.
         -5    1    3    3    0  502 -0.79346769317E+02 -0.11097473900E+03 -0.95831844969E+02  0.16677085299E+03  0.41800000000E+01 0.  1.
        -11    1    1    2    0    0  0.95776973865E+02  0.10229412793E+03 -0.23848538553E+02  0.14214805705E+03  0.00000000000E+00 0.  1.
         11    1    1    2    0    0  0.13133509181E+03  0.16210163668E+02 -0.34625301211E+01  0.13237698010E+03  0.00000000000E+00 0. -1.
</event>
<event>
 7    1  0.2794945E-009  0.9763494E+02  0.7561462E-02  0.1285349E+00
         -2   -1    0    0    0  501 -0.00000000000E+00  0.00000000000E+00  0.17212617932E+03  0.17212617932E+03  0.00000000000E+00 0.  1.
          2   -1    0    0  501    0  0.00000000000E+00 -0.00000000000E+00 -0.79732772374E+02  0.79732772374E+02  0.00000000000E+00 0. -1.
         25    2    1    2    0    0  0.92724766481E+01  0.28638723565E+02  0.18237499549E+02  0.12994816164E+03  0.12509101892E+03 0.  0.
          5    1    3    3  502    0 -0.52530258158E+02  0.68491250267E+01 -0.16524968298E+02  0.55649667681E+02  0.41800000000E+01 0. -1.
         -5    1    3    3    0  502  0.61802734806E+02  0.21789598539E+02  0.34762467846E+02  0.74298493960E+02  0.41800000000E+01 0. -1.
        -11    1    1    2    0    0  0.28561869471E+02  0.72883856339E+00 -0.53745712504E+01  0.29072282495E+02  0.00000000000E+00 0. -1.
         11    1    1    2    0    0 -0.37834346120E+02 -0.29367562129E+02  0.79530478652E+02  0.92838507562E+02  0.00000000000E+00 0.  1.
</event>
<event>
 7    1  0.2794945E-009  0.1150226E+03  0.7561462E-02  0.1251542E+00
          1   -1    0    0  501    0  0.00000000000E+00  0.00000000000E+00  0.23329495348E+02  0.23329495348E+02  0.00000000000E+00 0. -1.
         -1   -1    0    0    0  501 -0.00000000000E+00 -0.00000000000E+00 -0.82059478176E+03  0.82059478176E+03  0.00000000000E+00 0.  1.
         25    2    1    2    0    0 -0.82789897259E+02 -0.29581198285E+01 -0.49198430730E+03  0.51435051131E+03  0.12507986366E+03 0.  0.
          5    1    3    3  502    0 -0.48255884778E+01  0.32816386735E+02 -0.31526600623E+02  0.45952154350E+02  0.41800000000E+01 0. -1.
         -5    1    3    3    0  502 -0.77964308782E+02 -0.35774506564E+02 -0.46045770668E+03  0.46839835696E+03  0.41800000000E+01 0. -1.
        -11    1    1    2    0    0  0.77812348753E+02  0.29880961644E+02 -0.14738927843E+03  0.16932581871E+03  0.00000000000E+00 0. -1.
         11    1    1    2    0    0  0.49775485065E+01 -0.26922841815E+02 -0.15789170068E+03  0.16024794708E+03  0.00000000000E+00 0.  1.
</event>
<event>
 7    1  0.2794945E-009  0.1854988E+03  0.7561462E-02  0.1162585E+00
         -1   -1    0    0    0  501 -0.00000000000E+00  0.00000000000E+00  0.20012303087E+02  0.20012303087E+02  0.00000000000E+00 0.  1.
          1   -1    0    0  501    0  0.00000000000E+00 -0.00000000000E+00 -0.21811828833E+04  0.21811828833E+04  0.00000000000E+00 0. -1.
         25    2    1    2    0    0  0.36542565591E+02  0.15031267050E+03 -0.15750596380E+04  0.15875735362E+04  0.12509041399E+03 0.  0.
          5    1    3    3  502    0 -0.29026680723E+02  0.10904174127E+03 -0.11464878311E+04  0.11520349252E+04  0.41800000000E+01 0. -1.
         -5    1    3    3    0  502  0.65569246314E+02  0.41270929226E+02 -0.42857180684E+03  0.43553861101E+03  0.41800000000E+01 0. -1.
        -11    1    1    2    0    0  0.92846146701E+01 -0.13005660235E+03 -0.45306446238E+03  0.47145342395E+03  0.00000000000E+00 0. -1.
         11    1    1    2    0    0 -0.45827180261E+02 -0.20256068150E+02 -0.13304647990E+03  0.14216822627E+03  0.00000000000E+00 0.  1.
</event>
<event>
 7    1  0.2794945E-009  0.1914716E+03  0.7561462E-02  0.1157141E+00
         -4   -1    0    0    0  501 -0.00000000000E+00  0.00000000000E+00  0.97656050451E+03  0.97656050451E+03  0.00000000000E+00 0.  1.
          4   -1    0    0  501    0  0.00000000000E+00 -0.00000000000E+00 -0.42558411492E+02  0.42558411492E+02  0.00000000000E+00 0. -1.
         25    2    1    2    0    0 -0.16628868057E+03  0.29961886961E+02  0.39545154682E+03  0.44786064969E+03  0.12509035013E+03 0.  0.
          5    1    3    3  502    0 -0.17258863176E+03 -0.64932009812E+01  0.33321359965E+03  0.37533687917E+03  0.41800000000E+01 0.  1.
         -5    1    3    3    0  502  0.62999511884E+01  0.36455087942E+02  0.62237947175E+02  0.72523770520E+02  0.41800000000E+01 0.  1.
        -11    1    1    2    0    0  0.25523965662E+02 -0.18885719531E+02  0.30782437040E+02  0.44223315745E+02  0.00000000000E+00 0.  1.
         11    1    1    2    0    0  0.14076471491E+03 -0.11076167430E+02  0.50776810915E+03  0.52703495057E+03  0.00000000000E+00 0. -1.
</event>
<event>
 7    1  0.2794945E-009  0.2360640E+03  0.7561462E-02  0.1122443E+00
         -1   -1    0    0    0  501 -0.00000000000E+00  0.00000000000E+00  0.12051462931E+03  0.12051462931E+03  0.00000000000E+00 0.  1.
          1   -1    0    0  501    0  0.00000000000E+00 -0.00000000000E+00 -0.55502083067E+03  0.55502083067E+03  0.00000000000E+00 0. -1.
         25    2    1    2    0    0  0.18957755786E+03  0.10679630279E+03 -0.33629387356E+03  0.41962638090E+03  0.12509048494E+03 0.  0.
          5    1    3    3  502    0  0.59746371538E+02 -0.11768203142E+02 -0.15712162429E+03  0.16856095852E+03  0.41800000000E+01 0. -1.
         -5    1    3    3    0  502  0.12983118632E+03  0.11856450594E+03 -0.17917224927E+03  0.25106542238E+03  0.41800000000E+01 0. -1.
        -11    1    1    2    0    0 -0.16505769509E+03 -0.48595334036E+02 -0.82552014093E+02  0.19084125400E+03  0.00000000000E+00 0. -1.
         11    1    1    2    0    0 -0.24519862765E+02 -0.58200968758E+02 -0.15660313718E+02  0.65067825076E+02  0.00000000000E+00 0.  1.
</event>
<event>
 7    1  0.2794945E-009  0.1037035E+03  0.7561462E-02  0.1272695E+00
         -1   -1    0    0    0  501 -0.00000000000E+00  0.00000000000E+00  0.51153386423E+03  0.51153386423E+03  0.00000000000E+00 0.  1.
          1   -1    0    0  501    0  0.00000000000E+00 -0.00000000000E+00 -0.36215808701E+02  0.36215808701E+02  0.00000000000E+00 0. -1.
         25    2    1    2    0    0  0.49750158764E+02  0.37139121896E+02  0.36777235094E+03  0.39339312565E+03  0.12508899441E+03 0.  0.
          5    1    3    3  502    0 -0.13845616563E+02  0.64134770182E+02  0.12894726426E+03  0.14474059280E+03  0.41800000000E+01 0.  1.
         -5    1    3    3    0  502  0.63595775327E+02 -0.26995648285E+02  0.23882508668E+03  0.24865253285E+03  0.41800000000E+01 0.  1.
        -11    1    1    2    0    0 -0.36335155690E+01 -0.24309042035E+02  0.10343163568E+03  0.10631197119E+03  0.00000000000E+00 0.  1.
         11    1    1    2    0    0 -0.46116643195E+02 -0.12830079862E+02  0.41140689178E+01  0.48044576092E+02  0.00000000000E+00 0. -1.
</event>
<event>
 7    1  0.2794945E-009  0.1101487E+03  0.7561462E-02  0.1260295E+00
         -4   -1    0    0    0  501 -0.00000000000E+00  0.00000000000E+00  0.32422204571E+03  0.32422204571E+03  0.00000000000E+00 0. -1.
          4   -1    0    0  501    0  0.00000000000E+00 -0.00000000000E+00 -0.43296959102E+02  0.43296959102E+02  0.00000000000E+00 0.  1.
         25    2    1    2    0    0  0.51615055190E+01 -0.43637609587E+02  0.18686305368E+03  0.22912128703E+03  0.12509149143E+03 0.  0.
          5    1    3    3  502    0  0.36921859233E+02  0.29615705674E+02  0.10201940209E+03  0.11254218993E+03  0.41800000000E+01 0. -1.
         -5    1    3    3    0  502 -0.31760353714E+02 -0.73253315261E+02  0.84843651593E+02  0.11657909710E+03  0.41800000000E+01 0. -1.
        -11    1    1    2    0    0  0.29918418164E+02  0.48930725140E+02  0.83652291122E+02  0.10142501377E+03  0.00000000000E+00 0.  1.
         11    1    1    2    0    0 -0.35079923682E+02 -0.52931155530E+01  0.10409741808E+02  0.36972704017E+02  0.00000000000E+00 0. -1.
</event>
<event>
 7    1  0.2794945E-009  0.2829529E+03  0.7561462E-02  0.1094087E+00
         -1   -1    0    0    0  501 -0.00000000000E+00  0.00000000000E+00  0.68347896242E+03  0.68347896242E+03  0.00000000000E+00 0.  1.
          1   -1    0    0  501    0  0.00000000000E+00 -0.00000000000E+00 -0.13270558132E+03  0.13270558132E+03  0.00000000000E+00 0. -1.
         25    2    1    2    0    0 -0.23823779633E+03 -0.14062326893E+03  0.34534752676E+03  0.45983033776E+03  0.12508746506E+03 0.  0.
          5    1    3    3  502    0 -0.84079555583E+02 -0.22937783308E+02  0.35356361942E+02  0.94143817109E+02  0.41800000000E+01 0.  1.
         -5    1    3    3    0  502 -0.15415824075E+03 -0.11768548562E+03  0.30999116482E+03  0.36568652065E+03  0.41800000000E+01 0.  1.
        -11    1    1    2    0    0  0.14402244299E+03  0.46139231732E+02  0.14627950813E+03  0.21040196598E+03  0.00000000000E+00 0.  1.
         11    1    1    2    0    0  0.94215353341E+02  0.94484037199E+02  0.59146346213E+02  0.14595224000E+03  0.00000000000E+00 0. -1.
</event>
<event>
 6    1  0.2794945E-009  0.9205336E+02  0.7561462E-02  0.1297954E+00
          1   -1    0    0  501    0  0.00000000000E+00  0.00000000000E+00  0.15564910256E+03  0.15564910256E+03  0.00000000000E+00 0. -1.
         -1   -1    0    0    0  501 -0.00000000000E+00 -0.00000000000E+00 -0.96942675532E+02  0.96942675532E+02  0.00000000000E+00 0.  1.
          5    1    1    2  502    0 -0.56153732532E+02 -0.18927738406E+02 -0.86491042026E+01  0.60031494750E+02  0.41800000000E+01 0.  1.
         -5    1    1    2    0  502  0.66061622257E+02  0.75435312695E+01 -0.13393809205E+02  0.67955200862E+02  0.41800000000E+01 0.  1.
        -11    1    1    2    0    0 -0.27960276466E+02 -0.10360198060E+02 -0.84855054442E+01  0.31001847793E+02  0.00000000000E+00 0.  1.
         11    1    1    2    0    0  0.18052386742E+02  0.21744405196E+02  0.89234845876E+02  0.93603234682E+02  0.00000000000E+00 0. -1.
</event>
<event>
 7    1  0.2794945E-009  0.1253695E+03  0.7561462E-02  0.1234493E+00
         -2   -1    0    0    0  501 -0.00000000000E+00  0.00000000000E+00  0.32441643403E+02  0.32441643403E+02  0.00000000000E+00 0.  1.
          2   -1    0    0  501    0  0.00000000000E+00 -0.00000000000E+00 -0.56913699749E+03  0.56913699749E+03  0.00000000000E+00 0. -1.
         25    2    1    2    0    0  0.73918909173E+02 -0.30551578600E+02 -0.25536006734E+03  0.29538624997E+03  0.12508744379E+03 0.  0.
          5    1    3    3  502    0  0.98453222340E+02  0.64848347994E+01 -0.13691136362E+03  0.16881138575E+03  0.41800000000E+01 0.  1.
         -5    1    3    3    0  502 -0.24534313168E+02 -0.37036413400E+02 -0.11844870371E+03  0.12657486422E+03  0.41800000000E+01 0.  1.
        -11    1    1    2    0    0 -0.60779315352E+01  0.38572790503E+02 -0.42216666574E+02  0.57506941803E+02  0.00000000000E+00 0.  1.
         11    1    1    2    0    0 -0.67840977638E+02 -0.80212119026E+01 -0.23911862018E+03  0.24868544912E+03  0.00000000000E+00 0. -1.
</event>
<event>
 7    1  0.2794945E-009  0.1425075E+03  0.7561462E-02  0.1209994E+00
          2   -1    0    0  501    0  0.00000000000E+00  0.00000000000E+00  0.65360144070E+02  0.65360144070E+02  0.00000000000E+00 0. -1.
         -2   -1    0    0    0  501 -0.00000000000E+00 -0.00000000000E+00 -0.37906778636E+03  0.37906778636E+03  0.00000000000E+00 0.  1.
         25    2    1    2    0    0  0.39811050561E+02  0.83758510233E+02 -0.26174210346E+03  0.30455727423E+03  0.12508315946E+03 0.  0.
          5    1    3    3  502    0 -0.45077189815E+02  0.34624943298E+02 -0.84088706852E+02  0.10158357525E+03  0.41800000000E+01 0. -1.
         -5    1    3    3    0  502  0.84888240375E+02  0.49133566935E+02 -0.17765339660E+03  0.20297369898E+03  0.41800000000E+01 0. -1.
        -11    1    1    2    0    0 -0.95381496876E+01 -0.96525004361E+02 -0.38089014799E+02  0.10420568993E+03  0.00000000000E+00 0.  1.
         11    1    1    2    0    0 -0.30272900873E+02  0.12766494128E+02 -0.13876524037E+02  0.35664966269E+02  0.00000000000E+00 0. -1.
</event>
<event>
 7    1  0.2794945E-009  0.1404641E+03  0.7561462E-02  0.1212706E+00
         -2   -1    0    0    0  501 -0.00000000000E+00  0.00000000000E+00  0.72615924202E+03  0.72615924202E+03  0.00000000000E+00 0. -1.
          2   -1    0    0  501    0  0.00000000000E+00 -0.00000000000E+00 -0.33717582801E+02  0.33717582801E+02  0.00000000000E+00 0.  1.
         25    2    1    2    0    0 -0.82746837558E+02  0.69780212809E+02  0.44631244112E+03  0.47598188195E+03  0.12509052573E+03 0.  0.
          5    1    3    3  502    0 -0.93089687156E+00  0.76861785049E+02  0.28091502887E+03  0.29127191148E+03  0.41800000000E+01 0. -1.
         -5    1    3    3    0  502 -0.81815940687E+02 -0.70815722402E+01  0.16539741225E+03  0.18470997048E+03  0.41800000000E+01 0. -1.
        -11    1    1    2    0    0  0.33810981611E+02 -0.64079080092E+02  0.21179448200E+03  0.22384417256E+03  0.00000000000E+00 0. -1.
         11    1    1    2    0    0  0.48935855947E+02 -0.57011327171E+01  0.34334736103E+02  0.60050770310E+02  0.00000000000E+00 0.  1.
</event>
<event>
 7    1  0.2794945E-009  0.8742309E+02  0.7561462E-02  0.1309215E+00
          2   -1    0    0  501    0  0.00000000000E+00  0.00000000000E+00  0.26305766581E+03  0.26305766581E+03  0.00000000000E+00 0. -1.
         -2   -1    0    0    0  501 -0.00000000000E+00 -0.00000000000E+00 -0.69624344819E+02  0.69624344819E+02  0.00000000000E+00 0.  1.
         25    2    1    2    0    0  0.19910042290E+02 -0.12004491643E+02  0.29327093626E+02  0.13056974799E+03  0.12509141884E+03 0.  0.
          5    1    3    3  502    0 -0.20511080239E+02 -0.13203741948E+01 -0.42478213989E+02  0.47374242625E+02  0.41800000000E+01 0.  1.
         -5    1    3    3    0  502  0.40421122529E+02 -0.10684117448E+02  0.71805307615E+02  0.83195505370E+02  0.41800000000E+01 0.  1.
        -11    1    1    2    0    0 -0.36821918560E+02 -0.41652651323E+02  0.11374657163E+03  0.12660600146E+03  0.00000000000E+00 0. -1.
         11    1    1    2    0    0  0.16911876270E+02  0.53657142966E+02  0.50359655734E+02  0.75506261170E+02  0.00000000000E+00 0.  1.
</event>
<event>
 7    1  0.2794945E-009  0.1492938E+03  0.7561462E-02  0.1201343E+00
         -1   -1    0    0    0  501 -0.00000000000E+00  0.00000000000E+00  0.37712626286E+02  0.37712626286E+02  0.00000000000E+00 0.  1.
          1   -1    0    0  501    0  0.00000000000E+00 -0.00000000000E+00 -0.90218044761E+03  0.90218044761E+03  0.00000000000E+00 0. -1.
         25    2    1    2    0    0  0.60672105024E+02 -0.85084308743E+02 -0.72529993328E+03  0.74338951940E+03  0.12509012916E+03 0.  0.
          5    1    3    3  502    0  0.99100787977E+02 -0.59588313416E+02 -0.55294256481E+03  0.56492007015E+03  0.41800000000E+01 0.  1.
         -5    1    3    3    0  502 -0.38428682953E+02 -0.25495995327E+02 -0.17235736847E+03  0.17846944925E+03  0.41800000000E+01 0.  1.
        -11    1    1    2    0    0 -0.31044137130E+02  0.99060197329E+02 -0.89833096507E+02  0.13728308845E+03  0.00000000000E+00 0.  1.
         11    1    1    2    0    0 -0.29627967894E+02 -0.13975888586E+02 -0.49334791537E+02  0.59220466051E+02  0.00000000000E+00 0. -1.
</event>
<event>
 7    1  0.2794945E-009  0.1020091E+03  0.7561462E-02  0.1276127E+00
          1   -1    0    0  501    0  0.00000000000E+00  0.00000000000E+00  0.43743405394E+02  0.43743405394E+02  0.00000000000E+00 0. -1.
         -1   -1    0    0    0  501 -0.00000000000E+00 -0.00000000000E+00 -0.33689424738E+03  0.33689424738E+03  0.00000000000E+00 0.  1.
         25    2    1    2    0    0  0.19444600068E+02  0.44050097538E+02 -0.15136170449E+03  0.20217950666E+03  0.12509070215E+03 0.  0.
          5    1    3    3  502    0 -0.44875743516E+02  0.42936840088E+02 -0.41543748142E+02  0.74838225543E+02  0.41800000000E+01 0. -1.
         -5    1    3    3    0  502  0.64320343583E+02  0.11132574499E+01 -0.10981795635E+03  0.12734128112E+03  0.41800000000E+01 0. -1.
        -11    1    1    2    0    0  0.18241411096E+02 -0.33540513808E+02 -0.13298303609E+03  0.13835535058E+03  0.00000000000E+00 0.  1.
         11    1    1    2    0    0 -0.37686011164E+02 -0.10509583730E+02 -0.88061014029E+01  0.40102795532E+02  0.00000000000E+00 0. -1.
</event>
<event>
 7    1  0.2794945E-009  0.1226856E+03  0.7561462E-02  0.1238731E+00
          2   -1    0    0  501    0  0.00000000000E+00  0.00000000000E+00  0.77593131885E+03  0.77593131885E+03  0.00000000000E+00 0. -1.
         -2   -1    0    0    0  501 -0.00000000000E+00 -0.00000000000E+00 -0.23741205501E+02  0.23741205501E+02  0.00000000000E+00 0.  1.
         25    2    1    2    0    0  0.69232055926E+02 -0.46937214370E+02  0.41419554595E+03  0.44068367960E+03  0.12509186833E+03 0.  0.
          5    1    3    3  502    0  0.76813830462E+02  0.22589871792E+02  0.20857972252E+03  0.22345836280E+03  0.41800000000E+01 0. -1.
         -5    1    3    3    0  502 -0.75817745367E+01 -0.69527086162E+02  0.20561582343E+03  0.21722531681E+03  0.41800000000E+01 0. -1.
        -11    1    1    2    0    0 -0.45057804359E+02  0.32165236197E+01  0.52956065661E+02  0.69605291811E+02  0.00000000000E+00 0.  1.
         11    1    1    2    0    0 -0.24174251567E+02  0.43720690751E+02  0.28503850174E+03  0.28938355294E+03  0.00000000000E+00 0. -1.
</event>
<event>
 7    1  0.2794945E-009  0.8641547E+02  0.7561462E-02  0.1311772E+00
         -2   -1    0    0    0  501 -0.00000000000E+00  0.00000000000E+00  0.17796066031E+02  0.17796066031E+02  0.00000000000E+00 0.  1.
          2   -1    0    0  501    0  0.00000000000E+00 -0.00000000000E+00 -0.10357301490E+04  0.10357301490E+04  0.00000000000E+00 0. -1.
         25    2    1    2    0    0  0.48682729254E+02  0.36120461836E+02 -0.78832783932E+03  0.80048834766E+03  0.12508443789E+03 0.  0.
          5    1    3    3  502    0 -0.73359906011E+01  0.28802589098E+01 -0.61826697233E+03  0.61833133037E+03  0.41800000000E+01 0. -1.
         -5    1    3    3    0  502  0.56018719855E+02  0.33240202926E+02 -0.17006086699E+03  0.18215701729E+03  0.41800000000E+01 0. -1.
        -11    1    1    2    0    0  0.20189282422E+02 -0.18877237345E+02 -0.11456638344E+03  0.11785335561E+03  0.00000000000E+00 0. -1.
         11    1    1    2    0    0 -0.68872011676E+02 -0.17243224491E+02 -0.11503986023E+03  0.13518451178E+03  0.00000000000E+00 0.  1.
</event>
<event>
 7    1  0.2794945E-009  0.9259646E+02  0.7561462E-02  0.1296683E+00
          2   -1    0    0  501    0  0.00000000000E+00  0.00000000000E+00  0.33734343463E+02  0.33734343463E+02  0.00000000000E+00 0. -1.
         -2   -1    0    0    0  501 -0.00000000000E+00 -0.00000000000E+00 -0.63789370975E+03  0.63789370975E+03  0.00000000000E+00 0.  1.
         25    2    1    2    0    0  0.32065864362E+02 -0.70707160945E+02 -0.43648939671E+03  0.46064974593E+03  0.12508985859E+03 0.  0.
          5    1    3    3  502    0 -0.18032968140E+02 -0.36315362717E+02 -0.32602707770E+02  0.52195808866E+02  0.41800000000E+01 0.  1.
         -5    1    3    3    0  502  0.50098832502E+02 -0.34391798229E+02 -0.40388668894E+03  0.40845393706E+03  0.41800000000E+01 0.  1.
        -11    1    1    2    0    0 -0.28280159307E+02  0.25267925948E+02 -0.73817101003E+00  0.37931258727E+02  0.00000000000E+00 0. -1.
         11    1    1    2    0    0 -0.37857050551E+01  0.45439234997E+02 -0.16693179857E+03  0.17304704856E+03  0.00000000000E+00 0.  1.
</event>
<event>
 7    1  0.2794945E-009  0.1605975E+03  0.7561462E-02  0.1188024E+00
         -1   -1    0    0    0  501 -0.00000000000E+00  0.00000000000E+00  0.75777036237E+02  0.75777036237E+02  0.00000000000E+00 0.  1.
          1   -1    0    0  501    0  0.00000000000E+00 -0.00000000000E+00 -0.37217058219E+03  0.37217058219E+03  0.00000000000E+00 0. -1.
         25    2    1    2    0    0  0.74079202683E+02 -0.97172839889E+02 -0.11452283102E+03  0.20902677235E+03  0.12508566525E+03 0.  0.
          5    1    3    3  502    0 -0.23782913070E+02 -0.66300556936E+02 -0.60696721801E+02  0.93074997940E+02  0.41800000000E+01 0.  1.
         -5    1    3    3    0  502  0.97862115753E+02 -0.30872282952E+02 -0.53826109217E+02  0.11595177441E+03  0.41800000000E+01 0.  1.
        -11    1    1    2    0    0 -0.82642090520E+02  0.43137888122E+02 -0.14692088784E+03  0.17400097644E+03  0.00000000000E+00 0. -1.
         11    1    1    2    0    0  0.85628878365E+01  0.54034951766E+02 -0.34949827089E+02  0.64919869640E+02  0.00000000000E+00 0.  1.
</event>
<event>
 7    1  0.2794945E-009  0.1122627E+03  0.7561462E-02  0.1256436E+00
         -1   -1    0    0    0  501 -0.00000000000E+00  0.00000000000E+00  0.12478421644E+03  0.12478421644E+03  0.00000000000E+00 0.  1.
          1   -1    0    0  501    0  0.00000000000E+00 -0.00000000000E+00 -0.25448398291E+03  0.25448398291E+03  0.00000000000E+00 0. -1.
         25    2    1    2    0    0  0.32105700986E+02  0.67992922250E+02 -0.19463323022E+03  0.24327746773E+03  0.12509204006E+03 0.  0.
          5    1    3    3  502    0 -0.37770387252E+02  0.60579149883E+02 -0.69595866974E+02  0.99787236927E+02  0.41800000000E+01 0.  1.
         -5    1    3    3    0  502  0.69876088237E+02  0.74137723672E+01 -0.12503736325E+03  0.14349023080E+03  0.41800000000E+01 0.  1.
        -11    1    1    2    0    0 -0.39519626210E+02 -0.57687146663E+02  0.99832851094E-01  0.69925801479E+02  0.00000000000E+00 0. -1.
         11    1    1    2    0    0  0.74139252248E+01 -0.10305775587E+02  0.64833630905E+02  0.66064930137E+02  0.00000000000E+00 0.  1.
</event>
<event>
 7    1  0.2794945E-009  0.1279127E+03  0.7561462E-02  0.1230586E+00
         -4   -1    0    0    0  501 -0.00000000000E+00  0.00000000000E+00  0.20106262709E+03  0.20106262709E+03  0.00000000000E+00 0.  1.
          4   -1    0    0  501    0  0.00000000000E+00 -0.00000000000E+00 -0.10818165221E+03  0.10818165221E+03  0.00000000000E+00 0. -1.
         25    2    1    2    0    0  0.24096153848E+02 -0.73553484454E+02  0.11646916465E+03  0.18762467817E+03  0.12508882379E+03 0.  0.
          5    1    3    3  502    0  0.22471014549E+02  0.32356816697E+02  0.20379146551E+02  0.44549883229E+02  0.41800000000E+01 0.  1.
         -5    1    3    3    0  502  0.16251392992E+01 -0.10591030115E+03  0.96090018102E+02  0.14307479494E+03  0.41800000000E+01 0.  1.
        -11    1    1    2    0    0 -0.14574716129E+02 -0.15132036209E+02  0.13551730598E+02  0.25001005425E+02  0.00000000000E+00 0.  1.
         11    1    1    2    0    0 -0.95214377191E+01  0.88685520663E+02 -0.37139920372E+02  0.96618595709E+02  0.00000000000E+00 0. -1.
</event>
<event>
 7    1  0.2794945E-009  0.2035856E+03  0.7561462E-02  0.1146749E+00
         -2   -1    0    0    0  501 -0.00000000000E+00  0.00000000000E+00  0.20184510194E+02  0.20184510194E+02  0.00000000000E+00 0.  1.
          2   -1    0    0  501    0  0.00000000000E+00 -0.00000000000E+00 -0.24614108918E+04  0.24614108918E+04  0.00000000000E+00 0. -1.
         25    2    1    2    0    0  0.19277400421E+03  0.75809054113E+01 -0.13599294627E+04  0.13792297115E+04  0.12508863525E+03 0.  0.
          5    1    3    3  502    0  0.10342818055E+03 -0.23062585988E+00 -0.34132303703E+03  0.35667398240E+03  0.41800000000E+01 0. -1.
         -5    1    3    3    0  502  0.89345823657E+02  0.78115312712E+01 -0.10186064257E+04  0.10225557291E+04  0.41800000000E+01 0. -1.
        -11    1    1    2    0    0 -0.15670291148E+03 -0.43849245466E+02 -0.85678190245E+03  0.87209734959E+03  0.00000000000E+00 0.  1.
         11    1    1    2    0    0 -0.36071092731E+02  0.36268340054E+02 -0.22451501647E+03  0.23026834094E+03  0.00000000000E+00 0. -1.
</event>
<event>
 7    1  0.2794945E-009  0.1017076E+03  0.7561462E-02  0.1276746E+00
          3   -1    0    0  501    0  0.00000000000E+00  0.00000000000E+00  0.46756915498E+03  0.46756915498E+03  0.00000000000E+00 0. -1.
         -3   -1    0    0    0  501 -0.00000000000E+00 -0.00000000000E+00 -0.45602307582E+02  0.45602307582E+02  0.00000000000E+00 0.  1.
         25    2    1    2    0    0  0.60948578155E+02  0.13955784566E+01  0.34920071159E+03  0.37590318524E+03  0.12508153693E+03 0.  0.
          5    1    3    3  502    0  0.65838956546E+02 -0.52837420309E+02  0.21453916118E+03  0.23058856273E+03  0.41800000000E+01 0.  1.
         -5    1    3    3    0  502 -0.48903783908E+01  0.54232998765E+02  0.13466155041E+03  0.14531462251E+03  0.41800000000E+01 0.  1.
        -11    1    1    2    0    0 -0.30554523760E+02  0.94909780489E+01 -0.20885388191E+02  0.38208075409E+02  0.00000000000E+00 0.  1.
         11    1    1    2    0    0 -0.30394054394E+02 -0.10886556506E+02  0.93651524001E+02  0.99060201912E+02  0.00000000000E+00 0. -1.
</event>
<event>
 7    1  0.2794945E-009  0.1418680E+03  0.7561462E-02  0.1210837E+00
         -2   -1    0    0    0  501 -0.00000000000E+00  0.00000000000E+00  0.11395674152E+04  0.11395674152E+04  0.00000000000E+00 0.  1.
          2   -1    0    0  501    0  0.00000000000E+00 -0.00000000000E+00 -0.42586651191E+02  0.42586651191E+02  0.00000000000E+00 0. -1.
         25    2    1    2    0    0  0.15079432428E+02  0.77775996271E+02  0.99198711805E+03  0.10029771241E+04  0.12509266220E+03 0.  0.
          5    1    3    3  502    0 -0.79108165605E+01  0.10828454200E+03  0.78055398177E+03  0.78808001745E+03  0.41800000000E+01 0. -1.
         -5    1    3    3    0  502  0.22990248989E+02 -0.30508545727E+02  0.21143313628E+03  0.21489710661E+03  0.41800000000E+01 0. -1.
        -11    1    1    2    0    0 -0.63207968394E+02 -0.53182481905E+02  0.32536415519E+02  0.88781991332E+02  0.00000000000E+00 0. -1.
         11    1    1    2    0    0  0.48128535966E+02 -0.24593514366E+02  0.72457230454E+02  0.90394951010E+02  0.00000000000E+00 0.  1.
</event>
<event>
 7    1  0.2794945E-009  0.3643717E+03  0.7561462E-02  0.1056866E+00
         -2   -1    0    0    0  501 -0.00000000000E+00  0.00000000000E+00  0.15166698376E+04  0.15166698376E+04  0.00000000000E+00 0.  1.
          2   -1    0    0  501    0  0.00000000000E+00 -0.00000000000E+00 -0.14617031358E+03  0.14617031358E+03  0.00000000000E+00 0. -1.
         25    2    1    2    0    0 -0.34862336605E+03  0.39155260600E+02  0.12093668411E+04  0.12654196224E+04  0.12508908323E+03 0.  0.
          5    1    3    3  502    0 -0.99542840629E+02  0.67811103297E+02  0.34688858673E+03  0.36722784052E+03  0.41800000000E+01 0. -1.
         -5    1    3    3    0  502 -0.24908052542E+03 -0.28655842697E+02  0.86247825436E+03  0.89819178192E+03  0.41800000000E+01 0. -1.
        -11    1    1    2    0    0  0.24008981299E+03 -0.58762926646E+02  0.14325937876E+03  0.28569117846E+03  0.00000000000E+00 0.  1.
         11    1    1    2    0    0  0.10853355306E+03  0.19607666046E+02  0.17873304168E+02  0.11172935026E+03  0.00000000000E+00 0. -1.
</event>
<event>
 7    1  0.2794945E-009  0.9112841E+02  0.7561462E-02  0.1300142E+00
         -2   -1    0    0    0  501 -0.00000000000E+00  0.00000000000E+00  0.28804755646E+02  0.28804755646E+02  0.00000000000E+00 0.  1.
          2   -1    0    0  501    0  0.00000000000E+00 -0.00000000000E+00 -0.48500914035E+03  0.48500914035E+03  0.00000000000E+00 0. -1.
         25    2    1    2    0    0  0.17239966979E+01  0.43499977948E+02 -0.24606449898E+03  0.27944178667E+03  0.12507899196E+03 0.  0.
          5    1    3    3  502    0 -0.15220332031E+01 -0.21812441675E+02 -0.19526618291E+03  0.19653105043E+03  0.41800000000E+01 0.  1.
         -5    1    3    3    0  502  0.32460299010E+01  0.65312419623E+02 -0.50798316077E+02  0.82910736237E+02  0.41800000000E+01 0.  1.
        -11    1    1    2    0    0 -0.29497342298E+02 -0.56551178668E+02 -0.89572378685E+02  0.10996062948E+03  0.00000000000E+00 0.  1.
         11    1    1    2    0    0  0.27773345600E+02  0.13051200720E+02 -0.12056750704E+03  0.12441147986E+03  0.00000000000E+00 0. -1.
</event>
<event>
 7    1  0.2794945E-009  0.8391275E+02  0.7561462E-02  0.1318301E+00
          2   -1    0    0  501    0  0.00000000000E+00  0.00000000000E+00  0.15244511235E+03  0.15244511235E+03  0.00000000000E+00 0. -1.
         -2   -1    0    0    0  501 -0.00000000000E+00 -0.00000000000E+00 -0.92944316479E+02  0.92944316479E+02  0.00000000000E+00 0.  1.
         25    2    1    2    0    0  0.31123630161E+02 -0.13632398477E+02  0.73084389240E+02  0.14881492629E+03  0.12510008670E+03 0.  0.
          5    1    3    3  502    0  0.65038989065E+02  0.12767455836E+02  0.81176123911E+02  0.10488142600E+03  0.41800000000E+01 0.  1.
         -5    1    3    3    0  502 -0.33915358904E+02 -0.26399854313E+02 -0.80917346707E+01  0.43933500285E+02  0.41800000000E+01 0.  1.
        -11    1    1    2    0    0 -0.22471435924E+02  0.31316353800E+02 -0.45154402310E+02  0.59368337485E+02  0.00000000000E+00 0.  1.
         11    1    1    2    0    0 -0.86521942374E+01 -0.17683955323E+02  0.31570808942E+02  0.37206165057E+02  0.00000000000E+00 0. -1.
</event>
<event>
 7    1  0.2794945E-009  0.9897868E+02  0.7561462E-02  0.1282458E+00
         -1   -1    0    0    0  501 -0.00000000000E+00  0.00000000000E+00  0.17150714674E+03  0.17150714674E+03  0.00000000000E+00 0.  1.
          1   -1    0    0  501    0  0.00000000000E+00 -0.00000000000E+00 -0.10255457763E+03  0.10255457763E+03  0.00000000000E+00 0. -1.
         25    2    1    2    0    0 -0.35593189528E+02  0.51358722288E+02 -0.90123457024E+01  0.14011688658E+03  0.12508767339E+03 0.  0.
          5    1    3    3  502    0 -0.35032792343E+02 -0.33668523667E+02 -0.22870347431E+02  0.53864563647E+02  0.41800000000E+01 0.  1.
         -5    1    3    3    0  502 -0.56039718494E+00  0.85027245956E+02  0.13858001729E+02  0.86252322935E+02  0.41800000000E+01 0.  1.
        -11    1    1    2    0    0  0.18276026485E+02 -0.38068297740E+02 -0.99298958253E+01  0.43379848640E+02  0.00000000000E+00 0. -1.
         11    1    1    2    0    0  0.17317163043E+02 -0.13290424548E+02  0.87894810645E+02  0.90564989145E+02  0.00000000000E+00 0.  1.
</event>
<event>
 7    1  0.2794945E-009  0.7541293E+02  0.7561462E-02  0.1342597E+00
          3   -1    0    0  501    0  0.00000000000E+00  0.00000000000E+00  0.31857435312E+03  0.31857435312E+03  0.00000000000E+00 0. -1.
         -3   -1    0    0    0  501 -0.00000000000E+00 -0.00000000000E+00 -0.39916521284E+02  0.39916521284E+02  0.00000000000E+00 0.  1.
         25    2    1    2    0    0  0.23556986886E+00 -0.28437973864E+02  0.18026110774E+03  0.22125398014E+03  0.12510189013E+03 0.  0.
          5    1    3    3  502    0  0.10438605657E+02 -0.39188141146E+02  0.19543064999E+03  0.19963788781E+03  0.41800000000E+01 0.  1.
         -5    1    3    3    0  502 -0.10203035788E+02  0.10750167282E+02 -0.15169542246E+02  0.21616092335E+02  0.41800000000E+01 0.  1.
        -11    1    1    2    0    0  0.22474387891E+02  0.55175191591E+02  0.71273075519E+02  0.92893762827E+02  0.00000000000E+00 0. -1.
         11    1    1    2    0    0 -0.22709957760E+02 -0.26737217727E+02  0.27123648580E+02  0.44343131435E+02  0.00000000000E+00 0.  1.
</event>
<event>
 7    1  0.2794945E-009  0.1082194E+03  0.7561462E-02  0.1263903E+00
          1   -1    0    0  501    0  0.00000000000E+00  0.00000000000E+00  0.24629013995E+03  0.24629013995E+03  0.00000000000E+00 0. -1.
         -1   -1    0    0    0  501 -0.00000000000E+00 -0.00000000000E+00 -0.52197072283E+02  0.52197072283E+02  0.00000000000E+00 0.  1.
         25    2    1    2    0    0  0.65025926382E+01  0.30849625180E+02  0.91465597493E+02  0.15813643158E+03  0.12508873804E+03 0.  0.
          5    1    3    3  502    0 -0.56944507848E+02  0.89812515736E+01  0.23098377335E+02  0.62244255072E+02  0.41800000000E+01 0. -1.
         -5    1    3    3    0  502  0.63447100487E+02  0.21868373606E+02  0.68367220158E+02  0.95892176513E+02  0.41800000000E+01 0. -1.
        -11    1    1    2    0    0  0.39053666194E+02 -0.60180637203E+01  0.65698611827E+02  0.76666247659E+02  0.00000000000E+00 0.  1.
         11    1    1    2    0    0 -0.45556258832E+02 -0.24831561460E+02  0.36928858347E+02  0.63684532990E+02  0.00000000000E+00 0. -1.
</event>
<event>
 7    1  0.2794945E-009  0.9684299E+02  0.7561462E-02  0.1287078E+00
         -2   -1    0    0    0  501 -0.00000000000E+00  0.00000000000E+00  0.13827835848E+02  0.13827835848E+02  0.00000000000E+00 0.  1.
          2   -1    0    0  501    0  0.00000000000E+00 -0.00000000000E+00 -0.12384010839E+04  0.12384010839E+04  0.00000000000E+00 0. -1.
         25    2    1    2    0    0  0.39577889875E+02 -0.53830304760E+02 -0.81671536981E+03  0.82893770196E+03  0.12509839078E+03 0.  0.
          5    1    3    3  502    0  0.28882639783E+02 -0.66440147262E+02 -0.21376970238E+03  0.22575087620E+03  0.41800000000E+01 0. -1.
         -5    1    3    3    0  502  0.10695250092E+02  0.12609842502E+02 -0.60294566743E+03  0.60318682576E+03  0.41800000000E+01 0. -1.
        -11    1    1    2    0    0 -0.42734864884E+02 -0.68684345028E+01 -0.25750880119E+03  0.26112109597E+03  0.00000000000E+00 0. -1.
         11    1    1    2    0    0  0.31569750091E+01  0.60698739263E+02 -0.15034907704E+03  0.16217012181E+03  0.00000000000E+00 0.  1.
</event>
<event>
 7    1  0.2794945E-009  0.1101815E+03  0.7561462E-02  0.1260234E+00
          1   -1    0    0  501    0  0.00000000000E+00  0.00000000000E+00  0.12477164538E+02  0.12477164538E+02  0.00000000000E+00 0. -1.
         -1   -1    0    0    0  501 -0.00000000000E+00 -0.00000000000E+00 -0.12708230408E+04  0.12708230408E+04  0.00000000000E+00 0.  1.
         25    2    1    2    0    0 -0.24505993191E+02  0.19986875968E+02 -0.97253698096E+03  0.98105773629E+03  0.12508430632E+03 0.  0.
          5    1    3    3  502    0  0.43048602737E+02  0.34617782920E+02 -0.56175163732E+03  0.56447670237E+03  0.41800000000E+01 0. -1.
         -5    1    3    3    0  502 -0.67554595928E+02 -0.14630906953E+02 -0.41078534364E+03  0.41658103391E+03  0.41800000000E+01 0. -1.
        -11    1    1    2    0    0 -0.31878655853E+02 -0.22909129388E+02 -0.15246766183E+03  0.15744035319E+03  0.00000000000E+00 0. -1.
         11    1    1    2    0    0  0.56384649044E+02  0.29222534199E+01 -0.13334123344E+03  0.14480211583E+03  0.00000000000E+00 0.  1.
</event>
<event>
 7    1  0.2794945E-009  0.9562279E+02  0.7561462E-02  0.1289780E+00
         -1   -1    0    0    0  501 -0.00000000000E+00  0.00000000000E+00  0.31102429875E+03  0.31102429875E+03  0.00000000000E+00 0. -1.
          1   -1    0    0  501    0  0.00000000000E+00 -0.00000000000E+00 -0.49046651159E+02  0.49046651159E+02  0.00000000000E+00 0.  1.
         25    2    1    2    0    0  0.15361257303E+02  0.57171356373E+01  0.23023326364E+03  0.26253249611E+03  0.12508917604E+03 0.  0.
          5    1    3    3  502    0  0.53085945776E+02  0.22648480514E+02  0.20696314249E+03  0.21490064229E+03  0.41800000000E+01 0.  1.
         -5    1    3    3    0  502 -0.37724688473E+02 -0.16931344876E+02  0.23270121145E+02  0.47631853815E+02  0.41800000000E+01 0.  1.
        -11    1    1    2    0    0  0.37706904413E+02 -0.85878337016E+01  0.88560640638E+01  0.39673560451E+02  0.00000000000E+00 0.  1.
         11    1    1    2    0    0 -0.53068161716E+02  0.28706980643E+01  0.22888319896E+02  0.57864893355E+02  0.00000000000E+00 0. -1.
</event>
<event>
 7    1  0.2794945E-009  0.1318639E+03  0.7561462E-02  0.1224716E+00
         -2   -1    0    0    0  501 -0.00000000000E+00  0.00000000000E+00  0.12349943558E+03  0.12349943558E+03  0.00000000000E+00 0.  1.
          2   -1    0    0  501    0  0.00000000000E+00 -0.00000000000E+00 -0.17149138287E+03  0.17149138287E+03  0.00000000000E+00 0. -1.
         25    2    1    2    0    0 -0.83932964262E+02  0.45739422106E+02 -0.31121485156E+02  0.16047662610E+03  0.12508942187E+03 0.  0.
          5    1    3    3  502    0  0.20857945853E+02  0.35253142508E+02  0.17085174424E+02  0.44578173438E+02  0.41800000000E+01 0.  1.
         -5    1    3    3    0  502 -0.10479091012E+03  0.10486279598E+02 -0.48206659580E+02  0.11589845267E+03  0.41800000000E+01 0.  1.
        -11    1    1    2    0    0  0.25383561750E+02 -0.52404828888E+02  0.23809875302E+02  0.62908675553E+02  0.00000000000E+00 0.  1.
         11    1    1    2    0    0  0.58549402512E+02  0.66654067820E+01 -0.40680337430E+02  0.71605516795E+02  0.00000000000E+00 0. -1.
</event>
<event>
 7    1  0.2794945E-009  0.8067090E+02  0.7561462E-02  0.1327158E+00
         -1   -1    0    0    0  501 -0.00000000000E+00  0.00000000000E+00  0.25863497786E+02  0.25863497786E+02  0.00000000000E+00 0.  1.
          1   -1    0    0  501    0  0.00000000000E+00 -0.00000000000E+00 -0.52803791179E+03  0.52803791179E+03  0.00000000000E+00 0. -1.
         25    2    1    2    0    0 -0.10735756791E+02 -0.58197772709E+01 -0.38449878697E+03  0.40451936607E+03  0.12508986393E+03 0.  0.
          5    1    3    3  502    0 -0.47064637007E+02 -0.14760009585E+01 -0.53153073199E+02  0.71133537982E+02  0.41800000000E+01 0. -1.
         -5    1    3    3    0  502  0.36328880216E+02 -0.43437763123E+01 -0.33134571377E+03  0.33338582808E+03  0.41800000000E+01 0. -1.
        -11    1    1    2    0    0 -0.53948043804E+01  0.39517332039E+02 -0.19615888830E+02  0.44446670746E+02  0.00000000000E+00 0.  1.
         11    1    1    2    0    0  0.16130561171E+02 -0.33697554768E+02 -0.98059738200E+02  0.10493537276E+03  0.00000000000E+00 0. -1.
</event>
<event>
 7    1  0.2794945E-009  0.1245240E+03  0.7561462E-02  0.1235815E+00
         -1   -1    0    0    0  501 -0.00000000000E+00  0.00000000000E+00  0.64692860729E+03  0.64692860729E+03  0.00000000000E+00 0.  1.
          1   -1    0    0  501    0  0.00000000000E+00 -0.00000000000E+00 -0.29868673571E+02  0.29868673571E+02  0.00000000000E+00 0. -1.
         25    2    1    2    0    0 -0.79124750883E+02 -0.32980525069E+02  0.34460948910E+03  0.37649876865E+03  0.12508869486E+03 0.  0.
          5    1    3    3  502    0 -0.77274461218E+02 -0.64512205434E+02  0.32209715330E+03  0.33748661540E+03  0.41800000000E+01 0.  1.
         -5    1    3    3    0  502 -0.18502896650E+01  0.31531680365E+02  0.22512335797E+02  0.39012153254E+02  0.41800000000E+01 0.  1.
        -11    1    1    2    0    0  0.49844354369E+02 -0.21736322210E+02  0.70541248034E+02  0.89067362372E+02  0.00000000000E+00 0. -1.
         11    1    1    2    0    0  0.29280396514E+02  0.54716847279E+02  0.20190919658E+03  0.21123114983E+03  0.00000000000E+00 0.  1.
</event>
<event>
 7    1  0.2794945E-009  0.1368592E+03  0.7561462E-02  0.1217619E+00
         -1   -1    0    0    0  501 -0.00000000000E+00  0.00000000000E+00  0.14268803443E+03  0.14268803443E+03  0.00000000000E+00 0.  1.
          1   -1    0    0  501    0  0.00000000000E+00 -0.00000000000E+00 -0.17764434367E+03  0.17764434367E+03  0.00000000000E+00 0. -1.
         25    2    1    2    0    0  0.15328732965E+02 -0.11327811225E+03 -0.38372784549E+02  0.17374457918E+03  0.12509119646E+03 0.  0.
          5    1    3    3  502    0 -0.38604023300E+02 -0.94465871893E+02  0.44518269677E+01  0.10223190662E+03  0.41800000000E+01 0. -1.
         -5    1    3    3    0  502  0.53932756265E+02 -0.18812240353E+02 -0.42824611516E+02  0.71512672562E+02  0.41800000000E+01 0. -1.
        -11    1    1    2    0    0 -0.27780012296E+01  0.19417492690E+02  0.40412605002E+02  0.44921430924E+02  0.00000000000E+00 0.  1.
         11    1    1    2    0    0 -0.12550731735E+02  0.93860619556E+02 -0.36996129686E+02  0.10166636800E+03  0.00000000000E+00 0. -1.
</event>
<event>
 7    1  0.2794945E-009  0.1581602E+03  0.7561462E-02  0.1190790E+00
          1   -1    0    0  501    0  0.00000000000E+00  0.00000000000E+00  0.13640078945E+03  0.13640078945E+03  0.00000000000E+00 0. -1.
         -1   -1    0    0    0  501 -0.00000000000E+00 -0.00000000000E+00 -0.25691971403E+03  0.25691971403E+03  0.00000000000E+00 0.  1.
         25    2    1    2    0    0 -0.14449351187E+03 -0.43220464733E+01 -0.11222216209E+03  0.22167255540E+03  0.12509137898E+03 0.  0.
          5    1    3    3  502    0 -0.13972464470E+03 -0.31401168091E+02 -0.12585554546E+03  0.19069897854E+03  0.41800000000E+01 0.  1.
         -5    1    3    3    0  502 -0.47688671780E+01  0.27079121618E+02  0.13633383369E+02  0.30973576865E+02  0.41800000000E+01 0.  1.
        -11    1    1    2    0    0  0.11427735603E+03 -0.23176052712E+01 -0.45708762368E+02  0.12310148802E+03  0.00000000000E+00 0.  1.
         11    1    1    2    0    0  0.30216155842E+02  0.66396517445E+01  0.37411999882E+02  0.48546460059E+02  0.00000000000E+00 0. -1.
</event>
<event>
 7    1  0.2794945E-009  0.7460420E+02  0.7561462E-02  0.1345101E+00
         -2   -1    0    0    0  501 -0.00000000000E+00  0.00000000000E+00  0.80115472567E+03  0.80115472567E+03  0.00000000000E+00 0.  1.
          2   -1    0    0  501    0  0.00000000000E+00 -0.00000000000E+00 -0.16416660355E+02  0.16416660355E+02  0.00000000000E+00 0. -1.
         25    2    1    2    0    0  0.15223326623E+02  0.12330099094E+02  0.55679815360E+03  0.57101322116E+03  0.12509250125E+03 0.  0.
          5    1    3    3  502    0  0.15553829639E+02  0.34292874867E+02  0.45422400726E+02  0.59148878019E+02  0.41800000000E+01 0.  1.
         -5    1    3    3    0  502 -0.33050301621E+00 -0.21962775774E+02  0.51137575287E+03  0.51186434314E+03  0.41800000000E+01 0.  1.
        -11    1    1    2    0    0 -0.48754441898E+02  0.84972634616E+01  0.85908729247E+02  0.99143879549E+02  0.00000000000E+00 0. -1.
         11    1    1    2    0    0  0.33531115275E+02 -0.20827362555E+02  0.14203118247E+03  0.14741428532E+03  0.00000000000E+00 0.  1.
</event>
<event>
 7    1  0.2794945E-009  0.9854915E+02  0.7561462E-02  0.1283377E+00
          2   -1    0    0  501    0  0.00000000000E+00  0.00000000000E+00  0.54922258004E+02  0.54922258004E+02  0.00000000000E+00 0.  1.
         -2   -1    0    0    0  501 -0.00000000000E+00 -0.00000000000E+00 -0.32868584699E+03  0.32868584699E+03  0.00000000000E+00 0. -1.
         25    2    1    2    0    0 -0.33700750836E+02 -0.64894834512E+02 -0.19477853772E+03  0.24276304320E+03  0.12509251071E+03 0.  0.
          5    1    3    3  502    0 -0.35485026268E+02 -0.77743418120E+02 -0.53676356461E+02  0.10100420681E+03  0.41800000000E+01 0. -1.
         -5    1    3    3    0  502  0.17842754326E+01  0.12848583608E+02 -0.14110218126E+03  0.14175883639E+03  0.41800000000E+01 0. -1.
        -11    1    1    2    0    0  0.50495337040E+02  0.63394302585E+02 -0.89681045225E+02  0.12087723746E+03  0.00000000000E+00 0. -1.
         11    1    1    2    0    0 -0.16794586204E+02  0.15005319269E+01  0.10695993959E+02  0.19967824333E+02  0.00000000000E+00 0.  1.
</event>
<event>
 7    1  0.2794945E-009  0.9091382E+02  0.7561462E-02  0.1300654E+00
         -1   -1    0    0    0  501 -0.00000000000E+00  0.00000000000E+00  0.46501519175E+02  0.46501519175E+02  0.00000000000E+00 0.  1.
          1   -1    0    0  501    0  0.00000000000E+00 -0.00000000000E+00 -0.28386375645E+03  0.28386375645E+03  0.00000000000E+00 0. -1.
         25    2    1    2    0    0  0.97197275520E+01  0.37255242240E+02 -0.14059390247E+03  0.19208305342E+03  0.12508728081E+03 0.  0.
          5    1    3    3  502    0  0.30791280886E+02 -0.28065563551E+02 -0.78711591187E+01  0.42605238902E+02  0.41800000000E+01 0. -1.
         -5    1    3    3    0  502 -0.21071553334E+02  0.65320805791E+02 -0.13272274336E+03  0.14947781452E+03  0.41800000000E+01 0. -1.
        -11    1    1    2    0    0 -0.23489819813E+02 -0.48189636058E+02 -0.16472171270E+02  0.56083376188E+02  0.00000000000E+00 0.  1.
         11    1    1    2    0    0  0.13770092261E+02  0.10934393818E+02 -0.80296163529E+02  0.82198846017E+02  0.00000000000E+00 0. -1.
</event>
<event>
 7    1  0.2794945E-009  0.7312726E+02  0.7561462E-02  0.1349770E+00
         -2   -1    0    0    0  501 -0.00000000000E+00  0.00000000000E+00  0.54356549050E+02  0.54356549050E+02  0.00000000000E+00 0.  1.
          2   -1    0    0  501    0  0.00000000000E+00 -0.00000000000E+00 -0.24861307860E+03  0.24861307860E+03  0.00000000000E+00 0. -1.
         25    2    1    2    0    0 -0.36548258668E+02 -0.13882108665E+01 -0.13605956497E+03  0.18841962232E+03  0.12510813928E+03 0.  0.
          5    1    3    3  502    0  0.17955549928E+02  0.77406573070E+01  0.16615142607E+02  0.25997209708E+02  0.41800000000E+01 0. -1.
         -5    1    3    3    0  502 -0.54503808596E+02 -0.91288681735E+01 -0.15267470758E+03  0.16242241261E+03  0.41800000000E+01 0. -1.
        -11    1    1    2    0    0  0.53025797370E+02 -0.47886672845E+01  0.52898302753E+00  0.53244214185E+02  0.00000000000E+00 0.  1.
         11    1    1    2    0    0 -0.16477538702E+02  0.61768781510E+01 -0.58725947614E+02  0.61305791150E+02  0.00000000000E+00 0. -1.
</event>
<event>
 7    1  0.2794945E-009  0.1412004E+03  0.7561462E-02  0.1211723E+00
         -2   -1    0    0    0  501 -0.00000000000E+00  0.00000000000E+00  0.76784068346E+02  0.76784068346E+02  0.00000000000E+00 0. -1.
          2   -1    0    0  501    0  0.00000000000E+00 -0.00000000000E+00 -0.31883575352E+03  0.31883575352E+03  0.00000000000E+00 0.  1.
         25    2    1    2    0    0  0.44302684810E+02  0.81447750929E+02 -0.21344040402E+03  0.26419758389E+03  0.12508834179E+03 0.  0.
          5    1    3    3  502    0  0.53069359321E+02  0.11125395450E+03 -0.15716966705E+03  0.19978382300E+03  0.41800000000E+01 0. -1.
         -5    1    3    3    0  502 -0.87666745107E+01 -0.29806203572E+02 -0.56270736962E+02  0.64413760887E+02  0.41800000000E+01 0. -1.
        -11    1    1    2    0    0 -0.32974479253E+02  0.10860825725E+02 -0.24091853638E+01  0.34800545851E+02  0.00000000000E+00 0.  1.
         11    1    1    2    0    0 -0.11328205557E+02 -0.92308576655E+02 -0.26202095792E+02  0.96621692125E+02  0.00000000000E+00 0. -1.
</event>
<event>
 7    1  0.2794945E-009  0.1628866E+03  0.7561462E-02  0.1185476E+00
         -2   -1    0    0    0  501 -0.00000000000E+00  0.00000000000E+00  0.49433756113E+02  0.49433756113E+02  0.00000000000E+00 0. -1.
          2   -1    0    0  501    0  0.00000000000E+00 -0.00000000000E+00 -0.69843550418E+03  0.69843550418E+03  0.00000000000E+00 0.  1.
         25    2    1    2    0    0 -0.10691901462E+02  0.13633385053E+03 -0.21538345552E+03  0.28414934559E+03  0.12509828989E+03 0.  0.
          5    1    3    3  502    0 -0.56488203255E+02  0.12570761741E+03 -0.15372561622E+03  0.20650026553E+03  0.41800000000E+01 0.  1.
         -5    1    3    3    0  502  0.45796301794E+02  0.10626233128E+02 -0.61657839291E+02  0.77649080062E+02  0.41800000000E+01 0.  1.
        -11    1    1    2    0    0 -0.61301846344E+00 -0.12385712580E+03 -0.42862013488E+03  0.44615712863E+03  0.00000000000E+00 0.  1.
         11    1    1    2    0    0  0.11304919925E+02 -0.12476724734E+02 -0.49981576774E+01  0.17562786076E+02  0.00000000000E+00 0. -1.
</event>
<event>
 7    1  0.2794945E-009  0.2764986E+03  0.7561462E-02  0.1097617E+00
          2   -1    0    0  501    0  0.00000000000E+00  0.00000000000E+00  0.10214934535E+04  0.10214934535E+04  0.00000000000E+00 0. -1.
         -2   -1    0    0    0  501 -0.00000000000E+00 -0.00000000000E+00 -0.86382104496E+02  0.86382104496E+02  0.00000000000E+00 0.  1.
         25    2    1    2    0    0  0.17914311482E+03  0.19958693422E+03  0.35338237530E+03  0.46092975344E+03  0.12509969839E+03 0.  0.
          5    1    3    3  502    0  0.62806701478E+02  0.13597383561E+03  0.25502890585E+03  0.29578840569E+03  0.41800000000E+01 0. -1.
         -5    1    3    3    0  502  0.11633641334E+03  0.63613098607E+02  0.98353469440E+02  0.16514134774E+03  0.41800000000E+01 0. -1.
        -11    1    1    2    0    0 -0.93731395774E+02 -0.78153044296E+02  0.17000914235E+03  0.20927632778E+03  0.00000000000E+00 0.  1.
         11    1    1    2    0    0 -0.85411719046E+02 -0.12143388992E+03  0.41171983137E+03  0.43766947679E+03  0.00000000000E+00 0. -1.
</event>
<event>
 7    1  0.2794945E-009  0.1309613E+03  0.7561462E-02  0.1226036E+00
          2   -1    0    0  501    0  0.00000000000E+00  0.00000000000E+00  0.38671189010E+02  0.38671189010E+02  0.00000000000E+00 0. -1.
         -2   -1    0    0    0  501 -0.00000000000E+00 -0.00000000000E+00 -0.52965669865E+03  0.52965669865E+03  0.00000000000E+00 0.  1.
         25    2    1    2    0    0 -0.42774035987E+02 -0.71427137897E+02 -0.17781178173E+03  0.23280030404E+03  0.12508995825E+03 0.  0.
          5    1    3    3  502    0  0.35955218188E+02  0.86669184105E+01 -0.54030350632E+02  0.65609788744E+02  0.41800000000E+01 0.  1.
         -5    1    3    3    0  502 -0.78729254175E+02 -0.80094056307E+02 -0.12378143110E+03  0.16719051529E+03  0.41800000000E+01 0.  1.
        -11    1    1    2    0    0  0.51295384788E+02  0.12528388075E+02 -0.88037728169E+02  0.10265874824E+03  0.00000000000E+00 0. -1.
         11    1    1    2    0    0 -0.85213488007E+01  0.58898749822E+02 -0.22513599973E+03  0.23286883538E+03  0.00000000000E+00 0.  1.
</event>
<event>
 7    1  0.2794945E-009  0.9324818E+02  0.7561462E-02  0.1295171E+00
          2   -1    0    0  501    0  0.00000000000E+00  0.00000000000E+00  0.29314865278E+03  0.29314865278E+03  0.00000000000E+00 0. -1.
         -2   -1    0    0    0  501 -0.00000000000E+00 -0.00000000000E+00 -0.37712598674E+02  0.37712598674E+02  0.00000000000E+00 0.  1.
         25    2    1    2    0    0  0.12876634570E+02  0.72413926978E+01  0.15224454047E+03  0.19760253688E+03  0.12510042764E+03 0.  0.
          5    1    3    3  502    0  0.54372307211E+02 -0.17937193620E+02  0.13365039249E+03  0.14545786509E+03  0.41800000000E+01 0. -1.
         -5    1    3    3    0  502 -0.41495672640E+02  0.25178586318E+02  0.18594147984E+02  0.52144671790E+02  0.41800000000E+01 0. -1.
        -11    1    1    2    0    0  0.33447763677E+02  0.23594064576E+00  0.23853211250E+02  0.41082651447E+02  0.00000000000E+00 0.  1.
         11    1    1    2    0    0 -0.46324398247E+02 -0.74773333435E+01  0.79338302386E+02  0.92176063121E+02  0.00000000000E+00 0. -1.
</event>
<event>
 7    1  0.2794945E-009  0.9595608E+02  0.7561462E-02  0.1289037E+00
         -1   -1    0    0    0  501 -0.00000000000E+00  0.00000000000E+00  0.25133398999E+02  0.25133398999E+02  0.00000000000E+00 0.  1.
          1   -1    0    0  501    0  0.00000000000E+00 -0.00000000000E+00 -0.47509786298E+03  0.47509786298E+03  0.00000000000E+00 0. -1.
         25    2    1    2    0    0  0.12972911173E+02  0.22194743655E+00 -0.19843372145E+03  0.23492710067E+03  0.12508579111E+03 0.  0.
          5    1    3    3  502    0 -0.36240553618E+02  0.36313805029E+02 -0.14442787183E+03  0.15332629495E+03  0.41800000000E+01 0.  1.
         -5    1    3    3    0  502  0.49213464791E+02 -0.36091857593E+02 -0.54005849621E+02  0.81600805722E+02  0.41800000000E+01 0.  1.
        -11    1    1    2    0    0  0.12228472463E+02 -0.34567358856E+02 -0.16278909944E+03  0.16686739866E+03  0.00000000000E+00 0. -1.
         11    1    1    2    0    0 -0.25201383636E+02  0.34345411419E+02 -0.88741643086E+02  0.98436762647E+02  0.00000000000E+00 0.  1.
</event>
<event>
 7    1  0.2794945E-009  0.1025769E+03  0.7561462E-02  0.1274969E+00
          2   -1    0    0  501    0  0.00000000000E+00  0.00000000000E+00  0.14146202588E+03  0.14146202588E+03  0.00000000000E+00 0.  1.
         -2   -1    0    0    0  501 -0.00000000000E+00 -0.00000000000E+00 -0.14620571108E+03  0.14620571108E+03  0.00000000000E+00 0. -1.
         25    2    1    2    0    0 -0.62142804622E+02 -0.68570582740E+02  0.88806335654E+01  0.15586840275E+03  0.12510971321E+03 0.  0.
          5    1    3    3  502    0 -0.62222189929E+02 -0.78832042893E+02 -0.38178146934E+02  0.10752271950E+03  0.41800000000E+01 0. -1.
         -5    1    3    3    0  502  0.79385306494E-01  0.10261460153E+02  0.47058780499E+02  0.48345683246E+02  0.41800000000E+01 0. -1.
        -11    1    1    2    0    0  0.22720089747E+02  0.35256691499E+02  0.39582464737E+02  0.57671555278E+02  0.00000000000E+00 0.  1.
         11    1    1    2    0    0  0.39422714876E+02  0.33313891240E+02 -0.53206783502E+02  0.74127778925E+02  0.00000000000E+00 0. -1.
</event>
<event>
 7    1  0.2794945E-009  0.1572393E+03  0.7561462E-02  0.1191849E+00
          2   -1    0    0  501    0  0.00000000000E+00  0.00000000000E+00  0.30928940657E+03  0.30928940657E+03  0.00000000000E+00 0. -1.
         -2   -1    0    0    0  501 -0.00000000000E+00 -0.00000000000E+00 -0.11226312901E+03  0.11226312901E+03  0.00000000000E+00 0.  1.
         25    2    1    2    0    0  0.61259209652E+01  0.11406776999E+03  0.19142788476E+02  0.17043906035E+03  0.12503617030E+03 0.  0.
          5    1    3    3  502    0 -0.33156020375E+02  0.97544713116E+02  0.52922541960E+02  0.11589892403E+03  0.41800000000E+01 0. -1.
         -5    1    3    3    0  502  0.39281941340E+02  0.16523056874E+02 -0.33779753485E+02  0.54540136316E+02  0.41800000000E+01 0. -1.
        -11    1    1    2    0    0 -0.65104710961E+02 -0.60236569064E+02  0.13195859009E+03  0.15899728659E+03  0.00000000000E+00 0. -1.
         11    1    1    2    0    0  0.58978789996E+02 -0.53831200926E+02  0.45924898993E+02  0.92116188643E+02  0.00000000000E+00 0.  1.
</event>
<event>
 7    1  0.2794945E-009  0.8873670E+02  0.7561462E-02  0.1305940E+00
          2   -1    0    0  501    0  0.00000000000E+00  0.00000000000E+00  0.67361982407E+03  0.67361982407E+03  0.00000000000E+00 0.  1.
         -2   -1    0    0    0  501 -0.00000000000E+00 -0.00000000000E+00 -0.25075473939E+02  0.25075473939E+02  0.00000000000E+00 0. -1.
         25    2    1    2    0    0 -0.26808870032E+02  0.47188857160E+02  0.48275453941E+03  0.50164193213E+03  0.12508868454E+03 0.  0.
          5    1    3    3  502    0 -0.95748111230E+01  0.52598602778E+02  0.68602315720E+02  0.87074911107E+02  0.41800000000E+01 0. -1.
         -5    1    3    3    0  502 -0.17234058909E+02 -0.54097456179E+01  0.41415222369E+03  0.41456702102E+03  0.41800000000E+01 0. -1.
        -11    1    1    2    0    0 -0.25266630920E+02  0.10702412634E+02  0.31097061017E+02  0.41472538844E+02  0.00000000000E+00 0. -1.
         11    1    1    2    0    0  0.52075500952E+02 -0.57891269794E+02  0.13469274971E+03  0.15558082704E+03  0.00000000000E+00 0.  1.
</event>
<event>
 7    1  0.2794945E-009  0.1042710E+03  0.7561462E-02  0.1271563E+00
          2   -1    0    0  501    0  0.00000000000E+00  0.00000000000E+00  0.12513190666E+04  0.12513190666E+04  0.00000000000E+00 0. -1.
         -2   -1    0    0    0  501 -0.00000000000E+00 -0.00000000000E+00 -0.12516429308E+02  0.12516429308E+02  0.00000000000E+00 0.  1.
         25    2    1    2    0    0  0.11944739356E+02 -0.59641264467E+02  0.72067363112E+03  0.73398246819E+03  0.12514001677E+03 0.  0.
          5    1    3    3  502    0  0.44639256263E+02 -0.34999010364E+02  0.13026040746E+03  0.14213669505E+03  0.41800000000E+01 0.  1.
         -5    1    3    3    0  502 -0.32694516907E+02 -0.24642254103E+02  0.59041322366E+03  0.59184577315E+03  0.41800000000E+01 0.  1.
        -11    1    1    2    0    0 -0.51633103432E+02  0.44046879734E+02  0.33786694791E+03  0.34461598842E+03  0.00000000000E+00 0.  1.
         11    1    1    2    0    0  0.39688364077E+02  0.15594384733E+02  0.18026205828E+03  0.18523703931E+03  0.00000000000E+00 0. -1.
</event>
<event>
 7    1  0.2794945E-009  0.1820004E+03  0.7561462E-02  0.1165881E+00
          1   -1    0    0  501    0  0.00000000000E+00  0.00000000000E+00  0.49825931040E+03  0.49825931040E+03  0.00000000000E+00 0. -1.
         -1   -1    0    0    0  501 -0.00000000000E+00 -0.00000000000E+00 -0.10790053685E+03  0.10790053685E+03  0.00000000000E+00 0.  1.
         25    2    1    2    0    0 -0.76333146000E+02 -0.15697044924E+03  0.34178289799E+03  0.40364502476E+03  0.12508911041E+03 0.  0.
          5    1    3    3  502    0  0.21851004890E+01  0.59973508748E+01 -0.72324240007E+01  0.10513003310E+02  0.41800000000E+01 0.  1.
         -5    1    3    3    0  502 -0.78518246489E+02 -0.16296780012E+03  0.34901532199E+03  0.39313202145E+03  0.41800000000E+01 0.  1.
        -11    1    1    2    0    0  0.53813411504E+02  0.91036400747E+02  0.73203288153E+02  0.12861660435E+03  0.00000000000E+00 0. -1.
         11    1    1    2    0    0  0.22519734496E+02  0.65934048497E+02 -0.24627412589E+02  0.73898218137E+02  0.00000000000E+00 0.  1.
</event>
<event>
 7    1  0.2794945E-009  0.7823694E+02  0.7561462E-02  0.1334131E+00
         -2   -1    0    0    0  501 -0.00000000000E+00  0.00000000000E+00  0.89858946794E+02  0.89858946794E+02  0.00000000000E+00 0.  1.
          2   -1    0    0  501    0  0.00000000000E+00 -0.00000000000E+00 -0.18190851184E+03  0.18190851184E+03  0.00000000000E+00 0. -1.
         25    2    1    2    0    0  0.16107289091E+02  0.87432262211E+01 -0.11967212215E+03  0.17411213966E+03  0.12513085787E+03 0.  0.
          5    1    3    3  502    0  0.61112603882E+02  0.35145190731E+02 -0.88367496365E+02  0.11312038542E+03  0.41800000000E+01 0. -1.
         -5    1    3    3    0  502 -0.45005314791E+02 -0.26401964509E+02 -0.31304625790E+02  0.60991754240E+02  0.41800000000E+01 0. -1.
        -11    1    1    2    0    0  0.34749103585E+01 -0.13009509504E+02 -0.32019654652E+02  0.34735869409E+02  0.00000000000E+00 0. -1.
         11    1    1    2    0    0 -0.19582199450E+02  0.42662832829E+01  0.59642211766E+02  0.62919449558E+02  0.00000000000E+00 0.  1.
</event>
<event>
 7    1  0.2794945E-009  0.1278697E+03  0.7561462E-02  0.1230651E+00
         -1   -1    0    0    0  501 -0.00000000000E+00  0.00000000000E+00  0.10160089098E+03  0.10160089098E+03  0.00000000000E+00 0.  1.
          1   -1    0    0  501    0  0.00000000000E+00 -0.00000000000E+00 -0.18087150126E+03  0.18087150126E+03  0.00000000000E+00 0. -1.
         25    2    1    2    0    0  0.80478005379E+02  0.42734196313E+01 -0.41202040737E+02  0.15440165447E+03  0.12508913333E+03 0.  0.
          5    1    3    3  502    0 -0.20094939854E+02 -0.34066524949E+02 -0.21612806180E+01  0.39830619676E+02  0.41800000000E+01 0.  1.
         -5    1    3    3    0  502  0.10057294523E+03  0.38339944580E+02 -0.39040760119E+02  0.11457103480E+03  0.41800000000E+01 0.  1.
        -11    1    1    2    0    0 -0.93890131739E+02  0.85523740573E+00 -0.52614940112E+02  0.10763094440E+03  0.00000000000E+00 0. -1.
         11    1    1    2    0    0  0.13412126360E+02 -0.51286570370E+01  0.14546370564E+02  0.20439793372E+02  0.00000000000E+00 0.  1.
</event>
<event>
 7    1  0.2794945E-009  0.1001030E+03  0.7561462E-02  0.1280079E+00
          2   -1    0    0  501    0  0.00000000000E+00  0.00000000000E+00  0.44828977737E+03  0.44828977737E+03  0.00000000000E+00 0. -1.
         -2   -1    0    0    0  501 -0.00000000000E+00 -0.00000000000E+00 -0.37221415537E+02  0.37221415537E+02  0.00000000000E+00 0.  1.
         25    2    1    2    0    0 -0.32325403310E+02 -0.52191172009E+02  0.17044995025E+03  0.22015866421E+03  0.12509117374E+03 0.  0.
          5    1    3    3  502    0 -0.78156474928E+01  0.18479691097E+02 -0.11420488882E+02  0.23462380423E+02  0.41800000000E+01 0. -1.
         -5    1    3    3    0  502 -0.24509755817E+02 -0.70670863107E+02  0.18187043914E+03  0.19669628378E+03  0.41800000000E+01 0. -1.
        -11    1    1    2    0    0  0.53913039964E+02  0.61060075225E+02  0.13917898673E+03  0.16126294990E+03  0.00000000000E+00 0.  1.
         11    1    1    2    0    0 -0.21587636654E+02 -0.88689032156E+01  0.10143942485E+03  0.10408957880E+03  0.00000000000E+00 0. -1.
</event>
<event>
 7    1  0.2794945E-009  0.1267696E+03  0.7561462E-02  0.1232329E+00
         -2   -1    0    0    0  501 -0.00000000000E+00  0.00000000000E+00  0.18227639225E+03  0.18227639225E+03  0.00000000000E+00 0. -1.
          2   -1    0    0  501    0  0.00000000000E+00 -0.00000000000E+00 -0.96526984245E+02  0.96526984245E+02  0.00000000000E+00 0.  1.
         25    2    1    2    0    0  0.55047007442E+02  0.50485982470E+02  0.59723379699E+02  0.15745762894E+03  0.12508803050E+03 0.  0.
          5    1    3    3  502    0 -0.28190176157E+02  0.44296478887E+02  0.51194233852E+02  0.73451930222E+02  0.41800000000E+01 0.  1.
         -5    1    3    3    0  502  0.83237183599E+02  0.61895035828E+01  0.85291458470E+01  0.84005698718E+02  0.41800000000E+01 0.  1.
        -11    1    1    2    0    0  0.84517350667E+01  0.20427779058E+02 -0.17810876429E+01  0.22178779409E+02  0.00000000000E+00 0. -1.
         11    1    1    2    0    0 -0.63498742509E+02 -0.70913761529E+02  0.27807115952E+02  0.99166968149E+02  0.00000000000E+00 0.  1.
</event>
<event>
 7    1  0.2794945E-009  0.1703503E+03  0.7561462E-02  0.1177483E+00
         -1   -1    0    0    0  501 -0.00000000000E+00  0.00000000000E+00  0.12726825926E+03  0.12726825926E+03  0.00000000000E+00 0.  1.
          1   -1    0    0  501    0  0.00000000000E+00 -0.00000000000E+00 -0.27086404514E+03  0.27086404514E+03  0.00000000000E+00 0. -1.
         25    2    1    2    0    0  0.14680427901E+03 -0.84739692376E+01 -0.44796697211E+02  0.19817659940E+03  0.12507564104E+03 0.  0.
          5    1    3    3  502    0  0.13898800469E+03 -0.51784657555E+02 -0.28711614042E+02  0.15113287328E+03  0.41800000000E+01 0.  1.
         -5    1    3    3    0  502  0.78162743176E+01  0.43310688317E+02 -0.16085083169E+02  0.47043726120E+02  0.41800000000E+01 0.  1.
        -11    1    1    2    0    0 -0.21397446260E+02 -0.50273392719E+01 -0.66094058789E+02  0.69653064928E+02  0.00000000000E+00 0. -1.
         11    1    1    2    0    0 -0.12540683275E+03  0.13501308509E+02 -0.32705029877E+02  0.13030264007E+03  0.00000000000E+00 0.  1.
</event>
<event>
 7    1  0.2794945E-009  0.1293134E+03  0.7561462E-02  0.1228478E+00
          1   -1    0    0  501    0  0.00000000000E+00  0.00000000000E+00  0.20764230621E+03  0.20764230621E+03  0.00000000000E+00 0. -1.
         -1   -1    0    0    0  501 -0.00000000000E+00 -0.00000000000E+00 -0.18251554103E+03  0.18251554103E+03  0.00000000000E+00 0.  1.
         25    2    1    2    0    0  0.35405889724E+02  0.93733300495E+02 -0.11351687869E+03  0.19640203681E+03  0.12509264433E+03 0.  0.
          5    1    3    3  502    0  0.13937830388E+01 -0.18635923499E+02  0.13466715225E+02  0.23410790135E+02  0.41800000000E+01 0.  1.
         -5    1    3    3    0  502  0.34012106685E+02  0.11236922399E+03 -0.12698359391E+03  0.17299124667E+03  0.41800000000E+01 0.  1.
        -11    1    1    2    0    0  0.20894171037E+02 -0.17656340090E+02  0.18562319922E+01  0.27418211574E+02  0.00000000000E+00 0.  1.
         11    1    1    2    0    0 -0.56300060761E+02 -0.76076960405E+02  0.13678741188E+03  0.16633759886E+03  0.00000000000E+00 0. -1.
</event>
<event>
 7    1  0.2794945E-009  0.1153093E+03  0.7561462E-02  0.1251042E+00
         -2   -1    0    0    0  501 -0.00000000000E+00  0.00000000000E+00  0.44740961684E+03  0.44740961684E+03  0.00000000000E+00 0.  1.
          2   -1    0    0  501    0  0.00000000000E+00 -0.00000000000E+00 -0.33672940464E+02  0.33672940464E+02  0.00000000000E+00 0. -1.
         25    2    1    2    0    0 -0.29717615124E+02  0.46005998232E+02  0.19123090854E+03  0.23497888086E+03  0.12508447364E+03 0.  0.
          5    1    3    3  502    0 -0.58427578483E+02  0.67499955547E+02  0.17255829846E+03  0.19432926875E+03  0.41800000000E+01 0. -1.
         -5    1    3    3    0  502  0.28709963359E+02 -0.21493957315E+02  0.18672610080E+02  0.40649612106E+02  0.41800000000E+01 0. -1.
        -11    1    1    2    0    0 -0.21118420193E+02  0.14869639698E+02  0.56715765943E+02  0.62319916260E+02  0.00000000000E+00 0.  1.
         11    1    1    2    0    0  0.50836035317E+02 -0.60875637930E+02  0.16579000189E+03  0.18378376018E+03  0.00000000000E+00 0. -1.
</event>
<event>
 7    1  0.2794945E-009  0.1050255E+03  0.7561462E-02  0.1270069E+00
         -2   -1    0    0    0  501 -0.00000000000E+00  0.00000000000E+00  0.12710143856E+03  0.12710143856E+03  0.00000000000E+00 0.  1.
          2   -1    0    0  501    0  0.00000000000E+00 -0.00000000000E+00 -0.14000975967E+03  0.14000975967E+03  0.00000000000E+00 0. -1.
         25    2    1    2    0    0  0.56054009301E+02  0.12784795446E+02  0.42820751637E+02  0.14417438391E+03  0.12508850168E+03 0.  0.
          5    1    3    3  502    0  0.74522153505E+02 -0.18548068554E+02 -0.12417672775E+02  0.77905411925E+02  0.41800000000E+01 0.  1.
         -5    1    3    3    0  502 -0.18468144205E+02  0.31332864000E+02  0.55238424412E+02  0.66268971988E+02  0.41800000000E+01 0.  1.
        -11    1    1    2    0    0  0.10265741414E+01 -0.35194639823E+02 -0.50267363285E+02  0.61372015922E+02  0.00000000000E+00 0. -1.
         11    1    1    2    0    0 -0.57080583442E+02  0.22409844377E+02 -0.54617094718E+01  0.61564798395E+02  0.00000000000E+00 0.  1.
</event>
<event>
 7    1  0.2794945E-009  0.1158804E+03  0.7561462E-02  0.1250052E+00
         -1   -1    0    0    0  501 -0.00000000000E+00  0.00000000000E+00  0.64337273991E+02  0.64337273991E+02  0.00000000000E+00 0.  1.
          1   -1    0    0  501    0  0.00000000000E+00 -0.00000000000E+00 -0.36776607588E+03  0.36776607588E+03  0.00000000000E+00 0. -1.
         25    2    1    2    0    0  0.59568698882E+02 -0.13912658832E+02 -0.28652492677E+03  0.31856883341E+03  0.12509027139E+03 0.  0.
          5    1    3    3  502    0  0.96260839247E+02 -0.20290019867E+02 -0.23553602616E+03  0.25528910298E+03  0.41800000000E+01 0.  1.
         -5    1    3    3    0  502 -0.36692140365E+02  0.63773610354E+01 -0.50988900601E+02  0.63279730426E+02  0.41800000000E+01 0.  1.
        -11    1    1    2    0    0 -0.59358784398E+02  0.38810928151E+02  0.15573813566E+02  0.72610585304E+02  0.00000000000E+00 0.  1.
         11    1    1    2    0    0 -0.20991448345E+00 -0.24898269319E+02 -0.32477688689E+02  0.40923931162E+02  0.00000000000E+00 0. -1.
</event>
<event>
 6    1  0.2794945E-009  0.1159061E+03  0.7561462E-02  0.1250008E+00
          1   -1    0    0  501    0  0.00000000000E+00  0.00000000000E+00  0.89582120716E+02  0.89582120716E+02  0.00000000000E+00 0. -1.
         -1   -1    0    0    0  501 -0.00000000000E+00 -0.00000000000E+00 -0.23260492473E+03  0.23260492473E+03  0.00000000000E+00 0.  1.
          5    1    1    2  502    0 -0.47581136102E+02 -0.61889467391E+02  0.11772434049E+02  0.79059049388E+02  0.41800000000E+01 0.  1.
         -5    1    1    2    0  502 -0.39953501006E+02  0.51347112467E+02 -0.39947080779E+02  0.76459465497E+02  0.41800000000E+01 0.  1.
        -11    1    1    2    0    0  0.68513649468E+02  0.11122783958E+02 -0.23381068671E+02  0.73242821209E+02  0.00000000000E+00 0. -1.
         11    1    1    2    0    0  0.19020987640E+02 -0.58042903350E+00 -0.91467088613E+02  0.93425709352E+02  0.00000000000E+00 0.  1.
</event>
<event>
 7    1  0.2794945E-009  0.1199544E+03  0.7561462E-02  0.1243172E+00
         -1   -1    0    0    0  501 -0.00000000000E+00  0.00000000000E+00  0.21628169267E+03  0.21628169267E+03  0.00000000000E+00 0.  1.
          1   -1    0    0  501    0  0.00000000000E+00 -0.00000000000E+00 -0.91444622780E+02  0.91444622780E+02  0.00000000000E+00 0. -1.
         25    2    1    2    0    0 -0.89381678326E+02 -0.11604030110E+02  0.86923426405E+02  0.17700547358E+03  0.12510602577E+03 0.  0.
          5    1    3    3  502    0 -0.88015760838E+02  0.40533994406E+02  0.34515404282E+02  0.10294932924E+03  0.41800000000E+01 0.  1.
         -5    1    3    3    0  502 -0.13659174883E+01 -0.52138024516E+02  0.52408022124E+02  0.74056144336E+02  0.41800000000E+01 0.  1.
        -11    1    1    2    0    0  0.12360333845E+02  0.48498465263E+01  0.50650413053E+02  0.52361848769E+02  0.00000000000E+00 0.  1.
         11    1    1    2    0    0  0.77021344481E+02  0.67541835837E+01 -0.12736769567E+02  0.78358993106E+02  0.00000000000E+00 0. -1.
</event>
<event>
 7    1  0.2794945E-009  0.1092728E+03  0.7561462E-02  0.1261923E+00
          2   -1    0    0  501    0  0.00000000000E+00  0.00000000000E+00  0.26689152716E+02  0.26689152716E+02  0.00000000000E+00 0. -1.
         -2   -1    0    0    0  501 -0.00000000000E+00 -0.00000000000E+00 -0.49719959483E+03  0.49719959483E+03  0.00000000000E+00 0.  1.
         25    2    1    2    0    0 -0.36887190296E+02  0.10458581148E+02 -0.27048972409E+03  0.30047056052E+03  0.12509124739E+03 0.  0.
          5    1    3    3  502    0  0.22517707742E+02 -0.44230966666E+02 -0.95699219917E+02  0.10788530329E+03  0.41800000000E+01 0. -1.
         -5    1    3    3    0  502 -0.59404898038E+02  0.54689547814E+02 -0.17479050417E+03  0.19258525722E+03  0.41800000000E+01 0. -1.
        -11    1    1    2    0    0  0.15435277564E+02  0.34650478304E+02 -0.37284601830E+02  0.53188767365E+02  0.00000000000E+00 0. -1.
         11    1    1    2    0    0  0.21451912732E+02 -0.45109059452E+02 -0.16273611619E+03  0.17022941966E+03  0.00000000000E+00 0.  1.
</event>
<event>
 7    1  0.2794945E-009  0.8037215E+02  0.7561462E-02  0.1327999E+00
          2   -1    0    0  501    0  0.00000000000E+00  0.00000000000E+00  0.15377883571E+02  0.15377883571E+02  0.00000000000E+00 0.  1.
         -2   -1    0    0    0  501 -0.00000000000E+00 -0.00000000000E+00 -0.80635320697E+03  0.80635320697E+03  0.00000000000E+00 0. -1.
         25    2    1    2    0    0 -0.58330343075E+02  0.47558776963E+01 -0.57004185162E+03  0.58653262616E+03  0.12509101350E+03 0.  0.
          5    1    3    3  502    0 -0.69961932323E+02 -0.16635669405E+02 -0.55006331524E+03  0.55475989459E+03  0.41800000000E+01 0.  1.
         -5    1    3    3    0  502  0.11631589248E+02  0.21391547101E+02 -0.19978536380E+02  0.31772731575E+02  0.41800000000E+01 0.  1.
        -11    1    1    2    0    0  0.28791091142E+02  0.10639857016E+02 -0.36089604782E+02  0.47377136466E+02  0.00000000000E+00 0.  1.
         11    1    1    2    0    0  0.29539251933E+02 -0.15395734712E+02 -0.18484386699E+03  0.18782132791E+03  0.00000000000E+00 0. -1.
</event>
<event>
 7    1  0.2794945E-009  0.1872791E+03  0.7561462E-02  0.1160939E+00
         -1   -1    0    0    0  501 -0.00000000000E+00  0.00000000000E+00  0.27886066326E+02  0.27886066326E+02  0.00000000000E+00 0.  1.
          1   -1    0    0  501    0  0.00000000000E+00 -0.00000000000E+00 -0.15424930479E+04  0.15424930479E+04  0.00000000000E+00 0. -1.
         25    2    1    2    0    0  0.13826420924E+00 -0.16967369380E+03 -0.59872619661E+03  0.63475166321E+03  0.12508970363E+03 0.  0.
          5    1    3    3  502    0  0.39746563341E+02 -0.72585371613E+02 -0.12806704725E+03  0.15253545968E+03  0.41800000000E+01 0.  1.
         -5    1    3    3    0  502 -0.39608299132E+02 -0.97088322183E+02 -0.47065914936E+03  0.48221620352E+03  0.41800000000E+01 0.  1.
        -11    1    1    2    0    0 -0.16678905598E+02  0.16939528320E+03 -0.87713130259E+03  0.89349441512E+03  0.00000000000E+00 0.  1.
         11    1    1    2    0    0  0.16540641389E+02  0.27841059468E+00 -0.38749482381E+02  0.42133035907E+02  0.00000000000E+00 0. -1.
</event>
<event>
 7    1  0.2794945E-009  0.1228581E+03  0.7561462E-02  0.1238455E+00
          1   -1    0    0  501    0  0.00000000000E+00  0.00000000000E+00  0.24365314366E+03  0.24365314366E+03  0.00000000000E+00 0. -1.
         -1   -1    0    0    0  501 -0.00000000000E+00 -0.00000000000E+00 -0.90876805428E+02  0.90876805428E+02  0.00000000000E+00 0.  1.
         25    2    1    2    0    0 -0.79454051954E+01 -0.45363846890E+02  0.61637486799E+02  0.14685954625E+03  0.12509012142E+03 0.  0.
          5    1    3    3  502    0  0.21878921634E+02 -0.72803321884E+02  0.39518042911E+01  0.76237130365E+02  0.41800000000E+01 0. -1.
         -5    1    3    3    0  502 -0.29824326829E+02  0.27439474994E+02  0.57685682508E+02  0.70622415883E+02  0.41800000000E+01 0. -1.
        -11    1    1    2    0    0  0.24422799395E+02 -0.37280924644E+02  0.93270817710E+02  0.10337207509E+03  0.00000000000E+00 0. -1.
         11    1    1    2    0    0 -0.16477394200E+02  0.82644771534E+02 -0.21319662725E+01  0.84298327751E+02  0.00000000000E+00 0.  1.
</event>
<event>
 7    1  0.2794945E-009  0.1319199E+03  0.7561462E-02  0.1224634E+00
          2   -1    0    0  501    0  0.00000000000E+00  0.00000000000E+00  0.13978173586E+04  0.13978173586E+04  0.00000000000E+00 0. -1.
         -2   -1    0    0    0  501 -0.00000000000E+00 -0.00000000000E+00 -0.15707602890E+02  0.15707602890E+02  0.00000000000E+00 0.  1.
         25    2    1    2    0    0  0.68466200030E+02  0.36620332117E+02  0.10524772223E+04  0.10627250925E+04  0.12509056583E+03 0.  0.
          5    1    3    3  502    0  0.20527425261E+02 -0.44741617066E+02  0.47503267572E+03  0.47759470567E+03  0.41800000000E+01 0.  1.
         -5    1    3    3    0  502  0.47938774769E+02  0.81361949183E+02  0.57744454656E+03  0.58513038688E+03  0.41800000000E+01 0.  1.
        -11    1    1    2    0    0  0.51492485312E+01  0.24000524396E+02  0.73495231620E+02  0.77486056827E+02  0.00000000000E+00 0.  1.
         11    1    1    2    0    0 -0.73615448561E+02 -0.60620856514E+02  0.25613730185E+03  0.27331381215E+03  0.00000000000E+00 0. -1.
</event>
<event>
 7    1  0.2794945E-009  0.1821945E+03  0.7561462E-02  0.1165696E+00
          1   -1    0    0  501    0  0.00000000000E+00  0.00000000000E+00  0.12630144069E+04  0.12630144069E+04  0.00000000000E+00 0. -1.
         -1   -1    0    0    0  501 -0.00000000000E+00 -0.00000000000E+00 -0.31965971491E+02  0.31965971491E+02  0.00000000000E+00 0.  1.
         25    2    1    2    0    0  0.13295839168E+03 -0.99403582501E+02  0.74694188126E+03  0.77532534157E+03  0.12509278624E+03 0.  0.
          5    1    3    3  502    0  0.25351952046E+02 -0.85359415790E+02  0.22124603785E+03  0.23852931267E+03  0.41800000000E+01 0. -1.
         -5    1    3    3    0  502  0.10760643964E+03 -0.14044166711E+02  0.52569584341E+03  0.53679602891E+03  0.41800000000E+01 0. -1.
        -11    1    1    2    0    0 -0.85533718148E+02  0.72475386535E+02  0.42365963974E+03  0.43824215787E+03  0.00000000000E+00 0. -1.
         11    1    1    2    0    0 -0.47424673535E+02  0.26928195966E+02  0.60446914434E+02  0.81412878972E+02  0.00000000000E+00 0.  1.
</event>
<event>
 7    1  0.2794945E-009  0.2351857E+03  0.7561462E-02  0.1123042E+00
         -1   -1    0    0    0  501 -0.00000000000E+00  0.00000000000E+00  0.24942253394E+03  0.24942253394E+03  0.00000000000E+00 0.  1.
          1   -1    0    0  501    0  0.00000000000E+00 -0.00000000000E+00 -0.30837298136E+03  0.30837298136E+03  0.00000000000E+00 0. -1.
         25    2    1    2    0    0 -0.20183089749E+03 -0.52815136131E+02 -0.17716442134E+03  0.30093629415E+03  0.12510104382E+03 0.  0.
          5    1    3    3  502    0 -0.66828366770E+02  0.40424303780E+02 -0.45182095242E+02  0.90327454695E+02  0.41800000000E+01 0. -1.
         -5    1    3    3    0  502 -0.13500253072E+03 -0.93239439911E+02 -0.13198232610E+03  0.21060883945E+03  0.41800000000E+01 0. -1.
        -11    1    1    2    0    0  0.14181729921E+03  0.79245503842E+02  0.85172895980E+02  0.18342960078E+03  0.00000000000E+00 0. -1.
         11    1    1    2    0    0  0.60013598278E+02 -0.26430367712E+02  0.33041077936E+02  0.73429620364E+02  0.00000000000E+00 0.  1.
</event>
<event>
 7    1  0.2794945E-009  0.1221682E+03  0.7561462E-02  0.1239562E+00
          2   -1    0    0  501    0  0.00000000000E+00  0.00000000000E+00  0.12645027723E+03  0.12645027723E+03  0.00000000000E+00 0. -1.
         -2   -1    0    0    0  501 -0.00000000000E+00 -0.00000000000E+00 -0.15390464431E+03  0.15390464431E+03  0.00000000000E+00 0.  1.
         25    2    1    2    0    0 -0.43238626194E+02  0.75681701783E+02 -0.96500632336E-01  0.15246296700E+03  0.12509056005E+03 0.  0.
          5    1    3    3  502    0 -0.30173696735E+02 -0.31639678017E+02  0.46409551814E+01  0.44164828366E+02  0.41800000000E+01 0. -1.
         -5    1    3    3    0  502 -0.13064929459E+02  0.10732137980E+03 -0.47374558138E+01  0.10829813863E+03  0.41800000000E+01 0. -1.
        -11    1    1    2    0    0  0.10421971955E+02 -0.48507520046E+02  0.28825196775E+02  0.57380214095E+02  0.00000000000E+00 0. -1.
         11    1    1    2    0    0  0.32816654238E+02 -0.27174181737E+02 -0.56183063221E+02  0.70511740451E+02  0.00000000000E+00 0.  1.
</event>
<event>
 7    1  0.2794945E-009  0.8839934E+02  0.7561462E-02  0.1306775E+00
          1   -1    0    0  501    0  0.00000000000E+00  0.00000000000E+00  0.19851619319E+03  0.19851619319E+03  0.00000000000E+00 0. -1.
         -1   -1    0    0    0  501 -0.00000000000E+00 -0.00000000000E+00 -0.83523772124E+02  0.83523772124E+02  0.00000000000E+00 0.  1.
         25    2    1    2    0    0 -0.55023157707E+02  0.23160938547E+02  0.25350309777E+02  0.14090525147E+03  0.12509066603E+03 0.  0.
          5    1    3    3  502    0  0.55157615415E+01 -0.16521038224E+02 -0.39663180818E+02  0.43520209581E+02  0.41800000000E+01 0.  1.
         -5    1    3    3    0  502 -0.60538919248E+02  0.39681976771E+02  0.65013490595E+02  0.97385041888E+02  0.41800000000E+01 0.  1.
        -11    1    1    2    0    0  0.15319261937E+02  0.21643029049E+02 -0.70259743030E+01  0.27431091987E+02  0.00000000000E+00 0.  1.
         11    1    1    2    0    0  0.39703895770E+02 -0.44803967596E+02  0.96668085595E+02  0.11370362186E+03  0.00000000000E+00 0. -1.
</event>
<event>
 7    1  0.2794945E-009  0.1613305E+03  0.7561462E-02  0.1187203E+00
         -2   -1    0    0    0  501 -0.00000000000E+00  0.00000000000E+00  0.13881472717E+03  0.13881472717E+03  0.00000000000E+00 0.  1.
          2   -1    0    0  501    0  0.00000000000E+00 -0.00000000000E+00 -0.26475770930E+03  0.26475770930E+03  0.00000000000E+00 0. -1.
         25    2    1    2    0    0 -0.15157522057E+03 -0.31146732243E+01 -0.20103742421E+02  0.19755547922E+03  0.12505701992E+03 0.  0.
          5    1    3    3  502    0 -0.10728723062E+03 -0.38047841770E+02  0.34415457418E+02  0.11899615215E+03  0.41800000000E+01 0.  1.
         -5    1    3    3    0  502 -0.44287989950E+02  0.34933168545E+02 -0.54519199839E+02  0.78559327069E+02  0.41800000000E+01 0.  1.
        -11    1    1    2    0    0  0.10758083886E+03 -0.38319555376E+01 -0.11812101520E+03  0.15981519016E+03  0.00000000000E+00 0. -1.
         11    1    1    2    0    0  0.43994381710E+02  0.69466287620E+01  0.12281775494E+02  0.46201767093E+02  0.00000000000E+00 0.  1.
</event>
<event>
 7    1  0.2794945E-009  0.1088467E+03  0.7561462E-02  0.1262721E+00
          2   -1    0    0  501    0  0.00000000000E+00  0.00000000000E+00  0.14020801221E+03  0.14020801221E+03  0.00000000000E+00 0.  1.
         -2   -1    0    0    0  501 -0.00000000000E+00 -0.00000000000E+00 -0.13000405296E+03  0.13000405296E+03  0.00000000000E+00 0. -1.
         25    2    1    2    0    0 -0.36057410195E+02  0.67274997349E+02  0.38280767489E+02  0.15145659659E+03  0.12509045285E+03 0.  0.
          5    1    3    3  502    0 -0.50839480373E+02 -0.18467481313E+02  0.34449592485E+02  0.64264667221E+02  0.41800000000E+01 0. -1.
         -5    1    3    3    0  502  0.14782070178E+02  0.85742478662E+02  0.38311750040E+01  0.87191929372E+02  0.41800000000E+01 0. -1.
        -11    1    1    2    0    0  0.11678232875E+02 -0.22741127703E+02  0.31442710676E+02  0.40523870335E+02  0.00000000000E+00 0.  1.
         11    1    1    2    0    0  0.24379177320E+02 -0.44533869646E+02 -0.59519518913E+02  0.78231598246E+02  0.00000000000E+00 0. -1.
</event>
<event>
 7    1  0.2794945E-009  0.1980990E+03  0.7561462E-02  0.1151353E+00
         -2   -1    0    0    0  501 -0.00000000000E+00  0.00000000000E+00  0.34819122251E+03  0.34819122251E+03  0.00000000000E+00 0.  1.
          2   -1    0    0  501    0  0.00000000000E+00 -0.00000000000E+00 -0.11363945014E+03  0.11363945014E+03  0.00000000000E+00 0. -1.
         25    2    1    2    0    0  0.14091888364E+03  0.88393992885E+02  0.13521708812E+03  0.24820046681E+03  0.12509268987E+03 0.  0.
          5    1    3    3  502    0  0.14498977915E+03  0.29546792847E+02  0.10716783118E+03  0.18274973452E+03  0.41800000000E+01 0.  1.
         -5    1    3    3    0  502 -0.40708955106E+01  0.58847200038E+02  0.28049256944E+02  0.65450732293E+02  0.41800000000E+01 0.  1.
        -11    1    1    2    0    0 -0.12881054021E+03 -0.33880989159E+02  0.66841375654E+02  0.14902297204E+03  0.00000000000E+00 0.  1.
         11    1    1    2    0    0 -0.12108343433E+02 -0.54513003726E+02  0.32493308591E+02  0.64607233798E+02  0.00000000000E+00 0. -1.
</event>
<event>
 7    1  0.2794945E-009  0.1136835E+03  0.7561462E-02  0.1253897E+00
          2   -1    0    0  501    0  0.00000000000E+00  0.00000000000E+00  0.56835070845E+03  0.56835070845E+03  0.00000000000E+00 0. -1.
         -2   -1    0    0    0  501 -0.00000000000E+00 -0.00000000000E+00 -0.22931132941E+02  0.22931132941E+02  0.00000000000E+00 0.  1.
         25    2    1    2    0    0  0.11897206399E+02  0.31419166488E+02  0.31479862529E+03  0.34040384769E+03  0.12509155644E+03 0.  0.
          5    1    3    3  502    0  0.39403489600E+02 -0.37464088306E+02  0.15102608534E+03  0.16056943594E+03  0.41800000000E+01 0. -1.
         -5    1    3    3    0  502 -0.27506283201E+02  0.68883254794E+02  0.16377253995E+03  0.17983441175E+03  0.41800000000E+01 0. -1.
        -11    1    1    2    0    0  0.25543925993E+02  0.21727764121E+02  0.70796234979E+02  0.78337058766E+02  0.00000000000E+00 0.  1.
         11    1    1    2    0    0 -0.37441132392E+02 -0.53146930609E+02  0.15982471524E+03  0.17254093494E+03  0.00000000000E+00 0. -1.
</event>
<event>
 7    1  0.2794945E-009  0.1182962E+03  0.7561462E-02  0.1245935E+00
          2   -1    0    0  501    0  0.00000000000E+00  0.00000000000E+00  0.32043072879E+03  0.32043072879E+03  0.00000000000E+00 0. -1.
         -2   -1    0    0    0  501 -0.00000000000E+00 -0.00000000000E+00 -0.81189369529E+02  0.81189369529E+02  0.00000000000E+00 0.  1.
         25    2    1    2    0    0 -0.55798071342E+02  0.61995666523E+02  0.23405356777E+03  0.27818067584E+03  0.12508608393E+03 0.  0.
          5    1    3    3  502    0 -0.72530256993E+01 -0.18468498618E+02  0.15202633339E+03  0.15337265163E+03  0.41800000000E+01 0.  1.
         -5    1    3    3    0  502 -0.48545045642E+02  0.80464165142E+02  0.82027234377E+02  0.12480802421E+03  0.41800000000E+01 0.  1.
        -11    1    1    2    0    0 -0.21664148820E+02 -0.33125956629E+02  0.93396526815E+01  0.40668088951E+02  0.00000000000E+00 0. -1.
         11    1    1    2    0    0  0.77462220162E+02 -0.28869709894E+02 -0.41518611931E+01  0.82771333523E+02  0.00000000000E+00 0.  1.
</event>
<event>
 7    1  0.2794945E-009  0.1846568E+03  0.7561462E-02  0.1163371E+00
          1   -1    0    0  501    0  0.00000000000E+00  0.00000000000E+00  0.19867816454E+04  0.19867816454E+04  0.00000000000E+00 0. -1.
         -1   -1    0    0    0  501 -0.00000000000E+00 -0.00000000000E+00 -0.19295604547E+02  0.19295604547E+02  0.00000000000E+00 0.  1.
         25    2    1    2    0    0 -0.14571432804E+03 -0.67543207441E+02  0.11328959649E+04  0.11510410590E+04  0.12508997534E+03 0.  0.
          5    1    3    3  502    0  0.11690677941E+02 -0.96671349138E+01  0.19402689509E+02  0.24981237126E+02  0.41800000000E+01 0. -1.
         -5    1    3    3    0  502 -0.15740500598E+03 -0.57876072527E+02  0.11134932754E+04  0.11260598219E+04  0.41800000000E+01 0. -1.
        -11    1    1    2    0    0  0.39167078351E+02  0.68908944020E+02  0.34641368946E+03  0.35536593370E+03  0.00000000000E+00 0.  1.
         11    1    1    2    0    0  0.10654724969E+03 -0.13657365793E+01  0.48817638649E+03  0.49967025724E+03  0.00000000000E+00 0. -1.
</event>
<event>
 6    1  0.2794945E-009  0.8219627E+02  0.7561462E-02  0.1322932E+00
          3   -1    0    0  501    0  0.00000000000E+00  0.00000000000E+00  0.40679226437E+03  0.40679226437E+03  0.00000000000E+00 0. -1.
         -3   -1    0    0    0  501 -0.00000000000E+00 -0.00000000000E+00 -0.34850809512E+02  0.34850809512E+02  0.00000000000E+00 0.  1.
          5    1    1    2  502    0 -0.25729879617E+01  0.27535427943E+02 -0.12867816931E+02  0.30787548970E+02  0.41800000000E+01 0. -1.
         -5    1    1    2    0  502  0.30261805331E+02 -0.38870346484E+02  0.14699294509E+03  0.15508410300E+03  0.41800000000E+01 0. -1.
        -11    1    1    2    0    0 -0.56574921242E+02  0.13004657348E+02  0.10638087180E+03  0.12118883080E+03  0.00000000000E+00 0.  1.
         11    1    1    2    0    0  0.28886103873E+02 -0.16697388060E+01  0.13143545490E+03  0.13458259110E+03  0.00000000000E+00 0. -1.
</event>
<event>
 7    1  0.2794945E-009  0.2137840E+03  0.7561462E-02  0.1138604E+00
          2   -1    0    0  501    0  0.00000000000E+00  0.00000000000E+00  0.52403617349E+02  0.52403617349E+02  0.00000000000E+00 0.  1.
         -2   -1    0    0    0  501 -0.00000000000E+00 -0.00000000000E+00 -0.11603984791E+04  0.11603984791E+04  0.00000000000E+00 0. -1.
         25    2    1    2    0    0 -0.14210220997E+03  0.13343928628E+03 -0.31445014676E+03  0.39054495372E+03  0.12508950747E+03 0.  0.
          5    1    3    3  502    0 -0.15939265552E+03  0.11465074324E+03 -0.23111711974E+03  0.30328766377E+03  0.41800000000E+01 0. -1.
         -5    1    3    3    0  502  0.17290445552E+02  0.18788543041E+02 -0.83333027021E+02  0.87257289951E+02  0.41800000000E+01 0. -1.
        -11    1    1    2    0    0  0.54931605301E+02 -0.95640923369E+02 -0.29958508283E+03  0.31924268094E+03  0.00000000000E+00 0.  1.
         11    1    1    2    0    0  0.87170604667E+02 -0.37798362910E+02 -0.49395963213E+03  0.50301446175E+03  0.00000000000E+00 0. -1.
</event>
<event>
 7    1  0.2794945E-009  0.8953019E+02  0.7561462E-02  0.1303993E+00
          2   -1    0    0  501    0  0.00000000000E+00  0.00000000000E+00  0.24511364261E+03  0.24511364261E+03  0.00000000000E+00 0. -1.
         -2   -1    0    0    0  501 -0.00000000000E+00 -0.00000000000E+00 -0.76743531471E+02  0.76743531471E+02  0.00000000000E+00 0.  1.
         25    2    1    2    0    0 -0.63294862873E+02 -0.55345833920E+01  0.15511196317E+03  0.20914975881E+03  0.12508808581E+03 0.  0.
          5    1    3    3  502    0 -0.25352116794E+02  0.10642894436E+02  0.16433972880E+03  0.16667639272E+03  0.41800000000E+01 0. -1.
         -5    1    3    3    0  502 -0.37942746079E+02 -0.16177477828E+02 -0.92277656243E+01  0.42473366093E+02  0.41800000000E+01 0. -1.
        -11    1    1    2    0    0  0.76956615236E+02  0.29326245778E+02  0.27534083976E+00  0.82355480282E+02  0.00000000000E+00 0.  1.
         11    1    1    2    0    0 -0.13661752363E+02 -0.23791662386E+02  0.12982807129E+02  0.30351934990E+02  0.00000000000E+00 0. -1.
</event>
<event>
 7    1  0.2794945E-009  0.1046730E+03  0.7561462E-02  0.1270765E+00
         -1   -1    0    0    0  501 -0.00000000000E+00  0.00000000000E+00  0.40786315921E+02  0.40786315921E+02  0.00000000000E+00 0.  1.
          1   -1    0    0  501    0  0.00000000000E+00 -0.00000000000E+00 -0.32869925781E+03  0.32869925781E+03  0.00000000000E+00 0. -1.
         25    2    1    2    0    0  0.42102281292E+02  0.18462258333E+01 -0.15288128837E+03  0.20197994580E+03  0.12508876661E+03 0.  0.
          5    1    3    3  502    0 -0.16184121416E+02  0.39195946679E+02 -0.10926876092E+02  0.43989965256E+02  0.41800000000E+01 0. -1.
         -5    1    3    3    0  502  0.58286402708E+02 -0.37349720846E+02 -0.14195441228E+03  0.15798998055E+03  0.41800000000E+01 0. -1.
        -11    1    1    2    0    0  0.18445335527E+02 -0.26265941991E+02 -0.60012594440E+02  0.68056165061E+02  0.00000000000E+00 0. -1.
         11    1    1    2    0    0 -0.60547616819E+02  0.24419716158E+02 -0.75019059081E+02  0.99449462870E+02  0.00000000000E+00 0.  1.
</event>
<event>
 7    1  0.2794945E-009  0.1039354E+03  0.7561462E-02  0.1272231E+00
          1   -1    0    0  501    0  0.00000000000E+00  0.00000000000E+00  0.60359647567E+02  0.60359647567E+02  0.00000000000E+00 0. -1.
         -1   -1    0    0    0  501 -0.00000000000E+00 -0.00000000000E+00 -0.35772617410E+03  0.35772617410E+03  0.00000000000E+00 0.  1.
         25    2    1    2    0    0  0.13191687744E+02 -0.73162186785E+02 -0.25263190944E+03  0.29153982697E+03  0.12508342351E+03 0.  0.
          5    1    3    3  502    0  0.33801882991E+02 -0.31583056865E+02 -0.14161603690E+02  0.48560067893E+02  0.41800000000E+01 0.  1.
         -5    1    3    3    0  502 -0.20610195247E+02 -0.41579129920E+02 -0.23847030575E+03  0.24297975907E+03  0.41800000000E+01 0.  1.
        -11    1    1    2    0    0 -0.45834599045E+02  0.15171896078E+02 -0.34211043709E+02  0.59172564689E+02  0.00000000000E+00 0.  1.
         11    1    1    2    0    0  0.32642911302E+02  0.57990290707E+02 -0.10523573377E+02  0.67373430009E+02  0.00000000000E+00 0. -1.
</event>
<event>
 7    1  0.3253964E-009  0.1550882E+03  0.7561462E-02  0.1194356E+00
          2   -1    0    0  501    0  0.00000000000E+00  0.00000000000E+00  0.68117902934E+03  0.68117902934E+03  0.00000000000E+00 0. -1.
         -2   -1    0    0    0  501 -0.00000000000E+00 -0.00000000000E+00 -0.45791303624E+02  0.45791303624E+02  0.00000000000E+00 0.  1.
         25    2    1    2    0    0 -0.25054061988E+02  0.13377592743E+03  0.27720717816E+03  0.33318442987E+03  0.12507733568E+03 0.  0.
          5    1    3    3  502    0  0.83556596626E+01 -0.15391743573E+02  0.88413121617E+02  0.90227907505E+02  0.41800000000E+01 0. -1.
         -5    1    3    3    0  502 -0.33409721650E+02  0.14916767100E+03  0.18879405654E+03  0.24295652236E+03  0.41800000000E+01 0. -1.
        -11    1    1    2    0    0 -0.42578528904E+00 -0.77206289519E+02  0.90265104912E+02  0.11878039232E+03  0.00000000000E+00 0.  1.
         11    1    1    2    0    0  0.25479847277E+02 -0.56569637910E+02  0.26791544264E+03  0.27500551077E+03  0.00000000000E+00 0. -1.
</event>
<event>
 7    1  0.2794945E-009  0.1253994E+03  0.7561462E-02  0.1234446E+00
         -2   -1    0    0    0  501 -0.00000000000E+00  0.00000000000E+00  0.74277310225E+02  0.74277310225E+02  0.00000000000E+00 0. -1.
          2   -1    0    0  501    0  0.00000000000E+00 -0.00000000000E+00 -0.22358195391E+03  0.22358195391E+03  0.00000000000E+00 0.  1.
         25    2    1    2    0    0 -0.13460880954E+02 -0.59127603027E+02 -0.51307366492E+02  0.14818555748E+03  0.12509694175E+03 0.  0.
          5    1    3    3  502    0  0.24982968899E+02  0.30912158179E+02 -0.67194769859E+01  0.40525720589E+02  0.41800000000E+01 0.  1.
         -5    1    3    3    0  502 -0.38443849852E+02 -0.90039761206E+02 -0.44587889506E+02  0.10765983689E+03  0.41800000000E+01 0.  1.
        -11    1    1    2    0    0 -0.38666885735E+02  0.43972883731E+02 -0.45490893600E+02  0.74149605236E+02  0.00000000000E+00 0.  1.
         11    1    1    2    0    0  0.52127766689E+02  0.15154719296E+02 -0.52506383595E+02  0.75524101419E+02  0.00000000000E+00 0. -1.
</event>
<event>
 7    1  0.2794945E-009  0.6160490E+02  0.7561462E-02  0.1391217E+00
         -2   -1    0    0    0  501 -0.00000000000E+00  0.00000000000E+00  0.89323966315E+02  0.89323966315E+02  0.00000000000E+00 0.  1.
          2   -1    0    0  501    0  0.00000000000E+00 -0.00000000000E+00 -0.19916649399E+03  0.19916649399E+03  0.00000000000E+00 0. -1.
         25    2    1    2    0    0  0.16379013952E+01 -0.53290577676E+02 -0.11804000332E+03  0.18006489674E+03  0.12508939310E+03 0.  0.
          5    1    3    3  502    0 -0.33986858621E+01 -0.54865652606E+02 -0.14350234444E+03  0.15372763630E+03  0.41800000000E+01 0.  1.
         -5    1    3    3    0  502  0.50365872573E+01  0.15750749306E+01  0.25462341124E+02  0.26337260445E+02  0.41800000000E+01 0.  1.
        -11    1    1    2    0    0  0.10777427635E+02  0.57542640791E+01 -0.38652687911E+02  0.40537572501E+02  0.00000000000E+00 0. -1.
         11    1    1    2    0    0 -0.12415329030E+02  0.47536313597E+02  0.46850163554E+02  0.67887991061E+02  0.00000000000E+00 0.  1.
</event>
<event>
 7    1  0.2794945E-009  0.2204120E+03  0.7561462E-02  0.1133576E+00
          2   -1    0    0  501    0  0.00000000000E+00  0.00000000000E+00  0.94926615270E+03  0.94926615270E+03  0.00000000000E+00 0. -1.
         -2   -1    0    0    0  501 -0.00000000000E+00 -0.00000000000E+00 -0.59752105538E+02  0.59752105538E+02  0.00000000000E+00 0.  1.
         25    2    1    2    0    0  0.19003402289E+03  0.71955344157E+02  0.58957246209E+03  0.63603119768E+03  0.12509794151E+03 0.  0.
          5    1    3    3  502    0  0.10447935295E+03  0.96650708947E+02  0.28362482729E+03  0.31736069352E+03  0.41800000000E+01 0. -1.
         -5    1    3    3    0  502  0.85554669941E+02 -0.24695364790E+02  0.30594763479E+03  0.31867050417E+03  0.41800000000E+01 0. -1.
        -11    1    1    2    0    0 -0.26427654022E+02 -0.30803084533E+02  0.11838863166E+03  0.12515238320E+03  0.00000000000E+00 0. -1.
         11    1    1    2    0    0 -0.16360636887E+03 -0.41152259624E+02  0.18155295342E+03  0.24783467736E+03  0.00000000000E+00 0.  1.
</event>
<event>
 7    1  0.2794945E-009  0.1284724E+03  0.7561462E-02  0.1229740E+00
          2   -1    0    0  501    0  0.00000000000E+00  0.00000000000E+00  0.11220750776E+03  0.11220750776E+03  0.00000000000E+00 0. -1.
         -2   -1    0    0    0  501 -0.00000000000E+00 -0.00000000000E+00 -0.15920245114E+03  0.15920245114E+03  0.00000000000E+00 0.  1.
         25    2    1    2    0    0 -0.60857633670E+02 -0.49180380892E+02 -0.18269101068E+02  0.14867338606E+03  0.12509058409E+03 0.  0.
          5    1    3    3  502    0 -0.95214358670E+02 -0.12823080055E+02 -0.20892354093E+02  0.98408172113E+02  0.41800000000E+01 0. -1.
         -5    1    3    3    0  502  0.34356725000E+02 -0.36357300838E+02  0.26232530250E+01  0.50265213949E+02  0.41800000000E+01 0. -1.
        -11    1    1    2    0    0  0.78577275269E+02  0.29075322331E+02 -0.45918327497E+00  0.83785281563E+02  0.00000000000E+00 0.  1.
         11    1    1    2    0    0 -0.17719641599E+02  0.20105058562E+02 -0.28266659036E+02  0.38951291265E+02  0.00000000000E+00 0. -1.
</event>
<event>
 7    1  0.2794945E-009  0.2239853E+03  0.7561462E-02  0.1130946E+00
          1   -1    0    0  501    0  0.00000000000E+00  0.00000000000E+00  0.64305688962E+03  0.64305688962E+03  0.00000000000E+00 0. -1.
         -1   -1    0    0    0  501 -0.00000000000E+00 -0.00000000000E+00 -0.83649406557E+02  0.83649406557E+02  0.00000000000E+00 0.  1.
         25    2    1    2    0    0 -0.77154952691E+02  0.18591041473E+03  0.34352552700E+03  0.41733850216E+03  0.12508424622E+03 0.  0.
          5    1    3    3  502    0 -0.10413710777E+03  0.15767131170E+03  0.31972150440E+03  0.37140825586E+03  0.41800000000E+01 0. -1.
         -5    1    3    3    0  502  0.26982155079E+02  0.28239103037E+02  0.23804022606E+02  0.45930246301E+02  0.41800000000E+01 0. -1.
        -11    1    1    2    0    0  0.87647627076E+02 -0.18934436686E+03  0.19420867381E+03  0.28504456630E+03  0.00000000000E+00 0.  1.
         11    1    1    2    0    0 -0.10492674385E+02  0.34339521287E+01  0.21673282243E+02  0.24323227709E+02  0.00000000000E+00 0. -1.
</event>
<event>
 7    1  0.2794945E-009  0.8677204E+02  0.7561462E-02  0.1310862E+00
          2   -1    0    0  501    0  0.00000000000E+00  0.00000000000E+00  0.12392186047E+03  0.12392186047E+03  0.00000000000E+00 0. -1.
         -2   -1    0    0    0  501 -0.00000000000E+00 -0.00000000000E+00 -0.13471721582E+03  0.13471721582E+03  0.00000000000E+00 0.  1.
         25    2    1    2    0    0 -0.15571348469E+02  0.46141964186E+02  0.14933381146E+02  0.13506281075E+03  0.12508960477E+03 0.  0.
          5    1    3    3  502    0 -0.23902389907E+02  0.34573477327E+02  0.67947650724E+02  0.80006282357E+02  0.41800000000E+01 0. -1.
         -5    1    3    3    0  502  0.83310414378E+01  0.11568486859E+02 -0.53014269578E+02  0.55056528391E+02  0.41800000000E+01 0. -1.
        -11    1    1    2    0    0  0.60772160544E+02 -0.18762888630E+02 -0.30456801532E+02  0.70518921195E+02  0.00000000000E+00 0.  1.
         11    1    1    2    0    0 -0.45200812075E+02 -0.27379075556E+02  0.47280650336E+01  0.53057344350E+02  0.00000000000E+00 0. -1.
</event>
<event>
 7    1  0.2794945E-009  0.9205543E+02  0.7561462E-02  0.1297949E+00
         -2   -1    0    0    0  501 -0.00000000000E+00  0.00000000000E+00  0.71414122102E+02  0.71414122102E+02  0.00000000000E+00 0.  1.
          2   -1    0    0  501    0  0.00000000000E+00 -0.00000000000E+00 -0.33975696312E+03  0.33975696312E+03  0.00000000000E+00 0. -1.
         25    2    1    2    0    0 -0.40417660276E+02 -0.13641388799E+02 -0.91241675290E+01  0.13247751099E+03  0.12508943095E+03 0.  0.
          5    1    3    3  502    0 -0.51177524019E+02  0.27996207310E+02 -0.46991736778E+02  0.75024144873E+02  0.41800000000E+01 0.  1.
         -5    1    3    3    0  502  0.10759863744E+02 -0.41637596109E+02  0.37867569249E+02  0.57453366119E+02  0.41800000000E+01 0.  1.
        -11    1    1    2    0    0  0.55431586008E+02 -0.80758691586E+01 -0.23889682072E+03  0.24537638709E+03  0.00000000000E+00 0. -1.
         11    1    1    2    0    0 -0.15013925732E+02  0.21717257958E+02 -0.20321852767E+02  0.33317187141E+02  0.00000000000E+00 0.  1.
</event>
<event>
 7    1  0.3570734E-009  0.9516015E+02  0.7561462E-02  0.1290816E+00
         -2   -1    0    0    0  501 -0.00000000000E+00  0.00000000000E+00  0.91092398619E+02  0.91092398619E+02  0.00000000000E+00 0.  1.
          2   -1    0    0  501    0  0.00000000000E+00 -0.00000000000E+00 -0.23566906900E+03  0.23566906900E+03  0.00000000000E+00 0. -1.
         25    2    1    2    0    0  0.27069576195E+02 -0.57457950074E+02  0.52626469272E+01  0.14038918133E+03  0.12508896354E+03 0.  0.
          5    1    3    3  502    0  0.42923780629E+02 -0.69643451847E+02 -0.39681220305E+02  0.91020508533E+02  0.41800000000E+01 0.  1.
         -5    1    3    3    0  502 -0.15854204434E+02  0.12185501773E+02  0.44943867232E+02  0.49368672795E+02  0.41800000000E+01 0.  1.
        -11    1    1    2    0    0 -0.33755593115E+02  0.38740361149E+01 -0.84356388818E+01  0.35008687861E+02  0.00000000000E+00 0.  1.
         11    1    1    2    0    0  0.66860169204E+01  0.53583913959E+02 -0.14140367843E+03  0.15136359843E+03  0.00000000000E+00 0. -1.
</event>
<event>
 7    1  0.3383872E-009  0.1187114E+03  0.7561462E-02  0.1245238E+00
         -1   -1    0    0    0  501 -0.00000000000E+00  0.00000000000E+00  0.47265054530E+02  0.47265054530E+02  0.00000000000E+00 0.  1.
          1   -1    0    0  501    0  0.00000000000E+00 -0.00000000000E+00 -0.40813901491E+03  0.40813901491E+03  0.00000000000E+00 0. -1.
         25    2    1    2    0    0  0.49449848947E+02  0.63276326143E+02 -0.14639633529E+03  0.20863478843E+03  0.12508959568E+03 0.  0.
          5    1    3    3  502    0 -0.32320257745E+02 -0.12751679934E+02 -0.21580449851E+02  0.41114384558E+02  0.41800000000E+01 0.  1.
         -5    1    3    3    0  502  0.81770106692E+02  0.76028006077E+02 -0.12481588544E+03  0.16752040388E+03  0.41800000000E+01 0.  1.
        -11    1    1    2    0    0 -0.47158513118E+02 -0.26988420935E+02 -0.37316161154E+02  0.65915067377E+02  0.00000000000E+00 0.  1.
         11    1    1    2    0    0 -0.22913358295E+01 -0.36287905208E+02 -0.17716146394E+03  0.18085421363E+03  0.00000000000E+00 0. -1.
</event>
<event>
 7    1  0.2794945E-009  0.1044048E+03  0.7561462E-02  0.1271297E+00
         -1   -1    0    0    0  501 -0.00000000000E+00  0.00000000000E+00  0.40546467237E+02  0.40546467237E+02  0.00000000000E+00 0.  1.
          1   -1    0    0  501    0  0.00000000000E+00 -0.00000000000E+00 -0.46083752999E+03  0.46083752999E+03  0.00000000000E+00 0. -1.
         25    2    1    2    0    0  0.14703770898E+02  0.80089052131E+02 -0.19504726115E+03  0.24560608718E+03  0.12509380011E+03 0.  0.
          5    1    3    3  502    0 -0.80220061909E+01  0.58373480696E+02 -0.12568253281E+02  0.60392459980E+02  0.41800000000E+01 0.  1.
         -5    1    3    3    0  502  0.22725777089E+02  0.21715571435E+02 -0.18247900787E+03  0.18521362720E+03  0.41800000000E+01 0.  1.
        -11    1    1    2    0    0  0.32859841362E+02 -0.55470210075E+02 -0.15140730345E+03  0.16456270816E+03  0.00000000000E+00 0.  1.
         11    1    1    2    0    0 -0.47563612260E+02 -0.24618842056E+02 -0.73836498154E+02  0.91215201885E+02  0.00000000000E+00 0. -1.
</event>
<event>
 7    1  0.2794945E-009  0.1734870E+03  0.7561462E-02  0.1174260E+00
          2   -1    0    0  501    0  0.00000000000E+00  0.00000000000E+00  0.50279570987E+02  0.50279570987E+02  0.00000000000E+00 0. -1.
         -2   -1    0    0    0  501 -0.00000000000E+00 -0.00000000000E+00 -0.70760473767E+03  0.70760473767E+03  0.00000000000E+00 0.  1.
         25    2    1    2    0    0  0.14798811580E+03 -0.32155934758E+02 -0.40514435048E+03  0.45024860569E+03  0.12508947054E+03 0.  0.
          5    1    3    3  502    0  0.15327393443E+03 -0.15186266979E+02 -0.24744791930E+03  0.29149865668E+03  0.41800000000E+01 0. -1.
         -5    1    3    3    0  502 -0.52858186326E+01 -0.16969667779E+02 -0.15769643119E+03  0.15874994901E+03  0.41800000000E+01 0. -1.
        -11    1    1    2    0    0 -0.39069659001E+02 -0.29972328789E+02 -0.53656792615E+02  0.72827399660E+02  0.00000000000E+00 0.  1.
         11    1    1    2    0    0 -0.10891845679E+03  0.62128263547E+02 -0.19852402358E+03  0.23480830331E+03  0.00000000000E+00 0. -1.
</event>
<event>
 7    1  0.2794945E-009  0.1415981E+03  0.7561462E-02  0.1211195E+00
         -2   -1    0    0    0  501 -0.00000000000E+00  0.00000000000E+00  0.64957073852E+02  0.64957073852E+02  0.00000000000E+00 0.  1.
          2   -1    0    0  501    0  0.00000000000E+00 -0.00000000000E+00 -0.39623331897E+03  0.39623331897E+03  0.00000000000E+00 0. -1.
         25    2    1    2    0    0  0.36338224530E+02 -0.10555632056E+03 -0.12972287667E+03  0.21198412980E+03  0.12508654277E+03 0.  0.
          5    1    3    3  502    0 -0.12483930156E+02  0.62430763223E+01  0.16166454401E+02  0.21763528252E+02  0.41800000000E+01 0. -1.
         -5    1    3    3    0  502  0.48822154686E+02 -0.11179939688E+03 -0.14588933108E+03  0.19022060155E+03  0.41800000000E+01 0. -1.
        -11    1    1    2    0    0 -0.48705255704E+01  0.11390029124E+03 -0.15639124348E+03  0.19353350976E+03  0.00000000000E+00 0.  1.
         11    1    1    2    0    0 -0.31467698960E+02 -0.83439706791E+01 -0.45162124970E+02  0.55672753267E+02  0.00000000000E+00 0. -1.
</event>
<event>
 7    1  0.2794945E-009  0.1132317E+03  0.7561462E-02  0.1254700E+00
         -2   -1    0    0    0  501 -0.00000000000E+00  0.00000000000E+00  0.12562788083E+03  0.12562788083E+03  0.00000000000E+00 0.  1.
          2   -1    0    0  501    0  0.00000000000E+00 -0.00000000000E+00 -0.18314915750E+03  0.18314915750E+03  0.00000000000E+00 0. -1.
         25    2    1    2    0    0  0.74950008783E+02 -0.58744928189E+02 -0.72977837385E+02  0.17332696079E+03  0.12509196690E+03 0.  0.
          5    1    3    3  502    0  0.36556194994E+02 -0.66712361017E+02 -0.99858339762E+02  0.12560276639E+03  0.41800000000E+01 0. -1.
         -5    1    3    3    0  502  0.38393813789E+02  0.79674328278E+01  0.26880502377E+02  0.47724194401E+02  0.41800000000E+01 0. -1.
        -11    1    1    2    0    0 -0.65661951863E+02  0.70182215111E+02  0.42161309275E+02  0.10495051806E+03  0.00000000000E+00 0.  1.
         11    1    1    2    0    0 -0.92880569201E+01 -0.11437286923E+02 -0.26704748556E+02  0.30499559488E+02  0.00000000000E+00 0. -1.
</event>
<event>
 7    1  0.2794945E-009  0.3150033E+03  0.7561462E-02  0.1077972E+00
         -1   -1    0    0    0  501 -0.00000000000E+00  0.00000000000E+00  0.18704394139E+03  0.18704394139E+03  0.00000000000E+00 0.  1.
          1   -1    0    0  501    0  0.00000000000E+00 -0.00000000000E+00 -0.69641412142E+03  0.69641412142E+03  0.00000000000E+00 0. -1.
         25    2    1    2    0    0 -0.27883484668E+03  0.10488767229E+03 -0.47946094500E+02  0.32664271403E+03  0.12508532741E+03 0.  0.
          5    1    3    3  502    0 -0.15509782915E+03 -0.43207638952E+01 -0.18016142381E+01  0.15522475261E+03  0.41800000000E+01 0.  1.
         -5    1    3    3    0  502 -0.12373701752E+03  0.10920843619E+03 -0.46144480262E+02  0.17141796143E+03  0.41800000000E+01 0.  1.
        -11    1    1    2    0    0  0.20288748267E+03 -0.33815365730E+02 -0.33494808684E+03  0.39306110271E+03  0.00000000000E+00 0. -1.
         11    1    1    2    0    0  0.75947364007E+02 -0.71072306565E+02 -0.12647599869E+03  0.16375424606E+03  0.00000000000E+00 0.  1.
</event>
<event>
 7    1  0.2794945E-009  0.1766737E+03  0.7561462E-02  0.1171062E+00
         -2   -1    0    0    0  501 -0.00000000000E+00  0.00000000000E+00  0.43679054861E+02  0.43679054861E+02  0.00000000000E+00 0.  1.
          2   -1    0    0  501    0  0.00000000000E+00 -0.00000000000E+00 -0.10299226391E+04  0.10299226391E+04  0.00000000000E+00 0. -1.
         25    2    1    2    0    0  0.79826985481E+02 -0.13705641359E+03 -0.72831781372E+03  0.75581200571E+03  0.12509253407E+03 0.  0.
          5    1    3    3  502    0 -0.81268436497E+01  0.47955823177E+01 -0.19503274714E+01  0.10503303038E+02  0.41800000000E+01 0.  1.
         -5    1    3    3    0  502  0.87953829131E+02 -0.14185199591E+03 -0.72636748624E+03  0.74530870267E+03  0.41800000000E+01 0.  1.
        -11    1    1    2    0    0 -0.15238832923E+02 -0.80512159541E+01 -0.30927177800E+01  0.17510254437E+02  0.00000000000E+00 0.  1.
         11    1    1    2    0    0 -0.64588152558E+02  0.14510762954E+03 -0.25483305274E+03  0.30027943381E+03  0.00000000000E+00 0. -1.
</event>
<event>
 7    1  0.2794945E-009  0.1103235E+03  0.7561462E-02  0.1259972E+00
          2   -1    0    0  501    0  0.00000000000E+00  0.00000000000E+00  0.14377638646E+03  0.14377638646E+03  0.00000000000E+00 0.  1.
         -2   -1    0    0    0  501 -0.00000000000E+00 -0.00000000000E+00 -0.95468451826E+02  0.95468451826E+02  0.00000000000E+00 0. -1.
         25    2    1    2    0    0 -0.47502092487E+01 -0.27448523541E+02  0.64978461565E+02  0.14369709861E+03  0.12510263686E+03 0.  0.
          5    1    3    3  502    0  0.49517712058E+02  0.20842177396E+02  0.38658290037E+02  0.66319951407E+02  0.41800000000E+01 0.  1.
         -5    1    3    3    0  502 -0.54267921307E+02 -0.48290700937E+02  0.26320171529E+02  0.77377147203E+02  0.41800000000E+01 0.  1.
        -11    1    1    2    0    0  0.46657502093E+02  0.22495183157E+02 -0.11215812595E+02  0.52997643523E+02  0.00000000000E+00 0. -1.
         11    1    1    2    0    0 -0.41907292844E+02  0.49533403841E+01 -0.54547143331E+01  0.42550096156E+02  0.00000000000E+00 0.  1.
</event>
<event>
 7    1  0.2794945E-009  0.9230007E+02  0.7561462E-02  0.1297375E+00
          1   -1    0    0  501    0  0.00000000000E+00  0.00000000000E+00  0.11945020872E+03  0.11945020872E+03  0.00000000000E+00 0. -1.
         -1   -1    0    0    0  501 -0.00000000000E+00 -0.00000000000E+00 -0.11540916229E+03  0.11540916229E+03  0.00000000000E+00 0.  1.
         25    2    1    2    0    0  0.44026970378E+02 -0.19332236958E+02  0.69573949879E+01  0.13418970380E+03  0.12508541784E+03 0.  0.
          5    1    3    3  502    0 -0.23990234674E+02 -0.42470159541E+02  0.31428832600E+02  0.58176367451E+02  0.41800000000E+01 0. -1.
         -5    1    3    3    0  502  0.68017205052E+02  0.23137922583E+02 -0.24471437612E+02  0.76013336352E+02  0.41800000000E+01 0. -1.
        -11    1    1    2    0    0 -0.11677261177E+01 -0.11069187651E+02 -0.36599100299E+02  0.38254210778E+02  0.00000000000E+00 0.  1.
         11    1    1    2    0    0 -0.42859244260E+02  0.30401424609E+02  0.33682751736E+02  0.62415456430E+02  0.00000000000E+00 0. -1.
</event>
<event>
 7    1  0.2794945E-009  0.1032518E+03  0.7561462E-02  0.1273603E+00
          1   -1    0    0  501    0  0.00000000000E+00  0.00000000000E+00  0.43284374294E+03  0.43284374294E+03  0.00000000000E+00 0. -1.
         -1   -1    0    0    0  501 -0.00000000000E+00 -0.00000000000E+00 -0.38037156436E+02  0.38037156436E+02  0.00000000000E+00 0.  1.
         25    2    1    2    0    0  0.42429690917E+02  0.31420159545E+02  0.29699967414E+03  0.32656369660E+03  0.12509011312E+03 0.  0.
          5    1    3    3  502    0 -0.29896110215E+02 -0.79681668773E+01  0.18425212915E+03  0.18687853966E+03  0.41800000000E+01 0. -1.
         -5    1    3    3    0  502  0.72325801132E+02  0.39388326422E+02  0.11274754499E+03  0.13968515694E+03  0.41800000000E+01 0. -1.
        -11    1    1    2    0    0  0.41764720913E+01 -0.44277434570E+02  0.12391236515E+02  0.46167920395E+02  0.00000000000E+00 0.  1.
         11    1    1    2    0    0 -0.46606163008E+02  0.12857275025E+02  0.85415675846E+02  0.98149282379E+02  0.00000000000E+00 0. -1.
</event>
<event>
 7    1  0.2794945E-009  0.1026795E+03  0.7561462E-02  0.1274760E+00
         -2   -1    0    0    0  501 -0.00000000000E+00  0.00000000000E+00  0.91650721646E+02  0.91650721646E+02  0.00000000000E+00 0.  1.
          2   -1    0    0  501    0  0.00000000000E+00 -0.00000000000E+00 -0.12714371375E+03  0.12714371375E+03  0.00000000000E+00 0. -1.
         25    2    1    2    0    0  0.28299113112E+01 -0.17361883247E+02 -0.15955604518E+02  0.12732988546E+03  0.12509546366E+03 0.  0.
          5    1    3    3  502    0 -0.55599151100E+02  0.17048151887E+02 -0.50450353230E+01  0.58522045993E+02  0.41800000000E+01 0. -1.
         -5    1    3    3    0  502  0.58429062411E+02 -0.34410035134E+02 -0.10910569195E+02  0.68807839468E+02  0.41800000000E+01 0. -1.
        -11    1    1    2    0    0  0.30875385592E+02  0.30067517467E+02  0.10733509053E+02  0.44413435565E+02  0.00000000000E+00 0.  1.
         11    1    1    2    0    0 -0.33705296903E+02 -0.12705634220E+02 -0.30270896640E+02  0.47051114372E+02  0.00000000000E+00 0. -1.
</event>
<event>
 7    1  0.2794945E-009  0.9953240E+02  0.7561462E-02  0.1281282E+00
         -2   -1    0    0    0  501 -0.00000000000E+00  0.00000000000E+00  0.11636441038E+03  0.11636441038E+03  0.00000000000E+00 0.  1.
          2   -1    0    0  501    0  0.00000000000E+00 -0.00000000000E+00 -0.10938175428E+03  0.10938175428E+03  0.00000000000E+00 0. -1.
         25    2    1    2    0    0  0.33634479704E+02 -0.41872249954E+01  0.55649775441E+01  0.12971735716E+03  0.12508722035E+03 0.  0.
          5    1    3    3  502    0 -0.39442767971E+02 -0.31773874188E+02 -0.36596343958E+01  0.50952687368E+02  0.41800000000E+01 0.  1.
         -5    1    3    3    0  502  0.73077247674E+02  0.27586649193E+02  0.92246119399E+01  0.78764669788E+02  0.41800000000E+01 0.  1.
        -11    1    1    2    0    0 -0.65506061236E+01  0.31133919000E+02 -0.32106611850E+02  0.45200286253E+02  0.00000000000E+00 0.  1.
         11    1    1    2    0    0 -0.27083873580E+02 -0.26946694004E+02  0.33524290406E+02  0.50828521256E+02  0.00000000000E+00 0. -1.
</event>
<event>
 7    1  0.2794945E-009  0.1322307E+03  0.7561462E-02  0.1224183E+00
          2   -1    0    0  501    0  0.00000000000E+00  0.00000000000E+00  0.11863614849E+03  0.11863614849E+03  0.00000000000E+00 0. -1.
         -2   -1    0    0    0  501 -0.00000000000E+00 -0.00000000000E+00 -0.17920439552E+03  0.17920439552E+03  0.00000000000E+00 0.  1.
         25    2    1    2    0    0 -0.55466372330E+02 -0.77855731046E+02 -0.38030574973E+02  0.16197791101E+03  0.12510989452E+03 0.  0.
          5    1    3    3  502    0 -0.44906377624E+02  0.21260382756E+02  0.10626426158E+02  0.50980191832E+02  0.41800000000E+01 0. -1.
         -5    1    3    3    0  502 -0.10559994705E+02 -0.99116113802E+02 -0.48657001131E+02  0.11099771918E+03  0.41800000000E+01 0. -1.
        -11    1    1    2    0    0  0.69993033974E+01  0.64064015748E+02  0.22518156761E+02  0.68266065843E+02  0.00000000000E+00 0.  1.
         11    1    1    2    0    0  0.48467068932E+02  0.13791715298E+02 -0.45055828810E+02  0.67596567158E+02  0.00000000000E+00 0. -1.
</event>
<event>
 7    1  0.2794945E-009  0.1026473E+03  0.7561462E-02  0.1274825E+00
         -1   -1    0    0    0  501 -0.00000000000E+00  0.00000000000E+00  0.34057633946E+02  0.34057633946E+02  0.00000000000E+00 0.  1.
          1   -1    0    0  501    0  0.00000000000E+00 -0.00000000000E+00 -0.37958565771E+03  0.37958565771E+03  0.00000000000E+00 0. -1.
         25    2    1    2    0    0  0.26341253015E+02  0.20817880337E+02 -0.19702143754E+03  0.23577821036E+03  0.12508665746E+03 0.  0.
          5    1    3    3  502    0 -0.45645837131E+02  0.13880581413E+02 -0.38358345018E+02  0.61359987127E+02  0.41800000000E+01 0.  1.
         -5    1    3    3    0  502  0.71987090146E+02  0.69372989237E+01 -0.15866309253E+03  0.17441822323E+03  0.41800000000E+01 0.  1.
        -11    1    1    2    0    0 -0.54355504181E+02 -0.13521385240E+02 -0.49625182641E+02  0.74833197484E+02  0.00000000000E+00 0.  1.
         11    1    1    2    0    0  0.28014251166E+02 -0.72964950973E+01 -0.98881403575E+02  0.10303188381E+03  0.00000000000E+00 0. -1.
</event>
<event>
 7    1  0.2794945E-009  0.1380262E+03  0.7561462E-02  0.1216010E+00
          2   -1    0    0  501    0  0.00000000000E+00  0.00000000000E+00  0.53369473012E+03  0.53369473012E+03  0.00000000000E+00 0. -1.
         -2   -1    0    0    0  501 -0.00000000000E+00 -0.00000000000E+00 -0.44416975482E+02  0.44416975482E+02  0.00000000000E+00 0.  1.
         25    2    1    2    0    0  0.44492659234E+02 -0.93287026663E+02  0.32916650034E+03  0.36698937063E+03  0.12509415311E+03 0.  0.
          5    1    3    3  502    0  0.76571031523E+02 -0.23022534912E+02  0.12274524049E+03  0.14655042287E+03  0.41800000000E+01 0.  1.
         -5    1    3    3    0  502 -0.32078372289E+02 -0.70264491751E+02  0.20642125985E+03  0.22043894776E+03  0.41800000000E+01 0.  1.
        -11    1    1    2    0    0 -0.50444910094E+02  0.38333430581E+02  0.30705624033E+02  0.70405796649E+02  0.00000000000E+00 0.  1.
         11    1    1    2    0    0  0.59522508600E+01  0.54953596082E+02  0.12940563027E+03  0.14071653832E+03  0.00000000000E+00 0. -1.
</event>
<event>
 7    1  0.2794945E-009  0.1956340E+03  0.7561462E-02  0.1153476E+00
          2   -1    0    0  501    0  0.00000000000E+00  0.00000000000E+00  0.11359124757E+04  0.11359124757E+04  0.00000000000E+00 0. -1.
         -2   -1    0    0    0  501 -0.00000000000E+00 -0.00000000000E+00 -0.43055129788E+02  0.43055129788E+02  0.00000000000E+00 0.  1.
         25    2    1    2    0    0 -0.17852153692E+02  0.18031127287E+03  0.73587330857E+03  0.76810598671E+03  0.12508567481E+03 0.  0.
          5    1    3    3  502    0 -0.58463383885E+02  0.71391644868E+02  0.45170047436E+03  0.46104828939E+03  0.41800000000E+01 0. -1.
         -5    1    3    3    0  502  0.40611230193E+02  0.10891962800E+03  0.28417283420E+03  0.30705769731E+03  0.41800000000E+01 0. -1.
        -11    1    1    2    0    0 -0.45745213335E+01 -0.61449894793E+02  0.45152852067E+02  0.76392380937E+02  0.00000000000E+00 0.  1.
         11    1    1    2    0    0  0.22426675025E+02 -0.11886137807E+03  0.31183118526E+03  0.33446923782E+03  0.00000000000E+00 0. -1.
</event>
<event>
 6    1  0.2794945E-009  0.1237077E+03  0.7561462E-02  0.1237103E+00
          2   -1    0    0  501    0  0.00000000000E+00  0.00000000000E+00  0.94655562492E+03  0.94655562492E+03  0.00000000000E+00 0. -1.
         -2   -1    0    0    0  501 -0.00000000000E+00 -0.00000000000E+00 -0.39859440221E+02  0.39859440221E+02  0.00000000000E+00 0.  1.
          5    1    1    2  502    0 -0.49163764077E+01  0.44133832131E+02  0.91559822587E+02  0.10184615559E+03  0.41800000000E+01 0. -1.
         -5    1    1    2    0  502 -0.95337846182E+02 -0.12531078714E+02  0.68261281550E+03  0.68936496947E+03  0.41800000000E+01 0. -1.
        -11    1    1    2    0    0  0.50888075992E+02 -0.68742868837E+01  0.13017905703E+03  0.13994084103E+03  0.00000000000E+00 0. -1.
         11    1    1    2    0    0  0.49366146597E+02 -0.24728466534E+02  0.23444895919E+01  0.55263099066E+02  0.00000000000E+00 0.  1.
</event>
<event>
 7    1  0.2794945E-009  0.1230688E+03  0.7561462E-02  0.1238119E+00
          1   -1    0    0  501    0  0.00000000000E+00  0.00000000000E+00  0.18326707452E+02  0.18326707452E+02  0.00000000000E+00 0. -1.
         -1   -1    0    0    0  501 -0.00000000000E+00 -0.00000000000E+00 -0.92341105171E+03  0.92341105171E+03  0.00000000000E+00 0.  1.
         25    2    1    2    0    0  0.26382423071E+02  0.66146927472E+02 -0.48703350569E+03  0.50785901752E+03  0.12509075806E+03 0.  0.
          5    1    3    3  502    0  0.40216476241E+02 -0.27520321408E+02 -0.15171949666E+03  0.15940831571E+03  0.41800000000E+01 0.  1.
         -5    1    3    3    0  502 -0.13834053170E+02  0.93667248879E+02 -0.33531400903E+03  0.34845070181E+03  0.41800000000E+01 0.  1.
        -11    1    1    2    0    0 -0.49254465230E+02 -0.62038855370E+02 -0.38739463221E+03  0.39541044876E+03  0.00000000000E+00 0.  1.
         11    1    1    2    0    0  0.22872042159E+02 -0.41080721012E+01 -0.30656206351E+02  0.38468292875E+02  0.00000000000E+00 0. -1.
</event>
<event>
 7    1  0.2794945E-009  0.7964912E+02  0.7561462E-02  0.1330050E+00
          1   -1    0    0  501    0  0.00000000000E+00  0.00000000000E+00  0.16982134224E+04  0.16982134224E+04  0.00000000000E+00 0. -1.
         -1   -1    0    0    0  501 -0.00000000000E+00 -0.00000000000E+00 -0.87271388375E+01  0.87271388375E+01  0.00000000000E+00 0.  1.
         25    2    1    2    0    0  0.37597231023E+01  0.37946307245E+02  0.12206919659E+04  0.12276774017E+04  0.12509544022E+03 0.  0.
          5    1    3    3  502    0  0.21713028655E+02  0.35038247515E+02  0.11960461067E+04  0.11967635089E+04  0.41800000000E+01 0.  1.
         -5    1    3    3    0  502 -0.17953305553E+02  0.29080597303E+01  0.24645859218E+02  0.30913892803E+02  0.41800000000E+01 0.  1.
        -11    1    1    2    0    0  0.41395617548E+02 -0.34554515861E+02  0.27653162716E+03  0.28173986679E+03  0.00000000000E+00 0.  1.
         11    1    1    2    0    0 -0.45155340650E+02 -0.33917913844E+01  0.19226269052E+03  0.19752329282E+03  0.00000000000E+00 0. -1.
</event>
<event>
 7    1  0.2794945E-009  0.1157803E+03  0.7561462E-02  0.1250225E+00
          1   -1    0    0  501    0  0.00000000000E+00  0.00000000000E+00  0.30951335078E+02  0.30951335078E+02  0.00000000000E+00 0. -1.
         -1   -1    0    0    0  501 -0.00000000000E+00 -0.00000000000E+00 -0.57191099238E+03  0.57191099238E+03  0.00000000000E+00 0.  1.
         25    2    1    2    0    0  0.72805127626E+02 -0.20302790995E+02 -0.26096860650E+03  0.29910684063E+03  0.12508996205E+03 0.  0.
          5    1    3    3  502    0  0.39034138013E+02  0.32781580892E+02 -0.29155628171E+02  0.58871207141E+02  0.41800000000E+01 0.  1.
         -5    1    3    3    0  502  0.33770989614E+02 -0.53084371888E+02 -0.23181297833E+03  0.24023563349E+03  0.41800000000E+01 0.  1.
        -11    1    1    2    0    0  0.19264500842E+02 -0.82631615880E+01 -0.40808889022E+02  0.45877731585E+02  0.00000000000E+00 0.  1.
         11    1    1    2    0    0 -0.92069628468E+02  0.28565952584E+02 -0.23918216178E+03  0.25787775523E+03  0.00000000000E+00 0. -1.
</event>
<event>
 7    1  0.2794945E-009  0.2271715E+03  0.7561462E-02  0.1128647E+00
         -2   -1    0    0    0  501 -0.00000000000E+00  0.00000000000E+00  0.20856821027E+02  0.20856821027E+02  0.00000000000E+00 0. -1.
          2   -1    0    0  501    0  0.00000000000E+00 -0.00000000000E+00 -0.30711548345E+04  0.30711548345E+04  0.00000000000E+00 0.  1.
         25    2    1    2    0    0 -0.62312209367E+02 -0.20769003546E+03 -0.19973795787E+04  0.20130053240E+04  0.12508913113E+03 0.  0.
          5    1    3    3  502    0 -0.68452488085E+02 -0.64819561309E+02 -0.11272812361E+04  0.11312240168E+04  0.41800000000E+01 0. -1.
         -5    1    3    3    0  502  0.61402787183E+01 -0.14287047416E+03 -0.87009834261E+03  0.88178130714E+03  0.41800000000E+01 0. -1.
        -11    1    1    2    0    0  0.16160313469E+02  0.63143182646E+02 -0.15178795791E+03  0.16519019769E+03  0.00000000000E+00 0. -1.
         11    1    1    2    0    0  0.46151895897E+02  0.14454685282E+03 -0.90113047685E+03  0.91381613384E+03  0.00000000000E+00 0.  1.
</event>
<event>
 7    1  0.2794945E-009  0.2182429E+03  0.7561462E-02  0.1135200E+00
          1   -1    0    0  501    0  0.00000000000E+00  0.00000000000E+00  0.70281466821E+03  0.70281466821E+03  0.00000000000E+00 0. -1.
         -1   -1    0    0    0  501 -0.00000000000E+00 -0.00000000000E+00 -0.70953431861E+02  0.70953431861E+02  0.00000000000E+00 0.  1.
         25    2    1    2    0    0  0.61607578789E+02 -0.18049305680E+03  0.25626086283E+03  0.34305987917E+03  0.12508882269E+03 0.  0.
          5    1    3    3  502    0  0.86181435663E+02 -0.60142970587E+02  0.11822625606E+03  0.15823822795E+03  0.41800000000E+01 0. -1.
         -5    1    3    3    0  502 -0.24573856875E+02 -0.12035008621E+03  0.13803460677E+03  0.18482165122E+03  0.41800000000E+01 0. -1.
        -11    1    1    2    0    0  0.18661217339E-01  0.12642011225E+03  0.19534407293E+03  0.23268294299E+03  0.00000000000E+00 0.  1.
         11    1    1    2    0    0 -0.61626240006E+02  0.54072944549E+02  0.18025630059E+03  0.19802527791E+03  0.00000000000E+00 0. -1.
</event>
<event>
 7    1  0.2794945E-009  0.1181876E+03  0.7561462E-02  0.1246117E+00
         -2   -1    0    0    0  501 -0.00000000000E+00  0.00000000000E+00  0.26279449530E+02  0.26279449530E+02  0.00000000000E+00 0.  1.
          2   -1    0    0  501    0  0.00000000000E+00 -0.00000000000E+00 -0.76339165166E+03  0.76339165166E+03  0.00000000000E+00 0. -1.
         25    2    1    2    0    0 -0.28341206806E+02  0.80053863570E+02 -0.49186303684E+03  0.51457568130E+03  0.12508812774E+03 0.  0.
          5    1    3    3  502    0  0.48726693591E+02  0.43935536950E+02 -0.22851785826E+03  0.23778668175E+03  0.41800000000E+01 0.  1.
         -5    1    3    3    0  502 -0.77067900397E+02  0.36118326620E+02 -0.26334517858E+03  0.27678899955E+03  0.41800000000E+01 0.  1.
        -11    1    1    2    0    0  0.99351968102E+01 -0.41832087493E+02 -0.22316419763E+03  0.22726832331E+03  0.00000000000E+00 0. -1.
         11    1    1    2    0    0  0.18406009996E+02 -0.38221776077E+02 -0.22084967669E+02  0.47827096581E+02  0.00000000000E+00 0.  1.
</event>
<event>
 7    1  0.2794945E-009  0.1085039E+03  0.7561462E-02  0.1263366E+00
          4   -1    0    0  501    0  0.00000000000E+00  0.00000000000E+00  0.86049520305E+02  0.86049520305E+02  0.00000000000E+00 0. -1.
         -4   -1    0    0    0  501 -0.00000000000E+00 -0.00000000000E+00 -0.19050201962E+03  0.19050201962E+03  0.00000000000E+00 0.  1.
         25    2    1    2    0    0  0.23785777677E+02 -0.10204737632E+02 -0.11412508044E+03  0.17129368404E+03  0.12508833805E+03 0.  0.
          5    1    3    3  502    0 -0.10834864308E+02 -0.54555956086E+02 -0.15869171801E+02  0.57991806685E+02  0.41800000000E+01 0. -1.
         -5    1    3    3    0  502  0.34620641986E+02  0.44351218454E+02 -0.98255908643E+02  0.11330187736E+03  0.41800000000E+01 0. -1.
        -11    1    1    2    0    0  0.39821815570E+02 -0.26774610069E+01  0.33848960427E+01  0.40055003607E+02  0.00000000000E+00 0. -1.
         11    1    1    2    0    0 -0.63607593248E+02  0.12882198639E+02  0.62876850885E+01  0.65202852271E+02  0.00000000000E+00 0.  1.
</event>
<event>
 7    1  0.2794945E-009  0.1270379E+03  0.7561462E-02  0.1231918E+00
          1   -1    0    0  501    0  0.00000000000E+00  0.00000000000E+00  0.14068499050E+03  0.14068499050E+03  0.00000000000E+00 0. -1.
         -1   -1    0    0    0  501 -0.00000000000E+00 -0.00000000000E+00 -0.14134694441E+03  0.14134694441E+03  0.00000000000E+00 0.  1.
         25    2    1    2    0    0 -0.42359278964E+02  0.76770531787E+02  0.11428030877E+02  0.15318753168E+03  0.12509115440E+03 0.  0.
          5    1    3    3  502    0 -0.42363957090E+02 -0.98710097862E+01  0.42587030460E+02  0.61018597640E+02  0.41800000000E+01 0.  1.
         -5    1    3    3    0  502  0.46781265393E-02  0.86641541573E+02 -0.31158999583E+02  0.92168934045E+02  0.41800000000E+01 0.  1.
        -11    1    1    2    0    0  0.68500198213E+02 -0.42807455345E+02  0.86384652203E+01  0.81236558702E+02  0.00000000000E+00 0. -1.
         11    1    1    2    0    0 -0.26140919250E+02 -0.33963076442E+02 -0.20728450003E+02  0.47607844523E+02  0.00000000000E+00 0.  1.
</event>
<event>
 7    1  0.2794945E-009  0.1770924E+03  0.7561462E-02  0.1170647E+00
          2   -1    0    0  501    0  0.00000000000E+00  0.00000000000E+00  0.20284821128E+03  0.20284821128E+03  0.00000000000E+00 0.  1.
         -2   -1    0    0    0  501 -0.00000000000E+00 -0.00000000000E+00 -0.33748990161E+03  0.33748990161E+03  0.00000000000E+00 0. -1.
         25    2    1    2    0    0 -0.14182933822E+03  0.24181276485E+02 -0.26701180731E+03  0.32809128880E+03  0.12509313821E+03 0.  0.
          5    1    3    3  502    0 -0.19541903787E+02 -0.45129855370E+02 -0.57750924141E+02  0.75968621736E+02  0.41800000000E+01 0.  1.
         -5    1    3    3    0  502 -0.12228743443E+03  0.69311131855E+02 -0.20926088317E+03  0.25212266706E+03  0.41800000000E+01 0.  1.
        -11    1    1    2    0    0  0.10514463636E+03  0.19734057163E+02  0.10032774436E+03  0.14666452828E+03  0.00000000000E+00 0.  1.
         11    1    1    2    0    0  0.36684701857E+02 -0.43915333648E+02  0.32042372630E+02  0.65582295808E+02  0.00000000000E+00 0. -1.
</event>
<event>
 7    1  0.2794945E-009  0.9562544E+02  0.7561462E-02  0.1289774E+00
         -2   -1    0    0    0  501 -0.00000000000E+00  0.00000000000E+00  0.44842927438E+02  0.44842927438E+02  0.00000000000E+00 0. -1.
          2   -1    0    0  501    0  0.00000000000E+00 -0.00000000000E+00 -0.28336314225E+03  0.28336314225E+03  0.00000000000E+00 0.  1.
         25    2    1    2    0    0 -0.31755991754E+02 -0.10661409122E+02 -0.12812835021E+03  0.18217355964E+03  0.12509285770E+03 0.  0.
          5    1    3    3  502    0 -0.54213258873E+02 -0.56181315409E+02 -0.84371641291E+02  0.11502810045E+03  0.41800000000E+01 0.  1.
         -5    1    3    3    0  502  0.22457267119E+02  0.45519906288E+02 -0.43756708918E+02  0.67145459193E+02  0.41800000000E+01 0.  1.
        -11    1    1    2    0    0  0.23109540386E+01 -0.19703706781E+02 -0.10070469757E+03  0.10264020987E+03  0.00000000000E+00 0.  1.
         11    1    1    2    0    0  0.29445037715E+02  0.30365115902E+02 -0.96871670394E+01  0.43392300182E+02  0.00000000000E+00 0. -1.
</event>
<event>
 7    1  0.2794945E-009  0.6933847E+02  0.7561462E-02  0.1362357E+00
          1   -1    0    0  501    0  0.00000000000E+00  0.00000000000E+00  0.81748244953E+03  0.81748244953E+03  0.00000000000E+00 0. -1.
         -1   -1    0    0    0  501 -0.00000000000E+00 -0.00000000000E+00 -0.29865923172E+02  0.29865923172E+02  0.00000000000E+00 0.  1.
         25    2    1    2    0    0  0.55766051014E+02 -0.17896504779E+02  0.68786003861E+03  0.70159062987E+03  0.12509133413E+03 0.  0.
          5    1    3    3  502    0  0.20996103806E+02 -0.34032705971E+01  0.64079805056E+03  0.64116459091E+03  0.41800000000E+01 0.  1.
         -5    1    3    3    0  502  0.34769947208E+02 -0.14493234182E+02  0.47061988049E+02  0.60426038965E+02  0.41800000000E+01 0.  1.
        -11    1    1    2    0    0 -0.14735573663E+02  0.32389712885E+02 -0.14282840884E+01  0.35612787414E+02  0.00000000000E+00 0.  1.
         11    1    1    2    0    0 -0.41030477352E+02 -0.14493208106E+02  0.10118477184E+03  0.11014495542E+03  0.00000000000E+00 0. -1.
</event>
<event>
 7    1  0.2794945E-009  0.1067305E+03  0.7561462E-02  0.1266747E+00
         -4   -1    0    0    0  501 -0.00000000000E+00  0.00000000000E+00  0.94032308007E+02  0.94032308007E+02  0.00000000000E+00 0. -1.
          4   -1    0    0  501    0  0.00000000000E+00 -0.00000000000E+00 -0.17432748511E+03  0.17432748511E+03  0.00000000000E+00 0.  1.
         25    2    1    2    0    0  0.64765165232E+02  0.89637266525E+01 -0.28654524054E+02  0.14402646857E+03  0.12509063465E+03 0.  0.
          5    1    3    3  502    0  0.13645832774E+02  0.38804149259E+02 -0.63081653130E+02  0.75423723811E+02  0.41800000000E+01 0.  1.
         -5    1    3    3    0  502  0.51119332458E+02 -0.29840422607E+02  0.34427129076E+02  0.68602744761E+02  0.41800000000E+01 0.  1.
        -11    1    1    2    0    0 -0.21336030624E+02 -0.49166267655E+02 -0.29253720804E+02  0.61060038149E+02  0.00000000000E+00 0.  1.
         11    1    1    2    0    0 -0.43429134609E+02  0.40202541003E+02 -0.22386932244E+02  0.63273286395E+02  0.00000000000E+00 0. -1.
</event>
<event>
 7    1  0.2794945E-009  0.1808058E+03  0.7561462E-02  0.1167025E+00
         -2   -1    0    0    0  501 -0.00000000000E+00  0.00000000000E+00  0.35658435096E+03  0.35658435096E+03  0.00000000000E+00 0.  1.
          2   -1    0    0  501    0  0.00000000000E+00 -0.00000000000E+00 -0.10755883482E+03  0.10755883482E+03  0.00000000000E+00 0. -1.
         25    2    1    2    0    0 -0.34602276796E+02  0.16043221334E+03  0.12116556329E+03  0.23929584481E+03  0.12508235278E+03 0.  0.
          5    1    3    3  502    0  0.75726959164E+01  0.15140846840E+03  0.57302776159E+02  0.16212017328E+03  0.41800000000E+01 0. -1.
         -5    1    3    3    0  502 -0.42174972713E+02  0.90237449353E+01  0.63862787130E+02  0.77175671530E+02  0.41800000000E+01 0. -1.
        -11    1    1    2    0    0  0.78909412043E+01 -0.10280983012E+03  0.12392555061E+03  0.16121312049E+03  0.00000000000E+00 0.  1.
         11    1    1    2    0    0  0.26711335592E+02 -0.57622383217E+02  0.39344022380E+01  0.63634220492E+02  0.00000000000E+00 0. -1.
</event>
<event>
 7    1  0.2794945E-009  0.1033681E+03  0.7561462E-02  0.1273369E+00
          1   -1    0    0  501    0  0.00000000000E+00  0.00000000000E+00  0.95321735379E+03  0.95321735379E+03  0.00000000000E+00 0. -1.
         -1   -1    0    0    0  501 -0.00000000000E+00 -0.00000000000E+00 -0.21511687308E+02  0.21511687308E+02  0.00000000000E+00 0.  1.
         25    2    1    2    0    0  0.77736367032E+02  0.13020949385E+02  0.67844342178E+03  0.69436756416E+03  0.12509336403E+03 0.  0.
          5    1    3    3  502    0  0.18173969224E+02 -0.14603806684E+02  0.54571440421E+03  0.54622820111E+03  0.41800000000E+01 0. -1.
         -5    1    3    3    0  502  0.59562397808E+02  0.27624756068E+02  0.13272901757E+03  0.14813936305E+03  0.41800000000E+01 0. -1.
        -11    1    1    2    0    0  0.16573810154E+02 -0.15815239682E+02  0.28271827456E+02  0.36388311542E+02  0.00000000000E+00 0.  1.
         11    1    1    2    0    0 -0.94310177185E+02  0.27942902973E+01  0.22499041725E+03  0.24397316539E+03  0.00000000000E+00 0. -1.
</event>
<event>
 7    1  0.2794945E-009  0.6184787E+02  0.7561462E-02  0.1390237E+00
          1   -1    0    0  501    0  0.00000000000E+00  0.00000000000E+00  0.87702863193E+02  0.87702863193E+02  0.00000000000E+00 0. -1.
         -1   -1    0    0    0  501 -0.00000000000E+00 -0.00000000000E+00 -0.16742461265E+03  0.16742461265E+03  0.00000000000E+00 0.  1.
         25    2    1    2    0    0  0.29900413081E+02 -0.41200073664E+02 -0.42086196890E+02  0.14145874713E+03  0.12509136021E+03 0.  0.
          5    1    3    3  502    0  0.33710239132E+02 -0.60171884487E+01  0.39491938405E+02  0.52437318564E+02  0.41800000000E+01 0. -1.
         -5    1    3    3    0  502 -0.38098260510E+01 -0.35182885215E+02 -0.81578135294E+02  0.89021428570E+02  0.41800000000E+01 0. -1.
        -11    1    1    2    0    0 -0.13247471435E+02  0.31781677058E+02 -0.68894565204E+02  0.77019683268E+02  0.00000000000E+00 0.  1.
         11    1    1    2    0    0 -0.16652941646E+02  0.94183966051E+01  0.31259012641E+02  0.36649045436E+02  0.00000000000E+00 0. -1.
</event>
<event>
 7    1  0.2794945E-009  0.1129150E+03  0.7561462E-02  0.1255265E+00
         -1   -1    0    0    0  501 -0.00000000000E+00  0.00000000000E+00  0.43583963718E+02  0.43583963718E+02  0.00000000000E+00 0.  1.
          1   -1    0    0  501    0  0.00000000000E+00 -0.00000000000E+00 -0.45621660348E+03  0.45621660348E+03  0.00000000000E+00 0. -1.
         25    2    1    2    0    0  0.45691882198E+02  0.62217321278E+02 -0.30619949169E+03  0.33965288932E+03  0.12508882182E+03 0.  0.
          5    1    3    3  502    0 -0.15216237842E+02  0.81058821712E+02 -0.15838748126E+03  0.17862287953E+03  0.41800000000E+01 0.  1.
         -5    1    3    3    0  502  0.60908120040E+02 -0.18841500434E+02 -0.14781201043E+03  0.16103000979E+03  0.41800000000E+01 0.  1.
        -11    1    1    2    0    0 -0.27153753087E+02 -0.21558682107E+02 -0.10998584934E+03  0.11532124755E+03  0.00000000000E+00 0. -1.
         11    1    1    2    0    0 -0.18538129111E+02 -0.40658639171E+02  0.35527012657E+01  0.44826430334E+02  0.00000000000E+00 0.  1.
</event>
<event>
 7    1  0.2794945E-009  0.1116949E+03  0.7561462E-02  0.1257463E+00
         -1   -1    0    0    0  501 -0.00000000000E+00  0.00000000000E+00  0.27883942748E+02  0.27883942748E+02  0.00000000000E+00 0.  1.
          1   -1    0    0  501    0  0.00000000000E+00 -0.00000000000E+00 -0.60903659788E+03  0.60903659788E+03  0.00000000000E+00 0. -1.
         25    2    1    2    0    0 -0.15424549063E+02 -0.37411863847E+02 -0.44004676961E+03  0.45926814739E+03  0.12509399463E+03 0.  0.
          5    1    3    3  502    0 -0.62080064660E+02 -0.39563499400E+02 -0.17180964279E+03  0.18696317998E+03  0.41800000000E+01 0.  1.
         -5    1    3    3    0  502  0.46655515597E+02  0.21516355533E+01 -0.26823712682E+03  0.27230496741E+03  0.41800000000E+01 0.  1.
        -11    1    1    2    0    0  0.24440961198E+02  0.67271029414E+02 -0.70499946682E+02  0.10046389633E+03  0.00000000000E+00 0.  1.
         11    1    1    2    0    0 -0.90164121351E+01 -0.29859165568E+02 -0.70605938841E+02  0.77188496914E+02  0.00000000000E+00 0. -1.
</event>
<event>
 7    1  0.2794945E-009  0.1233036E+03  0.7561462E-02  0.1237745E+00
         -1   -1    0    0    0  501 -0.00000000000E+00  0.00000000000E+00  0.18311224841E+02  0.18311224841E+02  0.00000000000E+00 0.  1.
          1   -1    0    0  501    0  0.00000000000E+00 -0.00000000000E+00 -0.84157679459E+03  0.84157679459E+03  0.00000000000E+00 0. -1.
         25    2    1    2    0    0 -0.53772493329E+02 -0.11376199966E+01 -0.47857776925E+03  0.49756198232E+03  0.12505386766E+03 0.  0.
          5    1    3    3  502    0 -0.53437474697E+02 -0.57610541564E+02 -0.30460648667E+03  0.31460629734E+03  0.41800000000E+01 0.  1.
         -5    1    3    3    0  502 -0.33501863208E+00  0.56472921568E+02 -0.17397128257E+03  0.18295568499E+03  0.41800000000E+01 0.  1.
        -11    1    1    2    0    0  0.69056902532E+02 -0.31005003704E+02 -0.24799879341E+03  0.25929436472E+03  0.00000000000E+00 0. -1.
         11    1    1    2    0    0 -0.15284409203E+02  0.32142623701E+02 -0.96689007081E+02  0.10303167238E+03  0.00000000000E+00 0.  1.
</event>
<event>
 7    1  0.2794945E-009  0.8654895E+02  0.7561462E-02  0.1311431E+00
          1   -1    0    0  501    0  0.00000000000E+00  0.00000000000E+00  0.46609032182E+02  0.46609032182E+02  0.00000000000E+00 0. -1.
         -1   -1    0    0    0  501 -0.00000000000E+00 -0.00000000000E+00 -0.26352190662E+03  0.26352190662E+03  0.00000000000E+00 0.  1.
         25    2    1    2    0    0  0.61361048112E+01  0.42798267145E+01 -0.10134297545E+03  0.16116192655E+03  0.12508716640E+03 0.  0.
          5    1    3    3  502    0 -0.14785042943E+02  0.40803175751E+02 -0.10969946334E+03  0.11804635235E+03  0.41800000000E+01 0.  1.
         -5    1    3    3    0  502  0.20921147754E+02 -0.36523349037E+02  0.83564878946E+01  0.43115574195E+02  0.41800000000E+01 0.  1.
        -11    1    1    2    0    0 -0.43862423255E+02 -0.17499415555E+02 -0.34193084375E+02  0.58303591121E+02  0.00000000000E+00 0. -1.
         11    1    1    2    0    0  0.37726318443E+02  0.13219588840E+02 -0.81376814620E+02  0.90665421138E+02  0.00000000000E+00 0.  1.
</event>
<event>
 7    1  0.2794945E-009  0.1198000E+03  0.7561462E-02  0.1243427E+00
          2   -1    0    0  501    0  0.00000000000E+00  0.00000000000E+00  0.15951096558E+03  0.15951096558E+03  0.00000000000E+00 0. -1.
         -2   -1    0    0    0  501 -0.00000000000E+00 -0.00000000000E+00 -0.96144078658E+02  0.96144078658E+02  0.00000000000E+00 0.  1.
         25    2    1    2    0    0 -0.58010146247E+02  0.32811018488E+01  0.42247051286E+02  0.14425088748E+03  0.12509021745E+03 0.  0.
          5    1    3    3  502    0 -0.66804723322E+02  0.50822497631E+02  0.71218967818E+01  0.84344478998E+02  0.41800000000E+01 0. -1.
         -5    1    3    3    0  502  0.87945770754E+01 -0.47541395782E+02  0.35125154504E+02  0.59906408487E+02  0.41800000000E+01 0. -1.
        -11    1    1    2    0    0  0.48186224999E+02  0.40013083838E+02  0.94606080678E+00  0.62640675195E+02  0.00000000000E+00 0.  1.
         11    1    1    2    0    0  0.98239212475E+01 -0.43294185686E+02  0.20173774831E+02  0.48763481560E+02  0.00000000000E+00 0. -1.
</event>
<event>
 7    1  0.2794945E-009  0.3106232E+03  0.7561462E-02  0.1080048E+00
          2   -1    0    0  501    0  0.00000000000E+00  0.00000000000E+00  0.94273931293E+03  0.94273931293E+03  0.00000000000E+00 0. -1.
         -2   -1    0    0    0  501 -0.00000000000E+00 -0.00000000000E+00 -0.10546951782E+03  0.10546951782E+03  0.00000000000E+00 0.  1.
         25    2    1    2    0    0 -0.26821643717E+03 -0.11738688041E+03  0.35197561783E+03  0.47460922185E+03  0.12508933230E+03 0.  0.
          5    1    3    3  502    0 -0.22684682278E+03 -0.40020051309E+02  0.24798548295E+03  0.33848981915E+03  0.41800000000E+01 0.  1.
         -5    1    3    3    0  502 -0.41369614397E+02 -0.77366829098E+02  0.10399013488E+03  0.13611940270E+03  0.41800000000E+01 0.  1.
        -11    1    1    2    0    0  0.20097014231E+03  0.12287324391E+03  0.40694751128E+03  0.47020539034E+03  0.00000000000E+00 0. -1.
         11    1    1    2    0    0  0.67246294862E+02 -0.54863634991E+01  0.78346666009E+02  0.10339421856E+03  0.00000000000E+00 0.  1.
</event>
<event>
 7    1  0.2794945E-009  0.6842432E+02  0.7561462E-02  0.1365535E+00
         -2   -1    0    0    0  501 -0.00000000000E+00  0.00000000000E+00  0.19868855732E+02  0.19868855732E+02  0.00000000000E+00 0.  1.
          2   -1    0    0  501    0  0.00000000000E+00 -0.00000000000E+00 -0.10696381572E+04  0.10696381572E+04  0.00000000000E+00 0. -1.
         25    2    1    2    0    0  0.16026612051E+02  0.25100313365E+02 -0.90996785579E+03  0.91900779169E+03  0.12508774751E+03 0.  0.
          5    1    3    3  502    0 -0.15674637860E+02  0.43122533875E+02 -0.12563507277E+03  0.13381663241E+03  0.41800000000E+01 0.  1.
         -5    1    3    3    0  502  0.31701249911E+02 -0.18022220511E+02 -0.78433278302E+03  0.78519115928E+03  0.41800000000E+01 0.  1.
        -11    1    1    2    0    0  0.14364579402E+02 -0.17693000088E+02  0.41703419175E+01  0.23168408344E+02  0.00000000000E+00 0.  1.
         11    1    1    2    0    0 -0.30391191452E+02 -0.74073132768E+01 -0.14397178760E+03  0.14733081291E+03  0.00000000000E+00 0. -1.
</event>
<event>
 7    1  0.2794945E-009  0.1698223E+03  0.7561462E-02  0.1178033E+00
          2   -1    0    0  501    0  0.00000000000E+00  0.00000000000E+00  0.97126931672E+03  0.97126931672E+03  0.00000000000E+00 0. -1.
         -2   -1    0    0    0  501 -0.00000000000E+00 -0.00000000000E+00 -0.47898936468E+02  0.47898936468E+02  0.00000000000E+00 0.  1.
         25    2    1    2    0    0 -0.16112748828E+03 -0.29354363033E+02  0.27139160903E+03  0.34076659266E+03  0.12507885160E+03 0.  0.
          5    1    3    3  502    0 -0.51539712650E+02  0.23319843973E+01  0.19893698186E+03  0.20556063652E+03  0.41800000000E+01 0. -1.
         -5    1    3    3    0  502 -0.10958777563E+03 -0.31686347431E+02  0.72454627165E+02  0.13520595615E+03  0.41800000000E+01 0. -1.
        -11    1    1    2    0    0  0.48689475663E+02  0.36820065192E+02  0.12017430363E+03  0.13478963423E+03  0.00000000000E+00 0.  1.
         11    1    1    2    0    0  0.11243801261E+03 -0.74657021587E+01  0.53180446759E+03  0.54361202630E+03  0.00000000000E+00 0. -1.
</event>
<event>
 7    1  0.2794945E-009  0.1372364E+03  0.7561462E-02  0.1217097E+00
         -2   -1    0    0    0  501 -0.00000000000E+00  0.00000000000E+00  0.31183855426E+03  0.31183855426E+03  0.00000000000E+00 0.  1.
          2   -1    0    0  501    0  0.00000000000E+00 -0.00000000000E+00 -0.65913641119E+02  0.65913641119E+02  0.00000000000E+00 0. -1.
         25    2    1    2    0    0 -0.87058418730E+02 -0.22418011588E+02  0.10822534169E+03  0.18826009974E+03  0.12508958811E+03 0.  0.
          5    1    3    3  502    0 -0.11599611885E+03 -0.24151136286E+02  0.62671700903E+02  0.13410291371E+03  0.41800000000E+01 0.  1.
         -5    1    3    3    0  502  0.28937700120E+02  0.17331246985E+01  0.45553640784E+02  0.54157186025E+02  0.41800000000E+01 0.  1.
        -11    1    1    2    0    0  0.53923929735E+02  0.57184275194E+02  0.10594212147E+03  0.13191499016E+03  0.00000000000E+00 0.  1.
         11    1    1    2    0    0  0.33134488995E+02 -0.34766263606E+02  0.31757449985E+02  0.57577105481E+02  0.00000000000E+00 0. -1.
</event>
<event>
 7    1  0.2794945E-009  0.1005946E+03  0.7561462E-02  0.1279051E+00
         -2   -1    0    0    0  501 -0.00000000000E+00  0.00000000000E+00  0.34541270900E+02  0.34541270900E+02  0.00000000000E+00 0.  1.
          2   -1    0    0  501    0  0.00000000000E+00 -0.00000000000E+00 -0.46046354398E+03  0.46046354398E+03  0.00000000000E+00 0. -1.
         25    2    1    2    0    0 -0.24190741512E+02 -0.44492887531E+02 -0.28018305552E+03  0.31098783363E+03  0.12508428776E+03 0.  0.
          5    1    3    3  502    0  0.45074768295E+02 -0.36127050208E+02 -0.78614991153E+02  0.97645725598E+02  0.41800000000E+01 0.  1.
         -5    1    3    3    0  502 -0.69265509808E+02 -0.83658373229E+01 -0.20156806437E+03  0.21334210803E+03  0.41800000000E+01 0.  1.
        -11    1    1    2    0    0 -0.15174211172E+02  0.25494356557E+02  0.22055357399E+01  0.29750349390E+02  0.00000000000E+00 0.  1.
         11    1    1    2    0    0  0.39364952684E+02  0.18998530974E+02 -0.14794475329E+03  0.15426663186E+03  0.00000000000E+00 0. -1.
</event>
<event>
 7    1  0.2794945E-009  0.3185437E+03  0.7561462E-02  0.1076322E+00
         -2   -1    0    0    0  501 -0.00000000000E+00  0.00000000000E+00  0.68579773009E+02  0.68579773009E+02  0.00000000000E+00 0.  1.
          2   -1    0    0  501    0  0.00000000000E+00 -0.00000000000E+00 -0.16468753243E+04  0.16468753243E+04  0.00000000000E+00 0. -1.
         25    2    1    2    0    0 -0.13268850031E+03  0.27131409949E+03 -0.10549176968E+04  0.11044075736E+04  0.12508861986E+03 0.  0.
          5    1    3    3  502    0 -0.14103851537E+03  0.16162308933E+03 -0.63335456703E+03  0.66870723475E+03  0.41800000000E+01 0. -1.
         -5    1    3    3    0  502  0.83500150654E+01  0.10969101016E+03 -0.42156312980E+03  0.43570033884E+03  0.41800000000E+01 0. -1.
        -11    1    1    2    0    0  0.96450087180E+02 -0.25514848107E+03 -0.48123036438E+03  0.55316004041E+03  0.00000000000E+00 0. -1.
         11    1    1    2    0    0  0.36238413130E+02 -0.16165618423E+02 -0.42147490127E+02  0.57887483355E+02  0.00000000000E+00 0.  1.
</event>
<event>
 7    1  0.2794945E-009  0.9030726E+02  0.7561462E-02  0.1302109E+00
         -1   -1    0    0    0  501 -0.00000000000E+00  0.00000000000E+00  0.70457061465E+02  0.70457061465E+02  0.00000000000E+00 0.  1.
          1   -1    0    0  501    0  0.00000000000E+00 -0.00000000000E+00 -0.22069215519E+03  0.22069215519E+03  0.00000000000E+00 0. -1.
         25    2    1    2    0    0 -0.53192755127E+02  0.97064401266E+01 -0.47807813678E+02  0.14442195165E+03  0.12509368046E+03 0.  0.
          5    1    3    3  502    0 -0.83185294631E+02 -0.17271458268E+02 -0.57563054340E+02  0.10270868580E+03  0.41800000000E+01 0. -1.
         -5    1    3    3    0  502  0.29992539503E+02  0.26977898395E+02  0.97552406621E+01  0.41713265852E+02  0.41800000000E+01 0. -1.
        -11    1    1    2    0    0  0.27536470360E+02  0.79564181031E-01  0.11275559870E+02  0.29755701651E+02  0.00000000000E+00 0.  1.
         11    1    1    2    0    0  0.25656284767E+02 -0.97860043076E+01 -0.11370283991E+03  0.11697156335E+03  0.00000000000E+00 0. -1.
</event>
<event>
 7    1  0.2811447E-009  0.1138301E+03  0.7561462E-02  0.1253637E+00
          2   -1    0    0  501    0  0.00000000000E+00  0.00000000000E+00  0.57143515535E+03  0.57143515535E+03  0.00000000000E+00 0. -1.
         -2   -1    0    0    0  501 -0.00000000000E+00 -0.00000000000E+00 -0.28749930167E+02  0.28749930167E+02  0.00000000000E+00 0.  1.
         25    2    1    2    0    0  0.25183211886E+02 -0.63238097692E+02  0.28944851857E+03  0.32258658063E+03  0.12509358872E+03 0.  0.
          5    1    3    3  502    0 -0.18528122011E+02  0.18118012104E+02  0.16756022242E+03  0.16960381542E+03  0.41800000000E+01 0. -1.
         -5    1    3    3    0  502  0.43711333897E+02 -0.81356109796E+02  0.12188829614E+03  0.15298276520E+03  0.41800000000E+01 0. -1.
        -11    1    1    2    0    0 -0.53980637015E+02  0.58804975589E+02  0.14512868595E+03  0.16563293698E+03  0.00000000000E+00 0.  1.
         11    1    1    2    0    0  0.28797425129E+02  0.44331221027E+01  0.10810802066E+03  0.11196556791E+03  0.00000000000E+00 0. -1.
</event>
<event>
 7    1  0.2794945E-009  0.1026981E+03  0.7561462E-02  0.1274722E+00
         -3   -1    0    0    0  501 -0.00000000000E+00  0.00000000000E+00  0.57372882316E+02  0.57372882316E+02  0.00000000000E+00 0.  1.
          3   -1    0    0  501    0  0.00000000000E+00 -0.00000000000E+00 -0.32878865804E+03  0.32878865804E+03  0.00000000000E+00 0. -1.
         25    2    1    2    0    0  0.22553296624E+02  0.68227271770E+02 -0.84771576762E+02  0.16731050454E+03  0.12507187094E+03 0.  0.
          5    1    3    3  502    0 -0.12522843358E+02  0.77921163837E+02 -0.45980224810E+01  0.79165292838E+02  0.41800000000E+01 0.  1.
         -5    1    3    3    0  502  0.35076139982E+02 -0.96938920662E+01 -0.80173554281E+02  0.88145211699E+02  0.41800000000E+01 0.  1.
        -11    1    1    2    0    0 -0.37664877016E+02 -0.28507206213E+02 -0.28661073174E+02  0.55251795285E+02  0.00000000000E+00 0.  1.
         11    1    1    2    0    0  0.15111580392E+02 -0.39720065557E+02 -0.15798312579E+03  0.16359924054E+03  0.00000000000E+00 0. -1.
</event>
<event>
 7    1  0.2970369E-009  0.7180611E+02  0.7561462E-02  0.1354057E+00
          1   -1    0    0  501    0  0.00000000000E+00  0.00000000000E+00  0.35035649707E+03  0.35035649707E+03  0.00000000000E+00 0. -1.
         -1   -1    0    0    0  501 -0.00000000000E+00 -0.00000000000E+00 -0.42380916767E+02  0.42380916767E+02  0.00000000000E+00 0.  1.
         25    2    1    2    0    0 -0.18610178839E+02  0.18575444999E+02  0.25039575276E+03  0.28112809119E+03  0.12507431688E+03 0.  0.
          5    1    3    3  502    0  0.31531255359E+02 -0.18122794067E+01  0.21261041562E+03  0.21498410558E+03  0.41800000000E+01 0.  1.
         -5    1    3    3    0  502 -0.50141434198E+02  0.20387724406E+02  0.37785337143E+02  0.66143985613E+02  0.41800000000E+01 0.  1.
        -11    1    1    2    0    0 -0.15537797723E+02  0.45886767313E+01 -0.18786784515E+02  0.24807708170E+02  0.00000000000E+00 0.  1.
         11    1    1    2    0    0  0.34147976562E+02 -0.23164121730E+02  0.76366612057E+02  0.86801614478E+02  0.00000000000E+00 0. -1.
</event>
<event>
 7    1  0.2794945E-009  0.1212922E+03  0.7561462E-02  0.1240980E+00
         -2   -1    0    0    0  501 -0.00000000000E+00  0.00000000000E+00  0.20333880572E+02  0.20333880572E+02  0.00000000000E+00 0.  1.
          2   -1    0    0  501    0  0.00000000000E+00 -0.00000000000E+00 -0.10048467314E+04  0.10048467314E+04  0.00000000000E+00 0. -1.
         25    2    1    2    0    0  0.82839450890E+02  0.13601560285E+02 -0.40875521481E+03  0.43563279879E+03  0.12509089770E+03 0.  0.
          5    1    3    3  502    0  0.78176559179E+01  0.40753588041E+02 -0.28694105581E+03  0.28995622530E+03  0.41800000000E+01 0.  1.
         -5    1    3    3    0  502  0.75021794972E+02 -0.27152027756E+02 -0.12181415900E+03  0.14567657349E+03  0.41800000000E+01 0.  1.
        -11    1    1    2    0    0  0.16110237867E+01 -0.34054221238E+02 -0.93428453383E+02  0.99454317570E+02  0.00000000000E+00 0.  1.
         11    1    1    2    0    0 -0.84450474676E+02  0.20452660953E+02 -0.48232918263E+03  0.49009349560E+03  0.00000000000E+00 0. -1.
</event>
<event>
 7    1  0.2794945E-009  0.1236563E+03  0.7561462E-02  0.1237184E+00
         -2   -1    0    0    0  501 -0.00000000000E+00  0.00000000000E+00  0.51383157703E+02  0.51383157703E+02  0.00000000000E+00 0.  1.
          2   -1    0    0  501    0  0.00000000000E+00 -0.00000000000E+00 -0.63052519264E+03  0.63052519264E+03  0.00000000000E+00 0. -1.
         25    2    1    2    0    0 -0.74166773087E+02  0.11786586408E+02 -0.74205668361E+02  0.16368791012E+03  0.12509043469E+03 0.  0.
          5    1    3    3  502    0 -0.41694207829E+02 -0.47356647209E+02  0.98586725309E-01  0.63234018699E+02  0.41800000000E+01 0. -1.
         -5    1    3    3    0  502 -0.32472565258E+02  0.59143233617E+02 -0.74304255087E+02  0.10045389142E+03  0.41800000000E+01 0. -1.
        -11    1    1    2    0    0 -0.20040219777E+02 -0.96600714846E+01 -0.10539057868E+03  0.10771305150E+03  0.00000000000E+00 0. -1.
         11    1    1    2    0    0  0.94206992865E+02 -0.21265149230E+01 -0.39954578790E+03  0.41050738873E+03  0.00000000000E+00 0.  1.
</event>
<event>
 7    1  0.2794945E-009  0.2407492E+03  0.7561462E-02  0.1119295E+00
         -2   -1    0    0    0  501 -0.00000000000E+00  0.00000000000E+00  0.59822571648E+02  0.59822571648E+02  0.00000000000E+00 0.  1.
          2   -1    0    0  501    0  0.00000000000E+00 -0.00000000000E+00 -0.11307199684E+04  0.11307199684E+04  0.00000000000E+00 0. -1.
         25    2    1    2    0    0  0.15714019161E+03  0.17127901263E+03 -0.45998604551E+03  0.53034282848E+03  0.12508722424E+03 0.  0.
          5    1    3    3  502    0  0.10970538444E+03  0.13668287800E+03 -0.42983069596E+03  0.46420833696E+03  0.41800000000E+01 0. -1.
         -5    1    3    3    0  502  0.47434807163E+02  0.34596134633E+02 -0.30155349553E+02  0.66134491521E+02  0.41800000000E+01 0. -1.
        -11    1    1    2    0    0 -0.74432374304E+02 -0.23637170884E+02 -0.14828939139E+03  0.16759665208E+03  0.00000000000E+00 0.  1.
         11    1    1    2    0    0 -0.82707817301E+02 -0.14764184175E+03 -0.46262195990E+03  0.49260305953E+03  0.00000000000E+00 0. -1.
</event>
<event>
 7    1  0.2794945E-009  0.9749222E+02  0.7561462E-02  0.1285660E+00
         -2   -1    0    0    0  501 -0.00000000000E+00  0.00000000000E+00  0.10251903301E+04  0.10251903301E+04  0.00000000000E+00 0.  1.
          2   -1    0    0  501    0  0.00000000000E+00 -0.00000000000E+00 -0.17459017305E+02  0.17459017305E+02  0.00000000000E+00 0. -1.
         25    2    1    2    0    0 -0.35729141611E+02  0.35718709658E+02  0.49573390245E+03  0.51375973467E+03  0.12507823610E+03 0.  0.
          5    1    3    3  502    0 -0.47665062579E+02  0.37733813751E+02  0.49715437327E+03  0.50087497657E+03  0.41800000000E+01 0.  1.
         -5    1    3    3    0  502  0.11935920968E+02 -0.20151040926E+01 -0.14204708211E+01  0.12884758097E+02  0.41800000000E+01 0.  1.
        -11    1    1    2    0    0  0.16678471893E+02 -0.75400841905E+02  0.41828886001E+03  0.42535753055E+03  0.00000000000E+00 0.  1.
         11    1    1    2    0    0  0.19050669718E+02  0.39682132247E+02  0.93708550303E+02  0.10353208216E+03  0.00000000000E+00 0. -1.
</event>
<event>
 7    1  0.2794945E-009  0.8702818E+02  0.7561462E-02  0.1310212E+00
         -1   -1    0    0    0  501 -0.00000000000E+00  0.00000000000E+00  0.47161100644E+02  0.47161100644E+02  0.00000000000E+00 0.  1.
          1   -1    0    0  501    0  0.00000000000E+00 -0.00000000000E+00 -0.37602470673E+03  0.37602470673E+03  0.00000000000E+00 0. -1.
         25    2    1    2    0    0 -0.44437256916E+02 -0.55382159021E+02 -0.14104197108E+03  0.20145174475E+03  0.12509242389E+03 0.  0.
          5    1    3    3  502    0 -0.52468537385E+02 -0.77438136360E+01 -0.95541756688E+00  0.53209954780E+02  0.41800000000E+01 0. -1.
         -5    1    3    3    0  502  0.80312804696E+01 -0.47638345385E+02 -0.14008655351E+03  0.14824178997E+03  0.41800000000E+01 0. -1.
        -11    1    1    2    0    0  0.15537937289E+02  0.30495532919E+02 -0.45389340660E+01  0.34525453591E+02  0.00000000000E+00 0.  1.
         11    1    1    2    0    0  0.28899319627E+02  0.24886626102E+02 -0.18328270094E+03  0.18720860903E+03  0.00000000000E+00 0. -1.
</event>
<event>
 7    1  0.2794945E-009  0.1316698E+03  0.7561462E-02  0.1224999E+00
         -2   -1    0    0    0  501 -0.00000000000E+00  0.00000000000E+00  0.50746399569E+02  0.50746399569E+02  0.00000000000E+00 0. -1.
          2   -1    0    0  501    0  0.00000000000E+00 -0.00000000000E+00 -0.42898348577E+03  0.42898348577E+03  0.00000000000E+00 0.  1.
         25    2    1    2    0    0  0.17702345265E+01  0.99164468914E+02 -0.20158699221E+03  0.25714032393E+03  0.12508838930E+03 0.  0.
          5    1    3    3  502    0  0.14841843321E+02 -0.13315659036E+02 -0.10877905927E+03  0.11067042615E+03  0.41800000000E+01 0. -1.
         -5    1    3    3    0  502 -0.13071608795E+02  0.11248012795E+03 -0.92807932944E+02  0.14646989779E+03  0.41800000000E+01 0. -1.
        -11    1    1    2    0    0  0.29013309249E+02 -0.35803710486E+01 -0.71235017381E+02  0.77000122544E+02  0.00000000000E+00 0.  1.
         11    1    1    2    0    0 -0.30783543775E+02 -0.95584097865E+02 -0.10541507661E+03  0.14558943887E+03  0.00000000000E+00 0. -1.
</event>
<event>
 7    1  0.2794945E-009  0.1549953E+03  0.7561462E-02  0.1194466E+00
         -1   -1    0    0    0  501 -0.00000000000E+00  0.00000000000E+00  0.29160289495E+03  0.29160289495E+03  0.00000000000E+00 0.  1.
          1   -1    0    0  501    0  0.00000000000E+00 -0.00000000000E+00 -0.89943053637E+02  0.89943053637E+02  0.00000000000E+00 0. -1.
         25    2    1    2    0    0 -0.12057248162E+02 -0.11915880007E+03  0.11346518338E+03  0.20704205524E+03  0.12509143829E+03 0.  0.
          5    1    3    3  502    0  0.11983767108E+02 -0.13996986480E+03  0.98676528774E+02  0.17172566336E+03  0.41800000000E+01 0.  1.
         -5    1    3    3    0  502 -0.24041015269E+02  0.20811064731E+02  0.14788654605E+02  0.35316391880E+02  0.41800000000E+01 0.  1.
        -11    1    1    2    0    0  0.39947663031E+02  0.61661483546E+02  0.82306870029E+02  0.11032848766E+03  0.00000000000E+00 0.  1.
         11    1    1    2    0    0 -0.27890414869E+02  0.57497316520E+02  0.58877879008E+01  0.64175405686E+02  0.00000000000E+00 0. -1.
</event>
<event>
 7    1  0.2794945E-009  0.1480181E+03  0.7561462E-02  0.1202930E+00
         -2   -1    0    0    0  501 -0.00000000000E+00  0.00000000000E+00  0.52934867403E+02  0.52934867403E+02  0.00000000000E+00 0.  1.
          2   -1    0    0  501    0  0.00000000000E+00 -0.00000000000E+00 -0.50791900141E+03  0.50791900141E+03  0.00000000000E+00 0. -1.
         25    2    1    2    0    0 -0.11481557837E+03  0.10877144053E+02 -0.17416755796E+03  0.24348172101E+03  0.12509228962E+03 0.  0.
          5    1    3    3  502    0 -0.12972646088E+03  0.41126548058E+02 -0.14029412864E+03  0.19550003207E+03  0.41800000000E+01 0.  1.
         -5    1    3    3    0  502  0.14910882512E+02 -0.30249404005E+02 -0.33873429321E+02  0.47981688944E+02  0.41800000000E+01 0.  1.
        -11    1    1    2    0    0  0.20513639246E+02  0.17983458436E+02 -0.15564720058E+03  0.15801982541E+03  0.00000000000E+00 0. -1.
         11    1    1    2    0    0  0.94301939122E+02 -0.28860602489E+02 -0.12516937547E+03  0.15935232240E+03  0.00000000000E+00 0.  1.
</event>
<event>
 7    1  0.2794945E-009  0.1100915E+03  0.7561462E-02  0.1260401E+00
          1   -1    0    0  501    0  0.00000000000E+00  0.00000000000E+00  0.42671487412E+03  0.42671487412E+03  0.00000000000E+00 0.  1.
         -1   -1    0    0    0  501 -0.00000000000E+00 -0.00000000000E+00 -0.39520282896E+02  0.39520282896E+02  0.00000000000E+00 0. -1.
         25    2    1    2    0    0 -0.42901350406E+02 -0.39773824389E+02  0.28117122791E+03  0.31325314556E+03  0.12509113007E+03 0.  0.
          5    1    3    3  502    0 -0.75908837405E+02 -0.48826102828E+02  0.13075512200E+03  0.15893556633E+03  0.41800000000E+01 0.  1.
         -5    1    3    3    0  502  0.33007486999E+02  0.90522784381E+01  0.15041610591E+03  0.15431757923E+03  0.41800000000E+01 0.  1.
        -11    1    1    2    0    0 -0.20114449376E+02  0.22140976692E+02  0.18613349030E+01  0.29971294437E+02  0.00000000000E+00 0. -1.
         11    1    1    2    0    0  0.63015799782E+02  0.17632847697E+02  0.10416202841E+03  0.12301071702E+03  0.00000000000E+00 0.  1.
</event>
<event>
 7    1  0.2794945E-009  0.3159243E+03  0.7561462E-02  0.1077541E+00
         -1   -1    0    0    0  501 -0.00000000000E+00  0.00000000000E+00  0.10748828299E+03  0.10748828299E+03  0.00000000000E+00 0.  1.
          1   -1    0    0  501    0  0.00000000000E+00 -0.00000000000E+00 -0.10201358149E+04  0.10201358149E+04  0.00000000000E+00 0. -1.
         25    2    1    2    0    0 -0.66966032556E+02  0.28950738971E+03 -0.29810807253E+03  0.43910411794E+03  0.12508007545E+03 0.  0.
          5    1    3    3  502    0  0.35588464287E+02  0.94289603058E+02 -0.78015537720E+02  0.12751848713E+03  0.41800000000E+01 0. -1.
         -5    1    3    3    0  502 -0.10255449684E+03  0.19521778665E+03 -0.22009253481E+03  0.31158563081E+03  0.41800000000E+01 0. -1.
        -11    1    1    2    0    0 -0.86745193272E+01 -0.16153969040E+03 -0.31341537398E+03  0.35270315494E+03  0.00000000000E+00 0.  1.
         11    1    1    2    0    0  0.75640551883E+02 -0.12796769931E+03 -0.30112408542E+03  0.33581682504E+03  0.00000000000E+00 0. -1.
</event>
<event>
 7    1  0.2794945E-009  0.1049557E+03  0.7561462E-02  0.1270207E+00
          1   -1    0    0  501    0  0.00000000000E+00  0.00000000000E+00  0.53883315711E+03  0.53883315711E+03  0.00000000000E+00 0. -1.
         -1   -1    0    0    0  501 -0.00000000000E+00 -0.00000000000E+00 -0.35302228864E+02  0.35302228864E+02  0.00000000000E+00 0.  1.
         25    2    1    2    0    0  0.59793804925E+02  0.28807266011E+02  0.16601725126E+03  0.21820843677E+03  0.12509211199E+03 0.  0.
          5    1    3    3  502    0  0.37644748600E+02  0.73826487485E+02  0.13680208525E+03  0.15999925087E+03  0.41800000000E+01 0. -1.
         -5    1    3    3    0  502  0.22149056326E+02 -0.45019221474E+02  0.29215166009E+02  0.58209185900E+02  0.41800000000E+01 0. -1.
        -11    1    1    2    0    0 -0.61078724637E+02 -0.15226991726E+02  0.33640197950E+03  0.34224079782E+03  0.00000000000E+00 0. -1.
         11    1    1    2    0    0  0.12849197111E+01 -0.13580274285E+02  0.11116974881E+01  0.13686151381E+02  0.00000000000E+00 0.  1.
</event>
<event>
 6    1  0.2794945E-009  0.1405200E+03  0.7561462E-02  0.1212631E+00
          1   -1    0    0  501    0  0.00000000000E+00  0.00000000000E+00  0.68130014594E+02  0.68130014594E+02  0.00000000000E+00 0. -1.
         -1   -1    0    0    0  501 -0.00000000000E+00 -0.00000000000E+00 -0.34409013545E+03  0.34409013545E+03  0.00000000000E+00 0.  1.
          5    1    1    2  502    0 -0.17568488528E+02  0.11137377510E+02 -0.57983307487E+02  0.61743253187E+02  0.41800000000E+01 0. -1.
         -5    1    1    2    0  502  0.10142457928E+03 -0.70383690556E+02 -0.50618386504E+02  0.13349345538E+03  0.41800000000E+01 0. -1.
        -11    1    1    2    0    0 -0.42477736783E+01  0.56482764159E+02 -0.87162560954E+02  0.10395026821E+03  0.00000000000E+00 0.  1.
         11    1    1    2    0    0 -0.79608317073E+02  0.27635488869E+01 -0.80195865915E+02  0.11303317327E+03  0.00000000000E+00 0. -1.
</event>
<event>
 7    1  0.2794945E-009  0.9678692E+02  0.7561462E-02  0.1287201E+00
         -1   -1    0    0    0  501 -0.00000000000E+00  0.00000000000E+00  0.85213187337E+02  0.85213187337E+02  0.00000000000E+00 0.  1.
          1   -1    0    0  501    0  0.00000000000E+00 -0.00000000000E+00 -0.16421512212E+03  0.16421512212E+03  0.00000000000E+00 0. -1.
         25    2    1    2    0    0 -0.34594965756E+02 -0.21914766575E+02 -0.85230441885E+02  0.15680617458E+03  0.12508748744E+03 0.  0.
          5    1    3    3  502    0 -0.95322625616E+01 -0.66554475728E+02 -0.80878486153E+02  0.10525760871E+03  0.41800000000E+01 0. -1.
         -5    1    3    3    0  502 -0.25062703194E+02  0.44639709153E+02 -0.43519557328E+01  0.51548565871E+02  0.41800000000E+01 0. -1.
        -11    1    1    2    0    0  0.11143690240E+02 -0.22225434417E+02 -0.23712427594E+02  0.34357400798E+02  0.00000000000E+00 0. -1.
         11    1    1    2    0    0  0.23451275516E+02  0.44140200991E+02  0.29940934696E+02  0.58264734079E+02  0.00000000000E+00 0.  1.
</event>
<event>
 7    1  0.2794945E-009  0.1678984E+03  0.7561462E-02  0.1180057E+00
         -1   -1    0    0    0  501 -0.00000000000E+00  0.00000000000E+00  0.13225678731E+03  0.13225678731E+03  0.00000000000E+00 0.  1.
          1   -1    0    0  501    0  0.00000000000E+00 -0.00000000000E+00 -0.33866735969E+03  0.33866735969E+03  0.00000000000E+00 0. -1.
         25    2    1    2    0    0  0.14265476075E+03  0.26121333424E+02 -0.22795778492E+03  0.29773128389E+03  0.12508581404E+03 0.  0.
          5    1    3    3  502    0  0.96805820555E+02 -0.44344128558E+02 -0.11387824564E+03  0.15595991748E+03  0.41800000000E+01 0.  1.
         -5    1    3    3    0  502  0.45848940196E+02  0.70465461982E+02 -0.11407953929E+03  0.14177136641E+03  0.41800000000E+01 0.  1.
        -11    1    1    2    0    0 -0.85708496555E+02 -0.17323149848E+02  0.58073431755E+02  0.10496933542E+03  0.00000000000E+00 0.  1.
         11    1    1    2    0    0 -0.56946264196E+02 -0.87981835762E+01 -0.36526219210E+02  0.68223527686E+02  0.00000000000E+00 0. -1.
</event>
<event>
 7    1  0.2794945E-009  0.1892214E+03  0.7561462E-02  0.1159165E+00
          3   -1    0    0  501    0  0.00000000000E+00  0.00000000000E+00  0.31103149032E+03  0.31103149032E+03  0.00000000000E+00 0. -1.
         -3   -1    0    0    0  501 -0.00000000000E+00 -0.00000000000E+00 -0.13866488021E+03  0.13866488021E+03  0.00000000000E+00 0.  1.
         25    2    1    2    0    0  0.10940944947E+03 -0.12927155677E+03  0.36239969112E+02  0.21364207863E+03  0.12509212355E+03 0.  0.
          5    1    3    3  502    0 -0.15474134522E+02 -0.25076899032E+02 -0.25929346440E+02  0.39472814837E+02  0.41800000000E+01 0.  1.
         -5    1    3    3    0  502  0.12488358399E+03 -0.10419465774E+03  0.62169315552E+02  0.17416926379E+03  0.41800000000E+01 0.  1.
        -11    1    1    2    0    0 -0.66666041947E+02  0.12669497451E+03  0.12887041132E+03  0.19262284555E+03  0.00000000000E+00 0. -1.
         11    1    1    2    0    0 -0.42743407525E+02  0.25765822588E+01  0.72562296843E+01  0.43431446352E+02  0.00000000000E+00 0.  1.
</event>
<event>
 7    1  0.2794945E-009  0.1868384E+03  0.7561462E-02  0.1161344E+00
          3   -1    0    0  501    0  0.00000000000E+00  0.00000000000E+00  0.47118888554E+02  0.47118888554E+02  0.00000000000E+00 0. -1.
         -3   -1    0    0    0  501 -0.00000000000E+00 -0.00000000000E+00 -0.92032778444E+03  0.92032778444E+03  0.00000000000E+00 0.  1.
         25    2    1    2    0    0 -0.14932503706E+03 -0.85893872385E+02 -0.55780309111E+03  0.59704947005E+03  0.12509219492E+03 0.  0.
          5    1    3    3  502    0 -0.85228495953E+02  0.87623191509E+01 -0.34438329160E+03  0.35490561942E+03  0.41800000000E+01 0. -1.
         -5    1    3    3    0  502 -0.64096541111E+02 -0.94656191535E+02 -0.21341979951E+03  0.24214385064E+03  0.41800000000E+01 0. -1.
        -11    1    1    2    0    0  0.79650048810E+02  0.33880651923E+02 -0.74229921244E+02  0.11402679535E+03  0.00000000000E+00 0.  1.
         11    1    1    2    0    0  0.69674988254E+02  0.52013220462E+02 -0.24117588353E+03  0.25637040759E+03  0.00000000000E+00 0. -1.
</event>
<event>
 7    1  0.2856847E-009  0.2145197E+03  0.7561462E-02  0.1138036E+00
         -1   -1    0    0    0  501 -0.00000000000E+00  0.00000000000E+00  0.17135117973E+03  0.17135117973E+03  0.00000000000E+00 0.  1.
          1   -1    0    0  501    0  0.00000000000E+00 -0.00000000000E+00 -0.33389915369E+03  0.33389915369E+03  0.00000000000E+00 0. -1.
         25    2    1    2    0    0 -0.13364658526E+03 -0.15948677339E+03 -0.37161568878E+02  0.24561247481E+03  0.12508822864E+03 0.  0.
          5    1    3    3  502    0 -0.10364467317E+03 -0.75177616440E+02  0.32458731242E+02  0.13215496178E+03  0.41800000000E+01 0. -1.
         -5    1    3    3    0  502 -0.30001912092E+02 -0.84309156946E+02 -0.69620300120E+02  0.11345751303E+03  0.41800000000E+01 0. -1.
        -11    1    1    2    0    0  0.10447872346E+03  0.97794707898E+02 -0.36702968553E+02  0.14773867622E+03  0.00000000000E+00 0.  1.
         11    1    1    2    0    0  0.29167861796E+02  0.61692065487E+02 -0.88683436523E+02  0.11189918239E+03  0.00000000000E+00 0. -1.
</event>
<event>
 7    1  0.2794945E-009  0.8175540E+02  0.7561462E-02  0.1324142E+00
         -2   -1    0    0    0  501 -0.00000000000E+00  0.00000000000E+00  0.50103792015E+02  0.50103792015E+02  0.00000000000E+00 0.  1.
          2   -1    0    0  501    0  0.00000000000E+00 -0.00000000000E+00 -0.28909463825E+03  0.28909463825E+03  0.00000000000E+00 0. -1.
         25    2    1    2    0    0  0.35304531958E+01  0.37056577805E+02 -0.18605198149E+03  0.22726325550E+03  0.12509034105E+03 0.  0.
          5    1    3    3  502    0  0.50402777810E+02 -0.78545576932E+01 -0.32834580184E+02  0.60808849220E+02  0.41800000000E+01 0. -1.
         -5    1    3    3    0  502 -0.46872324615E+02  0.44911135498E+02 -0.15321740130E+03  0.16645440628E+03  0.41800000000E+01 0. -1.
        -11    1    1    2    0    0 -0.16287120683E+02 -0.24174370931E+02 -0.76697271582E+02  0.82049631188E+02  0.00000000000E+00 0. -1.
         11    1    1    2    0    0  0.12756667487E+02 -0.12882206874E+02  0.23758406838E+02  0.29885543576E+02  0.00000000000E+00 0.  1.
</event>
<event>
 7    1  0.2890566E-009  0.1076962E+03  0.7561462E-02  0.1264897E+00
          1   -1    0    0  501    0  0.00000000000E+00  0.00000000000E+00  0.41859454636E+02  0.41859454636E+02  0.00000000000E+00 0. -1.
         -1   -1    0    0    0  501 -0.00000000000E+00 -0.00000000000E+00 -0.45203349800E+03  0.45203349800E+03  0.00000000000E+00 0.  1.
         25    2    1    2    0    0 -0.92844610532E+01  0.83778528978E+02 -0.22948459249E+03  0.27461810624E+03  0.12508750118E+03 0.  0.
          5    1    3    3  502    0 -0.43324743152E+02  0.22396731314E+02 -0.18674932410E+02  0.52391530262E+02  0.41800000000E+01 0.  1.
         -5    1    3    3    0  502  0.34040282098E+02  0.61381797664E+02 -0.21080966008E+03  0.22222657598E+03  0.41800000000E+01 0.  1.
        -11    1    1    2    0    0  0.28101192151E+02 -0.54646476844E+02 -0.37592895334E+02  0.72035687068E+02  0.00000000000E+00 0. -1.
         11    1    1    2    0    0 -0.18816731098E+02 -0.29132052134E+02 -0.14309655555E+03  0.14723915933E+03  0.00000000000E+00 0.  1.
</event>
<event>
 7    1  0.2794945E-009  0.8350208E+02  0.7561462E-02  0.1319397E+00
          1   -1    0    0  501    0  0.00000000000E+00  0.00000000000E+00  0.52810811036E+03  0.52810811036E+03  0.00000000000E+00 0. -1.
         -1   -1    0    0    0  501 -0.00000000000E+00 -0.00000000000E+00 -0.30514928452E+02  0.30514928452E+02  0.00000000000E+00 0.  1.
         25    2    1    2    0    0  0.31334853194E+02 -0.26854323800E+02  0.44328971017E+03  0.46244589997E+03  0.12508962996E+03 0.  0.
          5    1    3    3  502    0 -0.17845488170E+02 -0.41939350935E+02  0.36992534293E+03  0.37274602928E+03  0.41800000000E+01 0.  1.
         -5    1    3    3    0  502  0.49180341364E+02  0.15085027135E+02  0.73364367246E+02  0.89699870690E+02  0.41800000000E+01 0.  1.
        -11    1    1    2    0    0 -0.46815876668E+02  0.27189467575E+02  0.58922898344E+02  0.80018131723E+02  0.00000000000E+00 0.  1.
         11    1    1    2    0    0  0.15481023473E+02 -0.33514377529E+00 -0.46194266026E+01  0.16159007125E+02  0.00000000000E+00 0. -1.
</event>
<event>
 7    1  0.2794945E-009  0.1027953E+03  0.7561462E-02  0.1274525E+00
          2   -1    0    0  501    0  0.00000000000E+00  0.00000000000E+00  0.48062682075E+03  0.48062682075E+03  0.00000000000E+00 0. -1.
         -2   -1    0    0    0  501 -0.00000000000E+00 -0.00000000000E+00 -0.34048691393E+02  0.34048691393E+02  0.00000000000E+00 0.  1.
         25    2    1    2    0    0 -0.36927998758E+02  0.26960721652E+02  0.35580671390E+03  0.37992099388E+03  0.12510390216E+03 0.  0.
          5    1    3    3  502    0  0.32588354823E+02  0.94917796148E+01  0.24829187754E+03  0.25063603812E+03  0.41800000000E+01 0.  1.
         -5    1    3    3    0  502 -0.69516353582E+02  0.17468942037E+02  0.10751483635E+03  0.12928495577E+03  0.41800000000E+01 0.  1.
        -11    1    1    2    0    0 -0.29468394545E+02 -0.89100323450E+01  0.27533216230E+02  0.41301972706E+02  0.00000000000E+00 0. -1.
         11    1    1    2    0    0  0.66396393303E+02 -0.18050689307E+02  0.63238199230E+02  0.93452545551E+02  0.00000000000E+00 0.  1.
</event>
<event>
 7    1  0.2794945E-009  0.1993252E+03  0.7561462E-02  0.1150310E+00
         -2   -1    0    0    0  501 -0.00000000000E+00  0.00000000000E+00  0.93522226366E+02  0.93522226366E+02  0.00000000000E+00 0. -1.
          2   -1    0    0  501    0  0.00000000000E+00 -0.00000000000E+00 -0.63560924897E+03  0.63560924897E+03  0.00000000000E+00 0.  1.
         25    2    1    2    0    0 -0.13047426324E+03  0.13498574675E+03 -0.11344022647E+03  0.25250784299E+03  0.12508733187E+03 0.  0.
          5    1    3    3  502    0 -0.21245168741E+02 -0.27489017350E+01 -0.67250294773E+02  0.70703523269E+02  0.41800000000E+01 0.  1.
         -5    1    3    3    0  502 -0.10922909450E+03  0.13773464849E+03 -0.46189931699E+02  0.18180431972E+03  0.41800000000E+01 0.  1.
        -11    1    1    2    0    0  0.10541710285E+03 -0.14018101393E+03 -0.40670905706E+03  0.44291730530E+03  0.00000000000E+00 0.  1.
         11    1    1    2    0    0  0.25057160387E+02  0.51952671746E+01 -0.21937739074E+02  0.33706327052E+02  0.00000000000E+00 0. -1.
</event>
<event>
 7    1  0.2794945E-009  0.1282089E+03  0.7561462E-02  0.1230138E+00
          1   -1    0    0  501    0  0.00000000000E+00  0.00000000000E+00  0.99896494931E+02  0.99896494931E+02  0.00000000000E+00 0. -1.
         -1   -1    0    0    0  501 -0.00000000000E+00 -0.00000000000E+00 -0.20616613436E+03  0.20616613436E+03  0.00000000000E+00 0.  1.
         25    2    1    2    0    0 -0.90392271086E+02 -0.13391923570E+02 -0.67116485679E+02  0.16882529562E+03  0.12508897435E+03 0.  0.
          5    1    3    3  502    0 -0.78659920876E+02 -0.64636329793E+02 -0.48990550194E+02  0.11306097775E+03  0.41800000000E+01 0. -1.
         -5    1    3    3    0  502 -0.11732350209E+02  0.51244406223E+02 -0.18125935485E+02  0.55764317873E+02  0.41800000000E+01 0. -1.
        -11    1    1    2    0    0  0.36599484692E+02  0.27957819611E+02 -0.61806471358E+02  0.77079192126E+02  0.00000000000E+00 0. -1.
         11    1    1    2    0    0  0.53792786394E+02 -0.14565896041E+02  0.22653317606E+02  0.60158141544E+02  0.00000000000E+00 0.  1.
</event>
<event>
 7    1  0.2794945E-009  0.1477288E+03  0.7561462E-02  0.1203292E+00
         -2   -1    0    0    0  501 -0.00000000000E+00  0.00000000000E+00  0.61310178582E+03  0.61310178582E+03  0.00000000000E+00 0.  1.
          2   -1    0    0  501    0  0.00000000000E+00 -0.00000000000E+00 -0.44709367471E+02  0.44709367471E+02  0.00000000000E+00 0. -1.
         25    2    1    2    0    0  0.77668237807E+02  0.95915801117E+02  0.34486524669E+03  0.38705543668E+03  0.12509067359E+03 0.  0.
          5    1    3    3  502    0  0.59092170236E+02 -0.87410755509E+01  0.68827472676E+02  0.91230391756E+02  0.41800000000E+01 0. -1.
         -5    1    3    3    0  502  0.18576067571E+02  0.10465687667E+03  0.27603777401E+03  0.29582504492E+03  0.41800000000E+01 0. -1.
        -11    1    1    2    0    0 -0.25113149207E+02 -0.72644350932E+01  0.17483500558E+01  0.26201126087E+02  0.00000000000E+00 0. -1.
         11    1    1    2    0    0 -0.52555088600E+02 -0.88651366023E+02  0.22177882161E+03  0.24455459053E+03  0.00000000000E+00 0.  1.
</event>
<event>
 7    1  0.2794945E-009  0.1096557E+03  0.7561462E-02  0.1261209E+00
          4   -1    0    0  501    0  0.00000000000E+00  0.00000000000E+00  0.16477470051E+03  0.16477470051E+03  0.00000000000E+00 0.  1.
         -4   -1    0    0    0  501 -0.00000000000E+00 -0.00000000000E+00 -0.16360549301E+03  0.16360549301E+03  0.00000000000E+00 0. -1.
         25    2    1    2    0    0 -0.52539795383E+02 -0.17821626024E+02  0.11153607529E+03  0.17654446085E+03  0.12509840172E+03 0.  0.
          5    1    3    3  502    0 -0.78240192745E+02  0.27380854108E+02  0.81633196610E+02  0.11641602176E+03  0.41800000000E+01 0. -1.
         -5    1    3    3    0  502  0.25700397362E+02 -0.45202480132E+02  0.29902878678E+02  0.60128439094E+02  0.41800000000E+01 0. -1.
        -11    1    1    2    0    0  0.62563713884E+02 -0.12785637404E+01 -0.31472195982E+02  0.70045357734E+02  0.00000000000E+00 0.  1.
         11    1    1    2    0    0 -0.10023918500E+02  0.19100189765E+02 -0.78894671809E+02  0.81790374929E+02  0.00000000000E+00 0. -1.
</event>
<event>
 7    1  0.2794945E-009  0.2084380E+03  0.7561462E-02  0.1142809E+00
         -2   -1    0    0    0  501 -0.00000000000E+00  0.00000000000E+00  0.11192205028E+03  0.11192205028E+03  0.00000000000E+00 0. -1.
          2   -1    0    0  501    0  0.00000000000E+00 -0.00000000000E+00 -0.44636790433E+03  0.44636790433E+03  0.00000000000E+00 0.  1.
         25    2    1    2    0    0 -0.18473749564E+03 -0.59887577451E+02 -0.19443869324E+03  0.30193889723E+03  0.12508488320E+03 0.  0.
          5    1    3    3  502    0 -0.46670781261E+02 -0.47320037419E+02 -0.13600154796E+03  0.15143064819E+03  0.41800000000E+01 0.  1.
         -5    1    3    3    0  502 -0.13806671438E+03 -0.12567540031E+02 -0.58437145287E+02  0.15050824904E+03  0.41800000000E+01 0.  1.
        -11    1    1    2    0    0  0.18372617010E+03  0.35440635715E+02 -0.10793847913E+03  0.21601402620E+03  0.00000000000E+00 0. -1.
         11    1    1    2    0    0  0.10113255382E+01  0.24446941735E+02 -0.32068681670E+02  0.40337031170E+02  0.00000000000E+00 0.  1.
</event>
<event>
 7    1  0.2794945E-009  0.1072912E+03  0.7561462E-02  0.1265670E+00
          1   -1    0    0  501    0  0.00000000000E+00  0.00000000000E+00  0.32651020230E+03  0.32651020230E+03  0.00000000000E+00 0. -1.
         -1   -1    0    0    0  501 -0.00000000000E+00 -0.00000000000E+00 -0.10686133112E+03  0.10686133112E+03  0.00000000000E+00 0.  1.
         25    2    1    2    0    0  0.22577283799E+02 -0.46248785566E+02  0.28298953732E+03  0.31365441440E+03  0.12508928624E+03 0.  0.
          5    1    3    3  502    0  0.11114071002E+02 -0.86845406390E+02  0.14636129343E+03  0.17060113657E+03  0.41800000000E+01 0.  1.
         -5    1    3    3    0  502  0.11463212798E+02  0.40596620825E+02  0.13662824389E+03  0.14305327783E+03  0.41800000000E+01 0.  1.
        -11    1    1    2    0    0 -0.27257554002E+02 -0.92942147362E+01  0.73234981819E+01  0.29715152757E+02  0.00000000000E+00 0. -1.
         11    1    1    2    0    0  0.46802702030E+01  0.55543000302E+02 -0.70664164321E+02  0.90001966261E+02  0.00000000000E+00 0.  1.
</event>
<event>
 7    1  0.2794945E-009  0.1212273E+03  0.7561462E-02  0.1241086E+00
          2   -1    0    0  501    0  0.00000000000E+00  0.00000000000E+00  0.26593390255E+03  0.26593390255E+03  0.00000000000E+00 0. -1.
         -2   -1    0    0    0  501 -0.00000000000E+00 -0.00000000000E+00 -0.66606100390E+02  0.66606100390E+02  0.00000000000E+00 0.  1.
         25    2    1    2    0    0 -0.54241830579E+02 -0.19384089113E+02  0.44996207926E+02  0.14487992546E+03  0.12509042720E+03 0.  0.
          5    1    3    3  502    0 -0.80682394096E+02 -0.50022606073E+02  0.42568267134E+02  0.10412223395E+03  0.41800000000E+01 0. -1.
         -5    1    3    3    0  502  0.26440563517E+02  0.30638516960E+02  0.24279407920E+01  0.40757691508E+02  0.41800000000E+01 0. -1.
        -11    1    1    2    0    0  0.26259184044E+02 -0.36079346287E+02  0.66096954059E+02  0.79750055242E+02  0.00000000000E+00 0. -1.
         11    1    1    2    0    0  0.27982646535E+02  0.55463435401E+02  0.88234640171E+02  0.10791002224E+03  0.00000000000E+00 0.  1.
</event>
<event>
 7    1  0.2794945E-009  0.2086821E+03  0.7561462E-02  0.1142614E+00
          2   -1    0    0  501    0  0.00000000000E+00  0.00000000000E+00  0.76804502914E+03  0.76804502914E+03  0.00000000000E+00 0. -1.
         -2   -1    0    0    0  501 -0.00000000000E+00 -0.00000000000E+00 -0.63547804842E+02  0.63547804842E+02  0.00000000000E+00 0.  1.
         25    2    1    2    0    0  0.10545917926E+03  0.15373520271E+03  0.27667912154E+03  0.35630788219E+03  0.12509124498E+03 0.  0.
          5    1    3    3  502    0 -0.23552766581E+02  0.36207599663E+02  0.94520592780E+02  0.10400643224E+03  0.41800000000E+01 0. -1.
         -5    1    3    3    0  502  0.12901194585E+03  0.11752760305E+03  0.18215852876E+03  0.25230144995E+03  0.41800000000E+01 0. -1.
        -11    1    1    2    0    0  0.54624968017E+01 -0.40577906779E+02  0.14966128373E+03  0.15516090113E+03  0.00000000000E+00 0. -1.
         11    1    1    2    0    0 -0.11092167607E+03 -0.11315729593E+03  0.27815681903E+03  0.32012405067E+03  0.00000000000E+00 0.  1.
</event>
<event>
 7    1  0.2794945E-009  0.1135664E+03  0.7561462E-02  0.1254105E+00
          1   -1    0    0  501    0  0.00000000000E+00  0.00000000000E+00  0.30290145313E+03  0.30290145313E+03  0.00000000000E+00 0. -1.
         -1   -1    0    0    0  501 -0.00000000000E+00 -0.00000000000E+00 -0.43874921028E+02  0.43874921028E+02  0.00000000000E+00 0.  1.
         25    2    1    2    0    0 -0.11116890453E+02 -0.57951263701E+02  0.13523417516E+03  0.19343744212E+03  0.12509127734E+03 0.  0.
          5    1    3    3  502    0 -0.17172253199E+01  0.39765693104E+02  0.41034255722E+02  0.57319645441E+02  0.41800000000E+01 0. -1.
         -5    1    3    3    0  502 -0.93996651327E+01 -0.97716956805E+02  0.94199919439E+02  0.13611779668E+03  0.41800000000E+01 0. -1.
        -11    1    1    2    0    0 -0.21780962671E+02  0.50680043062E+02  0.90411377288E+02  0.10591078436E+03  0.00000000000E+00 0. -1.
         11    1    1    2    0    0  0.32897853124E+02  0.72712206386E+01  0.33380979658E+02  0.47428147683E+02  0.00000000000E+00 0.  1.
</event>
<event>
 7    1  0.2794945E-009  0.1011376E+03  0.7561462E-02  0.1277922E+00
          1   -1    0    0  501    0  0.00000000000E+00  0.00000000000E+00  0.66720234498E+03  0.66720234498E+03  0.00000000000E+00 0. -1.
         -1   -1    0    0    0  501 -0.00000000000E+00 -0.00000000000E+00 -0.45491121600E+02  0.45491121600E+02  0.00000000000E+00 0.  1.
         25    2    1    2    0    0  0.62002334603E+02 -0.15265388364E+02  0.56759330241E+03  0.58471111527E+03  0.12509040652E+03 0.  0.
          5    1    3    3  502    0  0.71407167946E+02 -0.34210170575E+02  0.18207319841E+03  0.19858862350E+03  0.41800000000E+01 0. -1.
         -5    1    3    3    0  502 -0.94048333432E+01  0.18944782211E+02  0.38552010400E+03  0.38612249177E+03  0.41800000000E+01 0. -1.
        -11    1    1    2    0    0 -0.46290044700E+01 -0.28745996594E+02 -0.10555120772E+02  0.30970479122E+02  0.00000000000E+00 0. -1.
         11    1    1    2    0    0 -0.57373330133E+02  0.44011384958E+02  0.64673041738E+02  0.97011872181E+02  0.00000000000E+00 0.  1.
</event>
<event>
 7    1  0.2794945E-009  0.6061281E+02  0.7561462E-02  0.1395278E+00
          2   -1    0    0  501    0  0.00000000000E+00  0.00000000000E+00  0.15656378181E+03  0.15656378181E+03  0.00000000000E+00 0. -1.
         -2   -1    0    0    0  501 -0.00000000000E+00 -0.00000000000E+00 -0.83292478451E+02  0.83292478451E+02  0.00000000000E+00 0.  1.
         25    2    1    2    0    0 -0.14013543866E+01 -0.83944134453E+01  0.97864385179E+01  0.12576160571E+03  0.12509107530E+03 0.  0.
          5    1    3    3  502    0  0.27983960595E+02 -0.17841220335E+02 -0.48944060812E+02  0.59282414613E+02  0.41800000000E+01 0. -1.
         -5    1    3    3    0  502 -0.29385314982E+02  0.94468068897E+01  0.58730499330E+02  0.66479191094E+02  0.41800000000E+01 0. -1.
        -11    1    1    2    0    0  0.27759165792E+02 -0.29833637818E+01 -0.14165567888E+02  0.31307108753E+02  0.00000000000E+00 0.  1.
         11    1    1    2    0    0 -0.26357811405E+02  0.11377777227E+02  0.77650432733E+02  0.82787545805E+02  0.00000000000E+00 0. -1.
</event>
<event>
 7    1  0.2794945E-009  0.9883096E+02  0.7561462E-02  0.1282774E+00
         -2   -1    0    0    0  501 -0.00000000000E+00  0.00000000000E+00  0.36628329261E+02  0.36628329261E+02  0.00000000000E+00 0. -1.
          2   -1    0    0  501    0  0.00000000000E+00 -0.00000000000E+00 -0.39153670446E+03  0.39153670446E+03  0.00000000000E+00 0.  1.
         25    2    1    2    0    0 -0.36799554674E+02 -0.98770171198E+01 -0.14003621137E+03  0.19159923152E+03  0.12509341442E+03 0.  0.
          5    1    3    3  502    0 -0.82710621638E+01  0.51597409629E+02 -0.25140676685E+02  0.58139738337E+02  0.41800000000E+01 0.  1.
         -5    1    3    3    0  502 -0.28528492511E+02 -0.61474426749E+02 -0.11489553468E+03  0.13345949318E+03  0.41800000000E+01 0.  1.
        -11    1    1    2    0    0  0.26802443134E+02 -0.27646678261E+02 -0.33362544738E+02  0.50948691526E+02  0.00000000000E+00 0. -1.
         11    1    1    2    0    0  0.99971115408E+01  0.37523695381E+02 -0.18150961910E+03  0.18561711068E+03  0.00000000000E+00 0.  1.
</event>
<event>
 7    1  0.2794945E-009  0.1430233E+03  0.7561462E-02  0.1209318E+00
          2   -1    0    0  501    0  0.00000000000E+00  0.00000000000E+00  0.44509331886E+03  0.44509331886E+03  0.00000000000E+00 0.  1.
         -2   -1    0    0    0  501 -0.00000000000E+00 -0.00000000000E+00 -0.52218694942E+02  0.52218694942E+02  0.00000000000E+00 0. -1.
         25    2    1    2    0    0  0.82396939651E+02  0.24940103858E+02  0.12528702949E+03  0.19686337103E+03  0.12508829941E+03 0.  0.
          5    1    3    3  502    0  0.81440096369E+02  0.68813548889E+02  0.98899171597E+02  0.14548646793E+03  0.41800000000E+01 0.  1.
         -5    1    3    3    0  502  0.95684328214E+00 -0.43873445031E+02  0.26387857889E+02  0.51376903098E+02  0.41800000000E+01 0.  1.
        -11    1    1    2    0    0 -0.90779014971E+02 -0.53586251438E+02  0.18942831232E+03  0.21678422778E+03  0.00000000000E+00 0.  1.
         11    1    1    2    0    0  0.83820753194E+01  0.28646147580E+02  0.78159282110E+02  0.83664415003E+02  0.00000000000E+00 0. -1.
</event>
<event>
 6    1  0.2794945E-009  0.9462561E+02  0.7561462E-02  0.1292022E+00
          1   -1    0    0  501    0  0.00000000000E+00  0.00000000000E+00  0.43003617057E+03  0.43003617057E+03  0.00000000000E+00 0. -1.
         -1   -1    0    0    0  501 -0.00000000000E+00 -0.00000000000E+00 -0.29295953894E+02  0.29295953894E+02  0.00000000000E+00 0.  1.
          5    1    1    2  502    0 -0.43333602994E+02  0.25038717736E+02  0.14406158866E+03  0.15256458390E+03  0.41800000000E+01 0.  1.
         -5    1    1    2    0  502  0.40639647113E+02 -0.28731731622E+02  0.19911710065E+02  0.53768410030E+02  0.41800000000E+01 0.  1.
        -11    1    1    2    0    0 -0.38001409407E+02 -0.19002693914E+02  0.11824212797E+03  0.12564398243E+03  0.00000000000E+00 0.  1.
         11    1    1    2    0    0  0.40695365289E+02  0.22695707801E+02  0.11852478998E+03  0.12735514810E+03  0.00000000000E+00 0. -1.
</event>
<event>
 7    1  0.2794945E-009  0.9773502E+02  0.7561462E-02  0.1285132E+00
         -1   -1    0    0    0  501 -0.00000000000E+00  0.00000000000E+00  0.48310481821E+02  0.48310481821E+02  0.00000000000E+00 0.  1.
          1   -1    0    0  501    0  0.00000000000E+00 -0.00000000000E+00 -0.31160010486E+03  0.31160010486E+03  0.00000000000E+00 0. -1.
         25    2    1    2    0    0 -0.14297640845E+02 -0.40335648693E+02 -0.20078948918E+03  0.24040906485E+03  0.12509481368E+03 0.  0.
          5    1    3    3  502    0 -0.29667935233E+02 -0.77674664194E+02 -0.17056498482E+03  0.18979838326E+03  0.41800000000E+01 0.  1.
         -5    1    3    3    0  502  0.15370294388E+02  0.37339015501E+02 -0.30224504357E+02  0.50610681598E+02  0.41800000000E+01 0.  1.
        -11    1    1    2    0    0 -0.21228143007E+02  0.56385752741E+01 -0.66157733187E+02  0.69708487626E+02  0.00000000000E+00 0. -1.
         11    1    1    2    0    0  0.35525783852E+02  0.34697073419E+02  0.36575993288E+01  0.49793034202E+02  0.00000000000E+00 0.  1.
</event>
<event>
 7    1  0.2794945E-009  0.1296397E+03  0.7561462E-02  0.1227991E+00
         -2   -1    0    0    0  501 -0.00000000000E+00  0.00000000000E+00  0.79823958393E+02  0.79823958393E+02  0.00000000000E+00 0.  1.
          2   -1    0    0  501    0  0.00000000000E+00 -0.00000000000E+00 -0.26212302056E+03  0.26212302056E+03  0.00000000000E+00 0. -1.
         25    2    1    2    0    0  0.31570604551E+02 -0.60438492991E+02 -0.28313054145E+02  0.14525335352E+03  0.12508954060E+03 0.  0.
          5    1    3    3  502    0  0.66886775567E+02 -0.74572504155E+02 -0.48796080090E+01  0.10038018777E+03  0.41800000000E+01 0.  1.
         -5    1    3    3    0  502 -0.35316171016E+02  0.14134011164E+02 -0.23433446136E+02  0.44873165752E+02  0.41800000000E+01 0.  1.
        -11    1    1    2    0    0  0.31065520349E+02 -0.34767157489E+01 -0.26775510895E+02  0.41159228500E+02  0.00000000000E+00 0.  1.
         11    1    1    2    0    0 -0.62636124901E+02  0.63915208740E+02 -0.12721049713E+03  0.15553439694E+03  0.00000000000E+00 0. -1.
</event>
<event>
 7    1  0.2794945E-009  0.1054096E+03  0.7561462E-02  0.1269315E+00
          2   -1    0    0  501    0  0.00000000000E+00  0.00000000000E+00  0.13714520437E+03  0.13714520437E+03  0.00000000000E+00 0.  1.
         -2   -1    0    0    0  501 -0.00000000000E+00 -0.00000000000E+00 -0.10594218195E+03  0.10594218195E+03  0.00000000000E+00 0. -1.
         25    2    1    2    0    0 -0.99662961134E+01  0.32775109572E+02 -0.85379244877E+01  0.12997629448E+03  0.12508959232E+03 0.  0.
          5    1    3    3  502    0 -0.34771365486E+02  0.71219052558E+02  0.10865523253E+02  0.80104514857E+02  0.41800000000E+01 0.  1.
         -5    1    3    3    0  502  0.24805069373E+02 -0.38443942986E+02 -0.19403447741E+02  0.49871779627E+02  0.41800000000E+01 0.  1.
        -11    1    1    2    0    0  0.37358334370E+02 -0.42370979231E+02 -0.81882708766E+01  0.57078829769E+02  0.00000000000E+00 0. -1.
         11    1    1    2    0    0 -0.27392038257E+02  0.95958696590E+01  0.47929217787E+02  0.56032262064E+02  0.00000000000E+00 0.  1.
</event>
<event>
 7    1  0.2794945E-009  0.8515946E+02  0.7561462E-02  0.1315016E+00
          2   -1    0    0  501    0  0.00000000000E+00  0.00000000000E+00  0.22890935670E+03  0.22890935670E+03  0.00000000000E+00 0. -1.
         -2   -1    0    0    0  501 -0.00000000000E+00 -0.00000000000E+00 -0.10537057746E+03  0.10537057746E+03  0.00000000000E+00 0.  1.
         25    2    1    2    0    0  0.37428737691E+02  0.41020952151E+02  0.17235099446E+03  0.22007962223E+03  0.12508615394E+03 0.  0.
          5    1    3    3  502    0 -0.31564123022E+02  0.31844708163E+02  0.14162878846E+02  0.47206343190E+02  0.41800000000E+01 0.  1.
         -5    1    3    3    0  502  0.68992860713E+02  0.91762439881E+01  0.15818811562E+03  0.17287327904E+03  0.41800000000E+01 0.  1.
        -11    1    1    2    0    0 -0.15748243812E+02 -0.15909696583E+02  0.24829371056E+02  0.33430873390E+02  0.00000000000E+00 0. -1.
         11    1    1    2    0    0 -0.21680493879E+02 -0.25111255568E+02 -0.73641586284E+02  0.80769438536E+02  0.00000000000E+00 0.  1.
</event>
<event>
 7    1  0.2794945E-009  0.8313788E+02  0.7561462E-02  0.1320375E+00
         -1   -1    0    0    0  501 -0.00000000000E+00  0.00000000000E+00  0.50837813351E+02  0.50837813351E+02  0.00000000000E+00 0.  1.
          1   -1    0    0  501    0  0.00000000000E+00 -0.00000000000E+00 -0.25395635332E+03  0.25395635332E+03  0.00000000000E+00 0. -1.
         25    2    1    2    0    0  0.27837343345E+02  0.42742213520E+01 -0.10182911114E+03  0.16373729736E+03  0.12509015955E+03 0.  0.
          5    1    3    3  502    0 -0.31593911673E+02 -0.22535517693E+02 -0.88964731951E+02  0.97150505627E+02  0.41800000000E+01 0.  1.
         -5    1    3    3    0  502  0.59431255019E+02  0.26809739045E+02 -0.12864379193E+02  0.66586791729E+02  0.41800000000E+01 0.  1.
        -11    1    1    2    0    0  0.16180670079E+02 -0.73795942256E+01 -0.94801377725E+02  0.96455034673E+02  0.00000000000E+00 0. -1.
         11    1    1    2    0    0 -0.44018013425E+02  0.31053728736E+01 -0.64880511018E+01  0.44601834644E+02  0.00000000000E+00 0.  1.
</event>
<event>
 7    1  0.2794945E-009  0.3126296E+03  0.7561462E-02  0.1079092E+00
          2   -1    0    0  501    0  0.00000000000E+00  0.00000000000E+00  0.33270637767E+03  0.33270637767E+03  0.00000000000E+00 0. -1.
         -2   -1    0    0    0  501 -0.00000000000E+00 -0.00000000000E+00 -0.32003595119E+03  0.32003595119E+03  0.00000000000E+00 0.  1.
         25    2    1    2    0    0  0.29365671401E+03  0.86613474237E+02  0.28611027475E+02  0.33196759946E+03  0.12509091331E+03 0.  0.
          5    1    3    3  502    0  0.14647936659E+03  0.85177192543E+02  0.62888744774E+02  0.18078668531E+03  0.41800000000E+01 0. -1.
         -5    1    3    3    0  502  0.14717734742E+03  0.14362816944E+01 -0.34277717299E+02  0.15118091415E+03  0.41800000000E+01 0. -1.
        -11    1    1    2    0    0 -0.15774635689E+03 -0.26702686206E+02  0.34960535696E+02  0.16376564236E+03  0.00000000000E+00 0. -1.
         11    1    1    2    0    0 -0.13591035713E+03 -0.59910788031E+02 -0.50901136685E+02  0.15700908704E+03  0.00000000000E+00 0.  1.
</event>
<event>
 7    1  0.2794945E-009  0.8468061E+02  0.7561462E-02  0.1316270E+00
          2   -1    0    0  501    0  0.00000000000E+00  0.00000000000E+00  0.35807892111E+03  0.35807892111E+03  0.00000000000E+00 0. -1.
         -2   -1    0    0    0  501 -0.00000000000E+00 -0.00000000000E+00 -0.35530025129E+02  0.35530025129E+02  0.00000000000E+00 0.  1.
         25    2    1    2    0    0  0.29384129585E+01  0.23790498747E+02  0.14838114881E+03  0.19555655237E+03  0.12510306852E+03 0.  0.
          5    1    3    3  502    0 -0.45061826728E+02  0.12334501750E+02  0.13690732530E+03  0.14471971629E+03  0.41800000000E+01 0. -1.
         -5    1    3    3    0  502  0.48000239687E+02  0.11455996997E+02  0.11473823505E+02  0.50836836084E+02  0.41800000000E+01 0. -1.
        -11    1    1    2    0    0 -0.35839654861E+02 -0.96299019053E+01  0.25247227764E+02  0.44884723248E+02  0.00000000000E+00 0.  1.
         11    1    1    2    0    0  0.32901241902E+02 -0.14160596842E+02  0.14892051941E+03  0.15316767062E+03  0.00000000000E+00 0. -1.
</event>
<event>
 7    1  0.2794945E-009  0.1391177E+03  0.7561462E-02  0.1214521E+00
          2   -1    0    0  501    0  0.00000000000E+00  0.00000000000E+00  0.13868691452E+04  0.13868691452E+04  0.00000000000E+00 0. -1.
         -2   -1    0    0    0  501 -0.00000000000E+00 -0.00000000000E+00 -0.29422039610E+02  0.29422039610E+02  0.00000000000E+00 0.  1.
         25    2    1    2    0    0  0.32630242811E+02  0.90551635720E+02  0.12025443893E+04  0.12128579463E+04  0.12508820189E+03 0.  0.
          5    1    3    3  502    0 -0.43731719214E+02  0.39086269515E+02  0.30690638178E+03  0.31248871869E+03  0.41800000000E+01 0. -1.
         -5    1    3    3    0  502  0.76361962024E+02  0.51465366205E+02  0.89563800752E+03  0.90036922764E+03  0.41800000000E+01 0. -1.
        -11    1    1    2    0    0 -0.50830676476E+02 -0.20388364138E+02  0.93853765004E+02  0.10866449406E+03  0.00000000000E+00 0. -1.
         11    1    1    2    0    0  0.18200433665E+02 -0.70163271582E+02  0.61048951248E+02  0.94768744390E+02  0.00000000000E+00 0.  1.
</event>
<event>
 7    1  0.2794945E-009  0.1255050E+03  0.7561462E-02  0.1234282E+00
          2   -1    0    0  501    0  0.00000000000E+00  0.00000000000E+00  0.98959519445E+03  0.98959519445E+03  0.00000000000E+00 0. -1.
         -2   -1    0    0    0  501 -0.00000000000E+00 -0.00000000000E+00 -0.17451016151E+02  0.17451016151E+02  0.00000000000E+00 0.  1.
         25    2    1    2    0    0  0.64037209528E+02 -0.34763063484E+02  0.56913342576E+03  0.58725637767E+03  0.12509181434E+03 0.  0.
          5    1    3    3  502    0 -0.25003039468E+02  0.26439327870E+02  0.14713081747E+03  0.15162169993E+03  0.41800000000E+01 0.  1.
         -5    1    3    3    0  502  0.89040248996E+02 -0.61202391354E+02  0.42200260829E+03  0.43563467774E+03  0.41800000000E+01 0.  1.
        -11    1    1    2    0    0 -0.58644479978E+01  0.46534784787E+02  0.93103431633E+02  0.10425030900E+03  0.00000000000E+00 0.  1.
         11    1    1    2    0    0 -0.58172761530E+02 -0.11771721303E+02  0.30990732091E+03  0.31553952393E+03  0.00000000000E+00 0. -1.
</event>
<event>
 7    1  0.2794945E-009  0.1628728E+03  0.7561462E-02  0.1185491E+00
          1   -1    0    0  501    0  0.00000000000E+00  0.00000000000E+00  0.39098744571E+03  0.39098744571E+03  0.00000000000E+00 0. -1.
         -1   -1    0    0    0  501 -0.00000000000E+00 -0.00000000000E+00 -0.12207903138E+03  0.12207903138E+03  0.00000000000E+00 0.  1.
         25    2    1    2    0    0  0.10445637511E+03  0.11048750323E+03  0.71642394833E+01  0.19702304203E+03  0.12509248615E+03 0.  0.
          5    1    3    3  502    0  0.72879777280E+02  0.22458807708E+02  0.52827355797E+02  0.92865827410E+02  0.41800000000E+01 0.  1.
         -5    1    3    3    0  502  0.31576597834E+02  0.88028695520E+02 -0.45663116314E+02  0.10415721462E+03  0.41800000000E+01 0.  1.
        -11    1    1    2    0    0 -0.86282468317E+02 -0.69060030378E+02  0.10333513276E+03  0.15130136085E+03  0.00000000000E+00 0.  1.
         11    1    1    2    0    0 -0.18173906798E+02 -0.41427472851E+02  0.15840904210E+03  0.16474207420E+03  0.00000000000E+00 0. -1.
</event>
<event>
 7    1  0.2794945E-009  0.1783780E+03  0.7561462E-02  0.1169382E+00
         -1   -1    0    0    0  501 -0.00000000000E+00  0.00000000000E+00  0.70107880293E+02  0.70107880293E+02  0.00000000000E+00 0.  1.
          1   -1    0    0  501    0  0.00000000000E+00 -0.00000000000E+00 -0.61699917039E+03  0.61699917039E+03  0.00000000000E+00 0. -1.
         25    2    1    2    0    0 -0.10102752264E+03 -0.11651418263E+03 -0.42838244669E+03  0.47216676157E+03  0.12509122676E+03 0.  0.
          5    1    3    3  502    0 -0.32429087920E+02 -0.11921162550E+03 -0.32765404927E+03  0.35019666732E+03  0.41800000000E+01 0. -1.
         -5    1    3    3    0  502 -0.68598434722E+02  0.26974428703E+01 -0.10072839741E+03  0.12197009424E+03  0.41800000000E+01 0. -1.
        -11    1    1    2    0    0  0.48069366577E+02  0.96388083766E+02 -0.11590712958E+03  0.15822701850E+03  0.00000000000E+00 0. -1.
         11    1    1    2    0    0  0.52958156065E+02  0.20126098867E+02 -0.26017138280E+01  0.56713270618E+02  0.00000000000E+00 0.  1.
</event>
<event>
 7    1  0.2794945E-009  0.9343886E+02  0.7561462E-02  0.1294731E+00
         -1   -1    0    0    0  501 -0.00000000000E+00  0.00000000000E+00  0.10205492517E+04  0.10205492517E+04  0.00000000000E+00 0.  1.
          1   -1    0    0  501    0  0.00000000000E+00 -0.00000000000E+00 -0.13499459370E+02  0.13499459370E+02  0.00000000000E+00 0. -1.
         25    2    1    2    0    0 -0.39421309985E+02 -0.12364783483E+02  0.67716592581E+03  0.68986029439E+03  0.12508639874E+03 0.  0.
          5    1    3    3  502    0 -0.50474380607E+02 -0.40843094789E+02  0.17426383461E+03  0.18601391868E+03  0.41800000000E+01 0.  1.
         -5    1    3    3    0  502  0.11053070622E+02  0.28478311306E+02  0.50290209120E+03  0.50384637571E+03  0.41800000000E+01 0.  1.
        -11    1    1    2    0    0 -0.56421256781E+01 -0.29161308548E+02  0.17710242627E+03  0.17957584718E+03  0.00000000000E+00 0.  1.
         11    1    1    2    0    0  0.45063435663E+02  0.41526092031E+02  0.15278144026E+03  0.16461256951E+03  0.00000000000E+00 0. -1.
</event>
<event>
 7    1  0.2794945E-009  0.1595428E+03  0.7561462E-02  0.1189214E+00
         -2   -1    0    0    0  501 -0.00000000000E+00  0.00000000000E+00  0.84890113723E+02  0.84890113723E+02  0.00000000000E+00 0.  1.
          2   -1    0    0  501    0  0.00000000000E+00 -0.00000000000E+00 -0.43828109191E+03  0.43828109191E+03  0.00000000000E+00 0. -1.
         25    2    1    2    0    0  0.94510411788E+02  0.81567647058E+02 -0.51603093784E+02  0.18410815647E+03  0.12508970784E+03 0.  0.
          5    1    3    3  502    0 -0.11614563802E+02  0.53778482500E+02  0.13054264714E+02  0.56700171953E+02  0.41800000000E+01 0.  1.
         -5    1    3    3    0  502  0.10612497559E+03  0.27789164559E+02 -0.64657358498E+02  0.12740798452E+03  0.41800000000E+01 0.  1.
        -11    1    1    2    0    0 -0.20084899179E+02 -0.76982364321E+02 -0.16839865809E+03  0.18624659899E+03  0.00000000000E+00 0.  1.
         11    1    1    2    0    0 -0.74425512609E+02 -0.45852827368E+01 -0.13338922632E+03  0.15281645017E+03  0.00000000000E+00 0. -1.
</event>
<event>
 7    1  0.2794945E-009  0.7515212E+02  0.7561462E-02  0.1343401E+00
         -1   -1    0    0    0  501 -0.00000000000E+00  0.00000000000E+00  0.20712301008E+03  0.20712301008E+03  0.00000000000E+00 0.  1.
          1   -1    0    0  501    0  0.00000000000E+00 -0.00000000000E+00 -0.63939520954E+02  0.63939520954E+02  0.00000000000E+00 0. -1.
         25    2    1    2    0    0 -0.17770094434E+02 -0.21355616095E+02  0.10877694980E+03  0.16807729301E+03  0.12508282466E+03 0.  0.
          5    1    3    3  502    0 -0.44825764611E+02 -0.47800819053E+02  0.11205055901E+03  0.12987327535E+03  0.41800000000E+01 0. -1.
         -5    1    3    3    0  502  0.27055670177E+02  0.26445202958E+02 -0.32736092150E+01  0.38204017662E+02  0.41800000000E+01 0. -1.
        -11    1    1    2    0    0  0.19400714560E+02 -0.51089610834E+01 -0.28422928773E+02  0.34790114815E+02  0.00000000000E+00 0. -1.
         11    1    1    2    0    0 -0.16306201263E+01  0.26464577179E+02  0.62829468100E+02  0.68195123205E+02  0.00000000000E+00 0.  1.
</event>
<event>
 7    1  0.2794945E-009  0.9932550E+02  0.7561462E-02  0.1281721E+00
         -2   -1    0    0    0  501 -0.00000000000E+00  0.00000000000E+00  0.17052511693E+03  0.17052511693E+03  0.00000000000E+00 0. -1.
          2   -1    0    0  501    0  0.00000000000E+00 -0.00000000000E+00 -0.87232716821E+02  0.87232716821E+02  0.00000000000E+00 0.  1.
         25    2    1    2    0    0  0.16726534985E+02  0.31533274406E+02  0.93370450481E+02  0.16012268053E+03  0.12508839846E+03 0.  0.
          5    1    3    3  502    0  0.49430983285E+02  0.65108676978E+02  0.48733743772E+02  0.95262857969E+02  0.41800000000E+01 0. -1.
         -5    1    3    3    0  502 -0.32704448300E+02 -0.33575402572E+02  0.44636706709E+02  0.64859822558E+02  0.41800000000E+01 0. -1.
        -11    1    1    2    0    0 -0.39066913810E+02 -0.14593214222E+02 -0.39182742375E+02  0.57223010721E+02  0.00000000000E+00 0.  1.
         11    1    1    2    0    0  0.22340378824E+02 -0.16940060184E+02  0.29104692002E+02  0.40412142502E+02  0.00000000000E+00 0. -1.
</event>
<event>
 7    1  0.2870338E-009  0.1041708E+03  0.7561462E-02  0.1271762E+00
          1   -1    0    0  501    0  0.00000000000E+00  0.00000000000E+00  0.33951560634E+03  0.33951560634E+03  0.00000000000E+00 0. -1.
         -1   -1    0    0    0  501 -0.00000000000E+00 -0.00000000000E+00 -0.52033729799E+02  0.52033729799E+02  0.00000000000E+00 0.  1.
         25    2    1    2    0    0 -0.19492803213E+02  0.56843694571E+02  0.22863917603E+03  0.26746037411E+03  0.12509198182E+03 0.  0.
          5    1    3    3  502    0 -0.64344184521E+02  0.20875416747E+02  0.17895602973E+03  0.19136010577E+03  0.41800000000E+01 0. -1.
         -5    1    3    3    0  502  0.44851381307E+02  0.35968277825E+02  0.49683146303E+02  0.76100268340E+02  0.41800000000E+01 0. -1.
        -11    1    1    2    0    0 -0.19755686074E+02 -0.11142816815E+02 -0.16189082798E+02  0.27866393751E+02  0.00000000000E+00 0.  1.
         11    1    1    2    0    0  0.39248489287E+02 -0.45700877756E+02  0.75031783315E+02  0.96222568280E+02  0.00000000000E+00 0. -1.
</event>
<event>
 7    1  0.2794945E-009  0.1639210E+03  0.7561462E-02  0.1184340E+00
          2   -1    0    0  501    0  0.00000000000E+00  0.00000000000E+00  0.51034027612E+03  0.51034027612E+03  0.00000000000E+00 0.  1.
         -2   -1    0    0    0  501 -0.00000000000E+00 -0.00000000000E+00 -0.71841957741E+02  0.71841957741E+02  0.00000000000E+00 0. -1.
         25    2    1    2    0    0  0.38079681606E+02  0.15117486214E+03  0.21225210745E+03  0.29155096176E+03  0.12508838913E+03 0.  0.
          5    1    3    3  502    0  0.30147951227E+02  0.57770349876E+02  0.18136927014E+03  0.19276565264E+03  0.41800000000E+01 0.  1.
         -5    1    3    3    0  502  0.79317303790E+01  0.93404512263E+02  0.30882837310E+02  0.98785309121E+02  0.41800000000E+01 0.  1.
        -11    1    1    2    0    0  0.13163250143E+02 -0.79612897034E+02  0.53688233902E+02  0.96922190380E+02  0.00000000000E+00 0. -1.
         11    1    1    2    0    0 -0.51242931749E+02 -0.71561965105E+02  0.17255797703E+03  0.19370908172E+03  0.00000000000E+00 0.  1.
</event>
<event>
 7    1  0.2794945E-009  0.1118304E+03  0.7561462E-02  0.1257217E+00
         -2   -1    0    0    0  501 -0.00000000000E+00  0.00000000000E+00  0.15357319060E+02  0.15357319060E+02  0.00000000000E+00 0. -1.
          2   -1    0    0  501    0  0.00000000000E+00 -0.00000000000E+00 -0.11406868869E+04  0.11406868869E+04  0.00000000000E+00 0.  1.
         25    2    1    2    0    0 -0.32323993541E+02  0.68077606872E+02 -0.59546908264E+03  0.61311587217E+03  0.12509293829E+03 0.  0.
          5    1    3    3  502    0 -0.22376791314E+02 -0.17593949118E+02 -0.31848772674E+02  0.42919512531E+02  0.41800000000E+01 0.  1.
         -5    1    3    3    0  502 -0.99472022264E+01  0.85671555989E+02 -0.56362030997E+03  0.57019635964E+03  0.41800000000E+01 0.  1.
        -11    1    1    2    0    0  0.62723075318E+01 -0.79748988420E+02 -0.46814426527E+03  0.47492978018E+03  0.00000000000E+00 0.  1.
         11    1    1    2    0    0  0.26051686009E+02  0.11671381548E+02 -0.61716219945E+02  0.67998553628E+02  0.00000000000E+00 0. -1.
</event>
<event>
 7    1  0.3390785E-009  0.1512244E+03  0.7561462E-02  0.1198977E+00
          2   -1    0    0  501    0  0.00000000000E+00  0.00000000000E+00  0.11015645118E+03  0.11015645118E+03  0.00000000000E+00 0. -1.
         -2   -1    0    0    0  501 -0.00000000000E+00 -0.00000000000E+00 -0.24059642022E+03  0.24059642022E+03  0.00000000000E+00 0.  1.
         25    2    1    2    0    0  0.45820395195E+02  0.10887640037E+03 -0.41843285884E+02  0.17705939356E+03  0.12508232929E+03 0.  0.
          5    1    3    3  502    0  0.72929103507E+02  0.15437850785E+02 -0.17941795348E+02  0.76787771133E+02  0.41800000000E+01 0.  1.
         -5    1    3    3    0  502 -0.27108708312E+02  0.93438549584E+02 -0.23901490536E+02  0.10027162243E+03  0.41800000000E+01 0.  1.
        -11    1    1    2    0    0 -0.36058247788E+02 -0.20474021716E+02 -0.72192646463E+02  0.83253594529E+02  0.00000000000E+00 0.  1.
         11    1    1    2    0    0 -0.97621474066E+01 -0.88402378654E+02 -0.16404036697E+02  0.90439883313E+02  0.00000000000E+00 0. -1.
</event>
<event>
 7    1  0.2794945E-009  0.1926509E+03  0.7561462E-02  0.1156092E+00
         -2   -1    0    0    0  501 -0.00000000000E+00  0.00000000000E+00  0.32012634289E+03  0.32012634289E+03  0.00000000000E+00 0. -1.
          2   -1    0    0  501    0  0.00000000000E+00 -0.00000000000E+00 -0.26529649067E+03  0.26529649067E+03  0.00000000000E+00 0.  1.
         25    2    1    2    0    0 -0.16277133960E+03  0.46551853921E+02  0.23940601921E+03  0.31878478269E+03  0.12508761546E+03 0.  0.
          5    1    3    3  502    0 -0.33981655433E+02 -0.36137569610E+02  0.26071459200E+02  0.56194930626E+02  0.41800000000E+01 0.  1.
         -5    1    3    3    0  502 -0.12878968417E+03  0.82689423531E+02  0.21333456001E+03  0.26258985207E+03  0.41800000000E+01 0.  1.
        -11    1    1    2    0    0  0.12476727338E+03 -0.32635823187E+01 -0.83073387261E+02  0.14992902037E+03  0.00000000000E+00 0. -1.
         11    1    1    2    0    0  0.38004066221E+02 -0.43288271603E+02 -0.10150277973E+03  0.11670903050E+03  0.00000000000E+00 0.  1.
</event>
<event>
 7    1  0.2794945E-009  0.1218857E+03  0.7561462E-02  0.1240018E+00
         -2   -1    0    0    0  501 -0.00000000000E+00  0.00000000000E+00  0.68167223151E+02  0.68167223151E+02  0.00000000000E+00 0.  1.
          2   -1    0    0  501    0  0.00000000000E+00 -0.00000000000E+00 -0.38164910436E+03  0.38164910436E+03  0.00000000000E+00 0. -1.
         25    2    1    2    0    0  0.55797538324E+02  0.80479572903E+02 -0.73079915688E+02  0.17486700741E+03  0.12508984477E+03 0.  0.
          5    1    3    3  502    0  0.77808937958E+02  0.88042975836E+02 -0.23445296168E+02  0.11988724174E+03  0.41800000000E+01 0.  1.
         -5    1    3    3    0  502 -0.22011399634E+02 -0.75634029329E+01 -0.49634619520E+02  0.54979765666E+02  0.41800000000E+01 0.  1.
        -11    1    1    2    0    0 -0.79066999767E+01 -0.37107024554E+02 -0.15558291228E+02  0.41006189797E+02  0.00000000000E+00 0.  1.
         11    1    1    2    0    0 -0.47890838347E+02 -0.43372548349E+02 -0.22484367429E+03  0.23394313030E+03  0.00000000000E+00 0. -1.
</event>
<event>
 7    1  0.2794945E-009  0.1241885E+03  0.7561462E-02  0.1236343E+00
         -1   -1    0    0    0  501 -0.00000000000E+00  0.00000000000E+00  0.17375981436E+02  0.17375981436E+02  0.00000000000E+00 0.  1.
          1   -1    0    0  501    0  0.00000000000E+00 -0.00000000000E+00 -0.15531956195E+04  0.15531956195E+04  0.00000000000E+00 0. -1.
         25    2    1    2    0    0  0.78781436775E+02 -0.46009083840E+01 -0.12754075069E+04  0.12839545571E+04  0.12508922010E+03 0.  0.
          5    1    3    3  502    0 -0.28809280646E+01 -0.43429256878E+02 -0.19897149415E+03  0.20371923813E+03  0.41800000000E+01 0.  1.
         -5    1    3    3    0  502  0.81662364840E+02  0.38828348494E+02 -0.10764360127E+04  0.10802353190E+04  0.41800000000E+01 0.  1.
        -11    1    1    2    0    0  0.37698459901E+01  0.28060161304E+02 -0.10856785239E+03  0.11219876542E+03  0.00000000000E+00 0. -1.
         11    1    1    2    0    0 -0.82551282765E+02 -0.23459252920E+02 -0.15184427875E+03  0.17441827835E+03  0.00000000000E+00 0.  1.
</event>
<event>
 7    1  0.2794945E-009  0.7952361E+02  0.7561462E-02  0.1330409E+00
          1   -1    0    0  501    0  0.00000000000E+00  0.00000000000E+00  0.24493079869E+03  0.24493079869E+03  0.00000000000E+00 0. -1.
         -1   -1    0    0    0  501 -0.00000000000E+00 -0.00000000000E+00 -0.52664070211E+02  0.52664070211E+02  0.00000000000E+00 0.  1.
         25    2    1    2    0    0 -0.17347475959E+02 -0.14033602818E+02  0.73165374247E+02  0.14663183098E+03  0.12509934028E+03 0.  0.
          5    1    3    3  502    0  0.24292630898E+01 -0.38772499179E+02 -0.22971967795E+02  0.45325398135E+02  0.41800000000E+01 0. -1.
         -5    1    3    3    0  502 -0.19776739049E+02  0.24738896361E+02  0.96137342042E+02  0.10130643284E+03  0.41800000000E+01 0. -1.
        -11    1    1    2    0    0  0.51667520253E+02  0.14641911969E+02  0.94635310295E+02  0.10881066211E+03  0.00000000000E+00 0. -1.
         11    1    1    2    0    0 -0.34320044293E+02 -0.60830915114E+00  0.24466043939E+02  0.42152375809E+02  0.00000000000E+00 0.  1.
</event>
<event>
 7    1  0.2794945E-009  0.1034426E+03  0.7561462E-02  0.1273219E+00
          1   -1    0    0  501    0  0.00000000000E+00  0.00000000000E+00  0.36867635664E+03  0.36867635664E+03  0.00000000000E+00 0. -1.
         -1   -1    0    0    0  501 -0.00000000000E+00 -0.00000000000E+00 -0.36651134494E+02  0.36651134494E+02  0.00000000000E+00 0.  1.
         25    2    1    2    0    0 -0.27968566303E+02 -0.15049577057E+02  0.20740953430E+03  0.24428165604E+03  0.12508429993E+03 0.  0.
          5    1    3    3  502    0 -0.69570499743E+02  0.13627539325E+01  0.17647110223E+03  0.18974043811E+03  0.41800000000E+01 0. -1.
         -5    1    3    3    0  502  0.41601933440E+02 -0.16412330989E+02  0.30938432072E+02  0.54541217932E+02  0.41800000000E+01 0. -1.
        -11    1    1    2    0    0 -0.22485814255E+02 -0.20588157031E+02  0.12321582742E+02  0.32883209301E+02  0.00000000000E+00 0.  1.
         11    1    1    2    0    0  0.50454380559E+02  0.35637734088E+02  0.11229410511E+03  0.12816262580E+03  0.00000000000E+00 0. -1.
</event>
<event>
 7    1  0.2794945E-009  0.1071042E+03  0.7561462E-02  0.1266028E+00
         -1   -1    0    0    0  501 -0.00000000000E+00  0.00000000000E+00  0.12089832934E+03  0.12089832934E+03  0.00000000000E+00 0.  1.
          1   -1    0    0  501    0  0.00000000000E+00 -0.00000000000E+00 -0.12300940452E+03  0.12300940452E+03  0.00000000000E+00 0. -1.
         25    2    1    2    0    0  0.46868338429E+02 -0.78220415752E+01 -0.31025089252E+02  0.13737260531E+03  0.12510336144E+03 0.  0.
          5    1    3    3  502    0 -0.19658200269E+02  0.38116455516E+02  0.13276328468E+02  0.45089270526E+02  0.41800000000E+01 0. -1.
         -5    1    3    3    0  502  0.66526538698E+02 -0.45938497091E+02 -0.44301417720E+02  0.92283334780E+02  0.41800000000E+01 0. -1.
        -11    1    1    2    0    0  0.20085476599E+02 -0.75680404481E+01 -0.13913643725E+02  0.25579114295E+02  0.00000000000E+00 0. -1.
         11    1    1    2    0    0 -0.66953815027E+02  0.15390082023E+02  0.42827657796E+02  0.80956014253E+02  0.00000000000E+00 0.  1.
</event>
<event>
 7    1  0.2794945E-009  0.1104947E+03  0.7561462E-02  0.1259656E+00
          2   -1    0    0  501    0  0.00000000000E+00  0.00000000000E+00  0.17396636481E+03  0.17396636481E+03  0.00000000000E+00 0. -1.
         -2   -1    0    0    0  501 -0.00000000000E+00 -0.00000000000E+00 -0.11330497777E+03  0.11330497777E+03  0.00000000000E+00 0.  1.
         25    2    1    2    0    0  0.39832867038E+02 -0.67894083424E+02 -0.13100238452E+02  0.14837576728E+03  0.12508992049E+03 0.  0.
          5    1    3    3  502    0 -0.16000846037E+02 -0.16991732385E+01  0.42326268696E+02  0.45474165031E+02  0.41800000000E+01 0. -1.
         -5    1    3    3    0  502  0.55833713075E+02 -0.66194910185E+02 -0.55426507148E+02  0.10290160225E+03  0.41800000000E+01 0. -1.
        -11    1    1    2    0    0  0.21031574198E+02  0.49972576838E+02  0.32559264307E+02  0.63243112204E+02  0.00000000000E+00 0.  1.
         11    1    1    2    0    0 -0.60864441236E+02  0.17921506586E+02  0.41202361192E+02  0.75652463100E+02  0.00000000000E+00 0. -1.
</event>
<event>
 7    1  0.2794945E-009  0.1342491E+03  0.7561462E-02  0.1221284E+00
         -1   -1    0    0    0  501 -0.00000000000E+00  0.00000000000E+00  0.42247116630E+02  0.42247116630E+02  0.00000000000E+00 0.  1.
          1   -1    0    0  501    0  0.00000000000E+00 -0.00000000000E+00 -0.59268097349E+03  0.59268097349E+03  0.00000000000E+00 0. -1.
         25    2    1    2    0    0 -0.11504613665E+03 -0.60340560445E+01 -0.27937994762E+03  0.32706702578E+03  0.12509061049E+03 0.  0.
          5    1    3    3  502    0 -0.24141145228E+02 -0.19704816425E+02 -0.20864370982E+03  0.21099939510E+03  0.41800000000E+01 0.  1.
         -5    1    3    3    0  502 -0.90904991424E+02  0.13670760380E+02 -0.70736237794E+02  0.11606763068E+03  0.41800000000E+01 0.  1.
        -11    1    1    2    0    0  0.53158597635E+02 -0.41139615535E+02 -0.14313040771E+03  0.15812848599E+03  0.00000000000E+00 0.  1.
         11    1    1    2    0    0  0.61887539016E+02  0.47173671579E+02 -0.12792350154E+03  0.14973257835E+03  0.00000000000E+00 0. -1.
</event>
<event>
 7    1  0.2794945E-009  0.8236024E+02  0.7561462E-02  0.1322484E+00
          2   -1    0    0  501    0  0.00000000000E+00  0.00000000000E+00  0.57267553002E+03  0.57267553002E+03  0.00000000000E+00 0. -1.
         -2   -1    0    0    0  501 -0.00000000000E+00 -0.00000000000E+00 -0.37451617542E+02  0.37451617542E+02  0.00000000000E+00 0.  1.
         25    2    1    2    0    0 -0.20961882443E+02  0.38324745293E+02  0.47277276784E+03  0.49098846727E+03  0.12508956134E+03 0.  0.
          5    1    3    3  502    0 -0.41940338740E+02  0.50596171916E+02  0.45698871071E+03  0.46170891127E+03  0.41800000000E+01 0.  1.
         -5    1    3    3    0  502  0.20978456298E+02 -0.12271426623E+02  0.15784057134E+02  0.29279556001E+02  0.41800000000E+01 0.  1.
        -11    1    1    2    0    0  0.31432020036E+02 -0.49663597452E+02  0.77711356989E+02  0.97434592422E+02  0.00000000000E+00 0. -1.
         11    1    1    2    0    0 -0.10470137593E+02  0.11338852159E+02 -0.15260212352E+02  0.21704087876E+02  0.00000000000E+00 0.  1.
</event>
<event>
 7    1  0.2794945E-009  0.1085910E+03  0.7561462E-02  0.1263202E+00
          1   -1    0    0  501    0  0.00000000000E+00  0.00000000000E+00  0.44361452302E+03  0.44361452302E+03  0.00000000000E+00 0. -1.
         -1   -1    0    0    0  501 -0.00000000000E+00 -0.00000000000E+00 -0.28347055449E+02  0.28347055449E+02  0.00000000000E+00 0.  1.
         25    2    1    2    0    0  0.16038173047E+02  0.24918676743E+02  0.23035508623E+03  0.26381174047E+03  0.12511996329E+03 0.  0.
          5    1    3    3  502    0  0.29809239307E+02 -0.46452001518E+02  0.11017373345E+03  0.12329680911E+03  0.41800000000E+01 0. -1.
         -5    1    3    3    0  502 -0.13771066260E+02  0.71370678261E+02  0.12018135278E+03  0.14051493137E+03  0.41800000000E+01 0. -1.
        -11    1    1    2    0    0  0.32346578906E+02 -0.24597890804E+02  0.47737728149E+02  0.62691690740E+02  0.00000000000E+00 0.  1.
         11    1    1    2    0    0 -0.48384751953E+02 -0.32078593918E+00  0.13717465319E+03  0.14545814726E+03  0.00000000000E+00 0. -1.
</event>
<event>
 7    1  0.2794945E-009  0.1260537E+03  0.7561462E-02  0.1233432E+00
         -1   -1    0    0    0  501 -0.00000000000E+00  0.00000000000E+00  0.56898393321E+02  0.56898393321E+02  0.00000000000E+00 0.  1.
          1   -1    0    0  501    0  0.00000000000E+00 -0.00000000000E+00 -0.36695391997E+03  0.36695391997E+03  0.00000000000E+00 0. -1.
         25    2    1    2    0    0 -0.85522097482E+01  0.83748810274E+02 -0.23641332845E+03  0.28040183890E+03  0.12508767275E+03 0.  0.
          5    1    3    3  502    0 -0.83958297279E+01  0.11665023416E+03 -0.19394881539E+03  0.22652015910E+03  0.41800000000E+01 0. -1.
         -5    1    3    3    0  502 -0.15638002034E+00 -0.32901423887E+02 -0.42464513063E+02  0.53881679801E+02  0.41800000000E+01 0. -1.
        -11    1    1    2    0    0  0.23316184522E+02 -0.78639212479E+01  0.12588133416E+02  0.27639587930E+02  0.00000000000E+00 0.  1.
         11    1    1    2    0    0 -0.14763974774E+02 -0.75884889027E+02 -0.86230331618E+02  0.11581088647E+03  0.00000000000E+00 0. -1.
</event>
<event>
 7    1  0.2794945E-009  0.1551132E+03  0.7561462E-02  0.1194327E+00
          1   -1    0    0  501    0  0.00000000000E+00  0.00000000000E+00  0.27768998574E+03  0.27768998574E+03  0.00000000000E+00 0. -1.
         -1   -1    0    0    0  501 -0.00000000000E+00 -0.00000000000E+00 -0.14902357412E+03  0.14902357412E+03  0.00000000000E+00 0.  1.
         25    2    1    2    0    0 -0.11042690809E+03 -0.10619141710E+03  0.14604997086E+03  0.24586842825E+03  0.12509984383E+03 0.  0.
          5    1    3    3  502    0 -0.36419015374E+02 -0.26715003506E+02  0.12787292398E+03  0.13567974492E+03  0.41800000000E+01 0. -1.
         -5    1    3    3    0  502 -0.74007892711E+02 -0.79476413591E+02  0.18177046875E+02  0.11018868333E+03  0.41800000000E+01 0. -1.
        -11    1    1    2    0    0  0.51618448288E+02  0.70565510164E+02  0.35235945977E+02  0.94263075047E+02  0.00000000000E+00 0. -1.
         11    1    1    2    0    0  0.58808459798E+02  0.35625906933E+02 -0.52619505217E+02  0.86582056558E+02  0.00000000000E+00 0.  1.
</event>
<event>
 7    1  0.2794945E-009  0.1502880E+03  0.7561462E-02  0.1200120E+00
         -2   -1    0    0    0  501 -0.00000000000E+00  0.00000000000E+00  0.33426515390E+02  0.33426515390E+02  0.00000000000E+00 0.  1.
          2   -1    0    0  501    0  0.00000000000E+00 -0.00000000000E+00 -0.79584410646E+03  0.79584410646E+03  0.00000000000E+00 0. -1.
         25    2    1    2    0    0  0.11797406342E+03 -0.18223198381E+02 -0.35640905852E+03  0.39613913827E+03  0.12509530476E+03 0.  0.
          5    1    3    3  502    0 -0.17122370412E+02 -0.30532497696E+02 -0.99890654676E+02  0.10592933624E+03  0.41800000000E+01 0.  1.
         -5    1    3    3    0  502  0.13509643384E+03  0.12309299315E+02 -0.25651840384E+03  0.29020980203E+03  0.41800000000E+01 0.  1.
        -11    1    1    2    0    0 -0.85778535817E+02  0.35766047530E+02 -0.37090681242E+03  0.38237289504E+03  0.00000000000E+00 0. -1.
         11    1    1    2    0    0 -0.32195527607E+02 -0.17542849149E+02 -0.35101720127E+02  0.50758588535E+02  0.00000000000E+00 0.  1.
</event>
<event>
 7    1  0.2794945E-009  0.1362805E+03  0.7561462E-02  0.1218423E+00
         -1   -1    0    0    0  501 -0.00000000000E+00  0.00000000000E+00  0.91252705813E+02  0.91252705813E+02  0.00000000000E+00 0.  1.
          1   -1    0    0  501    0  0.00000000000E+00 -0.00000000000E+00 -0.31097878151E+03  0.31097878151E+03  0.00000000000E+00 0. -1.
         25    2    1    2    0    0 -0.35894732518E+02  0.10202395056E+03 -0.20267020773E+03  0.26157231045E+03  0.12509013623E+03 0.  0.
          5    1    3    3  502    0 -0.13769766015E+02 -0.28201362043E+02 -0.54488211900E+02  0.63018734621E+02  0.41800000000E+01 0. -1.
         -5    1    3    3    0  502 -0.22124966503E+02  0.13022531261E+03 -0.14818199583E+03  0.19855357583E+03  0.41800000000E+01 0. -1.
        -11    1    1    2    0    0  0.12468153291E+02 -0.52460286059E+02  0.35626182573E+02  0.64627868173E+02  0.00000000000E+00 0.  1.
         11    1    1    2    0    0  0.23426579227E+02 -0.49563664506E+02 -0.52682050537E+02  0.76031308698E+02  0.00000000000E+00 0. -1.
</event>
<event>
 7    1  0.2794945E-009  0.2135530E+03  0.7561462E-02  0.1138783E+00
         -2   -1    0    0    0  501 -0.00000000000E+00  0.00000000000E+00  0.93478190522E+02  0.93478190522E+02  0.00000000000E+00 0.  1.
          2   -1    0    0  501    0  0.00000000000E+00 -0.00000000000E+00 -0.75071296059E+03  0.75071296059E+03  0.00000000000E+00 0. -1.
         25    2    1    2    0    0  0.10894102250E+03  0.12213659077E+03 -0.55091059182E+03  0.58816284841E+03  0.12509021897E+03 0.  0.
          5    1    3    3  502    0  0.91735051779E+02  0.22206064638E+02 -0.17594824984E+03  0.19970900844E+03  0.41800000000E+01 0.  1.
         -5    1    3    3    0  502  0.17205970719E+02  0.99930526134E+02 -0.37496234198E+03  0.38845383997E+03  0.41800000000E+01 0.  1.
        -11    1    1    2    0    0  0.37350380727E+02  0.45419052755E+01 -0.29535863225E+02  0.47833534894E+02  0.00000000000E+00 0. -1.
         11    1    1    2    0    0 -0.14629140322E+03 -0.12667849605E+03 -0.76788315023E+02  0.20819476781E+03  0.00000000000E+00 0.  1.
</event>
<event>
 7    1  0.2794945E-009  0.1033738E+03  0.7561462E-02  0.1273357E+00
          1   -1    0    0  501    0  0.00000000000E+00  0.00000000000E+00  0.33584003793E+03  0.33584003793E+03  0.00000000000E+00 0. -1.
         -1   -1    0    0    0  501 -0.00000000000E+00 -0.00000000000E+00 -0.46848102785E+02  0.46848102785E+02  0.00000000000E+00 0.  1.
         25    2    1    2    0    0  0.35450647092E+02  0.16439079352E+02  0.91639435676E+02  0.15991534479E+03  0.12509252424E+03 0.  0.
          5    1    3    3  502    0 -0.20069559959E+02  0.55921280890E+02  0.25229797385E+02  0.64683784439E+02  0.41800000000E+01 0. -1.
         -5    1    3    3    0  502  0.55520207051E+02 -0.39482201537E+02  0.66409638291E+02  0.95231560353E+02  0.41800000000E+01 0. -1.
        -11    1    1    2    0    0 -0.45785805327E+02  0.13111237676E+02  0.39584406159E+02  0.61928747232E+02  0.00000000000E+00 0.  1.
         11    1    1    2    0    0  0.10335158235E+02 -0.29550317028E+02  0.15776809331E+03  0.16084404869E+03  0.00000000000E+00 0. -1.
</event>
<event>
 7    1  0.2794945E-009  0.1274751E+03  0.7561462E-02  0.1231251E+00
          1   -1    0    0  501    0  0.00000000000E+00  0.00000000000E+00  0.85094992728E+03  0.85094992728E+03  0.00000000000E+00 0. -1.
         -1   -1    0    0    0  501 -0.00000000000E+00 -0.00000000000E+00 -0.26182322471E+02  0.26182322471E+02  0.00000000000E+00 0.  1.
         25    2    1    2    0    0 -0.91894420436E+02  0.25724093546E+02  0.33774229930E+03  0.37259011054E+03  0.12508883338E+03 0.  0.
          5    1    3    3  502    0 -0.20153629346E+02 -0.31524082672E+02  0.22022269025E+03  0.22341764089E+03  0.41800000000E+01 0. -1.
         -5    1    3    3    0  502 -0.71740791090E+02  0.57248176218E+02  0.11751960906E+03  0.14917246965E+03  0.41800000000E+01 0. -1.
        -11    1    1    2    0    0  0.82197994609E+01 -0.39741880338E+02  0.92717140701E+02  0.10120993200E+03  0.00000000000E+00 0. -1.
         11    1    1    2    0    0  0.83674620975E+02  0.14017786792E+02  0.39430816480E+03  0.40333220721E+03  0.00000000000E+00 0.  1.
</event>
<event>
 7    1  0.2794945E-009  0.1209127E+03  0.7561462E-02  0.1241599E+00
         -2   -1    0    0    0  501 -0.00000000000E+00  0.00000000000E+00  0.86745781758E+02  0.86745781758E+02  0.00000000000E+00 0.  1.
          2   -1    0    0  501    0  0.00000000000E+00 -0.00000000000E+00 -0.23553368586E+03  0.23553368586E+03  0.00000000000E+00 0. -1.
         25    2    1    2    0    0 -0.78449933175E+02  0.20298687096E+02 -0.12848654870E+03  0.19677441773E+03  0.12507977280E+03 0.  0.
          5    1    3    3  502    0 -0.19630489432E+02 -0.51817560446E+02 -0.41932079341E+02  0.69614562871E+02  0.41800000000E+01 0. -1.
         -5    1    3    3    0  502 -0.58819443743E+02  0.72116247542E+02 -0.86554469363E+02  0.12715985486E+03  0.41800000000E+01 0. -1.
        -11    1    1    2    0    0  0.74833036349E+02 -0.31602717093E+02  0.19861437513E+02  0.83625305721E+02  0.00000000000E+00 0.  1.
         11    1    1    2    0    0  0.36168968258E+01  0.11304029997E+02 -0.40162792906E+02  0.41879744159E+02  0.00000000000E+00 0. -1.
</event>
<event>
 7    1  0.2794945E-009  0.1757470E+03  0.7561462E-02  0.1171984E+00
         -1   -1    0    0    0  501 -0.00000000000E+00  0.00000000000E+00  0.29711631839E+02  0.29711631839E+02  0.00000000000E+00 0.  1.
          1   -1    0    0  501    0  0.00000000000E+00 -0.00000000000E+00 -0.12853016383E+04  0.12853016383E+04  0.00000000000E+00 0. -1.
         25    2    1    2    0    0  0.85228517409E+02 -0.12866897085E+03 -0.82560770433E+03  0.84917313126E+03  0.12508925277E+03 0.  0.
          5    1    3    3  502    0  0.97599388175E+02 -0.14580845393E+03 -0.76419838801E+03  0.78409335825E+03  0.41800000000E+01 0.  1.
         -5    1    3    3    0  502 -0.12370870766E+02  0.17139483083E+02 -0.61409316317E+02  0.65079773005E+02  0.41800000000E+01 0.  1.
        -11    1    1    2    0    0 -0.61961037228E+02  0.97949072468E+02 -0.40157101333E+03  0.41796228261E+03  0.00000000000E+00 0.  1.
         11    1    1    2    0    0 -0.23267480181E+02  0.30719898383E+02 -0.28411288797E+02  0.47877856277E+02  0.00000000000E+00 0. -1.
</event>
<event>
 7    1  0.2794945E-009  0.2692027E+03  0.7561462E-02  0.1101737E+00
         -1   -1    0    0    0  501 -0.00000000000E+00  0.00000000000E+00  0.16697605981E+03  0.16697605981E+03  0.00000000000E+00 0.  1.
          1   -1    0    0  501    0  0.00000000000E+00 -0.00000000000E+00 -0.50024265772E+03  0.50024265772E+03  0.00000000000E+00 0. -1.
         25    2    1    2    0    0  0.21831960364E+03 -0.15366767538E+03 -0.19483988254E+03  0.35339485723E+03  0.12509253176E+03 0.  0.
          5    1    3    3  502    0  0.45227407219E+02 -0.52626828106E+02  0.58127697749E+01  0.69759315455E+02  0.41800000000E+01 0.  1.
         -5    1    3    3    0  502  0.17309219642E+03 -0.10104084728E+03 -0.20065265231E+03  0.28363554178E+03  0.41800000000E+01 0.  1.
        -11    1    1    2    0    0 -0.14276226245E+03  0.83971993058E+02 -0.13024853455E+03  0.21070605105E+03  0.00000000000E+00 0. -1.
         11    1    1    2    0    0 -0.75557341191E+02  0.69695682323E+02 -0.81781808183E+01  0.10311780925E+03  0.00000000000E+00 0.  1.
</event>
<event>
 7    1  0.2794945E-009  0.1429342E+03  0.7561462E-02  0.1209434E+00
         -2   -1    0    0    0  501 -0.00000000000E+00  0.00000000000E+00  0.16695586037E+03  0.16695586037E+03  0.00000000000E+00 0. -1.
          2   -1    0    0  501    0  0.00000000000E+00 -0.00000000000E+00 -0.17596103029E+03  0.17596103029E+03  0.00000000000E+00 0.  1.
         25    2    1    2    0    0  0.58606149404E+02 -0.10831518778E+03 -0.54531772300E+02  0.18381366251E+03  0.12508752009E+03 0.  0.
          5    1    3    3  502    0  0.43190355753E+02 -0.12912489005E+03 -0.70212833808E+02  0.15325129197E+03  0.41800000000E+01 0.  1.
         -5    1    3    3    0  502  0.15415793651E+02  0.20809702272E+02  0.15681061508E+02  0.30562370532E+02  0.41800000000E+01 0.  1.
        -11    1    1    2    0    0 -0.16849684054E+02  0.39155021885E+02 -0.27064666041E+02  0.50492808789E+02  0.00000000000E+00 0.  1.
         11    1    1    2    0    0 -0.41756465350E+02  0.69160165893E+02  0.72591268412E+02  0.10861041936E+03  0.00000000000E+00 0. -1.
</event>
<event>
 7    1  0.2794945E-009  0.5914372E+02  0.7561462E-02  0.1401461E+00
          1   -1    0    0  501    0  0.00000000000E+00  0.00000000000E+00  0.40713937605E+03  0.40713937605E+03  0.00000000000E+00 0. -1.
         -1   -1    0    0    0  501 -0.00000000000E+00 -0.00000000000E+00 -0.58021897908E+02  0.58021897908E+02  0.00000000000E+00 0.  1.
         25    2    1    2    0    0  0.43529557699E+02 -0.38929700847E+02  0.32441953139E+03  0.35257023437E+03  0.12508954319E+03 0.  0.
          5    1    3    3  502    0  0.17718005536E+02 -0.12838352351E+02  0.31316328577E+03  0.31395456195E+03  0.41800000000E+01 0. -1.
         -5    1    3    3    0  502  0.25811552163E+02 -0.26091348496E+02  0.11256245618E+02  0.38615672425E+02  0.41800000000E+01 0. -1.
        -11    1    1    2    0    0 -0.30769708458E+02  0.21785397549E+02  0.60271324758E+02  0.71091568368E+02  0.00000000000E+00 0. -1.
         11    1    1    2    0    0 -0.12759849241E+02  0.17144303298E+02 -0.35573378009E+02  0.41499471216E+02  0.00000000000E+00 0.  1.
</event>
<event>
 7    1  0.2794945E-009  0.1206627E+03  0.7561462E-02  0.1242008E+00
         -1   -1    0    0    0  501 -0.00000000000E+00  0.00000000000E+00  0.33672615919E+03  0.33672615919E+03  0.00000000000E+00 0.  1.
          1   -1    0    0  501    0  0.00000000000E+00 -0.00000000000E+00 -0.49050192006E+02  0.49050192006E+02  0.00000000000E+00 0. -1.
         25    2    1    2    0    0  0.48981740941E+02 -0.29389760863E+02  0.10043361904E+03  0.17028598971E+03  0.12508971769E+03 0.  0.
          5    1    3    3  502    0  0.91948625984E+01 -0.75637318308E+02  0.58176409415E+02  0.95955804574E+02  0.41800000000E+01 0.  1.
         -5    1    3    3    0  502  0.39786878342E+02  0.46247557444E+02  0.42257209624E+02  0.74330185140E+02  0.41800000000E+01 0.  1.
        -11    1    1    2    0    0 -0.59278924885E+02 -0.12625213898E+02  0.13262193926E+03  0.14581483372E+03  0.00000000000E+00 0.  1.
         11    1    1    2    0    0  0.10297183944E+02  0.42014974762E+02  0.54620408889E+02  0.69675527760E+02  0.00000000000E+00 0. -1.
</event>
<event>
 7    1  0.2794945E-009  0.9859093E+02  0.7561462E-02  0.1283287E+00
          3   -1    0    0  501    0  0.00000000000E+00  0.00000000000E+00  0.18771144951E+03  0.18771144951E+03  0.00000000000E+00 0. -1.
         -3   -1    0    0    0  501 -0.00000000000E+00 -0.00000000000E+00 -0.99341672645E+02  0.99341672645E+02  0.00000000000E+00 0.  1.
         25    2    1    2    0    0 -0.29853691686E+02  0.52700133652E+02 -0.99643858237E+01  0.13934087521E+03  0.12509214014E+03 0.  0.
          5    1    3    3  502    0 -0.30451474003E+02 -0.33137214217E+02  0.18458382724E+02  0.48821629713E+02  0.41800000000E+01 0. -1.
         -5    1    3    3    0  502  0.59778231775E+00  0.85837347869E+02 -0.28422768548E+02  0.90519245494E+02  0.41800000000E+01 0. -1.
        -11    1    1    2    0    0  0.15597523414E+02 -0.51874076904E+01 -0.16087828286E+02  0.23000220742E+02  0.00000000000E+00 0.  1.
         11    1    1    2    0    0  0.14256168272E+02 -0.47512725962E+02  0.11442199098E+03  0.12471202621E+03  0.00000000000E+00 0. -1.
</event>
<event>
 6    1  0.2794945E-009  0.9045383E+02  0.7561462E-02  0.1301756E+00
          2   -1    0    0  501    0  0.00000000000E+00  0.00000000000E+00  0.94598927565E+02  0.94598927565E+02  0.00000000000E+00 0.  1.
         -2   -1    0    0    0  501 -0.00000000000E+00 -0.00000000000E+00 -0.14231328609E+03  0.14231328609E+03  0.00000000000E+00 0. -1.
          5    1    1    2  502    0 -0.39872296921E+02  0.15457398506E+02 -0.74552265062E+02  0.86047916048E+02  0.41800000000E+01 0.  1.
         -5    1    1    2    0  502  0.51135052819E+02  0.15306324779E+01  0.15379527355E+02  0.53583007794E+02  0.41800000000E+01 0.  1.
        -11    1    1    2    0    0  0.26816523535E+02 -0.35322329565E+02  0.27378716222E+02  0.52118969698E+02  0.00000000000E+00 0.  1.
         11    1    1    2    0    0 -0.38079279433E+02  0.18334298581E+02 -0.15920337037E+02  0.45162320113E+02  0.00000000000E+00 0. -1.
</event>
<event>
 7    1  0.2794945E-009  0.3368557E+03  0.7561462E-02  0.1068143E+00
          1   -1    0    0  501    0  0.00000000000E+00  0.00000000000E+00  0.75665371181E+03  0.75665371181E+03  0.00000000000E+00 0. -1.
         -1   -1    0    0    0  501 -0.00000000000E+00 -0.00000000000E+00 -0.15505209770E+03  0.15505209770E+03  0.00000000000E+00 0.  1.
         25    2    1    2    0    0 -0.66364055349E+02  0.31870973524E+03  0.30492921622E+03  0.46325971489E+03  0.12509058061E+03 0.  0.
          5    1    3    3  502    0 -0.47069629634E+00  0.25917179436E+03  0.23902207220E+03  0.35258937015E+03  0.41800000000E+01 0. -1.
         -5    1    3    3    0  502 -0.65893359053E+02  0.59537940889E+02  0.65907144020E+02  0.11067034474E+03  0.41800000000E+01 0. -1.
        -11    1    1    2    0    0  0.26162251012E+02 -0.14011365715E+03  0.75356562171E+02  0.16122937623E+03  0.00000000000E+00 0.  1.
         11    1    1    2    0    0  0.40201804338E+02 -0.17859607810E+03  0.22131583571E+03  0.28721671839E+03  0.00000000000E+00 0. -1.
</event>
<event>
 7    1  0.2794945E-009  0.8444982E+02  0.7561462E-02  0.1316878E+00
         -2   -1    0    0    0  501 -0.00000000000E+00  0.00000000000E+00  0.58033907849E+02  0.58033907849E+02  0.00000000000E+00 0.  1.
          2   -1    0    0  501    0  0.00000000000E+00 -0.00000000000E+00 -0.20788189687E+03  0.20788189687E+03  0.00000000000E+00 0. -1.
         25    2    1    2    0    0  0.54756249281E+01 -0.78684007126E-01 -0.85523868925E+02  0.15162982727E+03  0.12508910305E+03 0.  0.
          5    1    3    3  502    0  0.35473789910E+02 -0.19665175692E+02 -0.10356321833E+03  0.11130103996E+03  0.41800000000E+01 0.  1.
         -5    1    3    3    0  502 -0.29998164981E+02  0.19586491685E+02  0.18039349403E+02  0.40328787307E+02  0.41800000000E+01 0.  1.
        -11    1    1    2    0    0 -0.47407159565E+02  0.11121773085E+02 -0.46735359315E+02  0.67493158356E+02  0.00000000000E+00 0. -1.
         11    1    1    2    0    0  0.41931534637E+02 -0.11043089078E+02 -0.17588760785E+02  0.46792819100E+02  0.00000000000E+00 0.  1.
</event>
<event>
 7    1  0.2794945E-009  0.1648730E+03  0.7561462E-02  0.1183302E+00
         -2   -1    0    0    0  501 -0.00000000000E+00  0.00000000000E+00  0.44537468164E+02  0.44537468164E+02  0.00000000000E+00 0.  1.
          2   -1    0    0  501    0  0.00000000000E+00 -0.00000000000E+00 -0.92727955481E+03  0.92727955481E+03  0.00000000000E+00 0. -1.
         25    2    1    2    0    0 -0.50888316631E+02 -0.15207601813E+03 -0.60398478638E+03  0.63730851075E+03  0.12509108534E+03 0.  0.
          5    1    3    3  502    0 -0.13721675653E+02 -0.23258722650E+01 -0.65328395847E+00  0.14546245029E+02  0.41800000000E+01 0. -1.
         -5    1    3    3    0  502 -0.37166640979E+02 -0.14975014586E+03 -0.60333150242E+03  0.62276226572E+03  0.41800000000E+01 0. -1.
        -11    1    1    2    0    0  0.47344319890E+02  0.12697273340E+03 -0.27785636890E+03  0.30914029403E+03  0.00000000000E+00 0. -1.
         11    1    1    2    0    0  0.35439967408E+01  0.25103284727E+02 -0.90093135936E+00  0.25368218193E+02  0.00000000000E+00 0.  1.
</event>
<event>
 7    1  0.2794945E-009  0.1001717E+03  0.7561462E-02  0.1279935E+00
          1   -1    0    0  501    0  0.00000000000E+00  0.00000000000E+00  0.78012514042E+02  0.78012514042E+02  0.00000000000E+00 0. -1.
         -1   -1    0    0    0  501 -0.00000000000E+00 -0.00000000000E+00 -0.24291722555E+03  0.24291722555E+03  0.00000000000E+00 0.  1.
         25    2    1    2    0    0  0.44263779377E+02 -0.29789977020E+02 -0.16613962309E+03  0.21470248960E+03  0.12509220513E+03 0.  0.
          5    1    3    3  502    0  0.81853722122E+02 -0.17947581808E+02 -0.15007847554E+03  0.17193943334E+03  0.41800000000E+01 0. -1.
         -5    1    3    3    0  502 -0.37589942745E+02 -0.11842395212E+02 -0.16061147552E+02  0.42763056259E+02  0.41800000000E+01 0. -1.
        -11    1    1    2    0    0 -0.18402039257E+01  0.34115469325E+02 -0.35988564497E+02  0.49622861388E+02  0.00000000000E+00 0.  1.
         11    1    1    2    0    0 -0.42423575451E+02 -0.43254923049E+01  0.37223476079E+02  0.56604388603E+02  0.00000000000E+00 0. -1.
</event>
<event>
 7    1  0.2794945E-009  0.1276766E+03  0.7561462E-02  0.1230944E+00
          1   -1    0    0  501    0  0.00000000000E+00  0.00000000000E+00  0.69931648130E+02  0.69931648130E+02  0.00000000000E+00 0. -1.
         -1   -1    0    0    0  501 -0.00000000000E+00 -0.00000000000E+00 -0.42075960034E+03  0.42075960034E+03  0.00000000000E+00 0.  1.
         25    2    1    2    0    0 -0.89666587756E+02 -0.65840618495E+02 -0.29348430509E+03  0.33786912059E+03  0.12508965311E+03 0.  0.
          5    1    3    3  502    0 -0.73057235611E+02 -0.81519049946E+02 -0.11860021534E+03  0.16145029780E+03  0.41800000000E+01 0.  1.
         -5    1    3    3    0  502 -0.16609352145E+02  0.15678431451E+02 -0.17488408974E+03  0.17641882280E+03  0.41800000000E+01 0.  1.
        -11    1    1    2    0    0  0.10861482641E+02  0.37178496524E+02 -0.57062284430E+02  0.68966054790E+02  0.00000000000E+00 0. -1.
         11    1    1    2    0    0  0.78805105116E+02  0.28662121971E+02 -0.28136269122E+00  0.83856073084E+02  0.00000000000E+00 0.  1.
</event>
<event>
 7    1  0.2794945E-009  0.9996446E+02  0.7561462E-02  0.1280371E+00
          2   -1    0    0  501    0  0.00000000000E+00  0.00000000000E+00  0.24623707288E+03  0.24623707288E+03  0.00000000000E+00 0. -1.
         -2   -1    0    0    0  501 -0.00000000000E+00 -0.00000000000E+00 -0.54096189028E+02  0.54096189028E+02  0.00000000000E+00 0.  1.
         25    2    1    2    0    0  0.41626142036E+01  0.45467339784E+02  0.12462704132E+03  0.18238148853E+03  0.12508597677E+03 0.  0.
          5    1    3    3  502    0 -0.53401848564E+02  0.33578493590E+02  0.27865460734E+02  0.69088558848E+02  0.41800000000E+01 0.  1.
         -5    1    3    3    0  502  0.57564462767E+02  0.11888846193E+02  0.96761580589E+02  0.11329292968E+03  0.41800000000E+01 0.  1.
        -11    1    1    2    0    0 -0.29507215260E+02 -0.48469439218E+01  0.63153322342E+02  0.69874965049E+02  0.00000000000E+00 0. -1.
         11    1    1    2    0    0  0.25344601056E+02 -0.40620395862E+02  0.43605201847E+01  0.48076808328E+02  0.00000000000E+00 0.  1.
</event>
<event>
 7    1  0.2794945E-009  0.9108091E+02  0.7561462E-02  0.1300255E+00
         -2   -1    0    0    0  501 -0.00000000000E+00  0.00000000000E+00  0.10673927766E+02  0.10673927766E+02  0.00000000000E+00 0.  1.
          2   -1    0    0  501    0  0.00000000000E+00 -0.00000000000E+00 -0.12647067191E+04  0.12647067191E+04  0.00000000000E+00 0. -1.
         25    2    1    2    0    0 -0.23474356897E+02  0.96490877222E+01 -0.89457855512E+03  0.90363868197E+03  0.12509167017E+03 0.  0.
          5    1    3    3  502    0  0.29081759200E+02 -0.17435986188E+02 -0.68467757176E+03  0.68552943920E+03  0.41800000000E+01 0. -1.
         -5    1    3    3    0  502 -0.52556116096E+02  0.27085073911E+02 -0.20990098336E+03  0.21810924277E+03  0.41800000000E+01 0. -1.
        -11    1    1    2    0    0 -0.99800457123E+01 -0.41409524623E+02 -0.10808986696E+03  0.11617990094E+03  0.00000000000E+00 0.  1.
         11    1    1    2    0    0  0.33454402609E+02  0.31760436901E+02 -0.25136436930E+03  0.25556206400E+03  0.00000000000E+00 0. -1.
</event>
<event>
 7    1  0.2794945E-009  0.1361555E+03  0.7561462E-02  0.1218598E+00
          3   -1    0    0  501    0  0.00000000000E+00  0.00000000000E+00  0.96819493053E+02  0.96819493053E+02  0.00000000000E+00 0. -1.
         -3   -1    0    0    0  501 -0.00000000000E+00 -0.00000000000E+00 -0.20498463380E+03  0.20498463380E+03  0.00000000000E+00 0.  1.
         25    2    1    2    0    0  0.82426022159E+02 -0.43395103372E+02 -0.47517154557E+02  0.16303737251E+03  0.12508445439E+03 0.  0.
          5    1    3    3  502    0  0.64460651670E+02  0.32854318009E+02 -0.43417606554E+02  0.84481612109E+02  0.41800000000E+01 0.  1.
         -5    1    3    3    0  502  0.17965370489E+02 -0.76249421381E+02 -0.40995480026E+01  0.78555760397E+02  0.41800000000E+01 0.  1.
        -11    1    1    2    0    0 -0.41876154719E+02  0.63551636283E+02 -0.21974930668E+02  0.79216919823E+02  0.00000000000E+00 0. -1.
         11    1    1    2    0    0 -0.40549867441E+02 -0.20156532912E+02 -0.38673055520E+02  0.59549834523E+02  0.00000000000E+00 0.  1.
</event>
<event>
 7    1  0.2794945E-009  0.1241006E+03  0.7561462E-02  0.1236482E+00
         -1   -1    0    0    0  501 -0.00000000000E+00  0.00000000000E+00  0.67618562944E+02  0.67618562944E+02  0.00000000000E+00 0.  1.
          1   -1    0    0  501    0  0.00000000000E+00 -0.00000000000E+00 -0.35310679652E+03  0.35310679652E+03  0.00000000000E+00 0. -1.
         25    2    1    2    0    0 -0.10345839605E+03 -0.43445842846E+01 -0.10664814202E+03  0.19427157467E+03  0.12508038777E+03 0.  0.
          5    1    3    3  502    0 -0.26216229481E+02 -0.20706275726E+02 -0.11009701311E+03  0.11512977564E+03  0.41800000000E+01 0.  1.
         -5    1    3    3    0  502 -0.77242166568E+02  0.16361691441E+02  0.34488710923E+01  0.79141799036E+02  0.41800000000E+01 0.  1.
        -11    1    1    2    0    0  0.96427398938E+02 -0.29547830119E+02 -0.10896090180E+03  0.14847153145E+03  0.00000000000E+00 0.  1.
         11    1    1    2    0    0  0.70309971109E+01  0.33892414403E+02 -0.69879189764E+02  0.77982253343E+02  0.00000000000E+00 0. -1.
</event>
<event>
 7    1  0.2794945E-009  0.9837014E+02  0.7561462E-02  0.1283761E+00
         -2   -1    0    0    0  501 -0.00000000000E+00  0.00000000000E+00  0.18238170582E+02  0.18238170582E+02  0.00000000000E+00 0. -1.
          2   -1    0    0  501    0  0.00000000000E+00 -0.00000000000E+00 -0.11031422221E+04  0.11031422221E+04  0.00000000000E+00 0.  1.
         25    2    1    2    0    0  0.10230546853E+02  0.62406453772E+01 -0.94945871389E+03  0.95773879628E+03  0.12509253678E+03 0.  0.
          5    1    3    3  502    0 -0.43566716520E+02  0.37538957474E+02 -0.59927306002E+03  0.60204061739E+03  0.41800000000E+01 0.  1.
         -5    1    3    3    0  502  0.53797263373E+02 -0.31298312096E+02 -0.35018565387E+03  0.35569817889E+03  0.41800000000E+01 0.  1.
        -11    1    1    2    0    0 -0.43269709692E+02 -0.12599448602E+01 -0.29072582111E+02  0.52144705085E+02  0.00000000000E+00 0. -1.
         11    1    1    2    0    0  0.33039162838E+02 -0.49807005170E+01 -0.10637275551E+03  0.11149689132E+03  0.00000000000E+00 0.  1.
</event>
<event>
 7    1  0.2794945E-009  0.1088181E+03  0.7561462E-02  0.1262774E+00
          1   -1    0    0  501    0  0.00000000000E+00  0.00000000000E+00  0.99416225216E+03  0.99416225216E+03  0.00000000000E+00 0. -1.
         -1   -1    0    0    0  501 -0.00000000000E+00 -0.00000000000E+00 -0.14964234702E+02  0.14964234702E+02  0.00000000000E+00 0.  1.
         25    2    1    2    0    0 -0.60951306338E+02 -0.38212173496E+02  0.57574223990E+03  0.59355021384E+03  0.12508995802E+03 0.  0.
          5    1    3    3  502    0 -0.79980738828E+02 -0.52879531119E+02  0.54913218723E+03  0.55745564384E+03  0.41800000000E+01 0.  1.
         -5    1    3    3    0  502  0.19029432490E+02  0.14667357622E+02  0.26610052665E+02  0.36094569999E+02  0.41800000000E+01 0.  1.
        -11    1    1    2    0    0  0.37443781959E+02 -0.14032980129E+02  0.12327226257E+03  0.12959557113E+03  0.00000000000E+00 0.  1.
         11    1    1    2    0    0  0.23507524379E+02  0.52245153626E+02  0.28018351500E+03  0.28598070189E+03  0.00000000000E+00 0. -1.
</event>
<event>
 7    1  0.2794945E-009  0.1137739E+03  0.7561462E-02  0.1253737E+00
         -1   -1    0    0    0  501 -0.00000000000E+00  0.00000000000E+00  0.17051935367E+02  0.17051935367E+02  0.00000000000E+00 0.  1.
          1   -1    0    0  501    0  0.00000000000E+00 -0.00000000000E+00 -0.11424704977E+04  0.11424704977E+04  0.00000000000E+00 0. -1.
         25    2    1    2    0    0 -0.89188159578E+00  0.88233424782E+02 -0.57444481927E+03  0.59449270539E+03  0.12509513853E+03 0.  0.
          5    1    3    3  502    0 -0.22338020874E+01 -0.74548203024E+01  0.28675062189E+01  0.92875836159E+01  0.41800000000E+01 0. -1.
         -5    1    3    3    0  502  0.13419204916E+01  0.95688245084E+02 -0.57731232549E+03  0.58520512178E+03  0.41800000000E+01 0. -1.
        -11    1    1    2    0    0 -0.39313826380E+02 -0.20958327943E+02 -0.25459338171E+03  0.25846202519E+03  0.00000000000E+00 0.  1.
         11    1    1    2    0    0  0.40205707975E+02 -0.67275096839E+02 -0.29638036140E+03  0.30656770253E+03  0.00000000000E+00 0. -1.
</event>
<event>
 7    1  0.2794945E-009  0.1574236E+03  0.7561462E-02  0.1191637E+00
         -2   -1    0    0    0  501 -0.00000000000E+00  0.00000000000E+00  0.34534129486E+02  0.34534129486E+02  0.00000000000E+00 0. -1.
          2   -1    0    0  501    0  0.00000000000E+00 -0.00000000000E+00 -0.78881074843E+03  0.78881074843E+03  0.00000000000E+00 0.  1.
         25    2    1    2    0    0  0.39877494936E+01 -0.12314720341E+03 -0.41345269395E+03  0.44918979266E+03  0.12508878383E+03 0.  0.
          5    1    3    3  502    0 -0.23339476465E+02  0.16422489141E+02 -0.11493043900E+03  0.11849433539E+03  0.41800000000E+01 0.  1.
         -5    1    3    3    0  502  0.27327225958E+02 -0.13956969255E+03 -0.29852225495E+03  0.33069545726E+03  0.41800000000E+01 0.  1.
        -11    1    1    2    0    0 -0.26235961990E+02  0.94752161855E+01 -0.13615911262E+03  0.13898708347E+03  0.00000000000E+00 0.  1.
         11    1    1    2    0    0  0.22248212496E+02  0.11367198722E+03 -0.20466481238E+03  0.23516800179E+03  0.00000000000E+00 0. -1.
</event>
<event>
 7    1  0.2794945E-009  0.6390828E+02  0.7561462E-02  0.1382126E+00
         -2   -1    0    0    0  501 -0.00000000000E+00  0.00000000000E+00  0.26662593138E+02  0.26662593138E+02  0.00000000000E+00 0.  1.
          2   -1    0    0  501    0  0.00000000000E+00 -0.00000000000E+00 -0.62070482890E+03  0.62070482890E+03  0.00000000000E+00 0. -1.
         25    2    1    2    0    0 -0.30568105777E+01 -0.55900523990E+01 -0.52422499722E+03  0.53897941597E+03  0.12508545219E+03 0.  0.
          5    1    3    3  502    0  0.74840615310E+01 -0.26076123391E+02 -0.19402191817E+02  0.33613878613E+02  0.41800000000E+01 0.  1.
         -5    1    3    3    0  502 -0.10540872109E+02  0.20486070992E+02 -0.50482280541E+03  0.50536553736E+03  0.41800000000E+01 0.  1.
        -11    1    1    2    0    0 -0.16599811605E+02 -0.31143025183E+02 -0.12311509309E+02  0.37376664168E+02  0.00000000000E+00 0.  1.
         11    1    1    2    0    0  0.19656622183E+02  0.36733077582E+02 -0.57505729225E+02  0.71011341897E+02  0.00000000000E+00 0. -1.
</event>
<event>
 7    1  0.2794945E-009  0.1073376E+03  0.7561462E-02  0.1265581E+00
         -1   -1    0    0    0  501 -0.00000000000E+00  0.00000000000E+00  0.46201749759E+03  0.46201749759E+03  0.00000000000E+00 0.  1.
          1   -1    0    0  501    0  0.00000000000E+00 -0.00000000000E+00 -0.29665909656E+02  0.29665909656E+02  0.00000000000E+00 0. -1.
         25    2    1    2    0    0 -0.16485228120E+02  0.35473267862E+02  0.20383833059E+03  0.24233914742E+03  0.12509229342E+03 0.  0.
          5    1    3    3  502    0 -0.43080659055E+00  0.77175200728E+02  0.82894526951E+02  0.11333654398E+03  0.41800000000E+01 0.  1.
         -5    1    3    3    0  502 -0.16054421529E+02 -0.41701932867E+02  0.12094380364E+03  0.12900260344E+03  0.41800000000E+01 0.  1.
        -11    1    1    2    0    0  0.38351953667E+02 -0.52341308669E+02  0.11050625023E+03  0.12814880524E+03  0.00000000000E+00 0. -1.
         11    1    1    2    0    0 -0.21866725547E+02  0.16868040807E+02  0.11800700711E+03  0.12119545459E+03  0.00000000000E+00 0.  1.
</event>
<event>
 7    1  0.2794945E-009  0.1223777E+03  0.7561462E-02  0.1239225E+00
          1   -1    0    0  501    0  0.00000000000E+00  0.00000000000E+00  0.48160109063E+03  0.48160109063E+03  0.00000000000E+00 0. -1.
         -1   -1    0    0    0  501 -0.00000000000E+00 -0.00000000000E+00 -0.32278497327E+02  0.32278497327E+02  0.00000000000E+00 0.  1.
         25    2    1    2    0    0 -0.53248813457E+02  0.24555133184E+02  0.21274723692E+03  0.25366825611E+03  0.12509119329E+03 0.  0.
          5    1    3    3  502    0 -0.30820811226E+02 -0.49765934755E+02  0.11166046915E+03  0.12614318625E+03  0.41800000000E+01 0. -1.
         -5    1    3    3    0  502 -0.22428002231E+02  0.74321067938E+02  0.10108676777E+03  0.12752506986E+03  0.41800000000E+01 0. -1.
        -11    1    1    2    0    0  0.19795611832E+01  0.31959387638E+02  0.72989463585E+02  0.79704346902E+02  0.00000000000E+00 0.  1.
         11    1    1    2    0    0  0.51269252274E+02 -0.56514520822E+02  0.16358589279E+03  0.18050698494E+03  0.00000000000E+00 0. -1.
</event>
<event>
 7    1  0.2794945E-009  0.1009177E+03  0.7561462E-02  0.1278378E+00
         -1   -1    0    0    0  501 -0.00000000000E+00  0.00000000000E+00  0.10055784705E+03  0.10055784705E+03  0.00000000000E+00 0.  1.
          1   -1    0    0  501    0  0.00000000000E+00 -0.00000000000E+00 -0.28857817085E+03  0.28857817085E+03  0.00000000000E+00 0. -1.
         25    2    1    2    0    0  0.51130629060E+02 -0.74744425149E+02  0.74040662075E+01  0.15460842197E+03  0.12509146106E+03 0.  0.
          5    1    3    3  502    0  0.45284430768E+02 -0.85494075570E+02 -0.40518414558E+02  0.10497204840E+03  0.41800000000E+01 0. -1.
         -5    1    3    3    0  502  0.58461982914E+01  0.10749650421E+02  0.47922480766E+02  0.49636373572E+02  0.41800000000E+01 0. -1.
        -11    1    1    2    0    0 -0.32823383056E+02  0.33287751272E+02 -0.18104319318E+03  0.18698151421E+03  0.00000000000E+00 0. -1.
         11    1    1    2    0    0 -0.18307246003E+02  0.41456673877E+02 -0.14381196834E+02  0.47546081726E+02  0.00000000000E+00 0.  1.
</event>
<event>
 7    1  0.2794945E-009  0.1454377E+03  0.7561462E-02  0.1206194E+00
         -1   -1    0    0    0  501 -0.00000000000E+00  0.00000000000E+00  0.11058810317E+03  0.11058810317E+03  0.00000000000E+00 0.  1.
          1   -1    0    0  501    0  0.00000000000E+00 -0.00000000000E+00 -0.22004836038E+03  0.22004836038E+03  0.00000000000E+00 0. -1.
         25    2    1    2    0    0 -0.95126266025E+02 -0.44681749823E+02 -0.10588448455E+03  0.19469018805E+03  0.12508908825E+03 0.  0.
          5    1    3    3  502    0 -0.56785447423E+02  0.38335638194E+02 -0.64646255074E+02  0.94291138978E+02  0.41800000000E+01 0.  1.
         -5    1    3    3    0  502 -0.38340818602E+02 -0.83017388017E+02 -0.41238229477E+02  0.10039904907E+03  0.41800000000E+01 0.  1.
        -11    1    1    2    0    0  0.32010777594E+02  0.57946624733E+02 -0.20438819020E+02  0.69283811407E+02  0.00000000000E+00 0. -1.
         11    1    1    2    0    0  0.63115488431E+02 -0.13264874910E+02  0.16863046364E+02  0.66662464093E+02  0.00000000000E+00 0.  1.
</event>
<event>
 7    1  0.2794945E-009  0.1318618E+03  0.7561462E-02  0.1224719E+00
          1   -1    0    0  501    0  0.00000000000E+00  0.00000000000E+00  0.15475016371E+03  0.15475016371E+03  0.00000000000E+00 0. -1.
         -1   -1    0    0    0  501 -0.00000000000E+00 -0.00000000000E+00 -0.22535270253E+03  0.22535270253E+03  0.00000000000E+00 0.  1.
         25    2    1    2    0    0  0.83685586946E+02 -0.74892316524E+02  0.65455678216E+02  0.18039975767E+03  0.12508992853E+03 0.  0.
          5    1    3    3  502    0  0.82078404808E+02 -0.53194606457E+02  0.99625839750E+02  0.13967573532E+03  0.41800000000E+01 0. -1.
         -5    1    3    3    0  502  0.16071821380E+01 -0.21697710067E+02 -0.34170161534E+02  0.40724022344E+02  0.41800000000E+01 0. -1.
        -11    1    1    2    0    0 -0.16962214679E+02  0.75054296787E+02 -0.54317548580E+02  0.94187367926E+02  0.00000000000E+00 0. -1.
         11    1    1    2    0    0 -0.66723372267E+02 -0.16198026327E+00 -0.81740668452E+02  0.10551574064E+03  0.00000000000E+00 0.  1.
</event>
<event>
 7    1  0.2794945E-009  0.8153489E+02  0.7561462E-02  0.1324751E+00
         -1   -1    0    0    0  501 -0.00000000000E+00  0.00000000000E+00  0.29387156718E+02  0.29387156718E+02  0.00000000000E+00 0.  1.
          1   -1    0    0  501    0  0.00000000000E+00 -0.00000000000E+00 -0.54627169916E+03  0.54627169916E+03  0.00000000000E+00 0. -1.
         25    2    1    2    0    0 -0.62105292765E+02 -0.10546692342E+02 -0.32446052664E+03  0.35339889464E+03  0.12509134772E+03 0.  0.
          5    1    3    3  502    0 -0.21157896735E+02 -0.17179490193E+01 -0.30710337715E+03  0.30786452313E+03  0.41800000000E+01 0.  1.
         -5    1    3    3    0  502 -0.40947396029E+02 -0.88287433228E+01 -0.17357149486E+02  0.45534371507E+02  0.41800000000E+01 0.  1.
        -11    1    1    2    0    0  0.17197383331E+02  0.41415521585E+02 -0.38947781993E+02  0.59396339481E+02  0.00000000000E+00 0.  1.
         11    1    1    2    0    0  0.44907909433E+02 -0.30868829243E+02 -0.15347623381E+03  0.16286362176E+03  0.00000000000E+00 0. -1.
</event>
<event>
 7    1  0.2794945E-009  0.5421278E+02  0.7561462E-02  0.1423859E+00
         -1   -1    0    0    0  501 -0.00000000000E+00  0.00000000000E+00  0.14295929012E+03  0.14295929012E+03  0.00000000000E+00 0.  1.
          1   -1    0    0  501    0  0.00000000000E+00 -0.00000000000E+00 -0.89518135016E+02  0.89518135016E+02  0.00000000000E+00 0. -1.
         25    2    1    2    0    0 -0.28803076842E+02 -0.32823340824E+01  0.15318280085E+02  0.12931063271E+03  0.12508476755E+03 0.  0.
          5    1    3    3  502    0  0.16480966085E+02  0.12851886251E+02 -0.46345144888E+02  0.51011156408E+02  0.41800000000E+01 0. -1.
         -5    1    3    3    0  502 -0.45284042927E+02 -0.16134220334E+02  0.61663424973E+02  0.78299476301E+02  0.41800000000E+01 0. -1.
        -11    1    1    2    0    0  0.73895407579E+01 -0.10903852613E+02  0.64804959770E+02  0.66130039507E+02  0.00000000000E+00 0.  1.
         11    1    1    2    0    0  0.21413536084E+02  0.14186186696E+02 -0.26682084748E+02  0.37036752923E+02  0.00000000000E+00 0. -1.
</event>
<event>
 7    1  0.2794945E-009  0.1086865E+03  0.7561462E-02  0.1263022E+00
         -2   -1    0    0    0  501 -0.00000000000E+00  0.00000000000E+00  0.43025199549E+02  0.43025199549E+02  0.00000000000E+00 0.  1.
          2   -1    0    0  501    0  0.00000000000E+00 -0.00000000000E+00 -0.31961074001E+03  0.31961074001E+03  0.00000000000E+00 0. -1.
         25    2    1    2    0    0  0.39769556681E+02  0.34261072609E+02 -0.19307007175E+03  0.23596510333E+03  0.12509212065E+03 0.  0.
          5    1    3    3  502    0 -0.37350706226E+02 -0.69281010312E+01 -0.22766453117E+02  0.44484352609E+02  0.41800000000E+01 0. -1.
         -5    1    3    3    0  502  0.77120262907E+02  0.41189173640E+02 -0.17030361864E+03  0.19148075072E+03  0.41800000000E+01 0. -1.
        -11    1    1    2    0    0  0.76102539256E+01  0.18924060294E+02 -0.57010606915E+01  0.21178718465E+02  0.00000000000E+00 0.  1.
         11    1    1    2    0    0 -0.47379810606E+02 -0.53185132903E+02 -0.77814408012E+02  0.10549211776E+03  0.00000000000E+00 0. -1.
</event>
<event>
 7    1  0.2794945E-009  0.9521290E+02  0.7561462E-02  0.1290697E+00
          1   -1    0    0  501    0  0.00000000000E+00  0.00000000000E+00  0.87417967611E+03  0.87417967611E+03  0.00000000000E+00 0. -1.
         -1   -1    0    0    0  501 -0.00000000000E+00 -0.00000000000E+00 -0.25398339676E+02  0.25398339676E+02  0.00000000000E+00 0.  1.
         25    2    1    2    0    0 -0.51903819838E+02 -0.76297025680E+02  0.71566715733E+03  0.73235510822E+03  0.12509708955E+03 0.  0.
          5    1    3    3  502    0 -0.49206216074E+02 -0.60631908416E+02  0.17779466837E+03  0.19423155387E+03  0.41800000000E+01 0. -1.
         -5    1    3    3    0  502 -0.26976037634E+01 -0.15665117264E+02  0.53787248896E+03  0.53812355435E+03  0.41800000000E+01 0. -1.
        -11    1    1    2    0    0  0.51776505218E+02  0.59012644010E+02  0.12615866335E+03  0.14859107303E+03  0.00000000000E+00 0. -1.
         11    1    1    2    0    0  0.12731461983E+00  0.17284381670E+02  0.69555157518E+01  0.18631834534E+02  0.00000000000E+00 0.  1.
</event>
<event>
 6    1  0.2794945E-009  0.1819435E+03  0.7561462E-02  0.1165935E+00
          2   -1    0    0  501    0  0.00000000000E+00  0.00000000000E+00  0.14371552371E+03  0.14371552371E+03  0.00000000000E+00 0. -1.
         -2   -1    0    0    0  501 -0.00000000000E+00 -0.00000000000E+00 -0.32984985155E+03  0.32984985155E+03  0.00000000000E+00 0.  1.
          5    1    1    2  502    0  0.82682203619E+02  0.13054680053E+02 -0.14870357771E+03  0.17069562938E+03  0.41800000000E+01 0. -1.
         -5    1    1    2    0  502  0.85639129431E+02  0.49502223860E+02 -0.96599063676E+01  0.99475207202E+02  0.41800000000E+01 0. -1.
        -11    1    1    2    0    0 -0.52942065048E+02 -0.31422950625E+02 -0.53021607942E+02  0.81249953761E+02  0.00000000000E+00 0.  1.
         11    1    1    2    0    0 -0.11537926800E+03 -0.31133953288E+02  0.25250764179E+02  0.12214458491E+03  0.00000000000E+00 0. -1.
</event>
<event>
 7    1  0.2794945E-009  0.1703413E+03  0.7561462E-02  0.1177492E+00
          2   -1    0    0  501    0  0.00000000000E+00  0.00000000000E+00  0.46630910152E+03  0.46630910152E+03  0.00000000000E+00 0. -1.
         -2   -1    0    0    0  501 -0.00000000000E+00 -0.00000000000E+00 -0.74772167893E+02  0.74772167893E+02  0.00000000000E+00 0.  1.
         25    2    1    2    0    0 -0.11820694203E+03  0.93415249504E+02  0.22715166724E+03  0.29990686537E+03  0.12508780109E+03 0.  0.
          5    1    3    3  502    0 -0.23706419065E+02  0.73789422068E+02  0.17191211775E+03  0.18862163647E+03  0.41800000000E+01 0. -1.
         -5    1    3    3    0  502 -0.94500522967E+02  0.19625827437E+02  0.55239549485E+02  0.11128522890E+03  0.41800000000E+01 0. -1.
        -11    1    1    2    0    0  0.41434896153E+02  0.48953083354E+01  0.81060169398E+02  0.91167788861E+02  0.00000000000E+00 0. -1.
         11    1    1    2    0    0  0.76772045879E+02 -0.98310557840E+02  0.83325096993E+02  0.15000661519E+03  0.00000000000E+00 0.  1.
</event>
<event>
 7    1  0.2794945E-009  0.8346094E+02  0.7561462E-02  0.1319507E+00
         -2   -1    0    0    0  501 -0.00000000000E+00  0.00000000000E+00  0.53630315535E+02  0.53630315535E+02  0.00000000000E+00 0.  1.
          2   -1    0    0  501    0  0.00000000000E+00 -0.00000000000E+00 -0.32460755716E+03  0.32460755716E+03  0.00000000000E+00 0. -1.
         25    2    1    2    0    0 -0.69848483870E+02  0.15695636987E+01 -0.18475218157E+03  0.23380011207E+03  0.12509136493E+03 0.  0.
          5    1    3    3  502    0  0.51769562507E+01  0.17136459475E+02  0.12444290721E+02  0.22198916436E+02  0.41800000000E+01 0.  1.
         -5    1    3    3    0  502 -0.75025440121E+02 -0.15566895777E+02 -0.19719647229E+03  0.21160119563E+03  0.41800000000E+01 0.  1.
        -11    1    1    2    0    0  0.19824936855E+02 -0.79765846219E+01  0.18459581414E+02  0.28238451967E+02  0.00000000000E+00 0.  1.
         11    1    1    2    0    0  0.50023547015E+02  0.64070209231E+01 -0.10468464147E+03  0.11619930866E+03  0.00000000000E+00 0. -1.
</event>
<event>
 7    1  0.2794945E-009  0.1151897E+03  0.7561462E-02  0.1251250E+00
         -2   -1    0    0    0  501 -0.00000000000E+00  0.00000000000E+00  0.23248613655E+02  0.23248613655E+02  0.00000000000E+00 0.  1.
          2   -1    0    0  501    0  0.00000000000E+00 -0.00000000000E+00 -0.71034203968E+03  0.71034203968E+03  0.00000000000E+00 0. -1.
         25    2    1    2    0    0 -0.35936860458E+02 -0.55245398721E+02 -0.31547633022E+03  0.34571283764E+03  0.12509412121E+03 0.  0.
          5    1    3    3  502    0  0.40220835889E+02  0.31590111289E+01 -0.13883950007E+03  0.14464291953E+03  0.41800000000E+01 0. -1.
         -5    1    3    3    0  502 -0.76157696347E+02 -0.58404409850E+02 -0.17663683015E+03  0.20106991811E+03  0.41800000000E+01 0. -1.
        -11    1    1    2    0    0 -0.19451334896E+02  0.21044272109E+02 -0.36036702765E+02  0.46041934842E+02  0.00000000000E+00 0.  1.
         11    1    1    2    0    0  0.55388195354E+02  0.34201126612E+02 -0.33558039305E+03  0.34183588086E+03  0.00000000000E+00 0. -1.
</event>
<event>
 7    1  0.2794945E-009  0.2838945E+03  0.7561462E-02  0.1093581E+00
          2   -1    0    0  501    0  0.00000000000E+00  0.00000000000E+00  0.52522366886E+03  0.52522366886E+03  0.00000000000E+00 0. -1.
         -2   -1    0    0    0  501 -0.00000000000E+00 -0.00000000000E+00 -0.29223001232E+03  0.29223001232E+03  0.00000000000E+00 0.  1.
         25    2    1    2    0    0  0.83599180958E+02 -0.26396646589E+03  0.38353703916E+03  0.48929845024E+03  0.12508075323E+03 0.  0.
          5    1    3    3  502    0  0.51180645547E+02 -0.77316094568E+02  0.49331765427E+02  0.10511104813E+03  0.41800000000E+01 0.  1.
         -5    1    3    3    0  502  0.32418535411E+02 -0.18665037132E+03  0.33420527373E+03  0.38418740211E+03  0.41800000000E+01 0.  1.
        -11    1    1    2    0    0 -0.40572599003E+02  0.22093828537E+03 -0.89036783596E+02  0.24163487034E+03  0.00000000000E+00 0.  1.
         11    1    1    2    0    0 -0.43026581955E+02  0.43028180521E+02 -0.61506599019E+02  0.86520360590E+02  0.00000000000E+00 0. -1.
</event>
<event>
 7    1  0.2794945E-009  0.1076977E+03  0.7561462E-02  0.1264894E+00
          2   -1    0    0  501    0  0.00000000000E+00  0.00000000000E+00  0.72534074689E+02  0.72534074689E+02  0.00000000000E+00 0. -1.
         -2   -1    0    0    0  501 -0.00000000000E+00 -0.00000000000E+00 -0.20068276471E+03  0.20068276471E+03  0.00000000000E+00 0.  1.
         25    2    1    2    0    0  0.28325623931E+02  0.46377372614E+02 -0.38891247905E+02  0.14182172915E+03  0.12509065526E+03 0.  0.
          5    1    3    3  502    0 -0.33644930995E+02  0.46226561237E+02  0.15364918595E+02  0.59350058710E+02  0.41800000000E+01 0. -1.
         -5    1    3    3    0  502  0.61970554926E+02  0.15081137715E+00 -0.54256166500E+02  0.82471670441E+02  0.41800000000E+01 0. -1.
        -11    1    1    2    0    0 -0.35026471550E+02  0.12130012060E+02 -0.40873247788E+02  0.55178014521E+02  0.00000000000E+00 0.  1.
         11    1    1    2    0    0  0.67008476187E+01 -0.58507384673E+02 -0.48384194327E+02  0.76217095725E+02  0.00000000000E+00 0. -1.
</event>
<event>
 7    1  0.2794945E-009  0.1096222E+03  0.7561462E-02  0.1261271E+00
          2   -1    0    0  501    0  0.00000000000E+00  0.00000000000E+00  0.53055811410E+03  0.53055811410E+03  0.00000000000E+00 0. -1.
         -2   -1    0    0    0  501 -0.00000000000E+00 -0.00000000000E+00 -0.36637556673E+02  0.36637556673E+02  0.00000000000E+00 0.  1.
         25    2    1    2    0    0 -0.75303621196E+02 -0.19908596665E+02  0.34983363542E+03  0.37960276816E+03  0.12509077319E+03 0.  0.
          5    1    3    3  502    0 -0.54609369071E+01  0.21591736166E+02  0.24907428249E+03  0.25010296980E+03  0.41800000000E+01 0.  1.
         -5    1    3    3    0  502 -0.69842684289E+02 -0.41500332831E+02  0.10075935292E+03  0.12949979836E+03  0.41800000000E+01 0.  1.
        -11    1    1    2    0    0 -0.17105525926E+02  0.14907688749E+02  0.10303128552E+02  0.24919724297E+02  0.00000000000E+00 0. -1.
         11    1    1    2    0    0  0.92409147122E+02  0.50009079164E+01  0.13378379345E+03  0.16267317831E+03  0.00000000000E+00 0.  1.
</event>
<event>
 7    1  0.2794945E-009  0.2299862E+03  0.7561462E-02  0.1126650E+00
          2   -1    0    0  501    0  0.00000000000E+00  0.00000000000E+00  0.19326965940E+04  0.19326965940E+04  0.00000000000E+00 0. -1.
         -2   -1    0    0    0  501 -0.00000000000E+00 -0.00000000000E+00 -0.30681876286E+02  0.30681876286E+02  0.00000000000E+00 0.  1.
         25    2    1    2    0    0 -0.18187828001E+03  0.11699700048E+03  0.10922855859E+04  0.11204924799E+04  0.12509032555E+03 0.  0.
          5    1    3    3  502    0 -0.41559903441E+02  0.64014836788E+02  0.17427951956E+03  0.19030488233E+03  0.41800000000E+01 0.  1.
         -5    1    3    3    0  502 -0.14031837657E+03  0.52982163689E+02  0.91800606633E+03  0.93018759758E+03  0.41800000000E+01 0.  1.
        -11    1    1    2    0    0  0.14953781819E+03 -0.47607143962E+02  0.57173447331E+03  0.59288136013E+03  0.00000000000E+00 0. -1.
         11    1    1    2    0    0  0.32340461824E+02 -0.69389856514E+02  0.23799465855E+03  0.25000463027E+03  0.00000000000E+00 0.  1.
</event>
<event>
 7    1  0.2794945E-009  0.8356527E+02  0.7561462E-02  0.1319228E+00
          2   -1    0    0  501    0  0.00000000000E+00  0.00000000000E+00  0.39163957584E+02  0.39163957584E+02  0.00000000000E+00 0. -1.
         -2   -1    0    0    0  501 -0.00000000000E+00 -0.00000000000E+00 -0.35504044711E+03  0.35504044711E+03  0.00000000000E+00 0.  1.
         25    2    1    2    0    0  0.32897132212E+02 -0.29151417138E+02 -0.20829587603E+03  0.24689280082E+03  0.12504741780E+03 0.  0.
          5    1    3    3  502    0 -0.10738178088E+02  0.23714047191E+02  0.12352394984E+01  0.26394369086E+02  0.41800000000E+01 0. -1.
         -5    1    3    3    0  502  0.43635310300E+02 -0.52865464328E+02 -0.20953111553E+03  0.22049843174E+03  0.41800000000E+01 0. -1.
        -11    1    1    2    0    0 -0.39370298919E+02 -0.28187568436E+01 -0.10768661248E+03  0.11469251211E+03  0.00000000000E+00 0.  1.
         11    1    1    2    0    0  0.64731667072E+01  0.31970173981E+02  0.10599898130E+00  0.32619091762E+02  0.00000000000E+00 0. -1.
</event>
<event>
 7    1  0.2794945E-009  0.1325398E+03  0.7561462E-02  0.1223735E+00
          1   -1    0    0  501    0  0.00000000000E+00  0.00000000000E+00  0.82335173014E+03  0.82335173014E+03  0.00000000000E+00 0. -1.
         -1   -1    0    0    0  501 -0.00000000000E+00 -0.00000000000E+00 -0.23374522168E+02  0.23374522168E+02  0.00000000000E+00 0.  1.
         25    2    1    2    0    0  0.63144900893E+02  0.45184453716E+02  0.54644766750E+03  0.56593637272E+03  0.12510000516E+03 0.  0.
          5    1    3    3  502    0  0.52049740955E+02 -0.35812707366E+02  0.28607970493E+03  0.29300306400E+03  0.41800000000E+01 0.  1.
         -5    1    3    3    0  502  0.11095159938E+02  0.80997161082E+02  0.26036796257E+03  0.27293330872E+03  0.41800000000E+01 0.  1.
        -11    1    1    2    0    0 -0.66231985474E+02  0.79227538524E+01  0.15677143867E+03  0.17037232730E+03  0.00000000000E+00 0. -1.
         11    1    1    2    0    0  0.30870845809E+01 -0.53107207568E+02  0.96758101807E+02  0.11041755228E+03  0.00000000000E+00 0.  1.
</event>
<event>
 7    1  0.2794945E-009  0.1402666E+03  0.7561462E-02  0.1212971E+00
          3   -1    0    0  501    0  0.00000000000E+00  0.00000000000E+00  0.63522251189E+02  0.63522251189E+02  0.00000000000E+00 0. -1.
         -3   -1    0    0    0  501 -0.00000000000E+00 -0.00000000000E+00 -0.48621492940E+03  0.48621492940E+03  0.00000000000E+00 0.  1.
         25    2    1    2    0    0 -0.11317797132E+03 -0.50316737262E+02 -0.32131177858E+03  0.36637549887E+03  0.12509484354E+03 0.  0.
          5    1    3    3  502    0 -0.58750351103E+02 -0.96994729882E-01 -0.30646020222E+02  0.66394759719E+02  0.41800000000E+01 0. -1.
         -5    1    3    3    0  502 -0.54427620220E+02 -0.50219742532E+02 -0.29066575835E+03  0.29998073915E+03  0.41800000000E+01 0. -1.
        -11    1    1    2    0    0  0.10019819980E+03  0.50022071496E+01 -0.45226862190E+02  0.11004621930E+03  0.00000000000E+00 0.  1.
         11    1    1    2    0    0  0.12979771527E+02  0.45314530113E+02 -0.56154037446E+02  0.73315462419E+02  0.00000000000E+00 0. -1.
</event>
<event>
 7    1  0.2794945E-009  0.9745628E+02  0.7561462E-02  0.1285738E+00
         -2   -1    0    0    0  501 -0.00000000000E+00  0.00000000000E+00  0.10900742702E+02  0.10900742702E+02  0.00000000000E+00 0.  1.
          2   -1    0    0  501    0  0.00000000000E+00 -0.00000000000E+00 -0.11873474929E+04  0.11873474929E+04  0.00000000000E+00 0. -1.
         25    2    1    2    0    0  0.59264477075E+01 -0.15625159438E+02 -0.83698769207E+03  0.84644839981E+03  0.12508888232E+03 0.  0.
          5    1    3    3  502    0  0.10397650787E+01 -0.60458896804E+02 -0.23265546461E+03  0.24042129051E+03  0.41800000000E+01 0.  1.
         -5    1    3    3    0  502  0.48866826288E+01  0.44833737366E+02 -0.60433222745E+03  0.60602710930E+03  0.41800000000E+01 0.  1.
        -11    1    1    2    0    0 -0.18668176121E+02  0.49453356859E+02 -0.24551916612E+03  0.25114497056E+03  0.00000000000E+00 0. -1.
         11    1    1    2    0    0  0.12741728414E+02 -0.33828197422E+02 -0.93939891994E+02  0.10065486522E+03  0.00000000000E+00 0.  1.
</event>
<event>
 7    1  0.2794945E-009  0.1036326E+03  0.7561462E-02  0.1272837E+00
          2   -1    0    0  501    0  0.00000000000E+00  0.00000000000E+00  0.15478348180E+03  0.15478348180E+03  0.00000000000E+00 0. -1.
         -2   -1    0    0    0  501 -0.00000000000E+00 -0.00000000000E+00 -0.11009072264E+03  0.11009072264E+03  0.00000000000E+00 0.  1.
         25    2    1    2    0    0  0.11081358378E+00 -0.65135187399E+02  0.55521509644E+02  0.15156336471E+03  0.12508481351E+03 0.  0.
          5    1    3    3  502    0  0.32749692176E+02 -0.46996602400E+02  0.85840628079E+02  0.10328266459E+03  0.41800000000E+01 0.  1.
         -5    1    3    3    0  502 -0.32638878592E+02 -0.18138584999E+02 -0.30319118435E+02  0.48280700122E+02  0.41800000000E+01 0.  1.
        -11    1    1    2    0    0 -0.30637653055E+02  0.74312855565E+02 -0.12706999371E+02  0.81378953790E+02  0.00000000000E+00 0.  1.
         11    1    1    2    0    0  0.30526839471E+02 -0.91776681658E+01  0.18782488886E+01  0.31931885944E+02  0.00000000000E+00 0. -1.
</event>
<event>
 7    1  0.2794945E-009  0.1082426E+03  0.7561462E-02  0.1263859E+00
          2   -1    0    0  501    0  0.00000000000E+00  0.00000000000E+00  0.47163328830E+03  0.47163328830E+03  0.00000000000E+00 0.  1.
         -2   -1    0    0    0  501 -0.00000000000E+00 -0.00000000000E+00 -0.26788094239E+02  0.26788094239E+02  0.00000000000E+00 0. -1.
         25    2    1    2    0    0 -0.12583667853E+02 -0.31698472585E+01  0.22909758075E+03  0.26134695536E+03  0.12509249754E+03 0.  0.
          5    1    3    3  502    0 -0.65777386410E+02 -0.95030896383E+01  0.87937535549E+02  0.11030619128E+03  0.41800000000E+01 0. -1.
         -5    1    3    3    0  502  0.53193718556E+02  0.63332423799E+01  0.14116004520E+03  0.15104076408E+03  0.41800000000E+01 0. -1.
        -11    1    1    2    0    0 -0.41344620278E+02 -0.48947963994E+01  0.11824355769E+03  0.12535898689E+03  0.00000000000E+00 0.  1.
         11    1    1    2    0    0  0.53928288132E+02  0.80646436578E+01  0.97504055614E+02  0.11171544029E+03  0.00000000000E+00 0. -1.
</event>
<event>
 7    1  0.2794945E-009  0.1034752E+03  0.7561462E-02  0.1273153E+00
         -2   -1    0    0    0  501 -0.00000000000E+00  0.00000000000E+00  0.16039535768E+03  0.16039535768E+03  0.00000000000E+00 0.  1.
          2   -1    0    0  501    0  0.00000000000E+00 -0.00000000000E+00 -0.21667254826E+03  0.21667254826E+03  0.00000000000E+00 0. -1.
         25    2    1    2    0    0 -0.48783326772E+02  0.70511001890E+02  0.96616252493E+02  0.17981922289E+03  0.12509451754E+03 0.  0.
          5    1    3    3  502    0 -0.16875036039E+02  0.65861659467E+02  0.12121782330E+03  0.13904588493E+03  0.41800000000E+01 0. -1.
         -5    1    3    3    0  502 -0.31908290733E+02  0.46493424233E+01 -0.24601570811E+02  0.40773337965E+02  0.41800000000E+01 0. -1.
        -11    1    1    2    0    0  0.39843483427E+02 -0.82350201034E+02 -0.75987767531E+02  0.11892518487E+03  0.00000000000E+00 0.  1.
         11    1    1    2    0    0  0.89398433442E+01  0.11839199144E+02 -0.76905675542E+02  0.78323498172E+02  0.00000000000E+00 0. -1.
</event>
<event>
 7    1  0.2794945E-009  0.1004624E+03  0.7561462E-02  0.1279326E+00
          3   -1    0    0  501    0  0.00000000000E+00  0.00000000000E+00  0.46369657865E+02  0.46369657865E+02  0.00000000000E+00 0. -1.
         -3   -1    0    0    0  501 -0.00000000000E+00 -0.00000000000E+00 -0.32845597969E+03  0.32845597969E+03  0.00000000000E+00 0.  1.
         25    2    1    2    0    0 -0.59469354004E+02 -0.16197602682E+02 -0.16056870977E+03  0.21267081931E+03  0.12509036905E+03 0.  0.
          5    1    3    3  502    0 -0.45820137735E+02  0.50637016597E+02 -0.59540075397E+02  0.90697769819E+02  0.41800000000E+01 0. -1.
         -5    1    3    3    0  502 -0.13649216269E+02 -0.66834619278E+02 -0.10102863437E+03  0.12197304949E+03  0.41800000000E+01 0. -1.
        -11    1    1    2    0    0  0.35285351360E+02  0.41798194811E+00 -0.12781727602E+03  0.13259896975E+03  0.00000000000E+00 0.  1.
         11    1    1    2    0    0  0.24184002644E+02  0.15779620733E+02  0.62996639619E+01  0.29555848497E+02  0.00000000000E+00 0. -1.
</event>
<event>
 7    1  0.2794945E-009  0.1565596E+03  0.7561462E-02  0.1192637E+00
         -2   -1    0    0    0  501 -0.00000000000E+00  0.00000000000E+00  0.27002718380E+03  0.27002718380E+03  0.00000000000E+00 0.  1.
          2   -1    0    0  501    0  0.00000000000E+00 -0.00000000000E+00 -0.11031982477E+03  0.11031982477E+03  0.00000000000E+00 0. -1.
         25    2    1    2    0    0 -0.14380912740E+02 -0.13212278085E+03  0.10719567425E+03  0.21166358287E+03  0.12508924760E+03 0.  0.
          5    1    3    3  502    0 -0.45159840066E+02 -0.63131883289E+02  0.11145268055E+03  0.13588310507E+03  0.41800000000E+01 0. -1.
         -5    1    3    3    0  502  0.30778927326E+02 -0.68990897562E+02 -0.42570062913E+01  0.75780477805E+02  0.41800000000E+01 0. -1.
        -11    1    1    2    0    0 -0.37595051099E+02  0.50485033937E+02  0.13745638642E+02  0.64428790928E+02  0.00000000000E+00 0. -1.
         11    1    1    2    0    0  0.51975963839E+02  0.81637746913E+02  0.38766046137E+02  0.10425463477E+03  0.00000000000E+00 0.  1.
</event>
<event>
 7    1  0.2794945E-009  0.9594308E+02  0.7561462E-02  0.1289066E+00
          3   -1    0    0  501    0  0.00000000000E+00  0.00000000000E+00  0.41231957768E+02  0.41231957768E+02  0.00000000000E+00 0. -1.
         -3   -1    0    0    0  501 -0.00000000000E+00 -0.00000000000E+00 -0.41537893339E+03  0.41537893339E+03  0.00000000000E+00 0.  1.
         25    2    1    2    0    0  0.33908273735E+01 -0.60164160683E+02 -0.13371088410E+03  0.19275607753E+03  0.12508029803E+03 0.  0.
          5    1    3    3  502    0  0.58011664141E+02 -0.42019062255E+02 -0.38518097610E+02  0.81437528282E+02  0.41800000000E+01 0. -1.
         -5    1    3    3    0  502 -0.54620836768E+02 -0.18145098428E+02 -0.95192786489E+02  0.11131854924E+03  0.41800000000E+01 0. -1.
        -11    1    1    2    0    0 -0.91237804021E+01  0.49350279947E+02 -0.24552336473E+03  0.25060011199E+03  0.00000000000E+00 0.  1.
         11    1    1    2    0    0  0.57329530286E+01  0.10813880736E+02  0.50872732070E+01  0.13254701645E+02  0.00000000000E+00 0. -1.
</event>
<event>
 7    1  0.2794945E-009  0.1238063E+03  0.7561462E-02  0.1236947E+00
          2   -1    0    0  501    0  0.00000000000E+00  0.00000000000E+00  0.72370524363E+03  0.72370524363E+03  0.00000000000E+00 0.  1.
         -2   -1    0    0    0  501 -0.00000000000E+00 -0.00000000000E+00 -0.21807160564E+02  0.21807160564E+02  0.00000000000E+00 0. -1.
         25    2    1    2    0    0  0.58757366903E+02  0.17644553958E+02  0.43733931324E+03  0.45899549863E+03  0.12508970542E+03 0.  0.
          5    1    3    3  502    0  0.52330267139E+02 -0.48325879500E+02  0.19215161356E+03  0.20497210171E+03  0.41800000000E+01 0. -1.
         -5    1    3    3    0  502  0.64270997639E+01  0.65970433458E+02  0.24518769969E+03  0.25402339692E+03  0.41800000000E+01 0. -1.
        -11    1    1    2    0    0  0.44078277515E+01 -0.41937895206E+02  0.94183817113E+02  0.10319305890E+03  0.00000000000E+00 0.  1.
         11    1    1    2    0    0 -0.63165194654E+02  0.24293341248E+02  0.17037495271E+03  0.18332384666E+03  0.00000000000E+00 0. -1.
</event>
<event>
 7    1  0.2794945E-009  0.1177283E+03  0.7561462E-02  0.1246892E+00
         -3   -1    0    0    0  501 -0.00000000000E+00  0.00000000000E+00  0.87817245022E+03  0.87817245022E+03  0.00000000000E+00 0.  1.
          3   -1    0    0  501    0  0.00000000000E+00 -0.00000000000E+00 -0.21116137539E+02  0.21116137539E+02  0.00000000000E+00 0. -1.
         25    2    1    2    0    0 -0.77546132821E+02 -0.53747684881E+01  0.55543952379E+03  0.57463209324E+03  0.12508671846E+03 0.  0.
          5    1    3    3  502    0 -0.24274874888E+02 -0.45095772330E+02  0.83680072905E+02  0.98197378958E+02  0.41800000000E+01 0.  1.
         -5    1    3    3    0  502 -0.53271257933E+02  0.39721003842E+02  0.47175945089E+03  0.47643471428E+03  0.41800000000E+01 0.  1.
        -11    1    1    2    0    0  0.65829460588E+02  0.42636260940E+02  0.16723493689E+03  0.18471300101E+03  0.00000000000E+00 0.  1.
         11    1    1    2    0    0  0.11716672233E+02 -0.37261492452E+02  0.13438185200E+03  0.13994349351E+03  0.00000000000E+00 0. -1.
</event>
<event>
 7    1  0.2794945E-009  0.1675540E+03  0.7561462E-02  0.1180423E+00
         -1   -1    0    0    0  501 -0.00000000000E+00  0.00000000000E+00  0.23187835960E+03  0.23187835960E+03  0.00000000000E+00 0.  1.
          1   -1    0    0  501    0  0.00000000000E+00 -0.00000000000E+00 -0.19485287005E+03  0.19485287005E+03  0.00000000000E+00 0. -1.
         25    2    1    2    0    0 -0.11846127468E+03  0.10511612195E+03  0.10872217539E+03  0.22923818515E+03  0.12508861425E+03 0.  0.
          5    1    3    3  502    0 -0.52044203005E+02  0.57534650334E+01  0.95404990987E+02  0.10890953187E+03  0.41800000000E+01 0. -1.
         -5    1    3    3    0  502 -0.66417071677E+02  0.99362656919E+02  0.13317184400E+02  0.12032865328E+03  0.41800000000E+01 0. -1.
        -11    1    1    2    0    0  0.46874213190E+01 -0.20952624117E+02 -0.49875235049E+02  0.54300307984E+02  0.00000000000E+00 0. -1.
         11    1    1    2    0    0  0.11377385336E+03 -0.84163497835E+02 -0.21821450783E+02  0.14319273652E+03  0.00000000000E+00 0.  1.
</event>
<event>
 7    1  0.2794945E-009  0.1116242E+03  0.7561462E-02  0.1257591E+00
         -2   -1    0    0    0  501 -0.00000000000E+00  0.00000000000E+00  0.15026754621E+04  0.15026754621E+04  0.00000000000E+00 0.  1.
          2   -1    0    0  501    0  0.00000000000E+00 -0.00000000000E+00 -0.15911311907E+02  0.15911311907E+02  0.00000000000E+00 0. -1.
         25    2    1    2    0    0 -0.36532598893E+02 -0.17138925281E+02  0.13126617039E+04  0.13192259468E+04  0.12509187114E+03 0.  0.
          5    1    3    3  502    0 -0.68742359472E+02  0.25927961326E+02  0.59363011342E+03  0.59817385025E+03  0.41800000000E+01 0. -1.
         -5    1    3    3    0  502  0.32209760579E+02 -0.43066886607E+02  0.71903159053E+03  0.72105209657E+03  0.41800000000E+01 0. -1.
        -11    1    1    2    0    0  0.57796645710E+02 -0.12605072725E+02  0.12344117826E+03  0.13688339784E+03  0.00000000000E+00 0.  1.
         11    1    1    2    0    0 -0.21264046817E+02  0.29743998006E+02  0.50661268025E+02  0.62477429383E+02  0.00000000000E+00 0. -1.
</event>
<event>
 7    1  0.2794945E-009  0.9508871E+02  0.7561462E-02  0.1290976E+00
          1   -1    0    0  501    0  0.00000000000E+00  0.00000000000E+00  0.31407975068E+03  0.31407975068E+03  0.00000000000E+00 0. -1.
         -1   -1    0    0    0  501 -0.00000000000E+00 -0.00000000000E+00 -0.43801175866E+02  0.43801175866E+02  0.00000000000E+00 0.  1.
         25    2    1    2    0    0 -0.23197331288E+02 -0.38594358132E+02  0.16423009278E+03  0.21129772789E+03  0.12509023054E+03 0.  0.
          5    1    3    3  502    0  0.27302536625E+02 -0.23339431076E+02  0.15298042653E+03  0.15719618586E+03  0.41800000000E+01 0.  1.
         -5    1    3    3    0  502 -0.50499867912E+02 -0.15254927056E+02  0.11249666256E+02  0.54101542025E+02  0.41800000000E+01 0.  1.
        -11    1    1    2    0    0  0.57123920811E+02  0.34969229611E+02  0.67184102558E+02  0.94866711680E+02  0.00000000000E+00 0.  1.
         11    1    1    2    0    0 -0.33926589524E+02  0.36251285208E+01  0.38864379473E+02  0.51716486978E+02  0.00000000000E+00 0. -1.
</event>
<event>
 7    1  0.2794945E-009  0.1158097E+03  0.7561462E-02  0.1250174E+00
          2   -1    0    0  501    0  0.00000000000E+00  0.00000000000E+00  0.13382619894E+03  0.13382619894E+03  0.00000000000E+00 0. -1.
         -2   -1    0    0    0  501 -0.00000000000E+00 -0.00000000000E+00 -0.10732429354E+03  0.10732429354E+03  0.00000000000E+00 0.  1.
         25    2    1    2    0    0  0.28661821842E+02 -0.41499795190E+02  0.15208482669E+02  0.13572958979E+03  0.12508992992E+03 0.  0.
          5    1    3    3  502    0 -0.23967470991E+02  0.33852759242E+02 -0.35160782148E+01  0.41836397790E+02  0.41800000000E+01 0. -1.
         -5    1    3    3    0  502  0.52629292834E+02 -0.75352554433E+02  0.18724560883E+02  0.93893192000E+02  0.41800000000E+01 0. -1.
        -11    1    1    2    0    0 -0.44833402089E+02  0.58996214373E+02 -0.83158641418E+01  0.74563669771E+02  0.00000000000E+00 0.  1.
         11    1    1    2    0    0  0.16171580247E+02 -0.17496419183E+02  0.19609286866E+02  0.30857232917E+02  0.00000000000E+00 0. -1.
</event>
<event>
 7    1  0.2794945E-009  0.1208375E+03  0.7561462E-02  0.1241722E+00
          2   -1    0    0  501    0  0.00000000000E+00  0.00000000000E+00  0.17827697798E+03  0.17827697798E+03  0.00000000000E+00 0.  1.
         -2   -1    0    0    0  501 -0.00000000000E+00 -0.00000000000E+00 -0.93485748506E+02  0.93485748506E+02  0.00000000000E+00 0. -1.
         25    2    1    2    0    0  0.51064458651E+02 -0.59346250144E+02  0.75090309249E+02  0.16557730747E+03  0.12509090240E+03 0.  0.
          5    1    3    3  502    0 -0.53976510135E+01  0.33018708857E+02  0.38619425992E+02  0.51266970214E+02  0.41800000000E+01 0. -1.
         -5    1    3    3    0  502  0.56462109665E+02 -0.92364959001E+02  0.36470883257E+02  0.11431033726E+03  0.41800000000E+01 0. -1.
        -11    1    1    2    0    0 -0.57821583882E+02  0.22313690176E+02  0.23224149351E+02  0.66186081959E+02  0.00000000000E+00 0.  1.
         11    1    1    2    0    0  0.67571252313E+01  0.37032559968E+02 -0.13523229122E+02  0.39999337058E+02  0.00000000000E+00 0. -1.
</event>
<event>
 7    1  0.2794945E-009  0.1436363E+03  0.7561462E-02  0.1208518E+00
          1   -1    0    0  501    0  0.00000000000E+00  0.00000000000E+00  0.22677532777E+02  0.22677532777E+02  0.00000000000E+00 0. -1.
         -1   -1    0    0    0  501 -0.00000000000E+00 -0.00000000000E+00 -0.10601188187E+04  0.10601188187E+04  0.00000000000E+00 0.  1.
         25    2    1    2    0    0 -0.10691281930E+03 -0.13152023566E+02 -0.47306193820E+03  0.50103722404E+03  0.12508947138E+03 0.  0.
          5    1    3    3  502    0  0.17749485618E+02 -0.19019155960E+02 -0.26596147406E+02  0.37437948528E+02  0.41800000000E+01 0.  1.
         -5    1    3    3    0  502 -0.12466230492E+03  0.58671323938E+01 -0.44646579079E+03  0.46359927551E+03  0.41800000000E+01 0.  1.
        -11    1    1    2    0    0  0.32744426217E+02  0.44737042471E+02 -0.30979221684E+03  0.31471386692E+03  0.00000000000E+00 0.  1.
         11    1    1    2    0    0  0.74168393080E+02 -0.31585018905E+02 -0.25458713089E+03  0.26704526052E+03  0.00000000000E+00 0. -1.
</event>
<event>
 7    1  0.2794945E-009  0.9186243E+02  0.7561462E-02  0.1298403E+00
          2   -1    0    0  501    0  0.00000000000E+00  0.00000000000E+00  0.55982403817E+03  0.55982403817E+03  0.00000000000E+00 0. -1.
         -2   -1    0    0    0  501 -0.00000000000E+00 -0.00000000000E+00 -0.24468948665E+02  0.24468948665E+02  0.00000000000E+00 0.  1.
         25    2    1    2    0    0  0.15714114039E+02 -0.48090533775E+02  0.32947001236E+03  0.35602913757E+03  0.12508646984E+03 0.  0.
          5    1    3    3  502    0  0.59978067077E+02 -0.51530514270E+02  0.13498028449E+03  0.15649253027E+03  0.41800000000E+01 0.  1.
         -5    1    3    3    0  502 -0.44263953038E+02  0.34399804946E+01  0.19448972787E+03  0.19953660730E+03  0.41800000000E+01 0.  1.
        -11    1    1    2    0    0 -0.10076197500E+02 -0.13669489609E+01 -0.51775551942E+01  0.11410757350E+02  0.00000000000E+00 0.  1.
         11    1    1    2    0    0 -0.56379165392E+01  0.49457482736E+02  0.21106263233E+03  0.21685309191E+03  0.00000000000E+00 0. -1.
</event>
<event>
 7    1  0.2794945E-009  0.1353265E+03  0.7561462E-02  0.1219760E+00
          2   -1    0    0  501    0  0.00000000000E+00  0.00000000000E+00  0.21330617528E+03  0.21330617528E+03  0.00000000000E+00 0.  1.
         -2   -1    0    0    0  501 -0.00000000000E+00 -0.00000000000E+00 -0.12740151216E+03  0.12740151216E+03  0.00000000000E+00 0. -1.
         25    2    1    2    0    0 -0.72191823533E+02 -0.44617700975E+02 -0.45032616383E+02  0.15772707160E+03  0.12508994345E+03 0.  0.
          5    1    3    3  502    0 -0.38853295608E+02 -0.87099789321E+02 -0.17824495890E+02  0.97114040865E+02  0.41800000000E+01 0. -1.
         -5    1    3    3    0  502 -0.33338527925E+02  0.42482088346E+02 -0.27208120493E+02  0.60613030738E+02  0.41800000000E+01 0. -1.
        -11    1    1    2    0    0  0.52597072169E+02 -0.17860346547E+02  0.31313532059E+02  0.63765047397E+02  0.00000000000E+00 0. -1.
         11    1    1    2    0    0  0.19594751365E+02  0.62478047522E+02  0.99623747446E+02  0.11921556844E+03  0.00000000000E+00 0.  1.
</event>
<event>
 7    1  0.2794945E-009  0.9154036E+02  0.7561462E-02  0.1299164E+00
          1   -1    0    0  501    0  0.00000000000E+00  0.00000000000E+00  0.67622757317E+02  0.67622757317E+02  0.00000000000E+00 0. -1.
         -1   -1    0    0    0  501 -0.00000000000E+00 -0.00000000000E+00 -0.22340272284E+03  0.22340272284E+03  0.00000000000E+00 0.  1.
         25    2    1    2    0    0  0.53610646162E+02  0.10930477466E+02 -0.10543801556E+03  0.17251671252E+03  0.12510501290E+03 0.  0.
          5    1    3    3  502    0  0.22663310491E+02 -0.36107419459E+02  0.10021472392E+02  0.43991745717E+02  0.41800000000E+01 0. -1.
         -5    1    3    3    0  502  0.30947335671E+02  0.47037896925E+02 -0.11545948796E+03  0.12852496680E+03  0.41800000000E+01 0. -1.
        -11    1    1    2    0    0 -0.67844847726E+02 -0.40241535090E+01 -0.23811183112E+01  0.68005785775E+02  0.00000000000E+00 0. -1.
         11    1    1    2    0    0  0.14234201564E+02 -0.69063239572E+01 -0.47960831645E+02  0.50502981861E+02  0.00000000000E+00 0.  1.
</event>
<event>
 7    1  0.2794945E-009  0.1243834E+03  0.7561462E-02  0.1236036E+00
         -2   -1    0    0    0  501 -0.00000000000E+00  0.00000000000E+00  0.43051298492E+02  0.43051298492E+02  0.00000000000E+00 0.  1.
          2   -1    0    0  501    0  0.00000000000E+00 -0.00000000000E+00 -0.52834623237E+03  0.52834623237E+03  0.00000000000E+00 0. -1.
         25    2    1    2    0    0  0.96710688695E+02  0.42286941979E+02 -0.32042451245E+03  0.35980739213E+03  0.12509335906E+03 0.  0.
          5    1    3    3  502    0 -0.91749055589E+01  0.32715925635E+02 -0.18212719448E+03  0.18531675059E+03  0.41800000000E+01 0.  1.
         -5    1    3    3    0  502  0.10588559425E+03  0.95710163436E+01 -0.13829731798E+03  0.17449064154E+03  0.41800000000E+01 0.  1.
        -11    1    1    2    0    0 -0.34024750432E+02 -0.27445338983E+02 -0.13244126009E+03  0.13946905624E+03  0.00000000000E+00 0. -1.
         11    1    1    2    0    0 -0.62685938262E+02 -0.14841602995E+02 -0.32429161335E+02  0.72121082495E+02  0.00000000000E+00 0.  1.
</event>
<event>
 7    1  0.2794945E-009  0.1090892E+03  0.7561462E-02  0.1262266E+00
         -2   -1    0    0    0  501 -0.00000000000E+00  0.00000000000E+00  0.33995123519E+02  0.33995123519E+02  0.00000000000E+00 0.  1.
          2   -1    0    0  501    0  0.00000000000E+00 -0.00000000000E+00 -0.41847460048E+03  0.41847460048E+03  0.00000000000E+00 0. -1.
         25    2    1    2    0    0  0.35090001499E+02 -0.29824064799E+02 -0.18653587376E+03  0.22926725126E+03  0.12508819791E+03 0.  0.
          5    1    3    3  502    0  0.82706801323E+01  0.40580915830E+02 -0.19474810761E+02  0.45956017382E+02  0.41800000000E+01 0. -1.
         -5    1    3    3    0  502  0.26819321367E+02 -0.70404980629E+02 -0.16706106300E+03  0.18331123388E+03  0.41800000000E+01 0. -1.
        -11    1    1    2    0    0 -0.62944320911E+02  0.36075765341E+02 -0.12037383661E+03  0.14054646534E+03  0.00000000000E+00 0.  1.
         11    1    1    2    0    0  0.27854319412E+02 -0.62517005419E+01 -0.77569766589E+02  0.82656007393E+02  0.00000000000E+00 0. -1.
</event>
<event>
 7    1  0.2794945E-009  0.1708514E+03  0.7561462E-02  0.1176963E+00
          2   -1    0    0  501    0  0.00000000000E+00  0.00000000000E+00  0.15643116196E+04  0.15643116196E+04  0.00000000000E+00 0.  1.
         -2   -1    0    0    0  501 -0.00000000000E+00 -0.00000000000E+00 -0.25536491536E+02  0.25536491536E+02  0.00000000000E+00 0. -1.
         25    2    1    2    0    0  0.44187182608E+02  0.14361454511E+03  0.11011430044E+04  0.11183659425E+04  0.12509524627E+03 0.  0.
          5    1    3    3  502    0  0.62316005297E+02  0.61701430838E+02  0.82688375546E+03  0.83153145973E+03  0.41800000000E+01 0. -1.
         -5    1    3    3    0  502 -0.18128822689E+02  0.81913114268E+02  0.27425924890E+03  0.28683448277E+03  0.41800000000E+01 0. -1.
        -11    1    1    2    0    0 -0.95713523897E+01 -0.13350467237E+03  0.38564285998E+03  0.40821014659E+03  0.00000000000E+00 0.  1.
         11    1    1    2    0    0 -0.34615830218E+02 -0.10109872736E+02  0.51989263690E+02  0.63272021996E+02  0.00000000000E+00 0. -1.
</event>
<event>
 7    1  0.2794945E-009  0.1079542E+03  0.7561462E-02  0.1264406E+00
          1   -1    0    0  501    0  0.00000000000E+00  0.00000000000E+00  0.38015077104E+02  0.38015077104E+02  0.00000000000E+00 0. -1.
         -1   -1    0    0    0  501 -0.00000000000E+00 -0.00000000000E+00 -0.33886782880E+03  0.33886782880E+03  0.00000000000E+00 0.  1.
         25    2    1    2    0    0  0.24663786895E+02 -0.26891161720E+02 -0.17899731992E+03  0.22140137768E+03  0.12508833894E+03 0.  0.
          5    1    3    3  502    0  0.52159571566E+02  0.32403489412E+02 -0.62255725359E+02  0.87543445054E+02  0.41800000000E+01 0.  1.
         -5    1    3    3    0  502 -0.27495784671E+02 -0.59294651132E+02 -0.11674159456E+03  0.13385793263E+03  0.41800000000E+01 0.  1.
        -11    1    1    2    0    0 -0.53942584117E+02  0.93799011572E+01 -0.43188237122E+02  0.69735276243E+02  0.00000000000E+00 0. -1.
         11    1    1    2    0    0  0.29278797223E+02  0.17511260563E+02 -0.78667194657E+02  0.85746251980E+02  0.00000000000E+00 0.  1.
</event>
<event>
 7    1  0.2794945E-009  0.1645423E+03  0.7561462E-02  0.1183662E+00
          1   -1    0    0  501    0  0.00000000000E+00  0.00000000000E+00  0.18653559450E+03  0.18653559450E+03  0.00000000000E+00 0. -1.
         -1   -1    0    0    0  501 -0.00000000000E+00 -0.00000000000E+00 -0.16811390702E+03  0.16811390702E+03  0.00000000000E+00 0.  1.
         25    2    1    2    0    0 -0.13468239058E+03  0.17168313904E+02 -0.21075505465E+02  0.18581238007E+03  0.12509183156E+03 0.  0.
          5    1    3    3  502    0 -0.23110822535E+02 -0.45146429611E+02  0.14825384743E+02  0.53005421021E+02  0.41800000000E+01 0. -1.
         -5    1    3    3    0  502 -0.11157156804E+03  0.62314743515E+02 -0.35900890208E+02  0.13280695905E+03  0.41800000000E+01 0. -1.
        -11    1    1    2    0    0  0.13668860254E+03 -0.37242179631E+01  0.10899166531E+02  0.13717301373E+03  0.00000000000E+00 0.  1.
         11    1    1    2    0    0 -0.20062119641E+01 -0.13444095941E+02  0.28598026424E+02  0.31664107716E+02  0.00000000000E+00 0. -1.
</event>
<event>
 7    1  0.2794945E-009  0.1590937E+03  0.7561462E-02  0.1189724E+00
         -2   -1    0    0    0  501 -0.00000000000E+00  0.00000000000E+00  0.37389952082E+02  0.37389952082E+02  0.00000000000E+00 0.  1.
          2   -1    0    0  501    0  0.00000000000E+00 -0.00000000000E+00 -0.75675270669E+03  0.75675270669E+03  0.00000000000E+00 0. -1.
         25    2    1    2    0    0 -0.61599638562E+02  0.99313349247E+02 -0.50396887567E+03  0.53225029547E+03  0.12509233617E+03 0.  0.
          5    1    3    3  502    0 -0.54560923324E+01 -0.29399456302E+02 -0.74417321490E+02  0.80308823376E+02  0.41800000000E+01 0. -1.
         -5    1    3    3    0  502 -0.56143546229E+02  0.12871280555E+03 -0.42955155418E+03  0.45194147209E+03  0.41800000000E+01 0. -1.
        -11    1    1    2    0    0  0.49926978252E+02 -0.24953251874E+01 -0.56312522818E+02  0.75299601801E+02  0.00000000000E+00 0.  1.
         11    1    1    2    0    0  0.11672660309E+02 -0.96818024059E+02 -0.15908135612E+03  0.18659276150E+03  0.00000000000E+00 0. -1.
</event>
<event>
 7    1  0.3750964E-009  0.1523440E+03  0.7561462E-02  0.1197622E+00
         -2   -1    0    0    0  501 -0.00000000000E+00  0.00000000000E+00  0.21149352626E+02  0.21149352626E+02  0.00000000000E+00 0.  1.
          2   -1    0    0  501    0  0.00000000000E+00 -0.00000000000E+00 -0.13573156261E+04  0.13573156261E+04  0.00000000000E+00 0. -1.
         25    2    1    2    0    0  0.93386853147E+02 -0.89908150727E+02 -0.72676694423E+03  0.74876050054E+03  0.12509003171E+03 0.  0.
          5    1    3    3  502    0  0.75693062000E+02 -0.24712808060E+02 -0.59797042063E+03  0.60326300969E+03  0.41800000000E+01 0. -1.
         -5    1    3    3    0  502  0.17693791147E+02 -0.65195342667E+02 -0.12879652360E+03  0.14549749085E+03  0.41800000000E+01 0. -1.
        -11    1    1    2    0    0 -0.98215410183E+02  0.38271696109E+02 -0.36811218404E+03  0.38290673741E+03  0.00000000000E+00 0. -1.
         11    1    1    2    0    0  0.48285570361E+01  0.51636454617E+02 -0.24128714520E+03  0.24679774076E+03  0.00000000000E+00 0.  1.
</event>
<event>
 7    1  0.2794945E-009  0.1539777E+03  0.7561462E-02  0.1195669E+00
         -1   -1    0    0    0  501 -0.00000000000E+00  0.00000000000E+00  0.69193952715E+02  0.69193952715E+02  0.00000000000E+00 0.  1.
          1   -1    0    0  501    0  0.00000000000E+00 -0.00000000000E+00 -0.46617494369E+03  0.46617494369E+03  0.00000000000E+00 0. -1.
         25    2    1    2    0    0  0.13878542263E+03  0.25075977246E+02 -0.17352675914E+03  0.25622229321E+03  0.12509248270E+03 0.  0.
          5    1    3    3  502    0  0.76716841451E+02 -0.52570578558E+01 -0.87564355467E+01  0.77506502843E+02  0.41800000000E+01 0. -1.
         -5    1    3    3    0  502  0.62068581182E+02  0.30333035102E+02 -0.16477032360E+03  0.17871579037E+03  0.41800000000E+01 0. -1.
        -11    1    1    2    0    0 -0.44889994509E+02  0.28940736377E+02 -0.11001361629E+03  0.12229339147E+03  0.00000000000E+00 0. -1.
         11    1    1    2    0    0 -0.93895428123E+02 -0.54016713624E+02 -0.11344061555E+03  0.15685321173E+03  0.00000000000E+00 0.  1.
</event>
<event>
 7    1  0.2794945E-009  0.1149597E+03  0.7561462E-02  0.1251651E+00
         -1   -1    0    0    0  501 -0.00000000000E+00  0.00000000000E+00  0.31822690507E+02  0.31822690507E+02  0.00000000000E+00 0.  1.
          1   -1    0    0  501    0  0.00000000000E+00 -0.00000000000E+00 -0.52005953263E+03  0.52005953263E+03  0.00000000000E+00 0. -1.
         25    2    1    2    0    0 -0.63691631622E+02 -0.25492150107E+02 -0.28979413576E+03  0.32300884443E+03  0.12509036253E+03 0.  0.
          5    1    3    3  502    0  0.28873985782E+02 -0.77427107140E+01 -0.15840853273E+03  0.16125877423E+03  0.41800000000E+01 0. -1.
         -5    1    3    3    0  502 -0.92565617404E+02 -0.17749439393E+02 -0.13138560304E+03  0.16175007020E+03  0.41800000000E+01 0. -1.
        -11    1    1    2    0    0 -0.35787154473E+01  0.36973958551E+02 -0.11626122118E+03  0.12205143328E+03  0.00000000000E+00 0.  1.
         11    1    1    2    0    0  0.67270347070E+02 -0.11481808444E+02 -0.82181485181E+02  0.10682194543E+03  0.00000000000E+00 0. -1.
</event>
<event>
 7    1  0.2794945E-009  0.1053945E+03  0.7561462E-02  0.1269344E+00
          2   -1    0    0  501    0  0.00000000000E+00  0.00000000000E+00  0.38565905326E+02  0.38565905326E+02  0.00000000000E+00 0.  1.
         -2   -1    0    0    0  501 -0.00000000000E+00 -0.00000000000E+00 -0.31006201183E+03  0.31006201183E+03  0.00000000000E+00 0. -1.
         25    2    1    2    0    0 -0.14593399508E+02 -0.44179553409E+01 -0.15670825266E+03  0.20109414184E+03  0.12509553065E+03 0.  0.
          5    1    3    3  502    0  0.51032461079E+02  0.95521260628E+01 -0.10157503322E+03  0.11415128107E+03  0.41800000000E+01 0.  1.
         -5    1    3    3    0  502 -0.65625860586E+02 -0.13970081404E+02 -0.55133219444E+02  0.86942860767E+02  0.41800000000E+01 0.  1.
        -11    1    1    2    0    0  0.27192818920E+02 -0.38281367469E+02 -0.47025448923E+02  0.66455288296E+02  0.00000000000E+00 0.  1.
         11    1    1    2    0    0 -0.12599419412E+02  0.42699322809E+02 -0.67762404917E+02  0.81078487023E+02  0.00000000000E+00 0. -1.
</event>
<event>
 7    1  0.2921142E-009  0.1157712E+03  0.7561462E-02  0.1250241E+00
         -2   -1    0    0    0  501 -0.00000000000E+00  0.00000000000E+00  0.76820272393E+02  0.76820272393E+02  0.00000000000E+00 0.  1.
          2   -1    0    0  501    0  0.00000000000E+00 -0.00000000000E+00 -0.24350584995E+03  0.24350584995E+03  0.00000000000E+00 0. -1.
         25    2    1    2    0    0 -0.36623833262E+01  0.58393508694E+02 -0.22271727668E+02  0.13988180422E+03  0.12509066467E+03 0.  0.
          5    1    3    3  502    0 -0.60579199348E+02  0.11237797792E+02 -0.22855299606E+02  0.65848041831E+02  0.41800000000E+01 0.  1.
         -5    1    3    3    0  502  0.56916816022E+02  0.47155710902E+02  0.58357193805E+00  0.74033762385E+02  0.41800000000E+01 0.  1.
        -11    1    1    2    0    0  0.39009451321E+02 -0.40147028266E+02 -0.40258126246E+02  0.68950981863E+02  0.00000000000E+00 0.  1.
         11    1    1    2    0    0 -0.35347067995E+02 -0.18246480428E+02 -0.10415572364E+03  0.11149333626E+03  0.00000000000E+00 0. -1.
</event>
<event>
 7    1  0.2794945E-009  0.1423857E+03  0.7561462E-02  0.1210154E+00
          2   -1    0    0  501    0  0.00000000000E+00  0.00000000000E+00  0.58515612106E+03  0.58515612106E+03  0.00000000000E+00 0. -1.
         -2   -1    0    0    0  501 -0.00000000000E+00 -0.00000000000E+00 -0.43104970414E+02  0.43104970414E+02  0.00000000000E+00 0.  1.
         25    2    1    2    0    0 -0.92423278099E+02 -0.69932034246E+02  0.28354695520E+03  0.33087674710E+03  0.12509194307E+03 0.  0.
          5    1    3    3  502    0  0.10351753295E+02 -0.21154519725E+02  0.16423754237E+03  0.16597022391E+03  0.41800000000E+01 0. -1.
         -5    1    3    3    0  502 -0.10277503139E+03 -0.48777514522E+02  0.11930941282E+03  0.16490652319E+03  0.41800000000E+01 0. -1.
        -11    1    1    2    0    0  0.66284760970E+02 -0.61462172954E+01  0.11768004213E+03  0.13520369018E+03  0.00000000000E+00 0. -1.
         11    1    1    2    0    0  0.26138517130E+02  0.76078251542E+02  0.14082415332E+03  0.16218065419E+03  0.00000000000E+00 0.  1.
</event>
<event>
 7    1  0.2794945E-009  0.1187735E+03  0.7561462E-02  0.1245134E+00
         -1   -1    0    0    0  501 -0.00000000000E+00  0.00000000000E+00  0.23774350586E+03  0.23774350586E+03  0.00000000000E+00 0.  1.
          1   -1    0    0  501    0  0.00000000000E+00 -0.00000000000E+00 -0.68675706800E+02  0.68675706800E+02  0.00000000000E+00 0. -1.
         25    2    1    2    0    0 -0.61067050933E+02  0.24583191084E+02  0.11235848768E+03  0.18057773260E+03  0.12510143790E+03 0.  0.
          5    1    3    3  502    0  0.14798504130E+02  0.47474263438E+02  0.97197101688E+01  0.50840403020E+02  0.41800000000E+01 0.  1.
         -5    1    3    3    0  502 -0.75865555063E+02 -0.22891072353E+02  0.10263877751E+03  0.12973732958E+03  0.41800000000E+01 0.  1.
        -11    1    1    2    0    0  0.30448041163E+02  0.31864530740E+02  0.39922538093E+02  0.59466297831E+02  0.00000000000E+00 0.  1.
         11    1    1    2    0    0  0.30619009770E+02 -0.56447721825E+02  0.16786773292E+02  0.66375182230E+02  0.00000000000E+00 0. -1.
</event>
<event>
 7    1  0.2794945E-009  0.9313119E+02  0.7561462E-02  0.1295441E+00
         -3   -1    0    0    0  501 -0.00000000000E+00  0.00000000000E+00  0.10154198800E+03  0.10154198800E+03  0.00000000000E+00 0.  1.
          3   -1    0    0  501    0  0.00000000000E+00 -0.00000000000E+00 -0.12934862625E+03  0.12934862625E+03  0.00000000000E+00 0. -1.
         25    2    1    2    0    0  0.36150085506E+02 -0.42752778683E+01 -0.11369342309E+02  0.13077034699E+03  0.12508603049E+03 0.  0.
          5    1    3    3  502    0  0.26384140563E+02 -0.52888215997E+02 -0.41737002875E+02  0.72475761973E+02  0.41800000000E+01 0.  1.
         -5    1    3    3    0  502  0.97659449432E+01  0.48612938129E+02  0.30367660567E+02  0.58294585018E+02  0.41800000000E+01 0.  1.
        -11    1    1    2    0    0 -0.52090581576E+02 -0.13057605709E+02 -0.39881459081E+02  0.66891408523E+02  0.00000000000E+00 0. -1.
         11    1    1    2    0    0  0.15940496070E+02  0.17332883578E+02  0.23444163135E+02  0.33228858740E+02  0.00000000000E+00 0.  1.
</event>
<event>
 6    1  0.2794945E-009  0.2972706E+03  0.7561462E-02  0.1086613E+00
          1   -1    0    0  501    0  0.00000000000E+00  0.00000000000E+00  0.12341999230E+04  0.12341999230E+04  0.00000000000E+00 0. -1.
         -1   -1    0    0    0  501 -0.00000000000E+00 -0.00000000000E+00 -0.10290145677E+03  0.10290145677E+03  0.00000000000E+00 0.  1.
          5    1    1    2  502    0 -0.22504425006E+03 -0.15930603994E+03  0.87449027345E+03  0.91693731498E+03  0.41800000000E+01 0.  1.
         -5    1    1    2    0  502 -0.23957489222E+02  0.73129363478E+01  0.20421463934E+02  0.32587557703E+02  0.41800000000E+01 0.  1.
        -11    1    1    2    0    0  0.12335245805E+03  0.93554593141E+02  0.18142108328E+03  0.23849926680E+03  0.00000000000E+00 0. -1.
         11    1    1    2    0    0  0.12564928123E+03  0.58438510456E+02  0.54965645553E+02  0.14907724028E+03  0.00000000000E+00 0.  1.
</event>
<event>
 7    1  0.2794945E-009  0.8876090E+02  0.7561462E-02  0.1305880E+00
         -2   -1    0    0    0  501 -0.00000000000E+00  0.00000000000E+00  0.66334966625E+02  0.66334966625E+02  0.00000000000E+00 0.  1.
          2   -1    0    0  501    0  0.00000000000E+00 -0.00000000000E+00 -0.21544424699E+03  0.21544424699E+03  0.00000000000E+00 0. -1.
         25    2    1    2    0    0  0.44621807500E+02  0.52197775112E+01 -0.54488416561E+02  0.14365135568E+03  0.12509345574E+03 0.  0.
          5    1    3    3  502    0  0.73448740771E+02 -0.41297953474E+01 -0.76307187311E+02  0.10607559552E+03  0.41800000000E+01 0.  1.
         -5    1    3    3    0  502 -0.28826933270E+02  0.93495728586E+01  0.21818770749E+02  0.37575760158E+02  0.41800000000E+01 0.  1.
        -11    1    1    2    0    0 -0.28417561416E+02 -0.31467189501E+02 -0.42201265415E+01  0.42609286311E+02  0.00000000000E+00 0.  1.
         11    1    1    2    0    0 -0.16204246084E+02  0.26247411989E+02 -0.90400737263E+02  0.95518571624E+02  0.00000000000E+00 0. -1.
</event>
<event>
 7    1  0.2794945E-009  0.9985156E+02  0.7561462E-02  0.1280608E+00
         -2   -1    0    0    0  501 -0.00000000000E+00  0.00000000000E+00  0.22879137263E+02  0.22879137263E+02  0.00000000000E+00 0.  1.
          2   -1    0    0  501    0  0.00000000000E+00 -0.00000000000E+00 -0.61163765224E+03  0.61163765224E+03  0.00000000000E+00 0. -1.
         25    2    1    2    0    0  0.38503431279E+02  0.18828919620E+02 -0.40437014997E+03  0.42544045118E+03  0.12508923569E+03 0.  0.
          5    1    3    3  502    0  0.67620184522E+02 -0.15008939441E+02 -0.33990867801E+03  0.34691949989E+03  0.41800000000E+01 0.  1.
         -5    1    3    3    0  502 -0.29116753243E+02  0.33837859061E+02 -0.64461471956E+02  0.78520951293E+02  0.41800000000E+01 0.  1.
        -11    1    1    2    0    0 -0.75279888923E+00  0.26485664766E+02 -0.16704257175E+02  0.31322345890E+02  0.00000000000E+00 0.  1.
         11    1    1    2    0    0 -0.37750632390E+02 -0.45314584387E+02 -0.16768410784E+03  0.17775399243E+03  0.00000000000E+00 0. -1.
</event>
<event>
 7    1  0.2794945E-009  0.1147862E+03  0.7561462E-02  0.1251955E+00
         -3   -1    0    0    0  501 -0.00000000000E+00  0.00000000000E+00  0.29694179052E+03  0.29694179052E+03  0.00000000000E+00 0. -1.
          3   -1    0    0  501    0  0.00000000000E+00 -0.00000000000E+00 -0.55677214793E+02  0.55677214793E+02  0.00000000000E+00 0.  1.
         25    2    1    2    0    0 -0.99573329911E+01  0.66631758227E+02  0.17093994575E+03  0.22227482435E+03  0.12508674112E+03 0.  0.
          5    1    3    3  502    0 -0.32844823919E+02 -0.18840301083E+02  0.11351360244E+02  0.39750033743E+02  0.41800000000E+01 0. -1.
         -5    1    3    3    0  502  0.22887490928E+02  0.85472059311E+02  0.15958858550E+03  0.18252479061E+03  0.41800000000E+01 0. -1.
        -11    1    1    2    0    0 -0.31066996468E+02 -0.93596248702E+01  0.45008184897E+02  0.55484209961E+02  0.00000000000E+00 0. -1.
         11    1    1    2    0    0  0.41024329459E+02 -0.57272133357E+02  0.25316445086E+02  0.74859971003E+02  0.00000000000E+00 0.  1.
</event>
<event>
 7    1  0.2794945E-009  0.1009433E+03  0.7561462E-02  0.1278325E+00
         -2   -1    0    0    0  501 -0.00000000000E+00  0.00000000000E+00  0.22053755213E+02  0.22053755213E+02  0.00000000000E+00 0. -1.
          2   -1    0    0  501    0  0.00000000000E+00 -0.00000000000E+00 -0.68371591595E+03  0.68371591595E+03  0.00000000000E+00 0.  1.
         25    2    1    2    0    0  0.31063206702E+02  0.32190554285E+00 -0.50892971865E+03  0.52499771574E+03  0.12509243211E+03 0.  0.
          5    1    3    3  502    0  0.71430754383E+02  0.21925247016E+02 -0.39702893141E+03  0.40402043748E+03  0.41800000000E+01 0. -1.
         -5    1    3    3    0  502 -0.40367547682E+02 -0.21603341473E+02 -0.11190078724E+03  0.12097727825E+03  0.41800000000E+01 0. -1.
        -11    1    1    2    0    0  0.23246982936E+02 -0.11010683150E+02 -0.10364538373E+03  0.10678961994E+03  0.00000000000E+00 0.  1.
         11    1    1    2    0    0 -0.54310189638E+02  0.10688777607E+02 -0.49087058358E+02  0.73982335482E+02  0.00000000000E+00 0. -1.
</event>
<event>
 7    1  0.2794945E-009  0.1061272E+03  0.7561462E-02  0.1267915E+00
         -3   -1    0    0    0  501 -0.00000000000E+00  0.00000000000E+00  0.38567573984E+03  0.38567573984E+03  0.00000000000E+00 0.  1.
          3   -1    0    0  501    0  0.00000000000E+00 -0.00000000000E+00 -0.50080762289E+02  0.50080762289E+02  0.00000000000E+00 0. -1.
         25    2    1    2    0    0 -0.26527565226E+02  0.81444580817E+02  0.18136454680E+03  0.23638226456E+03  0.12508614912E+03 0.  0.
          5    1    3    3  502    0 -0.44119270620E+01 -0.55804070092E+00  0.14293712639E+03  0.14306736529E+03  0.41800000000E+01 0.  1.
         -5    1    3    3    0  502 -0.22115638164E+02  0.82002621518E+02  0.38427420411E+02  0.93314899275E+02  0.41800000000E+01 0.  1.
        -11    1    1    2    0    0  0.27415956964E+02  0.10359150944E+02  0.65213343982E+02  0.71496342129E+02  0.00000000000E+00 0.  1.
         11    1    1    2    0    0 -0.88839173850E+00 -0.91803731761E+02  0.89017086773E+02  0.12787789544E+03  0.00000000000E+00 0. -1.
</event>
<event>
 7    1  0.2794945E-009  0.1006591E+03  0.7561462E-02  0.1278916E+00
          2   -1    0    0  501    0  0.00000000000E+00  0.00000000000E+00  0.97927201502E+03  0.97927201502E+03  0.00000000000E+00 0. -1.
         -2   -1    0    0    0  501 -0.00000000000E+00 -0.00000000000E+00 -0.12805368208E+02  0.12805368208E+02  0.00000000000E+00 0.  1.
         25    2    1    2    0    0 -0.11637411998E+02  0.34608461789E+01  0.44947057797E+03  0.46671003405E+03  0.12508816335E+03 0.  0.
          5    1    3    3  502    0 -0.48500601382E+02  0.34446349066E+02  0.36103003310E+03  0.36592214541E+03  0.41800000000E+01 0. -1.
         -5    1    3    3    0  502  0.36863189384E+02 -0.30985502887E+02  0.88440544864E+02  0.10078788864E+03  0.41800000000E+01 0. -1.
        -11    1    1    2    0    0 -0.29448835629E+02  0.28737115639E+02  0.21810451583E+03  0.22195187668E+03  0.00000000000E+00 0. -1.
         11    1    1    2    0    0  0.41086247627E+02 -0.32197961817E+02  0.29889155302E+03  0.30341547250E+03  0.00000000000E+00 0.  1.
</event>
<event>
 7    1  0.2794945E-009  0.1100081E+03  0.7561462E-02  0.1260555E+00
         -1   -1    0    0    0  501 -0.00000000000E+00  0.00000000000E+00  0.14093985663E+03  0.14093985663E+03  0.00000000000E+00 0.  1.
          1   -1    0    0  501    0  0.00000000000E+00 -0.00000000000E+00 -0.10464872307E+03  0.10464872307E+03  0.00000000000E+00 0. -1.
         25    2    1    2    0    0 -0.13236240252E+02  0.31921213297E+02  0.63069749404E+02  0.14428986751E+03  0.12509040996E+03 0.  0.
          5    1    3    3  502    0 -0.65082288666E+02  0.40883660735E+02  0.38755925091E+02  0.86178141908E+02  0.41800000000E+01 0.  1.
         -5    1    3    3    0  502  0.51846048414E+02 -0.89624474377E+01  0.24313824313E+02  0.58111725606E+02  0.41800000000E+01 0.  1.
        -11    1    1    2    0    0  0.12822740573E+02 -0.60418074179E+02 -0.35819897458E+02  0.71399099555E+02  0.00000000000E+00 0. -1.
         11    1    1    2    0    0  0.41349967899E+00  0.28496860882E+02  0.90412816184E+01  0.29899612630E+02  0.00000000000E+00 0.  1.
</event>
<event>
 6    1  0.2794945E-009  0.1158737E+03  0.7561462E-02  0.1250064E+00
          3   -1    0    0  501    0  0.00000000000E+00  0.00000000000E+00  0.49769747888E+03  0.49769747888E+03  0.00000000000E+00 0. -1.
         -3   -1    0    0    0  501 -0.00000000000E+00 -0.00000000000E+00 -0.32878822045E+02  0.32878822045E+02  0.00000000000E+00 0.  1.
          5    1    1    2  502    0 -0.40754751276E+02 -0.17148903554E+02  0.20395447254E+03  0.20873412255E+03  0.41800000000E+01 0.  1.
         -5    1    1    2    0  502  0.12570325865E+02  0.75814261316E+02  0.98529237016E+02  0.12502519049E+03  0.41800000000E+01 0.  1.
        -11    1    1    2    0    0 -0.32463266074E+02 -0.15795796828E+02  0.65375529829E+02  0.74681528787E+02  0.00000000000E+00 0. -1.
         11    1    1    2    0    0  0.60647691485E+02 -0.42869560935E+02  0.96959417444E+02  0.12213545909E+03  0.00000000000E+00 0.  1.
</event>
<event>
 7    1  0.2794945E-009  0.1091080E+03  0.7561462E-02  0.1262231E+00
         -4   -1    0    0    0  501 -0.00000000000E+00  0.00000000000E+00  0.15610845131E+03  0.15610845131E+03  0.00000000000E+00 0. -1.
          4   -1    0    0  501    0  0.00000000000E+00 -0.00000000000E+00 -0.16113227199E+03  0.16113227199E+03  0.00000000000E+00 0.  1.
         25    2    1    2    0    0  0.19263142049E+02  0.57648858540E+02  0.97783986617E+02  0.17001534094E+03  0.12509615734E+03 0.  0.
          5    1    3    3  502    0 -0.11574549606E+02 -0.28382076413E+02  0.66473782358E+02  0.73319496732E+02  0.41800000000E+01 0. -1.
         -5    1    3    3    0  502  0.30837691654E+02  0.86030934952E+02  0.31310204258E+02  0.96695844203E+02  0.41800000000E+01 0. -1.
        -11    1    1    2    0    0  0.14858250402E+02 -0.59787434080E+02 -0.93185506376E+02  0.11170874396E+03  0.00000000000E+00 0.  1.
         11    1    1    2    0    0 -0.34121392451E+02  0.21385755405E+01 -0.96223009227E+01  0.35516638399E+02  0.00000000000E+00 0. -1.
</event>
<event>
 7    1  0.2794945E-009  0.8228989E+02  0.7561462E-02  0.1322676E+00
         -1   -1    0    0    0  501 -0.00000000000E+00  0.00000000000E+00  0.25954845073E+03  0.25954845073E+03  0.00000000000E+00 0.  1.
          1   -1    0    0  501    0  0.00000000000E+00 -0.00000000000E+00 -0.13071359913E+03  0.13071359913E+03  0.00000000000E+00 0. -1.
         25    2    1    2    0    0 -0.12659966881E+02  0.10727598360E+02  0.22448426517E+03  0.25752181903E+03  0.12509574670E+03 0.  0.
          5    1    3    3  502    0 -0.55986454323E+02  0.12892810640E+02  0.19870633002E+03  0.20688737425E+03  0.41800000000E+01 0.  1.
         -5    1    3    3    0  502  0.43326487442E+02 -0.21652122793E+01  0.25777935150E+02  0.50634444787E+02  0.41800000000E+01 0.  1.
        -11    1    1    2    0    0  0.64811962712E+01 -0.36408518782E+02 -0.99404807523E+02  0.10606084058E+03  0.00000000000E+00 0. -1.
         11    1    1    2    0    0  0.61787706103E+01  0.25680920422E+02  0.37553939578E+01  0.26679390243E+02  0.00000000000E+00 0.  1.
</event>
<event>
 7    1  0.2794945E-009  0.9722314E+02  0.7561462E-02  0.1286246E+00
          4   -1    0    0  501    0  0.00000000000E+00  0.00000000000E+00  0.17120201754E+03  0.17120201754E+03  0.00000000000E+00 0. -1.
         -4   -1    0    0    0  501 -0.00000000000E+00 -0.00000000000E+00 -0.10365938673E+03  0.10365938673E+03  0.00000000000E+00 0.  1.
         25    2    1    2    0    0 -0.14459163367E+02 -0.85389855118E+01 -0.41219021911E+02  0.13277443302E+03  0.12509220846E+03 0.  0.
          5    1    3    3  502    0  0.19564716661E+02  0.39393930278E+02  0.19380438561E+02  0.48246592414E+02  0.41800000000E+01 0. -1.
         -5    1    3    3    0  502 -0.34023880029E+02 -0.47932915790E+02 -0.60599460472E+02  0.84527840608E+02  0.41800000000E+01 0. -1.
        -11    1    1    2    0    0  0.22809076433E+00 -0.40383295297E+02  0.44855597865E+02  0.60356335411E+02  0.00000000000E+00 0.  1.
         11    1    1    2    0    0  0.14231072603E+02  0.48922280809E+02  0.63906054856E+02  0.81730635837E+02  0.00000000000E+00 0. -1.
</event>
<event>
 7    1  0.2794945E-009  0.1725722E+03  0.7561462E-02  0.1175192E+00
          2   -1    0    0  501    0  0.00000000000E+00  0.00000000000E+00  0.29891732775E+03  0.29891732775E+03  0.00000000000E+00 0.  1.
         -2   -1    0    0    0  501 -0.00000000000E+00 -0.00000000000E+00 -0.12301312790E+03  0.12301312790E+03  0.00000000000E+00 0. -1.
         25    2    1    2    0    0 -0.75094413966E+02  0.13824680871E+03  0.92520552313E+02  0.22126706752E+03  0.12509081277E+03 0.  0.
          5    1    3    3  502    0 -0.31589207962E+02  0.12513519273E+03  0.13256265388E+02  0.12980714731E+03  0.41800000000E+01 0.  1.
         -5    1    3    3    0  502 -0.43505206004E+02  0.13111615982E+02  0.79264286925E+02  0.91459920210E+02  0.41800000000E+01 0.  1.
        -11    1    1    2    0    0  0.58306867442E+02 -0.39984025262E+02 -0.23665127492E-02  0.70699455957E+02  0.00000000000E+00 0.  1.
         11    1    1    2    0    0  0.16787546524E+02 -0.98262783450E+02  0.83386014043E+02  0.12996393218E+03  0.00000000000E+00 0. -1.
</event>
<event>
 7    1  0.2794945E-009  0.1633475E+03  0.7561462E-02  0.1184968E+00
         -1   -1    0    0    0  501 -0.00000000000E+00  0.00000000000E+00  0.13290008688E+03  0.13290008688E+03  0.00000000000E+00 0.  1.
          1   -1    0    0  501    0  0.00000000000E+00 -0.00000000000E+00 -0.35790020034E+03  0.35790020034E+03  0.00000000000E+00 0. -1.
         25    2    1    2    0    0  0.90420560267E+02  0.84871763158E+02  0.43428609409E+02  0.18141868210E+03  0.12509036813E+03 0.  0.
          5    1    3    3  502    0  0.10593636704E+03  0.18285344941E+02  0.24185585381E+02  0.11026913730E+03  0.41800000000E+01 0.  1.
         -5    1    3    3    0  502 -0.15515806775E+02  0.66586418218E+02  0.19243024028E+02  0.71149544796E+02  0.41800000000E+01 0.  1.
        -11    1    1    2    0    0 -0.62147389995E+02 -0.10552582194E+01 -0.80750143180E+02  0.10190190026E+03  0.00000000000E+00 0.  1.
         11    1    1    2    0    0 -0.28273170272E+02 -0.83816504939E+02 -0.18767857969E+03  0.20747970487E+03  0.00000000000E+00 0. -1.
</event>
<event>
 7    1  0.2794945E-009  0.1124951E+03  0.7561462E-02  0.1256018E+00
         -1   -1    0    0    0  501 -0.00000000000E+00  0.00000000000E+00  0.24418969295E+03  0.24418969295E+03  0.00000000000E+00 0.  1.
          1   -1    0    0  501    0  0.00000000000E+00 -0.00000000000E+00 -0.59867407504E+02  0.59867407504E+02  0.00000000000E+00 0. -1.
         25    2    1    2    0    0  0.24664155594E+02 -0.41031414630E+02  0.13804886168E+03  0.19234424104E+03  0.12508765444E+03 0.  0.
          5    1    3    3  502    0  0.50167852504E+02 -0.69966614733E+02  0.59501245419E+02  0.10473782129E+03  0.41800000000E+01 0. -1.
         -5    1    3    3    0  502 -0.25503696911E+02  0.28935200103E+02  0.78547616258E+02  0.87606419748E+02  0.41800000000E+01 0. -1.
        -11    1    1    2    0    0  0.64036977103E+01  0.62120230119E+02  0.38512522311E+02  0.73369916922E+02  0.00000000000E+00 0.  1.
         11    1    1    2    0    0 -0.31067853304E+02 -0.21088815489E+02  0.77609014574E+01  0.38342942494E+02  0.00000000000E+00 0. -1.
</event>
<event>
 7    1  0.2794945E-009  0.9069374E+02  0.7561462E-02  0.1301180E+00
         -1   -1    0    0    0  501 -0.00000000000E+00  0.00000000000E+00  0.19540933384E+03  0.19540933384E+03  0.00000000000E+00 0.  1.
          1   -1    0    0  501    0  0.00000000000E+00 -0.00000000000E+00 -0.82841126390E+02  0.82841126390E+02  0.00000000000E+00 0. -1.
         25    2    1    2    0    0 -0.50043381060E+01  0.35058069782E+02  0.34118772995E+01  0.13005040449E+03  0.12508938862E+03 0.  0.
          5    1    3    3  502    0  0.30627163405E+02 -0.16320489982E+02 -0.40524970198E+02  0.53517540499E+02  0.41800000000E+01 0. -1.
         -5    1    3    3    0  502 -0.35631501511E+02  0.51378559764E+02  0.43936847498E+02  0.76532863996E+02  0.41800000000E+01 0. -1.
        -11    1    1    2    0    0 -0.17068982024E+02  0.18901654455E+02  0.78092822262E+02  0.82140803364E+02  0.00000000000E+00 0.  1.
         11    1    1    2    0    0  0.22073320130E+02 -0.53959724237E+02  0.31063507884E+02  0.66059252367E+02  0.00000000000E+00 0. -1.
</event>
<event>
 7    1  0.2794945E-009  0.9817945E+02  0.7561462E-02  0.1284172E+00
         -2   -1    0    0    0  501 -0.00000000000E+00  0.00000000000E+00  0.17176129717E+03  0.17176129717E+03  0.00000000000E+00 0. -1.
          2   -1    0    0  501    0  0.00000000000E+00 -0.00000000000E+00 -0.95583735981E+02  0.95583735981E+02  0.00000000000E+00 0.  1.
         25    2    1    2    0    0  0.68313246771E+02  0.79527171841E+01  0.58702683957E+02  0.15434142035E+03  0.12508126773E+03 0.  0.
          5    1    3    3  502    0  0.59097251899E+02 -0.16654525645E+02 -0.25064900104E+02  0.66449830878E+02  0.41800000000E+01 0.  1.
         -5    1    3    3    0  502  0.92159948716E+01  0.24607242829E+02  0.83767584061E+02  0.87891589476E+02  0.41800000000E+01 0.  1.
        -11    1    1    2    0    0 -0.65213706791E+02  0.28826825167E+02  0.24574736339E+02  0.75417047601E+02  0.00000000000E+00 0. -1.
         11    1    1    2    0    0 -0.30995399792E+01 -0.36779542351E+02 -0.70998591105E+01  0.37586565193E+02  0.00000000000E+00 0.  1.
</event>
<event>
 7    1  0.2794945E-009  0.1407821E+03  0.7561462E-02  0.1212280E+00
          2   -1    0    0  501    0  0.00000000000E+00  0.00000000000E+00  0.64971243686E+03  0.64971243686E+03  0.00000000000E+00 0. -1.
         -2   -1    0    0    0  501 -0.00000000000E+00 -0.00000000000E+00 -0.32137247958E+02  0.32137247958E+02  0.00000000000E+00 0.  1.
         25    2    1    2    0    0  0.23809049972E+02 -0.92697941435E+02  0.35940591129E+03  0.39240230828E+03  0.12508870160E+03 0.  0.
          5    1    3    3  502    0  0.24103482301E+02  0.26336280720E+02  0.57023536276E+02  0.67407222392E+02  0.41800000000E+01 0.  1.
         -5    1    3    3    0  502 -0.29443232844E+00 -0.11903422216E+03  0.30238237501E+03  0.32499508589E+03  0.41800000000E+01 0.  1.
        -11    1    1    2    0    0  0.28622156755E+02  0.13787015139E+02  0.36555493414E+02  0.48431536652E+02  0.00000000000E+00 0.  1.
         11    1    1    2    0    0 -0.52431206727E+02  0.78910926296E+02  0.22161378420E+03  0.24101583989E+03  0.00000000000E+00 0. -1.
</event>
<event>
 7    1  0.2794945E-009  0.9381159E+02  0.7561462E-02  0.1293875E+00
         -2   -1    0    0    0  501 -0.00000000000E+00  0.00000000000E+00  0.14926118251E+03  0.14926118251E+03  0.00000000000E+00 0.  1.
          2   -1    0    0  501    0  0.00000000000E+00 -0.00000000000E+00 -0.11939053292E+03  0.11939053292E+03  0.00000000000E+00 0. -1.
         25    2    1    2    0    0 -0.17818065345E+02 -0.36607774441E+01 -0.59542197562E+02  0.13971471238E+03  0.12507614809E+03 0.  0.
          5    1    3    3  502    0  0.33082390262E+02  0.20845379242E+02 -0.71701474956E+02  0.81777431434E+02  0.41800000000E+01 0. -1.
         -5    1    3    3    0  502 -0.50900455607E+02 -0.24506156686E+02  0.12159277394E+02  0.57937280945E+02  0.41800000000E+01 0. -1.
        -11    1    1    2    0    0 -0.21154415530E+02  0.35500946272E+02  0.50911648554E+02  0.65573031356E+02  0.00000000000E+00 0.  1.
         11    1    1    2    0    0  0.38972480875E+02 -0.31840168828E+02  0.38501198596E+02  0.63363971703E+02  0.00000000000E+00 0. -1.
</event>
<event>
 7    1  0.2794945E-009  0.1286664E+03  0.7561462E-02  0.1229448E+00
          2   -1    0    0  501    0  0.00000000000E+00  0.00000000000E+00  0.92515715495E+03  0.92515715495E+03  0.00000000000E+00 0. -1.
         -2   -1    0    0    0  501 -0.00000000000E+00 -0.00000000000E+00 -0.29498273760E+02  0.29498273760E+02  0.00000000000E+00 0.  1.
         25    2    1    2    0    0 -0.39875241781E+02 -0.93812853276E+02  0.68188485955E+03  0.70071828468E+03  0.12509303120E+03 0.  0.
          5    1    3    3  502    0 -0.59061258697E+02 -0.50314602998E+02  0.17356902283E+03  0.19016695202E+03  0.41800000000E+01 0. -1.
         -5    1    3    3    0  502  0.19186016916E+02 -0.43498250278E+02  0.50831583671E+03  0.51055133266E+03  0.41800000000E+01 0. -1.
        -11    1    1    2    0    0  0.45704309984E+02  0.86126761198E+01  0.11075594819E+03  0.12012469438E+03  0.00000000000E+00 0.  1.
         11    1    1    2    0    0 -0.58290682022E+01  0.85200177157E+02  0.10301807345E+03  0.13381244965E+03  0.00000000000E+00 0. -1.
</event>
<event>
 7    1  0.2794945E-009  0.1800636E+03  0.7561462E-02  0.1167741E+00
          2   -1    0    0  501    0  0.00000000000E+00  0.00000000000E+00  0.50172054134E+03  0.50172054134E+03  0.00000000000E+00 0. -1.
         -2   -1    0    0    0  501 -0.00000000000E+00 -0.00000000000E+00 -0.84546778127E+02  0.84546778127E+02  0.00000000000E+00 0.  1.
         25    2    1    2    0    0 -0.43819731581E+02  0.15893732484E+03  0.30033759968E+03  0.36474057695E+03  0.12510704452E+03 0.  0.
          5    1    3    3  502    0  0.14578915530E+02 -0.87080912235E+01  0.79314707622E+02  0.81219892120E+02  0.41800000000E+01 0.  1.
         -5    1    3    3    0  502 -0.58398647111E+02  0.16764541607E+03  0.22102289205E+03  0.28352068483E+03  0.41800000000E+01 0.  1.
        -11    1    1    2    0    0  0.30122549796E+02 -0.94421234692E+02  0.11982907376E+03  0.15550480534E+03  0.00000000000E+00 0. -1.
         11    1    1    2    0    0  0.13697181786E+02 -0.64516090152E+02 -0.29929102190E+01  0.66021937179E+02  0.00000000000E+00 0.  1.
</event>
<event>
 7    1  0.2794945E-009  0.1089548E+03  0.7561462E-02  0.1262518E+00
          1   -1    0    0  501    0  0.00000000000E+00  0.00000000000E+00  0.45484554554E+03  0.45484554554E+03  0.00000000000E+00 0. -1.
         -1   -1    0    0    0  501 -0.00000000000E+00 -0.00000000000E+00 -0.38058763730E+02  0.38058763730E+02  0.00000000000E+00 0.  1.
         25    2    1    2    0    0  0.62678998738E+02  0.29592906376E+02  0.27973455642E+03  0.31416932650E+03  0.12508615697E+03 0.  0.
          5    1    3    3  502    0  0.68256916529E+02 -0.28989995856E+02  0.21043411174E+03  0.22315782374E+03  0.41800000000E+01 0. -1.
         -5    1    3    3    0  502 -0.55779177916E+01  0.58582902231E+02  0.69300444678E+02  0.91011502753E+02  0.41800000000E+01 0. -1.
        -11    1    1    2    0    0 -0.44597153327E+02  0.57220936830E+01  0.10587028892E+02  0.46192354581E+02  0.00000000000E+00 0.  1.
         11    1    1    2    0    0 -0.18081845411E+02 -0.35315000059E+02  0.12646519650E+03  0.13254262819E+03  0.00000000000E+00 0. -1.
</event>
<event>
 7    1  0.2794945E-009  0.8814274E+02  0.7561462E-02  0.1307413E+00
         -1   -1    0    0    0  501 -0.00000000000E+00  0.00000000000E+00  0.46541851868E+02  0.46541851868E+02  0.00000000000E+00 0.  1.
          1   -1    0    0  501    0  0.00000000000E+00 -0.00000000000E+00 -0.26711555172E+03  0.26711555172E+03  0.00000000000E+00 0. -1.
         25    2    1    2    0    0 -0.80568667760E+01  0.52956383901E+01 -0.16266387817E+03  0.20542488425E+03  0.12508752504E+03 0.  0.
          5    1    3    3  502    0  0.54953740811E+02 -0.16519492970E+02 -0.88982741751E+02  0.10596323894E+03  0.41800000000E+01 0.  1.
         -5    1    3    3    0  502 -0.63010607587E+02  0.21815131360E+02 -0.73681136417E+02  0.99461645313E+02  0.41800000000E+01 0.  1.
        -11    1    1    2    0    0 -0.26020597422E+01 -0.27334656874E+02 -0.74004697877E+02  0.78934463254E+02  0.00000000000E+00 0. -1.
         11    1    1    2    0    0  0.10658926518E+02  0.22039018484E+02  0.16094876194E+02  0.29298056078E+02  0.00000000000E+00 0.  1.
</event>
<event>
 7    1  0.2794945E-009  0.1022700E+03  0.7561462E-02  0.1275594E+00
          3   -1    0    0  501    0  0.00000000000E+00  0.00000000000E+00  0.17086311785E+03  0.17086311785E+03  0.00000000000E+00 0. -1.
         -3   -1    0    0    0  501 -0.00000000000E+00 -0.00000000000E+00 -0.68526615670E+02  0.68526615670E+02  0.00000000000E+00 0.  1.
         25    2    1    2    0    0 -0.55197723625E+02 -0.14249240399E+02  0.97450257493E+02  0.16850130365E+03  0.12508519937E+03 0.  0.
          5    1    3    3  502    0 -0.14209526743E+02 -0.66762889333E+02  0.64741007249E+02  0.94170401199E+02  0.41800000000E+01 0.  1.
         -5    1    3    3    0  502 -0.40988196882E+02  0.52513648934E+02  0.32709250244E+02  0.74330902453E+02  0.41800000000E+01 0.  1.
        -11    1    1    2    0    0  0.39169481361E+02  0.28113317845E+02  0.96423367908E+01  0.49168908561E+02  0.00000000000E+00 0. -1.
         11    1    1    2    0    0  0.16028242265E+02 -0.13864077446E+02 -0.47560921070E+01  0.21719521304E+02  0.00000000000E+00 0.  1.
</event>
<event>
 7    1  0.2794945E-009  0.1723752E+03  0.7561462E-02  0.1175393E+00
         -2   -1    0    0    0  501 -0.00000000000E+00  0.00000000000E+00  0.52541386025E+03  0.52541386025E+03  0.00000000000E+00 0.  1.
          2   -1    0    0  501    0  0.00000000000E+00 -0.00000000000E+00 -0.84213962554E+02  0.84213962554E+02  0.00000000000E+00 0. -1.
         25    2    1    2    0    0  0.36343280131E+02  0.15352599479E+03  0.10569740300E+03  0.22740090830E+03  0.12509263371E+03 0.  0.
          5    1    3    3  502    0  0.23854464644E+02  0.11166334794E+01  0.64599956107E+02  0.68999341177E+02  0.41800000000E+01 0. -1.
         -5    1    3    3    0  502  0.12488815486E+02  0.15240936131E+03  0.41097446893E+02  0.15840156712E+03  0.41800000000E+01 0. -1.
        -11    1    1    2    0    0 -0.48682820544E+02 -0.14380148910E+03  0.33344721214E+03  0.36638221650E+03  0.00000000000E+00 0.  1.
         11    1    1    2    0    0  0.12339540413E+02 -0.97245056821E+01  0.20552825546E+01  0.15844698001E+02  0.00000000000E+00 0. -1.
</event>
<event>
 7    1  0.2904162E-009  0.1163954E+03  0.7561462E-02  0.1249165E+00
         -1   -1    0    0    0  501 -0.00000000000E+00  0.00000000000E+00  0.96043682677E+02  0.96043682677E+02  0.00000000000E+00 0.  1.
          1   -1    0    0  501    0  0.00000000000E+00 -0.00000000000E+00 -0.19193791999E+03  0.19193791999E+03  0.00000000000E+00 0. -1.
         25    2    1    2    0    0 -0.63785114992E+02  0.40089572836E+02 -0.19743487535E+02  0.14735789558E+03  0.12509528107E+03 0.  0.
          5    1    3    3  502    0 -0.63472251100E+02  0.66118061810E+02 -0.52187724220E+02  0.10555262060E+03  0.41800000000E+01 0. -1.
         -5    1    3    3    0  502 -0.31286389193E+00 -0.26028488975E+02  0.32444236685E+02  0.41805274980E+02  0.41800000000E+01 0. -1.
        -11    1    1    2    0    0  0.37655200697E+01 -0.53126050779E+02 -0.18484358961E+02  0.56375774398E+02  0.00000000000E+00 0.  1.
         11    1    1    2    0    0  0.60019594922E+02  0.13036477943E+02 -0.57666390816E+02  0.84247932683E+02  0.00000000000E+00 0. -1.
</event>
<event>
 6    1  0.2975756E-009  0.1160844E+03  0.7561462E-02  0.1249700E+00
          1   -1    0    0  501    0  0.00000000000E+00  0.00000000000E+00  0.21305652289E+03  0.21305652289E+03  0.00000000000E+00 0. -1.
         -1   -1    0    0    0  501 -0.00000000000E+00 -0.00000000000E+00 -0.82868936784E+02  0.82868936784E+02  0.00000000000E+00 0.  1.
          5    1    1    2  502    0 -0.28295830165E+02  0.30696004936E+02  0.72237929678E+01  0.42574103732E+02  0.41800000000E+01 0.  1.
         -5    1    1    2    0  502  0.99150636112E+02 -0.45639854763E+01  0.79986934559E+02  0.12754238788E+03  0.41800000000E+01 0.  1.
        -11    1    1    2    0    0 -0.52040049073E+02  0.72566278370E+01 -0.16482841085E+02  0.55068225006E+02  0.00000000000E+00 0.  1.
         11    1    1    2    0    0 -0.18814756875E+02 -0.33388647297E+02  0.59459699661E+02  0.70740743058E+02  0.00000000000E+00 0. -1.
</event>
<event>
 7    1  0.2794945E-009  0.1330427E+03  0.7561462E-02  0.1223010E+00
          1   -1    0    0  501    0  0.00000000000E+00  0.00000000000E+00  0.46679980039E+03  0.46679980039E+03  0.00000000000E+00 0. -1.
         -1   -1    0    0    0  501 -0.00000000000E+00 -0.00000000000E+00 -0.65576707359E+02  0.65576707359E+02  0.00000000000E+00 0.  1.
         25    2    1    2    0    0  0.10856518956E+03  0.21875625021E+02  0.34180799993E+03  0.38045508157E+03  0.12509363261E+03 0.  0.
          5    1    3    3  502    0 -0.95070308073E+01 -0.25286575150E+02  0.13432896892E+03  0.13708223375E+03  0.41800000000E+01 0.  1.
         -5    1    3    3    0  502  0.11807222037E+03  0.47162200171E+02  0.20747903100E+03  0.24337284782E+03  0.41800000000E+01 0.  1.
        -11    1    1    2    0    0 -0.12690337998E+02  0.17077902495E+01 -0.20992128273E+02  0.24589239018E+02  0.00000000000E+00 0.  1.
         11    1    1    2    0    0 -0.95874851565E+02 -0.23583415271E+02  0.80407221375E+02  0.12733218716E+03  0.00000000000E+00 0. -1.
</event>
<event>
 7    1  0.2794945E-009  0.7550280E+02  0.7561462E-02  0.1342321E+00
         -1   -1    0    0    0  501 -0.00000000000E+00  0.00000000000E+00  0.54011614988E+03  0.54011614988E+03  0.00000000000E+00 0.  1.
          1   -1    0    0  501    0  0.00000000000E+00 -0.00000000000E+00 -0.37330605742E+02  0.37330605742E+02  0.00000000000E+00 0. -1.
         25    2    1    2    0    0  0.24820474173E+02 -0.27222570260E+02  0.44722273371E+03  0.46585036918E+03  0.12510503047E+03 0.  0.
          5    1    3    3  502    0  0.26459608760E+02  0.81767574191E+01  0.42009198480E+03  0.42102460540E+03  0.41800000000E+01 0.  1.
         -5    1    3    3    0  502 -0.16391345875E+01 -0.35399327679E+02  0.27130748910E+02  0.44825763783E+02  0.41800000000E+01 0.  1.
        -11    1    1    2    0    0  0.27881535933E+02 -0.24879071365E+00  0.42363866658E+02  0.50716261111E+02  0.00000000000E+00 0.  1.
         11    1    1    2    0    0 -0.52702010106E+02  0.27471360973E+02  0.13198943764E+02  0.60880125323E+02  0.00000000000E+00 0. -1.
</event>
<event>
 7    1  0.2794945E-009  0.1766250E+03  0.7561462E-02  0.1171110E+00
          3   -1    0    0  501    0  0.00000000000E+00  0.00000000000E+00  0.65316766715E+03  0.65316766715E+03  0.00000000000E+00 0. -1.
         -3   -1    0    0    0  501 -0.00000000000E+00 -0.00000000000E+00 -0.54734736168E+02  0.54734736168E+02  0.00000000000E+00 0.  1.
         25    2    1    2    0    0  0.60018508030E+02 -0.12943882603E+03  0.34978071626E+03  0.39793299503E+03  0.12508991997E+03 0.  0.
          5    1    3    3  502    0  0.80013942754E+02 -0.46003985494E+02  0.24856447146E+03  0.26517987591E+03  0.41800000000E+01 0.  1.
         -5    1    3    3    0  502 -0.19995434724E+02 -0.83434840539E+02  0.10121624480E+03  0.13275311912E+03  0.41800000000E+01 0.  1.
        -11    1    1    2    0    0 -0.41300307644E+02  0.14490695217E+03  0.16767547104E+03  0.22543026368E+03  0.00000000000E+00 0.  1.
         11    1    1    2    0    0 -0.18718200385E+02 -0.15468126133E+02  0.80976743688E+02  0.84539144602E+02  0.00000000000E+00 0. -1.
</event>
<event>
 7    1  0.2794945E-009  0.1188738E+03  0.7561462E-02  0.1244967E+00
         -1   -1    0    0    0  501 -0.00000000000E+00  0.00000000000E+00  0.44750652466E+02  0.44750652466E+02  0.00000000000E+00 0.  1.
          1   -1    0    0  501    0  0.00000000000E+00 -0.00000000000E+00 -0.40927141851E+03  0.40927141851E+03  0.00000000000E+00 0. -1.
         25    2    1    2    0    0 -0.59292066628E+02  0.43378176753E+02 -0.13300250289E+03  0.19681031933E+03  0.12508965041E+03 0.  0.
          5    1    3    3  502    0 -0.12588610826E+02  0.74635801826E+02 -0.11483788468E+03  0.13760155593E+03  0.41800000000E+01 0.  1.
         -5    1    3    3    0  502 -0.46703455802E+02 -0.31257625072E+02 -0.18164618203E+02  0.59208763401E+02  0.41800000000E+01 0.  1.
        -11    1    1    2    0    0  0.49093575662E+02 -0.65132593307E+02 -0.13480664763E+03  0.15756035710E+03  0.00000000000E+00 0.  1.
         11    1    1    2    0    0  0.10198490966E+02  0.21754416554E+02 -0.96711615527E+02  0.99651394548E+02  0.00000000000E+00 0. -1.
</event>
<event>
 7    1  0.2794945E-009  0.8107522E+02  0.7561462E-02  0.1326028E+00
         -4   -1    0    0    0  501 -0.00000000000E+00  0.00000000000E+00  0.12768995234E+03  0.12768995234E+03  0.00000000000E+00 0. -1.
          4   -1    0    0  501    0  0.00000000000E+00 -0.00000000000E+00 -0.16044299609E+03  0.16044299609E+03  0.00000000000E+00 0.  1.
         25    2    1    2    0    0 -0.18784279050E+01 -0.99721595916E+01 -0.11232517224E+03  0.16841474217E+03  0.12507441226E+03 0.  0.
          5    1    3    3  502    0  0.55973536480E+02 -0.16806237220E+02 -0.86688000111E+02  0.10463158299E+03  0.41800000000E+01 0. -1.
         -5    1    3    3    0  502 -0.57851964385E+02  0.68340776283E+01 -0.25637172134E+02  0.63783159182E+02  0.41800000000E+01 0. -1.
        -11    1    1    2    0    0  0.11854298677E+02 -0.14499214013E+02 -0.13422500228E+02  0.23041595355E+02  0.00000000000E+00 0.  1.
         11    1    1    2    0    0 -0.99758707724E+01  0.24471373605E+02  0.92994628729E+02  0.96676610906E+02  0.00000000000E+00 0. -1.
</event>
<event>
 7    1  0.2794945E-009  0.9857119E+02  0.7561462E-02  0.1283330E+00
         -1   -1    0    0    0  501 -0.00000000000E+00  0.00000000000E+00  0.36382733379E+03  0.36382733379E+03  0.00000000000E+00 0.  1.
          1   -1    0    0  501    0  0.00000000000E+00 -0.00000000000E+00 -0.45063317372E+02  0.45063317372E+02  0.00000000000E+00 0. -1.
         25    2    1    2    0    0 -0.53572777408E+02  0.19589145193E+02  0.11580361210E+03  0.17975408904E+03  0.12508908371E+03 0.  0.
          5    1    3    3  502    0 -0.66611126422E+02 -0.31440853671E+01  0.13250494920E+03  0.14839798314E+03  0.41800000000E+01 0.  1.
         -5    1    3    3    0  502  0.13038349014E+02  0.22733230560E+02 -0.16701337099E+02  0.31356105906E+02  0.41800000000E+01 0.  1.
        -11    1    1    2    0    0  0.42684358126E+01 -0.47123460975E+02  0.11786426838E+03  0.12700718830E+03  0.00000000000E+00 0.  1.
         11    1    1    2    0    0  0.49304341596E+02  0.27534315782E+02  0.85096135927E+02  0.10212937381E+03  0.00000000000E+00 0. -1.
</event>
<event>
 7    1  0.2794945E-009  0.1140790E+03  0.7561462E-02  0.1253197E+00
          2   -1    0    0  501    0  0.00000000000E+00  0.00000000000E+00  0.23725457058E+03  0.23725457058E+03  0.00000000000E+00 0. -1.
         -2   -1    0    0    0  501 -0.00000000000E+00 -0.00000000000E+00 -0.70861965072E+02  0.70861965072E+02  0.00000000000E+00 0.  1.
         25    2    1    2    0    0 -0.14638431414E+02  0.58911596517E+02  0.13310723465E+03  0.19248498785E+03  0.12509226495E+03 0.  0.
          5    1    3    3  502    0 -0.69743757457E+02  0.40684368790E+02  0.77420647183E+02  0.11194122823E+03  0.41800000000E+01 0. -1.
         -5    1    3    3    0  502  0.55105326043E+02  0.18227227727E+02  0.55686587467E+02  0.80543759614E+02  0.41800000000E+01 0. -1.
        -11    1    1    2    0    0  0.37885936511E+02 -0.52962982396E+02 -0.10250472721E+02  0.65920360137E+02  0.00000000000E+00 0.  1.
         11    1    1    2    0    0 -0.23247505098E+02 -0.59486141210E+01  0.43535843575E+02  0.49711187665E+02  0.00000000000E+00 0. -1.
</event>
<event>
 7    1  0.2794945E-009  0.1190094E+03  0.7561462E-02  0.1244740E+00
          3   -1    0    0  501    0  0.00000000000E+00  0.00000000000E+00  0.17660981346E+03  0.17660981346E+03  0.00000000000E+00 0. -1.
         -3   -1    0    0    0  501 -0.00000000000E+00 -0.00000000000E+00 -0.12856488747E+03  0.12856488747E+03  0.00000000000E+00 0.  1.
         25    2    1    2    0    0 -0.40650875559E+02  0.71564348441E+02 -0.36161128067E+02  0.15404063242E+03  0.12508772763E+03 0.  0.
          5    1    3    3  502    0 -0.53954994366E+02  0.81227587900E+02 -0.67315499823E+02  0.11856606331E+03  0.41800000000E+01 0. -1.
         -5    1    3    3    0  502  0.13304118807E+02 -0.96632394584E+01  0.31154371757E+02  0.35474569111E+02  0.41800000000E+01 0. -1.
        -11    1    1    2    0    0  0.63170240913E+02 -0.18530999257E+02  0.31228619406E+02  0.72863598186E+02  0.00000000000E+00 0. -1.
         11    1    1    2    0    0 -0.22519365355E+02 -0.53033349184E+02  0.52977434647E+02  0.78270470316E+02  0.00000000000E+00 0.  1.
</event>
<event>
 7    1  0.2794945E-009  0.1254900E+03  0.7561462E-02  0.1234306E+00
          1   -1    0    0  501    0  0.00000000000E+00  0.00000000000E+00  0.95520241073E+02  0.95520241073E+02  0.00000000000E+00 0. -1.
         -1   -1    0    0    0  501 -0.00000000000E+00 -0.00000000000E+00 -0.23502450352E+03  0.23502450352E+03  0.00000000000E+00 0.  1.
         25    2    1    2    0    0 -0.48005176902E+02  0.87590405848E+02 -0.56819805137E+02  0.16985322823E+03  0.12508018500E+03 0.  0.
          5    1    3    3  502    0 -0.18400179156E+02  0.10928546487E+03 -0.69402688316E+02  0.13082845627E+03  0.41800000000E+01 0.  1.
         -5    1    3    3    0  502 -0.29604997745E+02 -0.21695059023E+02  0.12582883179E+02  0.39024771961E+02  0.41800000000E+01 0.  1.
        -11    1    1    2    0    0  0.35761313490E+02 -0.38515441393E+02  0.11485386052E+02  0.53798000529E+02  0.00000000000E+00 0. -1.
         11    1    1    2    0    0  0.12243863412E+02 -0.49074964456E+02 -0.94169843362E+02  0.10689351583E+03  0.00000000000E+00 0.  1.
</event>
<event>
 7    1  0.2794945E-009  0.8050185E+02  0.7561462E-02  0.1327633E+00
          3   -1    0    0  501    0  0.00000000000E+00  0.00000000000E+00  0.15114803883E+03  0.15114803883E+03  0.00000000000E+00 0. -1.
         -3   -1    0    0    0  501 -0.00000000000E+00 -0.00000000000E+00 -0.11119328419E+03  0.11119328419E+03  0.00000000000E+00 0.  1.
         25    2    1    2    0    0 -0.15728168835E+02 -0.68755279203E+02  0.36201690554E+02  0.14809913696E+03  0.12509247882E+03 0.  0.
          5    1    3    3  502    0  0.79425190848E+01 -0.52714584883E+02  0.79640051196E+02  0.95926645012E+02  0.41800000000E+01 0. -1.
         -5    1    3    3    0  502 -0.23670687920E+02 -0.16040694320E+02 -0.43438360642E+02  0.52172491949E+02  0.41800000000E+01 0. -1.
        -11    1    1    2    0    0  0.14486948286E+02  0.57042427325E+01 -0.36325086431E+02  0.39521158384E+02  0.00000000000E+00 0.  1.
         11    1    1    2    0    0  0.12412205495E+01  0.63051036470E+02  0.40078150519E+02  0.74721027679E+02  0.00000000000E+00 0. -1.
</event>
<event>
 7    1  0.2794945E-009  0.9894280E+02  0.7561462E-02  0.1282535E+00
          2   -1    0    0  501    0  0.00000000000E+00  0.00000000000E+00  0.69193050805E+03  0.69193050805E+03  0.00000000000E+00 0. -1.
         -2   -1    0    0    0  501 -0.00000000000E+00 -0.00000000000E+00 -0.23697556186E+02  0.23697556186E+02  0.00000000000E+00 0.  1.
         25    2    1    2    0    0  0.25753008287E+02 -0.60566298516E+01  0.54751939962E+03  0.56225041464E+03  0.12509250817E+03 0.  0.
          5    1    3    3  502    0  0.33119474557E+02 -0.51158659535E+02  0.45386228385E+03  0.45795475010E+03  0.41800000000E+01 0.  1.
         -5    1    3    3    0  502 -0.73664662702E+01  0.45102029683E+02  0.93657115774E+02  0.10429566454E+03  0.41800000000E+01 0.  1.
        -11    1    1    2    0    0 -0.68639752956E+01 -0.40284762314E+02  0.75899725342E+02  0.86201766447E+02  0.00000000000E+00 0.  1.
         11    1    1    2    0    0 -0.18889032991E+02  0.46341392166E+02  0.44813826902E+02  0.67175883149E+02  0.00000000000E+00 0. -1.
</event>
<event>
 7    1  0.2794945E-009  0.1492257E+03  0.7561462E-02  0.1201428E+00
          4   -1    0    0  501    0  0.00000000000E+00  0.00000000000E+00  0.19012981281E+03  0.19012981281E+03  0.00000000000E+00 0.  1.
         -4   -1    0    0    0  501 -0.00000000000E+00 -0.00000000000E+00 -0.20640998805E+03  0.20640998805E+03  0.00000000000E+00 0. -1.
         25    2    1    2    0    0 -0.14085173573E+03  0.21105508568E+02 -0.93819587877E+02  0.21150320394E+03  0.12508731452E+03 0.  0.
          5    1    3    3  502    0 -0.13420560300E+03  0.35062861175E+02 -0.25203793070E+02  0.14104343904E+03  0.41800000000E+01 0.  1.
         -5    1    3    3    0  502 -0.66461327309E+01 -0.13957352606E+02 -0.68615794807E+02  0.70459764895E+02  0.41800000000E+01 0.  1.
        -11    1    1    2    0    0  0.55530401547E+02 -0.17668785067E+02  0.80755595309E+02  0.99585529247E+02  0.00000000000E+00 0.  1.
         11    1    1    2    0    0  0.85321334188E+02 -0.34367235015E+01 -0.32161826683E+01  0.85451067676E+02  0.00000000000E+00 0. -1.
</event>
<event>
 7    1  0.2794945E-009  0.1731966E+03  0.7561462E-02  0.1174555E+00
          2   -1    0    0  501    0  0.00000000000E+00  0.00000000000E+00  0.13118081918E+03  0.13118081918E+03  0.00000000000E+00 0. -1.
         -2   -1    0    0    0  501 -0.00000000000E+00 -0.00000000000E+00 -0.23534689258E+03  0.23534689258E+03  0.00000000000E+00 0.  1.
         25    2    1    2    0    0 -0.66802891457E+01 -0.13722448238E+03 -0.43193012320E+02  0.19076352949E+03  0.12509957251E+03 0.  0.
          5    1    3    3  502    0  0.29328703215E+02  0.10878614908E+02 -0.17663035430E+02  0.36165899895E+02  0.41800000000E+01 0.  1.
         -5    1    3    3    0  502 -0.36008992360E+02 -0.14810309729E+03 -0.25529976889E+02  0.15459762959E+03  0.41800000000E+01 0.  1.
        -11    1    1    2    0    0 -0.35912198340E+02  0.29349167037E+02 -0.31605234395E+02  0.56124419253E+02  0.00000000000E+00 0.  1.
         11    1    1    2    0    0  0.42592487485E+02  0.10787531534E+03 -0.29367826681E+02  0.11963976301E+03  0.00000000000E+00 0. -1.
</event>
<event>
 7    1  0.2794945E-009  0.7901233E+02  0.7561462E-02  0.1331878E+00
          1   -1    0    0  501    0  0.00000000000E+00  0.00000000000E+00  0.44335078061E+03  0.44335078061E+03  0.00000000000E+00 0. -1.
         -1   -1    0    0    0  501 -0.00000000000E+00 -0.00000000000E+00 -0.34842390597E+02  0.34842390597E+02  0.00000000000E+00 0.  1.
         25    2    1    2    0    0  0.31085711868E+02  0.49867389470E+02  0.16986104394E+03  0.21900754632E+03  0.12513374079E+03 0.  0.
          5    1    3    3  502    0  0.31260811497E+02  0.22765942497E+02  0.18406133800E+03  0.18812648676E+03  0.41800000000E+01 0. -1.
         -5    1    3    3    0  502 -0.17509962865E+00  0.27101446973E+02 -0.14200294068E+02  0.30881059560E+02  0.41800000000E+01 0. -1.
        -11    1    1    2    0    0 -0.44319276752E+02 -0.46169958239E+01  0.61975266457E+02  0.76331177082E+02  0.00000000000E+00 0.  1.
         11    1    1    2    0    0  0.13233564884E+02 -0.45250393647E+02  0.17667207962E+03  0.18285444781E+03  0.00000000000E+00 0. -1.
</event>
<event>
 7    1  0.2794945E-009  0.1229989E+03  0.7561462E-02  0.1238230E+00
          1   -1    0    0  501    0  0.00000000000E+00  0.00000000000E+00  0.16717345488E+03  0.16717345488E+03  0.00000000000E+00 0. -1.
         -1   -1    0    0    0  501 -0.00000000000E+00 -0.00000000000E+00 -0.15324973514E+03  0.15324973514E+03  0.00000000000E+00 0.  1.
         25    2    1    2    0    0  0.43979869484E+02  0.10779833222E+03  0.20599575435E+02  0.17212370461E+03  0.12509003890E+03 0.  0.
          5    1    3    3  502    0 -0.11360705974E+02  0.15269245217E+02 -0.42766217163E+02  0.46996140481E+02  0.41800000000E+01 0. -1.
         -5    1    3    3    0  502  0.55340575458E+02  0.92529087007E+02  0.63365792598E+02  0.12512756413E+03  0.41800000000E+01 0. -1.
        -11    1    1    2    0    0 -0.38521557413E+02 -0.65665016052E+02  0.39319890374E+02  0.85684645636E+02  0.00000000000E+00 0. -1.
         11    1    1    2    0    0 -0.54583120706E+01 -0.42133316171E+02 -0.45995746078E+02  0.62614839770E+02  0.00000000000E+00 0.  1.
</event>
<event>
 7    1  0.2794945E-009  0.1303340E+03  0.7561462E-02  0.1226961E+00
         -1   -1    0    0    0  501 -0.00000000000E+00  0.00000000000E+00  0.55269736359E+02  0.55269736359E+02  0.00000000000E+00 0.  1.
          1   -1    0    0  501    0  0.00000000000E+00 -0.00000000000E+00 -0.36873908912E+03  0.36873908912E+03  0.00000000000E+00 0. -1.
         25    2    1    2    0    0 -0.83933150330E+02 -0.31921394555E+02 -0.16629495273E+03  0.22663929745E+03  0.12509041007E+03 0.  0.
          5    1    3    3  502    0 -0.71793987908E+02  0.24335576761E+02 -0.14760282624E+03  0.16598392606E+03  0.41800000000E+01 0.  1.
         -5    1    3    3    0  502 -0.12139162422E+02 -0.56256971317E+02 -0.18692126488E+02  0.60655371392E+02  0.41800000000E+01 0.  1.
        -11    1    1    2    0    0  0.10277432902E+03  0.19870135300E+02 -0.98197176372E+02  0.14352724630E+03  0.00000000000E+00 0.  1.
         11    1    1    2    0    0 -0.18841178692E+02  0.12051259255E+02 -0.48977223660E+02  0.53842281727E+02  0.00000000000E+00 0. -1.
</event>
<event>
 7    1  0.2794945E-009  0.7058290E+02  0.7561462E-02  0.1358122E+00
         -2   -1    0    0    0  501 -0.00000000000E+00  0.00000000000E+00  0.17928414226E+03  0.17928414226E+03  0.00000000000E+00 0. -1.
          2   -1    0    0  501    0  0.00000000000E+00 -0.00000000000E+00 -0.74321072180E+02  0.74321072180E+02  0.00000000000E+00 0.  1.
         25    2    1    2    0    0 -0.21948931267E+02 -0.29307819980E+02  0.81758879635E+02  0.15385782289E+03  0.12508801450E+03 0.  0.
          5    1    3    3  502    0 -0.42421111967E+02 -0.21103792371E+02  0.10878277198E+03  0.11872693322E+03  0.41800000000E+01 0. -1.
         -5    1    3    3    0  502  0.20472180700E+02 -0.82040276089E+01 -0.27023892345E+02  0.35130889671E+02  0.41800000000E+01 0. -1.
        -11    1    1    2    0    0 -0.16525193051E+02  0.28174147174E+02  0.44930352954E+02  0.55548188008E+02  0.00000000000E+00 0. -1.
         11    1    1    2    0    0  0.38474124318E+02  0.11336728060E+01 -0.21726162509E+02  0.44199203538E+02  0.00000000000E+00 0.  1.
</event>
<event>
 7    1  0.2794945E-009  0.1085312E+03  0.7561462E-02  0.1263314E+00
          2   -1    0    0  501    0  0.00000000000E+00  0.00000000000E+00  0.86257020564E+03  0.86257020564E+03  0.00000000000E+00 0. -1.
         -2   -1    0    0    0  501 -0.00000000000E+00 -0.00000000000E+00 -0.15965963395E+02  0.15965963395E+02  0.00000000000E+00 0.  1.
         25    2    1    2    0    0 -0.10263612880E+02  0.31464797648E+02  0.59285067341E+03  0.60680642812E+03  0.12508694974E+03 0.  0.
          5    1    3    3  502    0  0.30217330839E+02 -0.35139667188E+02  0.14745374300E+03  0.15462199720E+03  0.41800000000E+01 0.  1.
         -5    1    3    3    0  502 -0.40480943720E+02  0.66604464836E+02  0.44539693042E+03  0.45218443092E+03  0.41800000000E+01 0.  1.
        -11    1    1    2    0    0 -0.37210619119E+02 -0.34944903600E+01  0.63751855527E+02  0.73899531265E+02  0.00000000000E+00 0. -1.
         11    1    1    2    0    0  0.47474231999E+02 -0.27970307288E+02  0.19000171330E+03  0.19783020965E+03  0.00000000000E+00 0.  1.
</event>
<event>
 7    1  0.2794945E-009  0.1236074E+03  0.7561462E-02  0.1237262E+00
          4   -1    0    0  501    0  0.00000000000E+00  0.00000000000E+00  0.44788892377E+03  0.44788892377E+03  0.00000000000E+00 0. -1.
         -4   -1    0    0    0  501 -0.00000000000E+00 -0.00000000000E+00 -0.43163700356E+02  0.43163700356E+02  0.00000000000E+00 0.  1.
         25    2    1    2    0    0 -0.70605980128E+02  0.52712572859E+01  0.13362883078E+03  0.19625250320E+03  0.12508153346E+03 0.  0.
          5    1    3    3  502    0  0.35023257665E+02  0.11631904977E+02  0.26588286906E+02  0.45676462116E+02  0.41800000000E+01 0. -1.
         -5    1    3    3    0  502 -0.10562923779E+03 -0.63606476906E+01  0.10704054387E+03  0.15057604108E+03  0.41800000000E+01 0. -1.
        -11    1    1    2    0    0 -0.45261498594E+01  0.23340857259E+02  0.19748709605E+02  0.30907817477E+02  0.00000000000E+00 0.  1.
         11    1    1    2    0    0  0.75132129987E+02 -0.28612114545E+02  0.25134768303E+03  0.26389230345E+03  0.00000000000E+00 0. -1.
</event>
<event>
 7    1  0.2794945E-009  0.7647749E+02  0.7561462E-02  0.1339356E+00
          1   -1    0    0  501    0  0.00000000000E+00  0.00000000000E+00  0.16095497879E+03  0.16095497879E+03  0.00000000000E+00 0. -1.
         -1   -1    0    0    0  501 -0.00000000000E+00 -0.00000000000E+00 -0.14217380812E+03  0.14217380812E+03  0.00000000000E+00 0.  1.
         25    2    1    2    0    0 -0.39530489107E+01  0.59861892089E+02 -0.80558721308E+02  0.16041876057E+03  0.12508156716E+03 0.  0.
          5    1    3    3  502    0 -0.10543605796E+02  0.49506114619E+01  0.32342836929E+02  0.34629578075E+02  0.41800000000E+01 0.  1.
         -5    1    3    3    0  502  0.65905568856E+01  0.54911280627E+02 -0.11290155824E+03  0.12578918249E+03  0.41800000000E+01 0.  1.
        -11    1    1    2    0    0 -0.27816797216E+02 -0.20617361200E+02  0.82520646997E+02  0.89490261878E+02  0.00000000000E+00 0. -1.
         11    1    1    2    0    0  0.31769846127E+02 -0.39244530889E+02  0.16819244988E+02  0.53219764464E+02  0.00000000000E+00 0.  1.
</event>
<event>
 7    1  0.2794945E-009  0.1193961E+03  0.7561462E-02  0.1244097E+00
          2   -1    0    0  501    0  0.00000000000E+00  0.00000000000E+00  0.49961285676E+02  0.49961285676E+02  0.00000000000E+00 0. -1.
         -2   -1    0    0    0  501 -0.00000000000E+00 -0.00000000000E+00 -0.33264453174E+03  0.33264453174E+03  0.00000000000E+00 0.  1.
         25    2    1    2    0    0 -0.64377630917E+02 -0.25733820798E+02 -0.16396858122E+03  0.21757733497E+03  0.12508993633E+03 0.  0.
          5    1    3    3  502    0  0.23615621561E+02  0.20959603757E+02 -0.86373511620E+01  0.33001194016E+02  0.41800000000E+01 0.  1.
         -5    1    3    3    0  502 -0.87993252479E+02 -0.46693424555E+02 -0.15533123005E+03  0.18457614095E+03  0.41800000000E+01 0.  1.
        -11    1    1    2    0    0  0.74445303235E+02  0.43932103532E+02 -0.67249671063E+02  0.10952009474E+03  0.00000000000E+00 0. -1.
         11    1    1    2    0    0 -0.10067672317E+02 -0.18198282734E+02 -0.51464993788E+02  0.55508387708E+02  0.00000000000E+00 0.  1.
</event>
<event>
 7    1  0.2794945E-009  0.1340960E+03  0.7561462E-02  0.1221501E+00
          1   -1    0    0  501    0  0.00000000000E+00  0.00000000000E+00  0.24373744536E+03  0.24373744536E+03  0.00000000000E+00 0. -1.
         -1   -1    0    0    0  501 -0.00000000000E+00 -0.00000000000E+00 -0.82284264294E+02  0.82284264294E+02  0.00000000000E+00 0.  1.
         25    2    1    2    0    0  0.59426010750E+02  0.66713440355E+02  0.94176729785E+02  0.18027126393E+03  0.12508532403E+03 0.  0.
          5    1    3    3  502    0 -0.35264721123E+02  0.20310664504E+02  0.33688620065E+01  0.41048084970E+02  0.41800000000E+01 0.  1.
         -5    1    3    3    0  502  0.94690731873E+02  0.46402775850E+02  0.90807867779E+02  0.13922317896E+03  0.41800000000E+01 0.  1.
        -11    1    1    2    0    0 -0.35730359234E+01 -0.65792806846E+02  0.60550459772E+02  0.89486413477E+02  0.00000000000E+00 0.  1.
         11    1    1    2    0    0 -0.55852974827E+02 -0.92063350823E+00  0.67259915112E+01  0.56264032249E+02  0.00000000000E+00 0. -1.
</event>
<event>
 7    1  0.2794945E-009  0.1075089E+03  0.7561462E-02  0.1265254E+00
         -1   -1    0    0    0  501 -0.00000000000E+00  0.00000000000E+00  0.26546300573E+03  0.26546300573E+03  0.00000000000E+00 0.  1.
          1   -1    0    0  501    0  0.00000000000E+00 -0.00000000000E+00 -0.56764633086E+02  0.56764633086E+02  0.00000000000E+00 0. -1.
         25    2    1    2    0    0  0.13803847065E+02  0.24583581940E+02  0.50900022425E+02  0.13796054270E+03  0.12508956937E+03 0.  0.
          5    1    3    3  502    0  0.55089525094E+02 -0.20436966202E+02  0.90416516033E+00  0.58913625566E+02  0.41800000000E+01 0.  1.
         -5    1    3    3    0  502 -0.41285678029E+02  0.45020548142E+02  0.49995857265E+02  0.79046917137E+02  0.41800000000E+01 0.  1.
        -11    1    1    2    0    0 -0.12101069468E+02  0.34095649435E+02  0.67006266905E+02  0.76149780020E+02  0.00000000000E+00 0. -1.
         11    1    1    2    0    0 -0.17027775976E+01 -0.58679231375E+02  0.90792083309E+02  0.10811731609E+03  0.00000000000E+00 0.  1.
</event>
<event>
 7    1  0.2794945E-009  0.1299125E+03  0.7561462E-02  0.1227586E+00
          2   -1    0    0  501    0  0.00000000000E+00  0.00000000000E+00  0.99426293182E+02  0.99426293182E+02  0.00000000000E+00 0. -1.
         -2   -1    0    0    0  501 -0.00000000000E+00 -0.00000000000E+00 -0.20695591324E+03  0.20695591324E+03  0.00000000000E+00 0.  1.
         25    2    1    2    0    0  0.39134222452E+02  0.81953213339E+02 -0.62691980746E+02  0.16680917085E+03  0.12508876243E+03 0.  0.
          5    1    3    3  502    0  0.76417937399E+02  0.53414388392E+02 -0.73083799144E+02  0.11853907432E+03  0.41800000000E+01 0. -1.
         -5    1    3    3    0  502 -0.37283714947E+02  0.28538824947E+02  0.10391818399E+02  0.48270096532E+02  0.41800000000E+01 0. -1.
        -11    1    1    2    0    0 -0.56003641758E+02 -0.27577067143E+02 -0.53212877434E+02  0.82027512745E+02  0.00000000000E+00 0.  1.
         11    1    1    2    0    0  0.16869419307E+02 -0.54376146196E+02  0.83752381264E+01  0.57545522819E+02  0.00000000000E+00 0. -1.
</event>
<event>
 6    1  0.2794945E-009  0.1008399E+03  0.7561462E-02  0.1278540E+00
          2   -1    0    0  501    0  0.00000000000E+00  0.00000000000E+00  0.50901242760E+03  0.50901242760E+03  0.00000000000E+00 0. -1.
         -2   -1    0    0    0  501 -0.00000000000E+00 -0.00000000000E+00 -0.43303891255E+02  0.43303891255E+02  0.00000000000E+00 0.  1.
          5    1    1    2  502    0  0.64216637177E+02 -0.20479383683E+02  0.38382516807E+03  0.38972094336E+03  0.41800000000E+01 0. -1.
         -5    1    1    2    0  502  0.26820584917E+01  0.26202030412E+02  0.92266200005E+01  0.28219545568E+02  0.41800000000E+01 0. -1.
        -11    1    1    2    0    0 -0.41703235354E+02 -0.44657935956E+02  0.61464149780E+02  0.86667945580E+02  0.00000000000E+00 0. -1.
         11    1    1    2    0    0 -0.25195460314E+02  0.38935289227E+02  0.11192598488E+02  0.47707884344E+02  0.00000000000E+00 0.  1.
</event>
<event>
 7    1  0.2794945E-009  0.1126558E+03  0.7561462E-02  0.1255729E+00
          1   -1    0    0  501    0  0.00000000000E+00  0.00000000000E+00  0.11359636758E+03  0.11359636758E+03  0.00000000000E+00 0. -1.
         -1   -1    0    0    0  501 -0.00000000000E+00 -0.00000000000E+00 -0.19740513932E+03  0.19740513932E+03  0.00000000000E+00 0.  1.
         25    2    1    2    0    0  0.50423777001E+02 -0.86149989054E+02 -0.50901701484E+02  0.16793569846E+03  0.12508811975E+03 0.  0.
          5    1    3    3  502    0  0.67409366227E+02 -0.79791162915E+02  0.92731506387E+01  0.10494815890E+03  0.41800000000E+01 0. -1.
         -5    1    3    3    0  502 -0.16985589226E+02 -0.63588261387E+01 -0.60174852123E+02  0.62987539556E+02  0.41800000000E+01 0. -1.
        -11    1    1    2    0    0 -0.36164104188E+02  0.40309417798E+02 -0.65539094262E+02  0.85018024392E+02  0.00000000000E+00 0.  1.
         11    1    1    2    0    0 -0.14259672814E+02  0.45840571256E+02  0.32632024011E+02  0.58047784048E+02  0.00000000000E+00 0. -1.
</event>
<event>
 7    1  0.2794945E-009  0.1161071E+03  0.7561462E-02  0.1249661E+00
         -2   -1    0    0    0  501 -0.00000000000E+00  0.00000000000E+00  0.72601311513E+02  0.72601311513E+02  0.00000000000E+00 0.  1.
          2   -1    0    0  501    0  0.00000000000E+00 -0.00000000000E+00 -0.26786709226E+03  0.26786709226E+03  0.00000000000E+00 0. -1.
         25    2    1    2    0    0  0.58417151553E+02  0.35395701748E+02 -0.17720499456E+03  0.22740759654E+03  0.12508871079E+03 0.  0.
          5    1    3    3  502    0  0.48049022178E+02  0.70075165994E+02 -0.58515260863E+02  0.10325088656E+03  0.41800000000E+01 0. -1.
         -5    1    3    3    0  502  0.10368129375E+02 -0.34679464245E+02 -0.11868973370E+03  0.12415670998E+03  0.41800000000E+01 0. -1.
        -11    1    1    2    0    0 -0.18237408815E+02 -0.60595403311E+02 -0.17395918491E+02  0.65627920605E+02  0.00000000000E+00 0. -1.
         11    1    1    2    0    0 -0.40179742737E+02  0.25199701563E+02 -0.66486769721E+00  0.47432886633E+02  0.00000000000E+00 0.  1.
</event>
<event>
 7    1  0.2794945E-009  0.1475501E+03  0.7561462E-02  0.1203516E+00
         -2   -1    0    0    0  501 -0.00000000000E+00  0.00000000000E+00  0.29704182788E+03  0.29704182788E+03  0.00000000000E+00 0.  1.
          2   -1    0    0  501    0  0.00000000000E+00 -0.00000000000E+00 -0.91150886308E+02  0.91150886308E+02  0.00000000000E+00 0. -1.
         25    2    1    2    0    0  0.47570644712E+02  0.11339819135E+03  0.10155615342E+03  0.20269070214E+03  0.12509097649E+03 0.  0.
          5    1    3    3  502    0  0.55949200869E+02 -0.12523311904E+01  0.55053363647E+02  0.78614417636E+02  0.41800000000E+01 0.  1.
         -5    1    3    3    0  502 -0.83785561572E+01  0.11465052254E+03  0.46502789771E+02  0.12407628451E+03  0.41800000000E+01 0.  1.
        -11    1    1    2    0    0 -0.15384646312E+02 -0.20485228292E+02  0.80285509366E+02  0.84273927964E+02  0.00000000000E+00 0.  1.
         11    1    1    2    0    0 -0.32185998400E+02 -0.92912963053E+02  0.24049278789E+02  0.10122808408E+03  0.00000000000E+00 0. -1.
</event>
<event>
 7    1  0.2794945E-009  0.1249308E+03  0.7561462E-02  0.1235177E+00
         -2   -1    0    0    0  501 -0.00000000000E+00  0.00000000000E+00  0.36436523904E+03  0.36436523904E+03  0.00000000000E+00 0.  1.
          2   -1    0    0  501    0  0.00000000000E+00 -0.00000000000E+00 -0.62574610846E+02  0.62574610846E+02  0.00000000000E+00 0. -1.
         25    2    1    2    0    0  0.25137697332E+02  0.81933743406E+02  0.80057197399E+02  0.17146863387E+03  0.12508914985E+03 0.  0.
          5    1    3    3  502    0  0.65412750955E+02  0.63908277465E+01  0.32305466531E+02  0.73353842671E+02  0.41800000000E+01 0. -1.
         -5    1    3    3    0  502 -0.40275053622E+02  0.75542915660E+02  0.47751730869E+02  0.98114791197E+02  0.41800000000E+01 0. -1.
        -11    1    1    2    0    0 -0.76957235833E+01 -0.80419229335E+02  0.22371223387E+03  0.23785213935E+03  0.00000000000E+00 0.  1.
         11    1    1    2    0    0 -0.17441973749E+02 -0.15145140716E+01 -0.19788030774E+01  0.17619076672E+02  0.00000000000E+00 0. -1.
</event>
<event>
 7    1  0.2794945E-009  0.1140993E+03  0.7561462E-02  0.1253161E+00
          2   -1    0    0  501    0  0.00000000000E+00  0.00000000000E+00  0.30923480184E+03  0.30923480184E+03  0.00000000000E+00 0. -1.
         -2   -1    0    0    0  501 -0.00000000000E+00 -0.00000000000E+00 -0.51978082297E+02  0.51978082297E+02  0.00000000000E+00 0.  1.
         25    2    1    2    0    0 -0.58291655883E+02  0.95319490863E+01  0.10030361543E+03  0.17086939030E+03  0.12508700202E+03 0.  0.
          5    1    3    3  502    0  0.36070814738E+02 -0.16925301876E+02  0.33072274979E+02  0.51950142365E+02  0.41800000000E+01 0.  1.
         -5    1    3    3    0  502 -0.94362470621E+02  0.26457250962E+02  0.67231340452E+02  0.11891924793E+03  0.41800000000E+01 0.  1.
        -11    1    1    2    0    0  0.54643296111E+02  0.21557878671E+02  0.14567145578E+03  0.15706942724E+03  0.00000000000E+00 0.  1.
         11    1    1    2    0    0  0.36483597719E+01 -0.31089827757E+02  0.11281648326E+02  0.33274066598E+02  0.00000000000E+00 0. -1.
</event>
<event>
 7    1  0.2794945E-009  0.1412182E+03  0.7561462E-02  0.1211699E+00
         -1   -1    0    0    0  501 -0.00000000000E+00  0.00000000000E+00  0.26659653153E+02  0.26659653153E+02  0.00000000000E+00 0.  1.
          1   -1    0    0  501    0  0.00000000000E+00 -0.00000000000E+00 -0.12681141255E+04  0.12681141255E+04  0.00000000000E+00 0. -1.
         25    2    1    2    0    0  0.78885968677E+02  0.87329224550E+02 -0.96382871294E+03  0.97901131984E+03  0.12509191410E+03 0.  0.
          5    1    3    3  502    0 -0.20308399182E+02  0.56705958367E+02 -0.50326802779E+03  0.50687688544E+03  0.41800000000E+01 0. -1.
         -5    1    3    3    0  502  0.99194367859E+02  0.30623266183E+02 -0.46056068515E+03  0.47213443440E+03  0.41800000000E+01 0. -1.
        -11    1    1    2    0    0 -0.43590176677E+02 -0.40341980561E+02 -0.41555803203E+02  0.72487679492E+02  0.00000000000E+00 0.  1.
         11    1    1    2    0    0 -0.35295792000E+02 -0.46987243989E+02 -0.23606995616E+03  0.24327477928E+03  0.00000000000E+00 0. -1.
</event>
<event>
 7    1  0.3285344E-009  0.1247917E+03  0.7561462E-02  0.1235395E+00
          1   -1    0    0  501    0  0.00000000000E+00  0.00000000000E+00  0.56996235239E+03  0.56996235239E+03  0.00000000000E+00 0. -1.
         -1   -1    0    0    0  501 -0.00000000000E+00 -0.00000000000E+00 -0.29144415605E+02  0.29144415605E+02  0.00000000000E+00 0.  1.
         25    2    1    2    0    0  0.69313643846E+02  0.25578267015E+01  0.28801733018E+03  0.32157792710E+03  0.12508979580E+03 0.  0.
          5    1    3    3  502    0  0.20717496490E+02  0.62350908688E+02  0.13606421213E+03  0.15115486330E+03  0.41800000000E+01 0.  1.
         -5    1    3    3    0  502  0.48596147357E+02 -0.59793081986E+02  0.15195311804E+03  0.17042306380E+03  0.41800000000E+01 0.  1.
        -11    1    1    2    0    0  0.13290945504E+02 -0.18174847748E+02  0.10596185498E+03  0.10832769283E+03  0.00000000000E+00 0. -1.
         11    1    1    2    0    0 -0.82604589350E+02  0.15617021047E+02  0.14683875162E+03  0.16920114806E+03  0.00000000000E+00 0.  1.
</event>
<event>
 7    1  0.2794945E-009  0.8716479E+02  0.7561462E-02  0.1309867E+00
         -1   -1    0    0    0  501 -0.00000000000E+00  0.00000000000E+00  0.12693218186E+02  0.12693218186E+02  0.00000000000E+00 0.  1.
          1   -1    0    0  501    0  0.00000000000E+00 -0.00000000000E+00 -0.10677646000E+04  0.10677646000E+04  0.00000000000E+00 0. -1.
         25    2    1    2    0    0 -0.20183315383E+02  0.16254351093E+02 -0.75325059584E+03  0.76400622524E+03  0.12508989535E+03 0.  0.
          5    1    3    3  502    0  0.24010489625E+02  0.27837628958E+02 -0.64964282092E+03  0.65069555429E+03  0.41800000000E+01 0. -1.
         -5    1    3    3    0  502 -0.44193805008E+02 -0.11583277864E+02 -0.10360777493E+03  0.11331067096E+03  0.41800000000E+01 0. -1.
        -11    1    1    2    0    0  0.55017054954E+02 -0.74050734371E+01 -0.13825411718E+03  0.14898292642E+03  0.00000000000E+00 0.  1.
         11    1    1    2    0    0 -0.34833739571E+02 -0.88492776562E+01 -0.16356666883E+03  0.16746866656E+03  0.00000000000E+00 0. -1.
</event>
<event>
 7    1  0.2794945E-009  0.1067981E+03  0.7561462E-02  0.1266617E+00
         -1   -1    0    0    0  501 -0.00000000000E+00  0.00000000000E+00  0.22708097894E+02  0.22708097894E+02  0.00000000000E+00 0.  1.
          1   -1    0    0  501    0  0.00000000000E+00 -0.00000000000E+00 -0.66164574576E+03  0.66164574576E+03  0.00000000000E+00 0. -1.
         25    2    1    2    0    0 -0.10763368813E+02  0.52564510906E+02 -0.30096997443E+03  0.33030927048E+03  0.12506962358E+03 0.  0.
          5    1    3    3  502    0  0.38666919243E+02  0.69340293142E+02 -0.21956603451E+03  0.23351642941E+03  0.41800000000E+01 0.  1.
         -5    1    3    3    0  502 -0.49430288056E+02 -0.16775782236E+02 -0.81403939919E+02  0.96792841064E+02  0.41800000000E+01 0.  1.
        -11    1    1    2    0    0 -0.13244872602E+02 -0.55936373688E+02 -0.31645119982E+03  0.32162970388E+03  0.00000000000E+00 0. -1.
         11    1    1    2    0    0  0.24008241415E+02  0.33718627821E+01 -0.21516473626E+02  0.32414869300E+02  0.00000000000E+00 0.  1.
</event>
<event>
 7    1  0.2794945E-009  0.1254649E+03  0.7561462E-02  0.1234344E+00
         -1   -1    0    0    0  501 -0.00000000000E+00  0.00000000000E+00  0.11076164501E+02  0.11076164501E+02  0.00000000000E+00 0.  1.
          1   -1    0    0  501    0  0.00000000000E+00 -0.00000000000E+00 -0.16452496598E+04  0.16452496598E+04  0.00000000000E+00 0. -1.
         25    2    1    2    0    0 -0.48456363879E+02  0.64152346684E+02 -0.10037162594E+04  0.10146705875E+04  0.12508608596E+03 0.  0.
          5    1    3    3  502    0  0.26512824193E+02  0.49675028495E+02 -0.66675980774E+03  0.66914621117E+03  0.41800000000E+01 0. -1.
         -5    1    3    3    0  502 -0.74969188072E+02  0.14477318190E+02 -0.33695645169E+03  0.34552437633E+03  0.41800000000E+01 0. -1.
        -11    1    1    2    0    0 -0.73736473945E+01  0.17553882711E+02 -0.70752082975E+02  0.73269138929E+02  0.00000000000E+00 0.  1.
         11    1    1    2    0    0  0.55830011274E+02 -0.81706229396E+02 -0.55970515292E+03  0.56838609790E+03  0.00000000000E+00 0. -1.
</event>
<event>
 7    1  0.2794945E-009  0.8845948E+02  0.7561462E-02  0.1306626E+00
          1   -1    0    0  501    0  0.00000000000E+00  0.00000000000E+00  0.23109751343E+02  0.23109751343E+02  0.00000000000E+00 0.  1.
         -1   -1    0    0    0  501 -0.00000000000E+00 -0.00000000000E+00 -0.71033183281E+03  0.71033183281E+03  0.00000000000E+00 0. -1.
         25    2    1    2    0    0 -0.32832405253E+02 -0.32602935463E+02 -0.52745490768E+03  0.54405567792E+03  0.12508790029E+03 0.  0.
          5    1    3    3  502    0  0.28434282630E+02  0.78821982674E+01 -0.35909956226E+03  0.36033401934E+03  0.41800000000E+01 0. -1.
         -5    1    3    3    0  502 -0.61266687884E+02 -0.40485133730E+02 -0.16835534542E+03  0.18372165857E+03  0.41800000000E+01 0. -1.
        -11    1    1    2    0    0  0.20118852909E+02  0.48910331825E+02 -0.36173058360E+02  0.64074011524E+02  0.00000000000E+00 0.  1.
         11    1    1    2    0    0  0.12713552344E+02 -0.16307396362E+02 -0.12359411542E+03  0.12531189471E+03  0.00000000000E+00 0. -1.
</event>
<event>
 7    1  0.2794945E-009  0.2627872E+03  0.7561462E-02  0.1105480E+00
         -2   -1    0    0    0  501 -0.00000000000E+00  0.00000000000E+00  0.12466347707E+03  0.12466347707E+03  0.00000000000E+00 0.  1.
          2   -1    0    0  501    0  0.00000000000E+00 -0.00000000000E+00 -0.82546529165E+03  0.82546529165E+03  0.00000000000E+00 0. -1.
         25    2    1    2    0    0 -0.23369569010E+03  0.86096675125E+02 -0.60950040264E+03  0.67019658262E+03  0.12508559266E+03 0.  0.
          5    1    3    3  502    0 -0.11721151050E+03 -0.19721108762E+02 -0.30591076912E+03  0.32821689686E+03  0.41800000000E+01 0.  1.
         -5    1    3    3    0  502 -0.11648417960E+03  0.10581778389E+03 -0.30358963352E+03  0.34197968575E+03  0.41800000000E+01 0.  1.
        -11    1    1    2    0    0  0.61965409061E+02 -0.18613363293E+02 -0.68150909565E+02  0.93971887752E+02  0.00000000000E+00 0. -1.
         11    1    1    2    0    0  0.17173028104E+03 -0.67483311832E+02 -0.23150502369E+02  0.18596029835E+03  0.00000000000E+00 0.  1.
</event>
<event>
 7    1  0.2794945E-009  0.2481472E+03  0.7561462E-02  0.1114481E+00
          3   -1    0    0  501    0  0.00000000000E+00  0.00000000000E+00  0.70666614023E+02  0.70666614023E+02  0.00000000000E+00 0. -1.
         -3   -1    0    0    0  501 -0.00000000000E+00 -0.00000000000E+00 -0.91841549349E+03  0.91841549349E+03  0.00000000000E+00 0.  1.
         25    2    1    2    0    0  0.88359345769E+01  0.22462849060E+03 -0.34210054079E+03  0.42803876014E+03  0.12509343567E+03 0.  0.
          5    1    3    3  502    0 -0.53970359499E+02  0.90269466799E+02 -0.17812851285E+03  0.20690243070E+03  0.41800000000E+01 0.  1.
         -5    1    3    3    0  502  0.62806294076E+02  0.13435902380E+03 -0.16397202794E+03  0.22113632944E+03  0.41800000000E+01 0.  1.
        -11    1    1    2    0    0 -0.40015685645E+02 -0.19694684725E+03 -0.43061247842E+03  0.47520145445E+03  0.00000000000E+00 0.  1.
         11    1    1    2    0    0  0.31179751068E+02 -0.27681643355E+02 -0.75035860261E+02  0.85841892923E+02  0.00000000000E+00 0. -1.
</event>
<event>
 7    1  0.2794945E-009  0.2525192E+03  0.7561462E-02  0.1111723E+00
         -1   -1    0    0    0  501 -0.00000000000E+00  0.00000000000E+00  0.93002395392E+03  0.93002395392E+03  0.00000000000E+00 0.  1.
          1   -1    0    0  501    0  0.00000000000E+00 -0.00000000000E+00 -0.85593961951E+02  0.85593961951E+02  0.00000000000E+00 0. -1.
         25    2    1    2    0    0 -0.21797050647E+03 -0.11211103273E+03  0.59136946110E+03  0.65226198128E+03  0.12509127610E+03 0.  0.
          5    1    3    3  502    0 -0.18576532007E+03 -0.10105449323E+03  0.57792636488E+03  0.61541621718E+03  0.41800000000E+01 0.  1.
         -5    1    3    3    0  502 -0.32205186397E+02 -0.11056539495E+02  0.13443096221E+02  0.36845764105E+02  0.41800000000E+01 0.  1.
        -11    1    1    2    0    0  0.57455666821E+02 -0.89771350053E+01  0.74005149316E+02  0.94119629877E+02  0.00000000000E+00 0.  1.
         11    1    1    2    0    0  0.16051483964E+03  0.12108816773E+03  0.17905538155E+03  0.26923630471E+03  0.00000000000E+00 0. -1.
</event>
<event>
 7    1  0.2794945E-009  0.1371484E+03  0.7561462E-02  0.1217218E+00
         -2   -1    0    0    0  501 -0.00000000000E+00  0.00000000000E+00  0.40412310862E+02  0.40412310862E+02  0.00000000000E+00 0.  1.
          2   -1    0    0  501    0  0.00000000000E+00 -0.00000000000E+00 -0.68835372113E+03  0.68835372113E+03  0.00000000000E+00 0. -1.
         25    2    1    2    0    0  0.10925183313E+03  0.27929841737E+02 -0.47659155376E+03  0.50547358792E+03  0.12509196564E+03 0.  0.
          5    1    3    3  502    0  0.59121386357E+02 -0.41373661559E+02 -0.13301515666E+03  0.15138567468E+03  0.41800000000E+01 0.  1.
         -5    1    3    3    0  502  0.50130446775E+02  0.69303503297E+02 -0.34357639710E+03  0.35408791324E+03  0.41800000000E+01 0.  1.
        -11    1    1    2    0    0 -0.60248405757E+02 -0.56070997085E+00 -0.22676927758E+02  0.64377230793E+02  0.00000000000E+00 0.  1.
         11    1    1    2    0    0 -0.49003427374E+02 -0.27369131767E+02 -0.14867292875E+03  0.15891521327E+03  0.00000000000E+00 0. -1.
</event>
<event>
 7    1  0.2794945E-009  0.1470360E+03  0.7561462E-02  0.1204163E+00
          3   -1    0    0  501    0  0.00000000000E+00  0.00000000000E+00  0.19205738190E+03  0.19205738190E+03  0.00000000000E+00 0. -1.
         -3   -1    0    0    0  501 -0.00000000000E+00 -0.00000000000E+00 -0.16714008139E+03  0.16714008139E+03  0.00000000000E+00 0.  1.
         25    2    1    2    0    0 -0.13364867008E+03  0.43602368054E+02  0.30035036391E+02  0.19055913632E+03  0.12509015753E+03 0.  0.
          5    1    3    3  502    0 -0.75860753173E+02  0.49215418213E+02  0.74557327186E+02  0.11727437358E+03  0.41800000000E+01 0. -1.
         -5    1    3    3    0  502 -0.57787916903E+02 -0.56130501592E+01 -0.44522290794E+02  0.73284762738E+02  0.41800000000E+01 0. -1.
        -11    1    1    2    0    0  0.99517407287E+02 -0.14666773391E+02  0.37006727153E+02  0.10718361092E+03  0.00000000000E+00 0. -1.
         11    1    1    2    0    0  0.34131262789E+02 -0.28935594663E+02 -0.42124463036E+02  0.61454716044E+02  0.00000000000E+00 0.  1.
</event>
<event>
 7    1  0.2794945E-009  0.1116424E+03  0.7561462E-02  0.1257558E+00
          4   -1    0    0  501    0  0.00000000000E+00  0.00000000000E+00  0.18819952528E+03  0.18819952528E+03  0.00000000000E+00 0. -1.
         -4   -1    0    0    0  501 -0.00000000000E+00 -0.00000000000E+00 -0.10897191545E+03  0.10897191545E+03  0.00000000000E+00 0.  1.
         25    2    1    2    0    0  0.81061644341E+02  0.32037722232E+02  0.71811725743E+02  0.16852954336E+03  0.12509147534E+03 0.  0.
          5    1    3    3  502    0  0.11101960526E+02 -0.78432308765E+01 -0.33206915141E+02  0.36123972806E+02  0.41800000000E+01 0. -1.
         -5    1    3    3    0  502  0.69959683814E+02  0.39880953108E+02  0.10501864088E+03  0.13240557055E+03  0.41800000000E+01 0. -1.
        -11    1    1    2    0    0 -0.73620699395E+02 -0.62806381983E+02  0.58308000014E+01  0.96946620497E+02  0.00000000000E+00 0.  1.
         11    1    1    2    0    0 -0.74409449460E+01  0.30768659751E+02  0.15850840891E+01  0.31695276874E+02  0.00000000000E+00 0. -1.
</event>
<event>
 7    1  0.2794945E-009  0.1409405E+03  0.7561462E-02  0.1212069E+00
         -2   -1    0    0    0  501 -0.00000000000E+00  0.00000000000E+00  0.38153819718E+02  0.38153819718E+02  0.00000000000E+00 0.  1.
          2   -1    0    0  501    0  0.00000000000E+00 -0.00000000000E+00 -0.71353228900E+03  0.71353228900E+03  0.00000000000E+00 0. -1.
         25    2    1    2    0    0  0.11866048066E+03  0.36309429330E+02 -0.34115967625E+03  0.38397327743E+03  0.12508744442E+03 0.  0.
          5    1    3    3  502    0  0.16175202682E+02  0.19969154893E+02  0.13408894870E+01  0.26070571792E+02  0.41800000000E+01 0.  1.
         -5    1    3    3    0  502  0.10248527798E+03  0.16340274437E+02 -0.34250056574E+03  0.35790270564E+03  0.41800000000E+01 0.  1.
        -11    1    1    2    0    0 -0.79404364389E+02  0.21352094577E+02 -0.15631285059E+03  0.17662013556E+03  0.00000000000E+00 0. -1.
         11    1    1    2    0    0 -0.39256116273E+02 -0.57661523908E+02 -0.17790594245E+03  0.19109269573E+03  0.00000000000E+00 0.  1.
</event>
<event>
 7    1  0.2794945E-009  0.2191954E+03  0.7561462E-02  0.1134484E+00
          1   -1    0    0  501    0  0.00000000000E+00  0.00000000000E+00  0.13055493702E+03  0.13055493702E+03  0.00000000000E+00 0. -1.
         -1   -1    0    0    0  501 -0.00000000000E+00 -0.00000000000E+00 -0.44492023006E+03  0.44492023006E+03  0.00000000000E+00 0.  1.
         25    2    1    2    0    0 -0.16430114303E+03  0.14042295362E+03 -0.17188829349E+03  0.30316129966E+03  0.12509083367E+03 0.  0.
          5    1    3    3  502    0 -0.30375409789E+02  0.67684677381E+01  0.17057230489E+02  0.35733726188E+02  0.41800000000E+01 0.  1.
         -5    1    3    3    0  502 -0.13392573324E+03  0.13365448589E+03 -0.18894552398E+03  0.26742757347E+03  0.41800000000E+01 0.  1.
        -11    1    1    2    0    0  0.58895949020E+02 -0.67407215519E+02 -0.13644146362E+02  0.90546276815E+02  0.00000000000E+00 0. -1.
         11    1    1    2    0    0  0.10540519401E+03 -0.73015738104E+02 -0.12883285319E+03  0.18176759061E+03  0.00000000000E+00 0.  1.
</event>
<event>
 7    1  0.2794945E-009  0.1288431E+03  0.7561462E-02  0.1229183E+00
         -1   -1    0    0    0  501 -0.00000000000E+00  0.00000000000E+00  0.65890801958E+02  0.65890801958E+02  0.00000000000E+00 0.  1.
          1   -1    0    0  501    0  0.00000000000E+00 -0.00000000000E+00 -0.31361769048E+03  0.31361769048E+03  0.00000000000E+00 0. -1.
         25    2    1    2    0    0 -0.42967412687E+02 -0.79198439057E+02 -0.10252585196E+03  0.18514231736E+03  0.12509011174E+03 0.  0.
          5    1    3    3  502    0 -0.44530158802E+02  0.23988639481E+02 -0.37330032811E+02  0.63003123865E+02  0.41800000000E+01 0.  1.
         -5    1    3    3    0  502  0.15627461144E+01 -0.10318707854E+03 -0.65195819146E+02  0.12213919349E+03  0.41800000000E+01 0.  1.
        -11    1    1    2    0    0 -0.10490108106E+02  0.26863043653E+02 -0.10610704585E+03  0.10995622157E+03  0.00000000000E+00 0. -1.
         11    1    1    2    0    0  0.53457520794E+02  0.52335395404E+02 -0.39093990708E+02  0.84409953507E+02  0.00000000000E+00 0.  1.
</event>
<event>
 7    1  0.2794945E-009  0.1003596E+03  0.7561462E-02  0.1279542E+00
         -2   -1    0    0    0  501 -0.00000000000E+00  0.00000000000E+00  0.12952280996E+03  0.12952280996E+03  0.00000000000E+00 0.  1.
          2   -1    0    0  501    0  0.00000000000E+00 -0.00000000000E+00 -0.10558244185E+03  0.10558244185E+03  0.00000000000E+00 0. -1.
         25    2    1    2    0    0 -0.28457014419E+02 -0.16111768605E+02  0.46965057396E+02  0.13753737471E+03  0.12506567102E+03 0.  0.
          5    1    3    3  502    0  0.17046664340E+02 -0.61769168134E+02  0.29208421356E+02  0.70545185344E+02  0.41800000000E+01 0. -1.
         -5    1    3    3    0  502 -0.45503678759E+02  0.45657399529E+02  0.17756636041E+02  0.66992189364E+02  0.41800000000E+01 0. -1.
        -11    1    1    2    0    0  0.43572584502E+02 -0.71618239637E+01  0.18292238670E+02  0.47796106936E+02  0.00000000000E+00 0.  1.
         11    1    1    2    0    0 -0.15115570084E+02  0.23273592569E+02 -0.41316927955E+02  0.49771770168E+02  0.00000000000E+00 0. -1.
</event>
<event>
 7    1  0.2794945E-009  0.9402384E+02  0.7561462E-02  0.1293390E+00
          1   -1    0    0  501    0  0.00000000000E+00  0.00000000000E+00  0.35472600853E+02  0.35472600853E+02  0.00000000000E+00 0. -1.
         -1   -1    0    0    0  501 -0.00000000000E+00 -0.00000000000E+00 -0.39749050030E+03  0.39749050030E+03  0.00000000000E+00 0.  1.
         25    2    1    2    0    0 -0.20366727440E+02  0.16802029525E+02 -0.29122138967E+03  0.31804771227E+03  0.12508931889E+03 0.  0.
          5    1    3    3  502    0  0.31182883973E+02 -0.28594306111E+02 -0.43020284235E+02  0.60483252645E+02  0.41800000000E+01 0. -1.
         -5    1    3    3    0  502 -0.51549611412E+02  0.45396335636E+02 -0.24820110543E+03  0.25756445963E+03  0.41800000000E+01 0. -1.
        -11    1    1    2    0    0 -0.18315773244E+02 -0.30587178900E+02 -0.64043981992E+02  0.73298531308E+02  0.00000000000E+00 0.  1.
         11    1    1    2    0    0  0.38682500684E+02  0.13785149375E+02 -0.67525277858E+01  0.41616857569E+02  0.00000000000E+00 0. -1.
</event>
<event>
 7    1  0.2794945E-009  0.1090743E+03  0.7561462E-02  0.1262294E+00
         -2   -1    0    0    0  501 -0.00000000000E+00  0.00000000000E+00  0.10118077592E+04  0.10118077592E+04  0.00000000000E+00 0.  1.
          2   -1    0    0  501    0  0.00000000000E+00 -0.00000000000E+00 -0.26518096609E+02  0.26518096609E+02  0.00000000000E+00 0. -1.
         25    2    1    2    0    0 -0.44704501498E+02 -0.66165205186E+02  0.81913522320E+03  0.83247059212E+03  0.12509374893E+03 0.  0.
          5    1    3    3  502    0  0.31812152921E+02 -0.49853975536E+02  0.51518801329E+03  0.51858807679E+03  0.41800000000E+01 0.  1.
         -5    1    3    3    0  502 -0.76516654419E+02 -0.16311229650E+02  0.30394720992E+03  0.31388251533E+03  0.41800000000E+01 0.  1.
        -11    1    1    2    0    0  0.27051657607E+02  0.48540215365E+02  0.17155648397E+03  0.18033183823E+03  0.00000000000E+00 0.  1.
         11    1    1    2    0    0  0.17652843892E+02  0.17624989821E+02 -0.54020445482E+01  0.25523425494E+02  0.00000000000E+00 0. -1.
</event>
<event>
 7    1  0.2794945E-009  0.1036438E+03  0.7561462E-02  0.1272815E+00
          1   -1    0    0  501    0  0.00000000000E+00  0.00000000000E+00  0.13733827091E+03  0.13733827091E+03  0.00000000000E+00 0. -1.
         -1   -1    0    0    0  501 -0.00000000000E+00 -0.00000000000E+00 -0.20410527887E+03  0.20410527887E+03  0.00000000000E+00 0.  1.
         25    2    1    2    0    0  0.22294573382E+01  0.59546654515E+02  0.78884000100E+02  0.15944015696E+03  0.12509078158E+03 0.  0.
          5    1    3    3  502    0 -0.44525341048E+02 -0.71491174985E+01 -0.96792074352E+00  0.45299284178E+02  0.41800000000E+01 0.  1.
         -5    1    3    3    0  502  0.46754798386E+02  0.66695772014E+02  0.79851920844E+02  0.11414087278E+03  0.41800000000E+01 0.  1.
        -11    1    1    2    0    0  0.25345330224E+02 -0.20289301201E+02 -0.12607652752E+03  0.13018960134E+03  0.00000000000E+00 0. -1.
         11    1    1    2    0    0 -0.27574787562E+02 -0.39257353314E+02 -0.19574480548E+02  0.51813791476E+02  0.00000000000E+00 0.  1.
</event>
<event>
 7    1  0.2794945E-009  0.8981481E+02  0.7561462E-02  0.1303301E+00
         -1   -1    0    0    0  501 -0.00000000000E+00  0.00000000000E+00  0.62399465383E+02  0.62399465383E+02  0.00000000000E+00 0.  1.
          1   -1    0    0  501    0  0.00000000000E+00 -0.00000000000E+00 -0.41527062378E+03  0.41527062378E+03  0.00000000000E+00 0. -1.
         25    2    1    2    0    0 -0.31847205374E+02 -0.29400898480E+02 -0.34096153938E+03  0.36577483055E+03  0.12513112325E+03 0.  0.
          5    1    3    3  502    0  0.22622752123E+01  0.45795785051E+02 -0.83347101379E+02  0.95218609136E+02  0.41800000000E+01 0. -1.
         -5    1    3    3    0  502 -0.34109480586E+02 -0.75196683531E+02 -0.25761443800E+03  0.27055622142E+03  0.41800000000E+01 0. -1.
        -11    1    1    2    0    0 -0.63298191894E+00  0.15612345202E+02 -0.54437113876E+02  0.56635195382E+02  0.00000000000E+00 0. -1.
         11    1    1    2    0    0  0.32480187293E+02  0.13788553278E+02  0.42527494865E+02  0.55260063224E+02  0.00000000000E+00 0.  1.
</event>
<event>
 7    1  0.2794945E-009  0.6708723E+02  0.7561462E-02  0.1370288E+00
          1   -1    0    0  501    0  0.00000000000E+00  0.00000000000E+00  0.98007077431E+02  0.98007077431E+02  0.00000000000E+00 0.  1.
         -1   -1    0    0    0  501 -0.00000000000E+00 -0.00000000000E+00 -0.14284392907E+03  0.14284392907E+03  0.00000000000E+00 0. -1.
         25    2    1    2    0    0  0.43232486585E+02  0.11175680495E+02  0.91517284009E+00  0.13282543959E+03  0.12509123122E+03 0.  0.
          5    1    3    3  502    0  0.26853416826E+02 -0.81731225524E+01  0.61109215949E+02  0.67377404235E+02  0.41800000000E+01 0. -1.
         -5    1    3    3    0  502  0.16379069758E+02  0.19348803047E+02 -0.60194043109E+02  0.65448035351E+02  0.41800000000E+01 0. -1.
        -11    1    1    2    0    0 -0.44974843212E+02  0.19755318133E+02 -0.56836232270E+02  0.75122342982E+02  0.00000000000E+00 0. -1.
         11    1    1    2    0    0  0.17423566271E+01 -0.30930998628E+02  0.11084207792E+02  0.32903223932E+02  0.00000000000E+00 0.  1.
</event>
<event>
 7    1  0.2794945E-009  0.3631673E+03  0.7561462E-02  0.1057337E+00
         -1   -1    0    0    0  501 -0.00000000000E+00  0.00000000000E+00  0.27635059443E+03  0.27635059443E+03  0.00000000000E+00 0.  1.
          1   -1    0    0  501    0  0.00000000000E+00 -0.00000000000E+00 -0.53581911601E+03  0.53581911601E+03  0.00000000000E+00 0. -1.
         25    2    1    2    0    0 -0.34266642898E+03  0.82138163075E+02 -0.15811632319E+02  0.37425020973E+03  0.12508498064E+03 0.  0.
          5    1    3    3  502    0 -0.19123806680E+03 -0.91595735708E+01  0.23863617344E+02  0.19298404238E+03  0.41800000000E+01 0. -1.
         -5    1    3    3    0  502 -0.15142836219E+03  0.91297736646E+02 -0.39675249663E+02  0.18126616735E+03  0.41800000000E+01 0. -1.
        -11    1    1    2    0    0  0.32474445462E+03 -0.61306419527E+02 -0.24339681930E+03  0.41043811900E+03  0.00000000000E+00 0. -1.
         11    1    1    2    0    0  0.17921974361E+02 -0.20831743548E+02 -0.26006996805E+00  0.27481381709E+02  0.00000000000E+00 0.  1.
</event>
<event>
 7    1  0.2794945E-009  0.1457931E+03  0.7561462E-02  0.1205740E+00
          1   -1    0    0  501    0  0.00000000000E+00  0.00000000000E+00  0.56772922808E+02  0.56772922808E+02  0.00000000000E+00 0. -1.
         -1   -1    0    0    0  501 -0.00000000000E+00 -0.00000000000E+00 -0.41301089354E+03  0.41301089354E+03  0.00000000000E+00 0.  1.
         25    2    1    2    0    0  0.67220106921E+02  0.78428869291E+02 -0.14756643305E+03  0.21929993919E+03  0.12508789251E+03 0.  0.
          5    1    3    3  502    0  0.97686507637E+02  0.83710724611E+02 -0.10277922103E+03  0.16471545120E+03  0.41800000000E+01 0. -1.
         -5    1    3    3    0  502 -0.30466400716E+02 -0.52818553199E+01 -0.44787212018E+02  0.54584487984E+02  0.41800000000E+01 0. -1.
        -11    1    1    2    0    0  0.15764639283E+02  0.22563483886E+01 -0.59957628624E+02  0.62036539152E+02  0.00000000000E+00 0.  1.
         11    1    1    2    0    0 -0.82984746204E+02 -0.80685217679E+02 -0.14871390906E+03  0.18844733801E+03  0.00000000000E+00 0. -1.
</event>
<event>
 7    1  0.2794945E-009  0.1249937E+03  0.7561462E-02  0.1235079E+00
          2   -1    0    0  501    0  0.00000000000E+00  0.00000000000E+00  0.38477016797E+03  0.38477016797E+03  0.00000000000E+00 0.  1.
         -2   -1    0    0    0  501 -0.00000000000E+00 -0.00000000000E+00 -0.42182784880E+02  0.42182784880E+02  0.00000000000E+00 0. -1.
         25    2    1    2    0    0 -0.64254671878E+02 -0.21520868325E+01  0.22590490132E+03  0.26610704687E+03  0.12508653651E+03 0.  0.
          5    1    3    3  502    0  0.23601879526E+02 -0.37486154792E+02  0.55718260052E+02  0.71303979002E+02  0.41800000000E+01 0. -1.
         -5    1    3    3    0  502 -0.87856551405E+02  0.35334067959E+02  0.17018664127E+03  0.19480306787E+03  0.41800000000E+01 0. -1.
        -11    1    1    2    0    0  0.28025580313E+02 -0.43916934044E+02  0.55609478445E+02  0.76200684647E+02  0.00000000000E+00 0.  1.
         11    1    1    2    0    0  0.36229091565E+02  0.46069020877E+02  0.61073003324E+02  0.84645221337E+02  0.00000000000E+00 0. -1.
</event>
<event>
 7    1  0.2794945E-009  0.7303031E+02  0.7561462E-02  0.1350081E+00
          2   -1    0    0  501    0  0.00000000000E+00  0.00000000000E+00  0.37145762445E+02  0.37145762445E+02  0.00000000000E+00 0. -1.
         -2   -1    0    0    0  501 -0.00000000000E+00 -0.00000000000E+00 -0.28298927334E+03  0.28298927334E+03  0.00000000000E+00 0.  1.
         25    2    1    2    0    0  0.65236020840E+01  0.10273788113E+02 -0.15524810547E+03  0.19974635590E+03  0.12509406196E+03 0.  0.
          5    1    3    3  502    0 -0.22054882736E+02 -0.17748494347E+02  0.95018835089E+01  0.30152696302E+02  0.41800000000E+01 0. -1.
         -5    1    3    3    0  502  0.28578484820E+02  0.28022282460E+02 -0.16474998898E+03  0.16959365960E+03  0.41800000000E+01 0. -1.
        -11    1    1    2    0    0 -0.39615290957E+02  0.64292609578E+01 -0.60696562846E+02  0.72765234936E+02  0.00000000000E+00 0.  1.
         11    1    1    2    0    0  0.33091688873E+02 -0.16703049071E+02 -0.29898842583E+02  0.47623444946E+02  0.00000000000E+00 0. -1.
</event>
<event>
 7    1  0.2794945E-009  0.1596659E+03  0.7561462E-02  0.1189075E+00
          3   -1    0    0  501    0  0.00000000000E+00  0.00000000000E+00  0.60197275569E+03  0.60197275569E+03  0.00000000000E+00 0. -1.
         -3   -1    0    0    0  501 -0.00000000000E+00 -0.00000000000E+00 -0.61452749307E+02  0.61452749307E+02  0.00000000000E+00 0.  1.
         25    2    1    2    0    0  0.90006992328E+02  0.11140456346E+03  0.17034620483E+03  0.25529703386E+03  0.12508601270E+03 0.  0.
          5    1    3    3  502    0  0.49169743509E+02  0.25699729743E+02 -0.49932548632E+01  0.55861836523E+02  0.41800000000E+01 0.  1.
         -5    1    3    3    0  502  0.40837248820E+02  0.85704833715E+02  0.17533945969E+03  0.19943519734E+03  0.41800000000E+01 0.  1.
        -11    1    1    2    0    0  0.13327881034E+02 -0.42306120739E+02  0.65855881329E+02  0.79400487218E+02  0.00000000000E+00 0.  1.
         11    1    1    2    0    0 -0.10333487336E+03 -0.69098442719E+02  0.30431792022E+03  0.32872798391E+03  0.00000000000E+00 0. -1.
</event>
<event>
 7    1  0.2794945E-009  0.1495645E+03  0.7561462E-02  0.1201009E+00
         -1   -1    0    0    0  501 -0.00000000000E+00  0.00000000000E+00  0.71733271206E+02  0.71733271206E+02  0.00000000000E+00 0.  1.
          1   -1    0    0  501    0  0.00000000000E+00 -0.00000000000E+00 -0.44950615740E+03  0.44950615740E+03  0.00000000000E+00 0. -1.
         25    2    1    2    0    0  0.56645505377E+02 -0.10437784951E+03 -0.84372307638E+02  0.19201600868E+03  0.12509201631E+03 0.  0.
          5    1    3    3  502    0  0.77072718659E+02 -0.11388879022E+03 -0.94553256096E+02  0.16693906415E+03  0.41800000000E+01 0. -1.
         -5    1    3    3    0  502 -0.20427213282E+02  0.95109407089E+01  0.10180948458E+02  0.25076944533E+02  0.41800000000E+01 0. -1.
        -11    1    1    2    0    0  0.57309960718E+01  0.64155851429E+02 -0.19884911155E+03  0.20902101988E+03  0.00000000000E+00 0. -1.
         11    1    1    2    0    0 -0.62376501449E+02  0.40221998086E+02 -0.94551467009E+02  0.12020240004E+03  0.00000000000E+00 0.  1.
</event>
<event>
 7    1  0.2794945E-009  0.1130755E+03  0.7561462E-02  0.1254978E+00
         -4   -1    0    0    0  501 -0.00000000000E+00  0.00000000000E+00  0.48503347155E+02  0.48503347155E+02  0.00000000000E+00 0.  1.
          4   -1    0    0  501    0  0.00000000000E+00 -0.00000000000E+00 -0.46022314983E+03  0.46022314983E+03  0.00000000000E+00 0. -1.
         25    2    1    2    0    0 -0.79798575421E+02 -0.95474932939E+01 -0.11600559692E+03  0.18855388355E+03  0.12504519670E+03 0.  0.
          5    1    3    3  502    0 -0.26183450710E+02 -0.61144383793E+02 -0.25609557744E+02  0.71396992993E+02  0.41800000000E+01 0.  1.
         -5    1    3    3    0  502 -0.53615124711E+02  0.51596890499E+02 -0.90396039173E+02  0.11715689056E+03  0.41800000000E+01 0.  1.
        -11    1    1    2    0    0  0.63314027396E+02 -0.42846609941E+01 -0.29139439521E+03  0.29822427457E+03  0.00000000000E+00 0. -1.
         11    1    1    2    0    0  0.16484548026E+02  0.13832154288E+02 -0.43198105539E+01  0.21948338868E+02  0.00000000000E+00 0.  1.
</event>
<event>
 7    1  0.2794945E-009  0.8730530E+02  0.7561462E-02  0.1309512E+00
         -2   -1    0    0    0  501 -0.00000000000E+00  0.00000000000E+00  0.31810956108E+02  0.31810956108E+02  0.00000000000E+00 0.  1.
          2   -1    0    0  501    0  0.00000000000E+00 -0.00000000000E+00 -0.41919144781E+03  0.41919144781E+03  0.00000000000E+00 0. -1.
         25    2    1    2    0    0 -0.20582118740E+02  0.29610515353E+02 -0.27696842595E+03  0.30603588420E+03  0.12508416052E+03 0.  0.
          5    1    3    3  502    0 -0.34561286019E+02  0.53298298968E+02 -0.26993439080E+03  0.27733957327E+03  0.41800000000E+01 0.  1.
         -5    1    3    3    0  502  0.13979167279E+02 -0.23687783616E+02 -0.70340351480E+01  0.28696310929E+02  0.41800000000E+01 0.  1.
        -11    1    1    2    0    0  0.39391797243E+02 -0.44287159674E+02 -0.10488938071E+03  0.12047758458E+03  0.00000000000E+00 0. -1.
         11    1    1    2    0    0 -0.18809678504E+02  0.14676644322E+02 -0.55226850452E+01  0.24488935135E+02  0.00000000000E+00 0.  1.
</event>
<event>
 7    1  0.2794945E-009  0.1072819E+03  0.7561462E-02  0.1265688E+00
         -1   -1    0    0    0  501 -0.00000000000E+00  0.00000000000E+00  0.33152153259E+03  0.33152153259E+03  0.00000000000E+00 0.  1.
          1   -1    0    0  501    0  0.00000000000E+00 -0.00000000000E+00 -0.59964728234E+02  0.59964728234E+02  0.00000000000E+00 0. -1.
         25    2    1    2    0    0 -0.11455506914E+02 -0.60579414864E+02  0.23545514040E+03  0.27367412524E+03  0.12512917142E+03 0.  0.
          5    1    3    3  502    0 -0.38119391412E+02 -0.85998468686E+02  0.12073527375E+03  0.15311206140E+03  0.41800000000E+01 0. -1.
         -5    1    3    3    0  502  0.26663884498E+02  0.25419053822E+02  0.11471986665E+03  0.12056206384E+03  0.41800000000E+01 0. -1.
        -11    1    1    2    0    0  0.55639905651E+01 -0.10564603089E+02 -0.22487081701E+02  0.25460512031E+02  0.00000000000E+00 0. -1.
         11    1    1    2    0    0  0.58915163489E+01  0.71144017953E+02  0.58588745657E+02  0.92351623554E+02  0.00000000000E+00 0.  1.
</event>
<event>
 7    1  0.2794945E-009  0.1855646E+03  0.7561462E-02  0.1162524E+00
          1   -1    0    0  501    0  0.00000000000E+00  0.00000000000E+00  0.10970246696E+03  0.10970246696E+03  0.00000000000E+00 0. -1.
         -1   -1    0    0    0  501 -0.00000000000E+00 -0.00000000000E+00 -0.60287749111E+03  0.60287749111E+03  0.00000000000E+00 0.  1.
         25    2    1    2    0    0  0.87012737910E+02 -0.14108621394E+03 -0.48017497610E+03  0.52315194810E+03  0.12507364550E+03 0.  0.
          5    1    3    3  502    0  0.86583120995E+02 -0.44304480657E+02 -0.33314818258E+03  0.34708026133E+03  0.41800000000E+01 0. -1.
         -5    1    3    3    0  502  0.42961691474E+00 -0.96781733281E+02 -0.14702679353E+03  0.17607168677E+03  0.41800000000E+01 0. -1.
        -11    1    1    2    0    0 -0.69114506940E+02  0.53205900393E+02 -0.39730754766E+02  0.95844748320E+02  0.00000000000E+00 0.  1.
         11    1    1    2    0    0 -0.17898230970E+02  0.87880313544E+02  0.26730706725E+02  0.93583261657E+02  0.00000000000E+00 0. -1.
</event>
<event>
 7    1  0.2794945E-009  0.1138498E+03  0.7561462E-02  0.1253602E+00
         -2   -1    0    0    0  501 -0.00000000000E+00  0.00000000000E+00  0.91212571631E+02  0.91212571631E+02  0.00000000000E+00 0.  1.
          2   -1    0    0  501    0  0.00000000000E+00 -0.00000000000E+00 -0.27115103759E+03  0.27115103759E+03  0.00000000000E+00 0. -1.
         25    2    1    2    0    0 -0.27615810228E+02  0.85933328823E+02 -0.17437510138E+03  0.23281102820E+03  0.12508848426E+03 0.  0.
          5    1    3    3  502    0 -0.52847290318E+02  0.79253076263E+02 -0.54021253248E+02  0.10958856872E+03  0.41800000000E+01 0. -1.
         -5    1    3    3    0  502  0.25231480090E+02  0.66802525598E+01 -0.12035384813E+03  0.12322245949E+03  0.41800000000E+01 0. -1.
        -11    1    1    2    0    0  0.42630551543E+02 -0.78111880915E+02 -0.34976793593E+02  0.95614883543E+02  0.00000000000E+00 0. -1.
         11    1    1    2    0    0 -0.15014741315E+02 -0.78214479072E+01  0.29413429008E+02  0.33937697479E+02  0.00000000000E+00 0.  1.
</event>
<event>
 7    1  0.2794945E-009  0.1187271E+03  0.7561462E-02  0.1245212E+00
          3   -1    0    0  501    0  0.00000000000E+00  0.00000000000E+00  0.76221710640E+03  0.76221710640E+03  0.00000000000E+00 0.  1.
         -3   -1    0    0    0  501 -0.00000000000E+00 -0.00000000000E+00 -0.23489467387E+02  0.23489467387E+02  0.00000000000E+00 0. -1.
         25    2    1    2    0    0 -0.33466174427E+02  0.72673151698E+02  0.40472551042E+03  0.43110898990E+03  0.12510335958E+03 0.  0.
          5    1    3    3  502    0  0.96581963590E+01  0.84846252956E+02  0.34981978798E+03  0.36011598667E+03  0.41800000000E+01 0.  1.
         -5    1    3    3    0  502 -0.43124370786E+02 -0.12173101258E+02  0.54905722446E+02  0.70993003227E+02  0.41800000000E+01 0.  1.
        -11    1    1    2    0    0  0.89513099748E+01 -0.80671830691E+02  0.30577784522E+03  0.31636712984E+03  0.00000000000E+00 0.  1.
         11    1    1    2    0    0  0.24514864452E+02  0.79986789930E+01  0.28224283373E+02  0.38230454048E+02  0.00000000000E+00 0. -1.
</event>
<event>
 7    1  0.2794945E-009  0.1072017E+03  0.7561462E-02  0.1265841E+00
          1   -1    0    0  501    0  0.00000000000E+00  0.00000000000E+00  0.82427965306E+02  0.82427965306E+02  0.00000000000E+00 0. -1.
         -1   -1    0    0    0  501 -0.00000000000E+00 -0.00000000000E+00 -0.24013257767E+03  0.24013257767E+03  0.00000000000E+00 0.  1.
         25    2    1    2    0    0  0.78154130221E+01 -0.42238873968E+02  0.35632260793E+01  0.13230747705E+03  0.12508944299E+03 0.  0.
          5    1    3    3  502    0 -0.55164805134E+02 -0.12579895359E+02  0.20870669817E+02  0.60452185662E+02  0.41800000000E+01 0.  1.
         -5    1    3    3    0  502  0.62980218156E+02 -0.29658978609E+02 -0.17307443738E+02  0.71855291384E+02  0.41800000000E+01 0.  1.
        -11    1    1    2    0    0 -0.42305854999E+02  0.27245906907E+02 -0.13582569618E+03  0.14484731462E+03  0.00000000000E+00 0.  1.
         11    1    1    2    0    0  0.34490441977E+02  0.14992967062E+02 -0.25442142264E+02  0.45405751310E+02  0.00000000000E+00 0. -1.
</event>
<event>
 7    1  0.2794945E-009  0.1625448E+03  0.7561462E-02  0.1185853E+00
         -3   -1    0    0    0  501 -0.00000000000E+00  0.00000000000E+00  0.25546324728E+02  0.25546324728E+02  0.00000000000E+00 0.  1.
          3   -1    0    0  501    0  0.00000000000E+00 -0.00000000000E+00 -0.24311619099E+04  0.24311619099E+04  0.00000000000E+00 0. -1.
         25    2    1    2    0    0 -0.38426024641E+02  0.12676402076E+03 -0.21346942142E+04  0.21424548601E+04  0.12509101824E+03 0.  0.
          5    1    3    3  502    0 -0.15490334642E+01 -0.17968814202E+02 -0.71518666418E+02  0.73876043713E+02  0.41800000000E+01 0.  1.
         -5    1    3    3    0  502 -0.36876991177E+02  0.14473283496E+03 -0.20631755478E+04  0.20685788164E+04  0.41800000000E+01 0.  1.
        -11    1    1    2    0    0  0.12908216622E+02  0.11057414153E+02 -0.16016915024E+02  0.23354443496E+02  0.00000000000E+00 0.  1.
         11    1    1    2    0    0  0.25517808019E+02 -0.13782143492E+03 -0.25490445596E+03  0.29089893110E+03  0.00000000000E+00 0. -1.
</event>
<event>
 7    1  0.2794945E-009  0.3631369E+03  0.7561462E-02  0.1057349E+00
          2   -1    0    0  501    0  0.00000000000E+00  0.00000000000E+00  0.16991787876E+04  0.16991787876E+04  0.00000000000E+00 0. -1.
         -2   -1    0    0    0  501 -0.00000000000E+00 -0.00000000000E+00 -0.97291082701E+02  0.97291082701E+02  0.00000000000E+00 0.  1.
         25    2    1    2    0    0  0.26651037855E+03  0.23272279238E+03  0.44517791614E+03  0.58225459010E+03  0.12509736490E+03 0.  0.
          5    1    3    3  502    0  0.25105965971E+03  0.18378513063E+03  0.42548796909E+03  0.52712940651E+03  0.41800000000E+01 0.  1.
         -5    1    3    3    0  502  0.15450718836E+02  0.48937661751E+02  0.19689947052E+02  0.55125183583E+02  0.41800000000E+01 0.  1.
        -11    1    1    2    0    0 -0.10449219360E+03 -0.14689860351E+03  0.67919216179E+03  0.70270890906E+03  0.00000000000E+00 0.  1.
         11    1    1    2    0    0 -0.16201818495E+03 -0.85824188864E+02  0.47751762694E+03  0.51150637111E+03  0.00000000000E+00 0. -1.
</event>
<event>
 7    1  0.2794945E-009  0.6624228E+02  0.7561462E-02  0.1373359E+00
         -1   -1    0    0    0  501 -0.00000000000E+00  0.00000000000E+00  0.47593865469E+02  0.47593865469E+02  0.00000000000E+00 0.  1.
          1   -1    0    0  501    0  0.00000000000E+00 -0.00000000000E+00 -0.26117555012E+03  0.26117555012E+03  0.00000000000E+00 0. -1.
         25    2    1    2    0    0  0.20256243870E+02 -0.71688139159E+01 -0.12097075360E+03  0.17533952372E+03  0.12509323740E+03 0.  0.
          5    1    3    3  502    0 -0.37237814324E+01 -0.10530690532E+02  0.24796578757E+02  0.27515535781E+02  0.41800000000E+01 0. -1.
         -5    1    3    3    0  502  0.23980025302E+02  0.33618766161E+01 -0.14576733236E+03  0.14782398794E+03  0.41800000000E+01 0. -1.
        -11    1    1    2    0    0  0.37544500460E+02  0.69621491592E+01 -0.34357674720E+02  0.51366436979E+02  0.00000000000E+00 0. -1.
         11    1    1    2    0    0 -0.57800744330E+02  0.20666475669E+00 -0.58253256333E+02  0.82063454892E+02  0.00000000000E+00 0.  1.
</event>
<event>
 7    1  0.2794945E-009  0.1087276E+03  0.7561462E-02  0.1262945E+00
         -1   -1    0    0    0  501 -0.00000000000E+00  0.00000000000E+00  0.11619578271E+03  0.11619578271E+03  0.00000000000E+00 0.  1.
          1   -1    0    0  501    0  0.00000000000E+00 -0.00000000000E+00 -0.11069485377E+03  0.11069485377E+03  0.00000000000E+00 0. -1.
         25    2    1    2    0    0 -0.28246064683E+02 -0.17824430701E+02 -0.10629200673E+01  0.12948449075E+03  0.12509817363E+03 0.  0.
          5    1    3    3  502    0 -0.26110948090E+02 -0.68972553375E+02  0.15578654162E+02  0.75492791674E+02  0.41800000000E+01 0. -1.
         -5    1    3    3    0  502 -0.21351165923E+01  0.51148122674E+02 -0.16641574229E+02  0.53991699072E+02  0.41800000000E+01 0. -1.
        -11    1    1    2    0    0  0.23776846195E+02 -0.33293050484E+02  0.18221571310E+02  0.44786061298E+02  0.00000000000E+00 0.  1.
         11    1    1    2    0    0  0.44692184877E+01  0.51117481186E+02 -0.11657722304E+02  0.52620084435E+02  0.00000000000E+00 0. -1.
</event>
<event>
 7    1  0.2794945E-009  0.3623201E+03  0.7561462E-02  0.1057669E+00
         -1   -1    0    0    0  501 -0.00000000000E+00  0.00000000000E+00  0.86627651178E+02  0.86627651178E+02  0.00000000000E+00 0.  1.
          1   -1    0    0  501    0  0.00000000000E+00 -0.00000000000E+00 -0.19291923180E+04  0.19291923180E+04  0.00000000000E+00 0. -1.
         25    2    1    2    0    0 -0.55080144349E+02 -0.34291969620E+03 -0.47236961175E+03  0.59950809788E+03  0.12509663857E+03 0.  0.
          5    1    3    3  502    0  0.10975795442E+02 -0.26946446740E+03 -0.35995976658E+03  0.44980003695E+03  0.41800000000E+01 0. -1.
         -5    1    3    3    0  502 -0.66055939791E+02 -0.73455228794E+02 -0.11240984517E+03  0.14970806094E+03  0.41800000000E+01 0. -1.
        -11    1    1    2    0    0  0.45702354011E+02  0.74099926021E+02 -0.41073342946E+03  0.41985885041E+03  0.00000000000E+00 0.  1.
         11    1    1    2    0    0  0.93777903375E+01  0.26881977018E+03 -0.95946162557E+03  0.99645302083E+03  0.00000000000E+00 0. -1.
</event>
<event>
 7    1  0.3135154E-009  0.1555194E+03  0.7561462E-02  0.1193850E+00
         -1   -1    0    0    0  501 -0.00000000000E+00  0.00000000000E+00  0.24919069360E+02  0.24919069360E+02  0.00000000000E+00 0.  1.
          1   -1    0    0  501    0  0.00000000000E+00 -0.00000000000E+00 -0.10971329975E+04  0.10971329975E+04  0.00000000000E+00 0. -1.
         25    2    1    2    0    0  0.16924305477E+02 -0.11418434367E+03 -0.73059949977E+03  0.75016575497E+03  0.12509410219E+03 0.  0.
          5    1    3    3  502    0  0.51661884538E+02 -0.82091374781E+01 -0.33657495048E+03  0.34064132155E+03  0.41800000000E+01 0. -1.
         -5    1    3    3    0  502 -0.34737579061E+02 -0.10597520619E+03 -0.39402454929E+03  0.40952443342E+03  0.41800000000E+01 0. -1.
        -11    1    1    2    0    0 -0.50164668634E+02  0.35246089115E+02 -0.14412918629E+03  0.15662695527E+03  0.00000000000E+00 0.  1.
         11    1    1    2    0    0  0.33240363158E+02  0.78938254553E+02 -0.19748524208E+03  0.21525935662E+03  0.00000000000E+00 0. -1.
</event>
<event>
 7    1  0.2794945E-009  0.1469387E+03  0.7561462E-02  0.1204286E+00
          2   -1    0    0  501    0  0.00000000000E+00  0.00000000000E+00  0.27491480120E+03  0.27491480120E+03  0.00000000000E+00 0. -1.
         -2   -1    0    0    0  501 -0.00000000000E+00 -0.00000000000E+00 -0.11703718327E+03  0.11703718327E+03  0.00000000000E+00 0.  1.
         25    2    1    2    0    0 -0.64115618985E+02  0.82585674526E+02 -0.23787501759E+02  0.16473644725E+03  0.12506416584E+03 0.  0.
          5    1    3    3  502    0 -0.54636748079E+01  0.10069699311E+03 -0.21328160269E+02  0.10316054955E+03  0.41800000000E+01 0. -1.
         -5    1    3    3    0  502 -0.58651944178E+02 -0.18111318583E+02 -0.24593414902E+01  0.61575897697E+02  0.41800000000E+01 0. -1.
        -11    1    1    2    0    0  0.80211839197E+02 -0.82854500301E+02  0.17545635481E+03  0.20996128169E+03  0.00000000000E+00 0. -1.
         11    1    1    2    0    0 -0.16096220212E+02  0.26882577486E+00  0.62087648883E+01  0.17254255529E+02  0.00000000000E+00 0.  1.
</event>
<event>
 7    1  0.2794945E-009  0.1839778E+03  0.7561462E-02  0.1164008E+00
          2   -1    0    0  501    0  0.00000000000E+00  0.00000000000E+00  0.61326571966E+03  0.61326571966E+03  0.00000000000E+00 0. -1.
         -2   -1    0    0    0  501 -0.00000000000E+00 -0.00000000000E+00 -0.10064263161E+03  0.10064263161E+03  0.00000000000E+00 0.  1.
         25    2    1    2    0    0  0.80862131309E+02  0.51968515965E+02  0.25468063199E+03  0.29958011583E+03  0.12508641235E+03 0.  0.
          5    1    3    3  502    0  0.79978765534E+02  0.51844649972E+01  0.23556527483E+03  0.24886131222E+03  0.41800000000E+01 0.  1.
         -5    1    3    3    0  502  0.88336577566E+00  0.46784050967E+02  0.19115357168E+02  0.50718803610E+02  0.41800000000E+01 0.  1.
        -11    1    1    2    0    0 -0.59243391548E+02 -0.13897168744E+03  0.28338533844E+03  0.32113884753E+03  0.00000000000E+00 0. -1.
         11    1    1    2    0    0 -0.21618739761E+02  0.87003171478E+02 -0.25442882375E+02  0.93189387913E+02  0.00000000000E+00 0.  1.
</event>
<event>
 7    1  0.2794945E-009  0.7865263E+02  0.7561462E-02  0.1332919E+00
          1   -1    0    0  501    0  0.00000000000E+00  0.00000000000E+00  0.12715312731E+03  0.12715312731E+03  0.00000000000E+00 0. -1.
         -1   -1    0    0    0  501 -0.00000000000E+00 -0.00000000000E+00 -0.10485410944E+03  0.10485410944E+03  0.00000000000E+00 0.  1.
         25    2    1    2    0    0 -0.15572092096E+02 -0.28016205340E+02  0.30864268865E+02  0.13277124525E+03  0.12509277620E+03 0.  0.
          5    1    3    3  502    0 -0.21067422160E+02 -0.40473305605E+02 -0.39796715680E+02  0.60689173021E+02  0.41800000000E+01 0. -1.
         -5    1    3    3    0  502  0.54953300635E+01  0.12457100266E+02  0.70660984544E+02  0.72082072225E+02  0.41800000000E+01 0. -1.
        -11    1    1    2    0    0 -0.34940532149E+02  0.30906643765E+02  0.48296958555E+01  0.46897626568E+02  0.00000000000E+00 0.  1.
         11    1    1    2    0    0  0.50512624245E+02 -0.28904384255E+01 -0.13394946853E+02  0.52338364931E+02  0.00000000000E+00 0. -1.
</event>
<event>
 7    1  0.2794945E-009  0.7370610E+02  0.7561462E-02  0.1347925E+00
          1   -1    0    0  501    0  0.00000000000E+00  0.00000000000E+00  0.14564698661E+03  0.14564698661E+03  0.00000000000E+00 0. -1.
         -1   -1    0    0    0  501 -0.00000000000E+00 -0.00000000000E+00 -0.10073376526E+03  0.10073376526E+03  0.00000000000E+00 0.  1.
         25    2    1    2    0    0  0.82200838240E+01 -0.53957413215E+02  0.99325255010E+00  0.13648308929E+03  0.12509066669E+03 0.  0.
          5    1    3    3  502    0 -0.31387496698E+02 -0.37246409015E+02 -0.49816034941E+02  0.69796702435E+02  0.41800000000E+01 0. -1.
         -5    1    3    3    0  502  0.39607580522E+02 -0.16711004200E+02  0.50809287491E+02  0.66686386853E+02  0.41800000000E+01 0. -1.
        -11    1    1    2    0    0 -0.98742858643E+01  0.36965517538E+02 -0.20393246021E+02  0.43357069683E+02  0.00000000000E+00 0.  1.
         11    1    1    2    0    0  0.16542020403E+01  0.16991895677E+02  0.64313214819E+02  0.66540592900E+02  0.00000000000E+00 0. -1.
</event>
<event>
 7    1  0.2794945E-009  0.1266638E+03  0.7561462E-02  0.1232492E+00
         -1   -1    0    0    0  501 -0.00000000000E+00  0.00000000000E+00  0.18451887776E+03  0.18451887776E+03  0.00000000000E+00 0.  1.
          1   -1    0    0  501    0  0.00000000000E+00 -0.00000000000E+00 -0.10142558271E+03  0.10142558271E+03  0.00000000000E+00 0. -1.
         25    2    1    2    0    0  0.81348166731E+02 -0.34026757452E+01  0.26318566146E+02  0.15156068624E+03  0.12509545259E+03 0.  0.
          5    1    3    3  502    0  0.50409969523E+02 -0.57508170858E+02  0.41732624604E+02  0.87220634594E+02  0.41800000000E+01 0.  1.
         -5    1    3    3    0  502  0.30938197208E+02  0.54105495113E+02 -0.15414058458E+02  0.64340051648E+02  0.41800000000E+01 0.  1.
        -11    1    1    2    0    0 -0.54812212228E+02  0.40861506488E+02  0.56157074092E+02  0.88474054346E+02  0.00000000000E+00 0.  1.
         11    1    1    2    0    0 -0.26535954503E+02 -0.37458830743E+02  0.61765481876E+00  0.45909719881E+02  0.00000000000E+00 0. -1.
</event>
<event>
 7    1  0.2794945E-009  0.1128255E+03  0.7561462E-02  0.1255425E+00
         -1   -1    0    0    0  501 -0.00000000000E+00  0.00000000000E+00  0.16836400994E+03  0.16836400994E+03  0.00000000000E+00 0.  1.
          1   -1    0    0  501    0  0.00000000000E+00 -0.00000000000E+00 -0.13729327014E+03  0.13729327014E+03  0.00000000000E+00 0. -1.
         25    2    1    2    0    0  0.54759400703E+02  0.62271708050E+02 -0.61969096862E+02  0.16237263012E+03  0.12509334297E+03 0.  0.
          5    1    3    3  502    0 -0.27237924484E+02  0.53449243218E+02 -0.17312095031E+01  0.60159750807E+02  0.41800000000E+01 0. -1.
         -5    1    3    3    0  502  0.81997325187E+02  0.88224648324E+01 -0.60237887359E+02  0.10221287931E+03  0.41800000000E+01 0. -1.
        -11    1    1    2    0    0 -0.29054791442E+02 -0.34265040407E+02  0.23923749299E+01  0.44988858150E+02  0.00000000000E+00 0. -1.
         11    1    1    2    0    0 -0.25704609261E+02 -0.28006667643E+02  0.90647461732E+02  0.98295791813E+02  0.00000000000E+00 0.  1.
</event>
<event>
 7    1  0.2794945E-009  0.1012181E+03  0.7561462E-02  0.1277755E+00
          2   -1    0    0  501    0  0.00000000000E+00  0.00000000000E+00  0.23589087901E+03  0.23589087901E+03  0.00000000000E+00 0. -1.
         -2   -1    0    0    0  501 -0.00000000000E+00 -0.00000000000E+00 -0.72740733263E+02  0.72740733263E+02  0.00000000000E+00 0.  1.
         25    2    1    2    0    0 -0.40001938689E+02 -0.33003303717E+02  0.15304799404E+03  0.20435320975E+03  0.12508865936E+03 0.  0.
          5    1    3    3  502    0 -0.51616605465E+02 -0.53973682287E+02  0.32811801908E+02  0.81679367553E+02  0.41800000000E+01 0.  1.
         -5    1    3    3    0  502  0.11614666775E+02  0.20970378570E+02  0.12023619213E+03  0.12267384220E+03  0.41800000000E+01 0.  1.
        -11    1    1    2    0    0 -0.24480335579E+02 -0.92952854326E+01  0.69687935526E+01  0.27097107685E+02  0.00000000000E+00 0.  1.
         11    1    1    2    0    0  0.64482274268E+02  0.42298589150E+02  0.31333581536E+01  0.77181294834E+02  0.00000000000E+00 0. -1.
</event>
<event>
 7    1  0.2794945E-009  0.2353305E+03  0.7561462E-02  0.1122943E+00
         -2   -1    0    0    0  501 -0.00000000000E+00  0.00000000000E+00  0.39493071496E+03  0.39493071496E+03  0.00000000000E+00 0. -1.
          2   -1    0    0  501    0  0.00000000000E+00 -0.00000000000E+00 -0.14448925274E+03  0.14448925274E+03  0.00000000000E+00 0.  1.
         25    2    1    2    0    0  0.18177330422E+03  0.11031006030E+03  0.14452999912E+03  0.28591332658E+03  0.12509063170E+03 0.  0.
          5    1    3    3  502    0  0.16826970330E+03  0.13424868800E+03  0.14218390486E+03  0.25801383389E+03  0.41800000000E+01 0.  1.
         -5    1    3    3    0  502  0.13503600928E+02 -0.23938627699E+02  0.23460942591E+01  0.27899492691E+02  0.41800000000E+01 0.  1.
        -11    1    1    2    0    0 -0.30751529371E+02 -0.61644997129E+02  0.50590049946E+02  0.85469967727E+02  0.00000000000E+00 0.  1.
         11    1    1    2    0    0 -0.15102177485E+03 -0.48665063171E+02  0.55321413158E+02  0.16803667340E+03  0.00000000000E+00 0. -1.
</event>
<event>
 7    1  0.2794945E-009  0.1030626E+03  0.7561462E-02  0.1273984E+00
          2   -1    0    0  501    0  0.00000000000E+00  0.00000000000E+00  0.38503131214E+02  0.38503131214E+02  0.00000000000E+00 0. -1.
         -2   -1    0    0    0  501 -0.00000000000E+00 -0.00000000000E+00 -0.31610452714E+03  0.31610452714E+03  0.00000000000E+00 0.  1.
         25    2    1    2    0    0 -0.16865363522E+02 -0.20042993276E+02 -0.14989775661E+03  0.19700401276E+03  0.12512026831E+03 0.  0.
          5    1    3    3  502    0 -0.53560231077E+02  0.21789885401E+02 -0.31183617838E+02  0.65828473173E+02  0.41800000000E+01 0. -1.
         -5    1    3    3    0  502  0.36694867555E+02 -0.41832878678E+02 -0.11871413877E+03  0.13117553959E+03  0.41800000000E+01 0. -1.
        -11    1    1    2    0    0 -0.43940673656E+00  0.54123991700E+02 -0.76163019048E+02  0.93436636425E+02  0.00000000000E+00 0.  1.
         11    1    1    2    0    0  0.17304770258E+02 -0.34080998424E+02 -0.51540620272E+02  0.64167009166E+02  0.00000000000E+00 0. -1.
</event>
<event>
 7    1  0.2794945E-009  0.1498827E+03  0.7561462E-02  0.1200617E+00
         -1   -1    0    0    0  501 -0.00000000000E+00  0.00000000000E+00  0.79570263142E+02  0.79570263142E+02  0.00000000000E+00 0.  1.
          1   -1    0    0  501    0  0.00000000000E+00 -0.00000000000E+00 -0.37854911349E+03  0.37854911349E+03  0.00000000000E+00 0. -1.
         25    2    1    2    0    0 -0.92494087468E+02  0.57946342861E+02 -0.26442185521E+03  0.31221577175E+03  0.12508731249E+03 0.  0.
          5    1    3    3  502    0 -0.26572220397E+02  0.88798079644E+02 -0.15769728907E+03  0.18296745401E+03  0.41800000000E+01 0. -1.
         -5    1    3    3    0  502 -0.65921867071E+02 -0.30851736784E+02 -0.10672456614E+03  0.12924831774E+03  0.41800000000E+01 0. -1.
        -11    1    1    2    0    0  0.52316820490E+02 -0.74157076160E+02 -0.45059202197E+02  0.10132449533E+03  0.00000000000E+00 0.  1.
         11    1    1    2    0    0  0.40177266979E+02  0.16210733299E+02  0.10502207059E+02  0.44579109559E+02  0.00000000000E+00 0. -1.
</event>
<event>
 7    1  0.2794945E-009  0.9894882E+02  0.7561462E-02  0.1282522E+00
         -4   -1    0    0    0  501 -0.00000000000E+00  0.00000000000E+00  0.29686302724E+03  0.29686302724E+03  0.00000000000E+00 0.  1.
          4   -1    0    0  501    0  0.00000000000E+00 -0.00000000000E+00 -0.46572135203E+02  0.46572135203E+02  0.00000000000E+00 0. -1.
         25    2    1    2    0    0 -0.11481801531E+02 -0.10656698920E+01  0.75068783006E+02  0.14634321809E+03  0.12509215755E+03 0.  0.
          5    1    3    3  502    0  0.34760045134E+02  0.35118437312E+02  0.71966236319E+02  0.87396664392E+02  0.41800000000E+01 0.  1.
         -5    1    3    3    0  502 -0.46241846666E+02 -0.36184107204E+02  0.31025466872E+01  0.58946553700E+02  0.41800000000E+01 0.  1.
        -11    1    1    2    0    0 -0.26878033087E+02  0.30822534491E+02  0.93222197929E+02  0.10179801315E+03  0.00000000000E+00 0.  1.
         11    1    1    2    0    0  0.38359834618E+02 -0.29756864599E+02  0.81999911105E+02  0.95293931202E+02  0.00000000000E+00 0. -1.
</event>
<event>
 7    1  0.2794945E-009  0.1256894E+03  0.7561462E-02  0.1233996E+00
          2   -1    0    0  501    0  0.00000000000E+00  0.00000000000E+00  0.29509368413E+03  0.29509368413E+03  0.00000000000E+00 0. -1.
         -2   -1    0    0    0  501 -0.00000000000E+00 -0.00000000000E+00 -0.72953252315E+02  0.72953252315E+02  0.00000000000E+00 0.  1.
         25    2    1    2    0    0 -0.56953991707E+02  0.66231767287E+02  0.17528517921E+03  0.23238398002E+03  0.12508803280E+03 0.  0.
          5    1    3    3  502    0 -0.44828620342E+02 -0.19221559959E+02  0.16591623172E+02  0.51689727495E+02  0.41800000000E+01 0. -1.
         -5    1    3    3    0  502 -0.12125371365E+02  0.85453327246E+02  0.15869355603E+03  0.18069425252E+03  0.41800000000E+01 0. -1.
        -11    1    1    2    0    0  0.26515971011E+02  0.14154867617E+02  0.39156152095E+02  0.49362548990E+02  0.00000000000E+00 0. -1.
         11    1    1    2    0    0  0.30438020696E+02 -0.80386634905E+02  0.76991005143E+01  0.86300407437E+02  0.00000000000E+00 0.  1.
</event>
<event>
 7    1  0.2794945E-009  0.1183660E+03  0.7561462E-02  0.1245817E+00
          2   -1    0    0  501    0  0.00000000000E+00  0.00000000000E+00  0.20519017317E+03  0.20519017317E+03  0.00000000000E+00 0. -1.
         -2   -1    0    0    0  501 -0.00000000000E+00 -0.00000000000E+00 -0.85654666437E+02  0.85654666437E+02  0.00000000000E+00 0.  1.
         25    2    1    2    0    0 -0.28449160789E+02 -0.65185456331E+02  0.37540162989E+02  0.14871309860E+03  0.12509126025E+03 0.  0.
          5    1    3    3  502    0 -0.14017614028E+02  0.29179160565E+02 -0.18918463006E+02  0.37726616027E+02  0.41800000000E+01 0. -1.
         -5    1    3    3    0  502 -0.14431546761E+02 -0.94364616896E+02  0.56458625996E+02  0.11098648257E+03  0.41800000000E+01 0. -1.
        -11    1    1    2    0    0  0.23376692948E+02  0.84963302364E+02  0.83838048517E+02  0.12163079750E+03  0.00000000000E+00 0.  1.
         11    1    1    2    0    0  0.50724678410E+01 -0.19777846034E+02 -0.18427047770E+01  0.20500943506E+02  0.00000000000E+00 0. -1.
</event>
<event>
 7    1  0.2794945E-009  0.2463556E+03  0.7561462E-02  0.1115630E+00
         -2   -1    0    0    0  501 -0.00000000000E+00  0.00000000000E+00  0.16383166122E+03  0.16383166122E+03  0.00000000000E+00 0.  1.
          2   -1    0    0  501    0  0.00000000000E+00 -0.00000000000E+00 -0.44044976160E+03  0.44044976160E+03  0.00000000000E+00 0. -1.
         25    2    1    2    0    0 -0.22214528991E+03 -0.84788282696E+02 -0.20780068544E+03  0.33965452498E+03  0.12508592550E+03 0.  0.
          5    1    3    3  502    0 -0.17979447470E+03 -0.43866112572E+02 -0.85620368455E+02  0.20395737020E+03  0.41800000000E+01 0. -1.
         -5    1    3    3    0  502 -0.42350815210E+02 -0.40922170124E+02 -0.12218031699E+03  0.13569715478E+03  0.41800000000E+01 0. -1.
        -11    1    1    2    0    0  0.95840244730E+02 -0.10451427507E+01  0.29551215037E+01  0.95891488550E+02  0.00000000000E+00 0.  1.
         11    1    1    2    0    0  0.12630504518E+03  0.85833425447E+02 -0.71772536442E+02  0.16873540929E+03  0.00000000000E+00 0. -1.
</event>
<event>
 7    1  0.2794945E-009  0.1025100E+03  0.7561462E-02  0.1275105E+00
         -1   -1    0    0    0  501 -0.00000000000E+00  0.00000000000E+00  0.16084502696E+03  0.16084502696E+03  0.00000000000E+00 0.  1.
          1   -1    0    0  501    0  0.00000000000E+00 -0.00000000000E+00 -0.98762958294E+02  0.98762958294E+02  0.00000000000E+00 0. -1.
         25    2    1    2    0    0  0.39270845224E+02  0.35726312128E+02 -0.53946570401E+01  0.13599551596E+03  0.12508840624E+03 0.  0.
          5    1    3    3  502    0 -0.34820125909E+02 -0.16770296715E+02 -0.20342509366E+02  0.43874526864E+02  0.41800000000E+01 0. -1.
         -5    1    3    3    0  502  0.74090971133E+02  0.52496608844E+02  0.14947852326E+02  0.92120989099E+02  0.41800000000E+01 0. -1.
        -11    1    1    2    0    0 -0.40257941208E+02 -0.75915302367E+00  0.77403553052E+02  0.87250147098E+02  0.00000000000E+00 0.  1.
         11    1    1    2    0    0  0.98709598445E+00 -0.34967159105E+02 -0.99268273434E+01  0.36362322195E+02  0.00000000000E+00 0. -1.
</event>
<event>
 7    1  0.2794945E-009  0.1871258E+03  0.7561462E-02  0.1161080E+00
         -2   -1    0    0    0  501 -0.00000000000E+00  0.00000000000E+00  0.36089929449E+02  0.36089929449E+02  0.00000000000E+00 0.  1.
          2   -1    0    0  501    0  0.00000000000E+00 -0.00000000000E+00 -0.11511198733E+04  0.11511198733E+04  0.00000000000E+00 0. -1.
         25    2    1    2    0    0 -0.48864864837E+02  0.15983671060E+03 -0.71317299423E+03  0.74310058071E+03  0.12508878558E+03 0.  0.
          5    1    3    3  502    0 -0.77808454268E+02  0.85262494016E+02 -0.54118044436E+03  0.55336931086E+03  0.41800000000E+01 0.  1.
         -5    1    3    3    0  502  0.28943589431E+02  0.74574216584E+02 -0.17199254987E+03  0.18973126985E+03  0.41800000000E+01 0.  1.
        -11    1    1    2    0    0  0.56321621708E+02 -0.76618929643E+02 -0.13996285799E+03  0.16921048156E+03  0.00000000000E+00 0.  1.
         11    1    1    2    0    0 -0.74567568710E+01 -0.83217780957E+02 -0.26189409164E+03  0.27489874050E+03  0.00000000000E+00 0. -1.
</event>
<event>
 7    1  0.2794945E-009  0.1092400E+03  0.7561462E-02  0.1261984E+00
         -2   -1    0    0    0  501 -0.00000000000E+00  0.00000000000E+00  0.82446417270E+02  0.82446417270E+02  0.00000000000E+00 0.  1.
          2   -1    0    0  501    0  0.00000000000E+00 -0.00000000000E+00 -0.16204978848E+03  0.16204978848E+03  0.00000000000E+00 0. -1.
         25    2    1    2    0    0  0.32725027426E+02  0.22089354275E+02 -0.30144890597E+02  0.13459137370E+03  0.12508899413E+03 0.  0.
          5    1    3    3  502    0  0.37522923350E+02  0.65973784445E+02 -0.44378601854E+02  0.88019558697E+02  0.41800000000E+01 0. -1.
         -5    1    3    3    0  502 -0.47978959241E+01 -0.43884430170E+02  0.14233711256E+02  0.46571815004E+02  0.41800000000E+01 0. -1.
        -11    1    1    2    0    0  0.30723794880E+02  0.62886217205E+00 -0.14369801574E+02  0.33924006791E+02  0.00000000000E+00 0. -1.
         11    1    1    2    0    0 -0.63448822306E+02 -0.22718216447E+02 -0.35088679040E+02  0.75980825261E+02  0.00000000000E+00 0.  1.
</event>
<event>
 7    1  0.2794945E-009  0.1405683E+03  0.7561462E-02  0.1212566E+00
         -2   -1    0    0    0  501 -0.00000000000E+00  0.00000000000E+00  0.77607533931E+02  0.77607533931E+02  0.00000000000E+00 0.  1.
          2   -1    0    0  501    0  0.00000000000E+00 -0.00000000000E+00 -0.29980246406E+03  0.29980246406E+03  0.00000000000E+00 0. -1.
         25    2    1    2    0    0  0.75829426276E+02 -0.57048300086E+02 -0.62473154439E+02  0.16898254774E+03  0.12509035128E+03 0.  0.
          5    1    3    3  502    0 -0.47524028588E+01 -0.70469438767E+02 -0.91594264115E+01  0.71343497428E+02  0.41800000000E+01 0.  1.
         -5    1    3    3    0  502  0.80581829134E+02  0.13421138680E+02 -0.53313728028E+02  0.97639050315E+02  0.41800000000E+01 0.  1.
        -11    1    1    2    0    0 -0.94811488330E+02  0.39420350949E+02 -0.14766087664E+03  0.17985248644E+03  0.00000000000E+00 0. -1.
         11    1    1    2    0    0  0.18982062054E+02  0.17627949137E+02 -0.12060899043E+02  0.28574963803E+02  0.00000000000E+00 0.  1.
</event>
<event>
 7    1  0.2794945E-009  0.1310229E+03  0.7561462E-02  0.1225946E+00
         -2   -1    0    0    0  501 -0.00000000000E+00  0.00000000000E+00  0.67155330902E+02  0.67155330902E+02  0.00000000000E+00 0.  1.
          2   -1    0    0  501    0  0.00000000000E+00 -0.00000000000E+00 -0.35878038775E+03  0.35878038775E+03  0.00000000000E+00 0. -1.
         25    2    1    2    0    0  0.49385362947E+02 -0.88271562595E+02 -0.94149132828E+02  0.18639511986E+03  0.12509315992E+03 0.  0.
          5    1    3    3  502    0 -0.42078998230E+01 -0.69222807652E+02  0.74589942308E+01  0.69875693307E+02  0.41800000000E+01 0.  1.
         -5    1    3    3    0  502  0.53593262770E+02 -0.19048754943E+02 -0.10160812706E+03  0.11651942655E+03  0.41800000000E+01 0.  1.
        -11    1    1    2    0    0 -0.31882319077E+02  0.10596061971E+03 -0.16358340216E+03  0.19749345473E+03  0.00000000000E+00 0.  1.
         11    1    1    2    0    0 -0.17503043871E+02 -0.17689057111E+02 -0.33892521862E+02  0.42047144069E+02  0.00000000000E+00 0. -1.
</event>
<event>
 7    1  0.3763025E-009  0.1347981E+03  0.7561462E-02  0.1220505E+00
         -2   -1    0    0    0  501 -0.00000000000E+00  0.00000000000E+00  0.93542278625E+02  0.93542278625E+02  0.00000000000E+00 0.  1.
          2   -1    0    0  501    0  0.00000000000E+00 -0.00000000000E+00 -0.23571103641E+03  0.23571103641E+03  0.00000000000E+00 0. -1.
         25    2    1    2    0    0 -0.10037378114E+03 -0.59480086021E+01 -0.65991315015E+02  0.17352947981E+03  0.12508937589E+03 0.  0.
          5    1    3    3  502    0 -0.12928286058E+03 -0.61802635040E+01 -0.63454558443E+02  0.14420890085E+03  0.41800000000E+01 0. -1.
         -5    1    3    3    0  502  0.28909079444E+02  0.23225490195E+00 -0.25367565724E+01  0.29320578960E+02  0.41800000000E+01 0. -1.
        -11    1    1    2    0    0  0.72954789787E+02 -0.17256066417E+02 -0.39667983748E+01  0.75072689245E+02  0.00000000000E+00 0.  1.
         11    1    1    2    0    0  0.27418991350E+02  0.23204075019E+02 -0.72210644393E+02  0.80651145979E+02  0.00000000000E+00 0. -1.
</event>
<event>
 7    1  0.3368740E-009  0.1874176E+03  0.7561462E-02  0.1160811E+00
          2   -1    0    0  501    0  0.00000000000E+00  0.00000000000E+00  0.24652644261E+03  0.24652644261E+03  0.00000000000E+00 0. -1.
         -2   -1    0    0    0  501 -0.00000000000E+00 -0.00000000000E+00 -0.16008823948E+03  0.16008823948E+03  0.00000000000E+00 0.  1.
         25    2    1    2    0    0  0.15786378022E+03  0.50386818234E+02  0.50759202981E+02  0.21373732506E+03  0.12508933959E+03 0.  0.
          5    1    3    3  502    0  0.60304089527E+02  0.80799556958E+02  0.32385576539E+01  0.10096094430E+03  0.41800000000E+01 0.  1.
         -5    1    3    3    0  502  0.97559690697E+02 -0.30412738725E+02  0.47520645327E+02  0.11277638076E+03  0.41800000000E+01 0.  1.
        -11    1    1    2    0    0 -0.93586894790E+02 -0.52561324217E+02 -0.18333938894E+02  0.10889138164E+03  0.00000000000E+00 0.  1.
         11    1    1    2    0    0 -0.64276885434E+02  0.21745059836E+01  0.54012939045E+02  0.83985975386E+02  0.00000000000E+00 0. -1.
</event>
<event>
 7    1  0.2794945E-009  0.1229442E+03  0.7561462E-02  0.1238318E+00
         -2   -1    0    0    0  501 -0.00000000000E+00  0.00000000000E+00  0.22794301272E+02  0.22794301272E+02  0.00000000000E+00 0. -1.
          2   -1    0    0  501    0  0.00000000000E+00 -0.00000000000E+00 -0.74730261440E+03  0.74730261440E+03  0.00000000000E+00 0.  1.
         25    2    1    2    0    0  0.15836872891E+02 -0.57759985349E+02 -0.28121558979E+03  0.31355539612E+03  0.12509099107E+03 0.  0.
          5    1    3    3  502    0 -0.39156484199E+02  0.18600406984E+02 -0.10661178317E+03  0.11516401394E+03  0.41800000000E+01 0.  1.
         -5    1    3    3    0  502  0.54993357090E+02 -0.76360392332E+02 -0.17460380661E+03  0.19839138218E+03  0.41800000000E+01 0.  1.
        -11    1    1    2    0    0  0.38624675813E+01 -0.23864353963E+02 -0.75080297141E+02  0.78876340336E+02  0.00000000000E+00 0. -1.
         11    1    1    2    0    0 -0.19699340472E+02  0.81624339312E+02 -0.36821242620E+03  0.37766517922E+03  0.00000000000E+00 0.  1.
</event>
<event>
 7    1  0.2794945E-009  0.9050597E+02  0.7561462E-02  0.1301631E+00
         -2   -1    0    0    0  501 -0.00000000000E+00  0.00000000000E+00  0.56153630253E+02  0.56153630253E+02  0.00000000000E+00 0.  1.
          2   -1    0    0  501    0  0.00000000000E+00 -0.00000000000E+00 -0.21379981324E+03  0.21379981324E+03  0.00000000000E+00 0. -1.
         25    2    1    2    0    0  0.80910239139E+01  0.15423706500E+02 -0.11599447332E+03  0.17147980000E+03  0.12508896264E+03 0.  0.
          5    1    3    3  502    0  0.48135076490E+02  0.21337620577E+02 -0.11948322759E+03  0.13063687732E+03  0.41800000000E+01 0. -1.
         -5    1    3    3    0  502 -0.40044052577E+02 -0.59139140770E+01  0.34887542654E+01  0.40842922677E+02  0.41800000000E+01 0. -1.
        -11    1    1    2    0    0  0.22857061025E+02  0.26752679546E+02 -0.26377980961E+02  0.43976686791E+02  0.00000000000E+00 0. -1.
         11    1    1    2    0    0 -0.30948084939E+02 -0.42176386046E+02 -0.15273728697E+02  0.54496956700E+02  0.00000000000E+00 0.  1.
</event>
<event>
 7    1  0.2794945E-009  0.6163193E+02  0.7561462E-02  0.1391108E+00
          3   -1    0    0  501    0  0.00000000000E+00  0.00000000000E+00  0.53428977669E+02  0.53428977669E+02  0.00000000000E+00 0. -1.
         -3   -1    0    0    0  501 -0.00000000000E+00 -0.00000000000E+00 -0.23453812585E+03  0.23453812585E+03  0.00000000000E+00 0.  1.
         25    2    1    2    0    0 -0.14217902509E+01 -0.24369113432E+02 -0.12652750348E+03  0.17959166999E+03  0.12509230038E+03 0.  0.
          5    1    3    3  502    0  0.13935382709E+01 -0.38577270061E+02  0.11693722930E+02  0.40550749318E+02  0.41800000000E+01 0.  1.
         -5    1    3    3    0  502 -0.28153285218E+01  0.14208156629E+02 -0.13822122641E+03  0.13904092067E+03  0.41800000000E+01 0.  1.
        -11    1    1    2    0    0  0.94286639314E+01 -0.21142553792E+02 -0.57588342074E+02  0.62067096172E+02  0.00000000000E+00 0.  1.
         11    1    1    2    0    0 -0.80068736805E+01  0.45511667224E+02  0.30066973787E+01  0.46308337357E+02  0.00000000000E+00 0. -1.
</event>
<event>
 7    1  0.2794945E-009  0.1646874E+03  0.7561462E-02  0.1183504E+00
          2   -1    0    0  501    0  0.00000000000E+00  0.00000000000E+00  0.48451090804E+03  0.48451090804E+03  0.00000000000E+00 0. -1.
         -2   -1    0    0    0  501 -0.00000000000E+00 -0.00000000000E+00 -0.86628145634E+02  0.86628145634E+02  0.00000000000E+00 0.  1.
         25    2    1    2    0    0 -0.14803260835E+03 -0.29937668665E+02  0.32401691702E+03  0.37874009560E+03  0.12508868995E+03 0.  0.
          5    1    3    3  502    0 -0.23853368272E+02 -0.85892894542E+01  0.20086337601E+03  0.20250019085E+03  0.41800000000E+01 0.  1.
         -5    1    3    3    0  502 -0.12417924008E+03 -0.21348379211E+02  0.12315354102E+03  0.17623990475E+03  0.41800000000E+01 0.  1.
        -11    1    1    2    0    0  0.85012854014E+02  0.63592984101E+02  0.46274887858E+02  0.11581285862E+03  0.00000000000E+00 0. -1.
         11    1    1    2    0    0  0.63019754339E+02 -0.33655315436E+02  0.27590957528E+02  0.76586099465E+02  0.00000000000E+00 0.  1.
</event>
<event>
 7    1  0.2794945E-009  0.1080653E+03  0.7561462E-02  0.1264195E+00
          2   -1    0    0  501    0  0.00000000000E+00  0.00000000000E+00  0.78283257827E+02  0.78283257827E+02  0.00000000000E+00 0. -1.
         -2   -1    0    0    0  501 -0.00000000000E+00 -0.00000000000E+00 -0.25474016856E+03  0.25474016856E+03  0.00000000000E+00 0.  1.
         25    2    1    2    0    0  0.57700118788E+02 -0.65940662583E+01 -0.14270018519E+02  0.13864391579E+03  0.12508283870E+03 0.  0.
          5    1    3    3  502    0 -0.16624137146E+02 -0.32342070706E+02  0.30847609824E+02  0.47868767534E+02  0.41800000000E+01 0.  1.
         -5    1    3    3    0  502  0.74324255934E+02  0.25748004447E+02 -0.45117628342E+02  0.90775148254E+02  0.41800000000E+01 0.  1.
        -11    1    1    2    0    0 -0.55737128915E+02  0.39169083580E+02 -0.13753109949E+03  0.15347849353E+03  0.00000000000E+00 0.  1.
         11    1    1    2    0    0 -0.19629898734E+01 -0.32575017322E+02 -0.24655792723E+02  0.40901017072E+02  0.00000000000E+00 0. -1.
</event>
<event>
 7    1  0.2794945E-009  0.2520369E+03  0.7561462E-02  0.1112024E+00
         -1   -1    0    0    0  501 -0.00000000000E+00  0.00000000000E+00  0.63473591275E+02  0.63473591275E+02  0.00000000000E+00 0.  1.
          1   -1    0    0  501    0  0.00000000000E+00 -0.00000000000E+00 -0.11755305359E+04  0.11755305359E+04  0.00000000000E+00 0. -1.
         25    2    1    2    0    0 -0.12820451782E+03 -0.21557419749E+03 -0.54810037443E+03  0.61560495710E+03  0.12508720851E+03 0.  0.
          5    1    3    3  502    0 -0.86227789640E+02 -0.16121311040E+03 -0.49792566738E+03  0.53044541784E+03  0.41800000000E+01 0. -1.
         -5    1    3    3    0  502 -0.41976728183E+02 -0.54361087089E+02 -0.50174707053E+02  0.85159539256E+02  0.41800000000E+01 0. -1.
        -11    1    1    2    0    0  0.84032317201E+02  0.11395560326E+03 -0.40966470445E+03  0.43344259126E+03  0.00000000000E+00 0.  1.
         11    1    1    2    0    0  0.44172200622E+02  0.10161859423E+03 -0.15429186573E+03  0.18995657880E+03  0.00000000000E+00 0. -1.
</event>
<event>
 7    1  0.2794945E-009  0.1012651E+03  0.7561462E-02  0.1277658E+00
         -1   -1    0    0    0  501 -0.00000000000E+00  0.00000000000E+00  0.71047805618E+02  0.71047805618E+02  0.00000000000E+00 0.  1.
          1   -1    0    0  501    0  0.00000000000E+00 -0.00000000000E+00 -0.27658933413E+03  0.27658933413E+03  0.00000000000E+00 0. -1.
         25    2    1    2    0    0 -0.78410542655E+02 -0.30520966484E+02 -0.10898975655E+03  0.18602708717E+03  0.12509023756E+03 0.  0.
          5    1    3    3  502    0 -0.43390745146E+02 -0.43840940726E+02 -0.12921561775E+03  0.14324431269E+03  0.41800000000E+01 0. -1.
         -5    1    3    3    0  502 -0.35019797509E+02  0.13319974241E+02  0.20225861193E+02  0.42782774482E+02  0.41800000000E+01 0. -1.
        -11    1    1    2    0    0  0.87353966580E+02  0.20799060457E+02 -0.11050933043E+03  0.14239251562E+03  0.00000000000E+00 0. -1.
         11    1    1    2    0    0 -0.89434239247E+01  0.97219060270E+01  0.13957558469E+02  0.19217536957E+02  0.00000000000E+00 0.  1.
</event>
<event>
 7    1  0.2794945E-009  0.1198651E+03  0.7561462E-02  0.1243320E+00
         -2   -1    0    0    0  501 -0.00000000000E+00  0.00000000000E+00  0.78936215411E+02  0.78936215411E+02  0.00000000000E+00 0.  1.
          2   -1    0    0  501    0  0.00000000000E+00 -0.00000000000E+00 -0.22216886647E+03  0.22216886647E+03  0.00000000000E+00 0. -1.
         25    2    1    2    0    0  0.39299469488E+02  0.47504625101E+02 -0.28420274574E+02  0.14230743320E+03  0.12507020361E+03 0.  0.
          5    1    3    3  502    0 -0.39487349707E+02  0.21648815667E+01  0.13664992678E+02  0.42049279708E+02  0.41800000000E+01 0.  1.
         -5    1    3    3    0  502  0.78786819196E+02  0.45339743534E+02 -0.42085267252E+02  0.10025815350E+03  0.41800000000E+01 0.  1.
        -11    1    1    2    0    0  0.38749978526E+01  0.24610983630E+02 -0.18927673218E+02  0.31288543223E+02  0.00000000000E+00 0. -1.
         11    1    1    2    0    0 -0.43174467341E+02 -0.72115608731E+02 -0.95884703264E+02  0.12750910545E+03  0.00000000000E+00 0.  1.
</event>
<event>
 7    1  0.2794945E-009  0.7573756E+02  0.7561462E-02  0.1341602E+00
         -2   -1    0    0    0  501 -0.00000000000E+00  0.00000000000E+00  0.10100734096E+03  0.10100734096E+03  0.00000000000E+00 0.  1.
          2   -1    0    0  501    0  0.00000000000E+00 -0.00000000000E+00 -0.14765858843E+03  0.14765858843E+03  0.00000000000E+00 0. -1.
         25    2    1    2    0    0  0.42686654234E+02 -0.10129609825E+02  0.10987360077E+02  0.13301415285E+03  0.12508910157E+03 0.  0.
          5    1    3    3  502    0  0.60501758259E+02 -0.20054774658E+02 -0.41754720121E+02  0.76312422261E+02  0.41800000000E+01 0. -1.
         -5    1    3    3    0  502 -0.17815104025E+02  0.99251648337E+01  0.52742080197E+02  0.56701730590E+02  0.41800000000E+01 0. -1.
        -11    1    1    2    0    0 -0.43767307011E+02  0.25978300287E+02 -0.75939536704E+02  0.91418064318E+02  0.00000000000E+00 0. -1.
         11    1    1    2    0    0  0.10806527774E+01 -0.15848690462E+02  0.18300929156E+02  0.24233712216E+02  0.00000000000E+00 0.  1.
</event>
<event>
 7    1  0.2794945E-009  0.2131555E+03  0.7561462E-02  0.1139091E+00
          2   -1    0    0  501    0  0.00000000000E+00  0.00000000000E+00  0.41723329562E+03  0.41723329562E+03  0.00000000000E+00 0. -1.
         -2   -1    0    0    0  501 -0.00000000000E+00 -0.00000000000E+00 -0.11794737818E+03  0.11794737818E+03  0.00000000000E+00 0.  1.
         25    2    1    2    0    0 -0.12238525557E+03 -0.14642857888E+03  0.13777059228E+03  0.26655186822E+03  0.12509869248E+03 0.  0.
          5    1    3    3  502    0 -0.13193723465E+03 -0.67533260317E+02  0.96423463957E+02  0.17687038174E+03  0.41800000000E+01 0.  1.
         -5    1    3    3    0  502  0.95519790875E+01 -0.78895318561E+02  0.41347128326E+02  0.89681486473E+02  0.41800000000E+01 0.  1.
        -11    1    1    2    0    0  0.75198334325E+02  0.47760984723E+02  0.12465336107E+03  0.15321345102E+03  0.00000000000E+00 0. -1.
         11    1    1    2    0    0  0.47186921241E+02  0.98667594155E+02  0.36861964094E+02  0.11541535457E+03  0.00000000000E+00 0.  1.
</event>
<event>
 7    1  0.2794945E-009  0.1005280E+03  0.7561462E-02  0.1279190E+00
          2   -1    0    0  501    0  0.00000000000E+00  0.00000000000E+00  0.49271477369E+03  0.49271477369E+03  0.00000000000E+00 0. -1.
         -2   -1    0    0    0  501 -0.00000000000E+00 -0.00000000000E+00 -0.29240706300E+02  0.29240706300E+02  0.00000000000E+00 0.  1.
         25    2    1    2    0    0  0.41148564055E+02  0.29673865965E+02  0.27985181467E+03  0.31070525673E+03  0.12508787209E+03 0.  0.
          5    1    3    3  502    0  0.38214382727E+02 -0.26327986839E+02  0.23269945862E+03  0.23731837767E+03  0.41800000000E+01 0.  1.
         -5    1    3    3    0  502  0.29341813283E+01  0.56001852805E+02  0.47152356047E+02  0.73386879061E+02  0.41800000000E+01 0.  1.
        -11    1    1    2    0    0 -0.51217084997E+02  0.14251950302E+02  0.62706075882E+02  0.82209244222E+02  0.00000000000E+00 0.  1.
         11    1    1    2    0    0  0.10068520942E+02 -0.43925816268E+02  0.12091617684E+03  0.12904097903E+03  0.00000000000E+00 0. -1.
</event>
<event>
 7    1  0.2794945E-009  0.1751547E+03  0.7561462E-02  0.1172576E+00
         -1   -1    0    0    0  501 -0.00000000000E+00  0.00000000000E+00  0.53643981525E+03  0.53643981525E+03  0.00000000000E+00 0.  1.
          1   -1    0    0  501    0  0.00000000000E+00 -0.00000000000E+00 -0.10620373830E+03  0.10620373830E+03  0.00000000000E+00 0. -1.
         25    2    1    2    0    0 -0.12003153396E+03  0.71262343460E+02  0.68521611978E+01  0.18756487334E+03  0.12509092236E+03 0.  0.
          5    1    3    3  502    0 -0.13981435459E+03  0.38662063894E+02  0.21090544363E+02  0.14664614688E+03  0.41800000000E+01 0.  1.
         -5    1    3    3    0  502  0.19782820627E+02  0.32600279566E+02 -0.14238383166E+02  0.40918726458E+02  0.41800000000E+01 0.  1.
        -11    1    1    2    0    0  0.12368739348E+03 -0.32491947670E+02  0.32844392232E+03  0.35246234987E+03  0.00000000000E+00 0.  1.
         11    1    1    2    0    0 -0.36558595221E+01 -0.38770395790E+02  0.94939993440E+02  0.10261633034E+03  0.00000000000E+00 0. -1.
</event>
<event>
 7    1  0.2794945E-009  0.1605936E+03  0.7561462E-02  0.1188028E+00
          3   -1    0    0  501    0  0.00000000000E+00  0.00000000000E+00  0.28383096658E+02  0.28383096658E+02  0.00000000000E+00 0. -1.
         -3   -1    0    0    0  501 -0.00000000000E+00 -0.00000000000E+00 -0.11629882175E+04  0.11629882175E+04  0.00000000000E+00 0.  1.
         25    2    1    2    0    0  0.40021880973E+02 -0.13612658724E+03 -0.70343974846E+03  0.72842814597E+03  0.12509150818E+03 0.  0.
          5    1    3    3  502    0  0.88603122473E+01 -0.13143259591E+03 -0.35732268518E+03  0.38085431092E+03  0.41800000000E+01 0.  1.
         -5    1    3    3    0  502  0.31161568726E+02 -0.46939913317E+01 -0.34611706328E+03  0.34757383505E+03  0.41800000000E+01 0.  1.
        -11    1    1    2    0    0 -0.33726363399E+02  0.16034804819E+02 -0.18792084596E+03  0.19159547724E+03  0.00000000000E+00 0.  1.
         11    1    1    2    0    0 -0.62955175742E+01  0.12009178243E+03 -0.24324452646E+03  0.27134769098E+03  0.00000000000E+00 0. -1.
</event>
<event>
 7    1  0.2794945E-009  0.1165273E+03  0.7561462E-02  0.1248938E+00
          3   -1    0    0  501    0  0.00000000000E+00  0.00000000000E+00  0.18151938989E+02  0.18151938989E+02  0.00000000000E+00 0. -1.
         -3   -1    0    0    0  501 -0.00000000000E+00 -0.00000000000E+00 -0.11592783607E+04  0.11592783607E+04  0.00000000000E+00 0.  1.
         25    2    1    2    0    0  0.46930146809E+02  0.82011679883E+02 -0.75129934994E+03  0.76748082663E+03  0.12509097375E+03 0.  0.
          5    1    3    3  502    0 -0.71125310009E+01 -0.15529735194E+02 -0.16039759055E+02  0.23801408424E+02  0.41800000000E+01 0. -1.
         -5    1    3    3    0  502  0.54042677810E+02  0.97541415077E+02 -0.73525959088E+03  0.74367941821E+03  0.41800000000E+01 0. -1.
        -11    1    1    2    0    0 -0.27120329687E+02 -0.95407858639E+01 -0.27050029989E+02  0.39474586757E+02  0.00000000000E+00 0. -1.
         11    1    1    2    0    0 -0.19809817123E+02 -0.72470894019E+02 -0.36277704182E+03  0.37047488633E+03  0.00000000000E+00 0.  1.
</event>
<event>
 7    1  0.2794945E-009  0.6626139E+02  0.7561462E-02  0.1373289E+00
          1   -1    0    0  501    0  0.00000000000E+00  0.00000000000E+00  0.12765931731E+02  0.12765931731E+02  0.00000000000E+00 0. -1.
         -1   -1    0    0    0  501 -0.00000000000E+00 -0.00000000000E+00 -0.99840916378E+03  0.99840916378E+03  0.00000000000E+00 0.  1.
         25    2    1    2    0    0 -0.22959599347E+02 -0.72280482901E+01 -0.62754456348E+03  0.64033733178E+03  0.12506131068E+03 0.  0.
          5    1    3    3  502    0 -0.13799973058E+02  0.94639566366E+01 -0.61868445301E+03  0.61892481815E+03  0.41800000000E+01 0.  1.
         -5    1    3    3    0  502 -0.91596262889E+01 -0.16692004927E+02 -0.88601104766E+01  0.21412513628E+02  0.41800000000E+01 0.  1.
        -11    1    1    2    0    0 -0.32186376643E+02 -0.15999522402E+02 -0.11520687315E+03  0.12068376519E+03  0.00000000000E+00 0. -1.
         11    1    1    2    0    0  0.55145975989E+02  0.23227570692E+02 -0.24289179542E+03  0.25015399855E+03  0.00000000000E+00 0.  1.
</event>
<event>
 7    1  0.2794945E-009  0.1125177E+03  0.7561462E-02  0.1255977E+00
         -1   -1    0    0    0  501 -0.00000000000E+00  0.00000000000E+00  0.98093045564E+02  0.98093045564E+02  0.00000000000E+00 0.  1.
          1   -1    0    0  501    0  0.00000000000E+00 -0.00000000000E+00 -0.14116502014E+03  0.14116502014E+03  0.00000000000E+00 0. -1.
         25    2    1    2    0    0 -0.19226170057E+02 -0.24430449248E+02 -0.59034013160E+02  0.14177106137E+03  0.12509007421E+03 0.  0.
          5    1    3    3  502    0 -0.49990346019E+02  0.35441696091E+02 -0.29679946350E+02  0.68216714463E+02  0.41800000000E+01 0. -1.
         -5    1    3    3    0  502  0.30764175961E+02 -0.59872145339E+02 -0.29354066810E+02  0.73554346903E+02  0.41800000000E+01 0. -1.
        -11    1    1    2    0    0 -0.29627729098E+02 -0.15167265417E+02  0.53433617720E+01  0.33710529316E+02  0.00000000000E+00 0.  1.
         11    1    1    2    0    0  0.48853899156E+02  0.39597714665E+02  0.10618676808E+02  0.63776475025E+02  0.00000000000E+00 0. -1.
</event>
<event>
 7    1  0.2794945E-009  0.1151729E+03  0.7561462E-02  0.1251280E+00
          1   -1    0    0  501    0  0.00000000000E+00  0.00000000000E+00  0.15152740043E+04  0.15152740043E+04  0.00000000000E+00 0. -1.
         -1   -1    0    0    0  501 -0.00000000000E+00 -0.00000000000E+00 -0.15623321309E+02  0.15623321309E+02  0.00000000000E+00 0.  1.
         25    2    1    2    0    0  0.80508641927E+02  0.65794235578E+02  0.95570101341E+03  0.96944411967E+03  0.12508777421E+03 0.  0.
          5    1    3    3  502    0  0.39177327587E+02  0.49987523644E+02  0.15566761908E+03  0.16817697687E+03  0.41800000000E+01 0.  1.
         -5    1    3    3    0  502  0.41331314340E+02  0.15806711934E+02  0.80003339433E+03  0.80126714280E+03  0.41800000000E+01 0.  1.
        -11    1    1    2    0    0 -0.81454106856E+02 -0.30552506387E+02  0.48520117569E+03  0.49293854390E+03  0.00000000000E+00 0.  1.
         11    1    1    2    0    0  0.94546492903E+00 -0.35241729191E+02  0.58748493858E+02  0.68514662014E+02  0.00000000000E+00 0. -1.
</event>
<event>
 7    1  0.2794945E-009  0.1659264E+03  0.7561462E-02  0.1182164E+00
         -1   -1    0    0    0  501 -0.00000000000E+00  0.00000000000E+00  0.38854971749E+02  0.38854971749E+02  0.00000000000E+00 0.  1.
          1   -1    0    0  501    0  0.00000000000E+00 -0.00000000000E+00 -0.95359303611E+03  0.95359303611E+03  0.00000000000E+00 0. -1.
         25    2    1    2    0    0  0.10709180718E+03 -0.11386786243E+03 -0.53793751989E+03  0.57398607725E+03  0.12509474931E+03 0.  0.
          5    1    3    3  502    0  0.36819086035E+02 -0.10131141190E+02 -0.32208362436E+03  0.32436648810E+03  0.41800000000E+01 0. -1.
         -5    1    3    3    0  502  0.70272721141E+02 -0.10373672124E+03 -0.21585389553E+03  0.24961958915E+03  0.41800000000E+01 0. -1.
        -11    1    1    2    0    0 -0.61522656961E+02  0.21674316515E+02 -0.73852624869E+02  0.98534377331E+02  0.00000000000E+00 0.  1.
         11    1    1    2    0    0 -0.45569150215E+02  0.92193545917E+02 -0.30294791959E+03  0.31992755328E+03  0.00000000000E+00 0. -1.
</event>
<event>
 7    1  0.2794945E-009  0.9252983E+02  0.7561462E-02  0.1296838E+00
         -2   -1    0    0    0  501 -0.00000000000E+00  0.00000000000E+00  0.11257139362E+02  0.11257139362E+02  0.00000000000E+00 0.  1.
          2   -1    0    0  501    0  0.00000000000E+00 -0.00000000000E+00 -0.19972102772E+04  0.19972102772E+04  0.00000000000E+00 0. -1.
         25    2    1    2    0    0  0.27842047391E+01  0.85244771538E+01 -0.16182699477E+04  0.16231221742E+04  0.12509016821E+03 0.  0.
          5    1    3    3  502    0 -0.31723170913E+02 -0.51934295477E+01 -0.14651412548E+04  0.14654998124E+04  0.41800000000E+01 0. -1.
         -5    1    3    3    0  502  0.34507375652E+02  0.13717906702E+02 -0.15312869295E+03  0.15762236181E+03  0.41800000000E+01 0. -1.
        -11    1    1    2    0    0 -0.18842131855E+02  0.50607538090E+02 -0.17795977583E+03  0.18597266105E+03  0.00000000000E+00 0. -1.
         11    1    1    2    0    0  0.16057927116E+02 -0.59132015244E+02 -0.18972341430E+03  0.19937258132E+03  0.00000000000E+00 0.  1.
</event>
<event>
 7    1  0.2794945E-009  0.1059529E+03  0.7561462E-02  0.1268253E+00
         -2   -1    0    0    0  501 -0.00000000000E+00  0.00000000000E+00  0.18137316343E+02  0.18137316343E+02  0.00000000000E+00 0.  1.
          2   -1    0    0  501    0  0.00000000000E+00 -0.00000000000E+00 -0.65709171841E+03  0.65709171841E+03  0.00000000000E+00 0. -1.
         25    2    1    2    0    0  0.33429431478E+01 -0.43357416232E+01 -0.29935758874E+03  0.32448807184E+03  0.12509024304E+03 0.  0.
          5    1    3    3  502    0 -0.47365089020E+02  0.35699265891E+02 -0.12287943299E+03  0.13650903522E+03  0.41800000000E+01 0.  1.
         -5    1    3    3    0  502  0.50708032168E+02 -0.40035007515E+02 -0.17647815574E+03  0.18797903662E+03  0.41800000000E+01 0.  1.
        -11    1    1    2    0    0  0.16892339942E+02 -0.37556779789E+02 -0.16159361695E+03  0.16675838778E+03  0.00000000000E+00 0. -1.
         11    1    1    2    0    0 -0.20235283090E+02  0.41892521412E+02 -0.17800319638E+03  0.18398257514E+03  0.00000000000E+00 0.  1.
</event>
<event>
 7    1  0.2794945E-009  0.8589467E+02  0.7561462E-02  0.1313109E+00
          2   -1    0    0  501    0  0.00000000000E+00  0.00000000000E+00  0.41755549130E+03  0.41755549130E+03  0.00000000000E+00 0. -1.
         -2   -1    0    0    0  501 -0.00000000000E+00 -0.00000000000E+00 -0.40677796743E+02  0.40677796743E+02  0.00000000000E+00 0.  1.
         25    2    1    2    0    0 -0.20099705295E+02  0.60694732841E+02  0.15164326221E+03  0.20671408070E+03  0.12508870228E+03 0.  0.
          5    1    3    3  502    0 -0.13798023350E+02  0.35979143581E+02 -0.12362623597E+02  0.40684039664E+02  0.41800000000E+01 0. -1.
         -5    1    3    3    0  502 -0.63016819446E+01  0.24715589260E+02  0.16400588581E+03  0.16603004104E+03  0.41800000000E+01 0. -1.
        -11    1    1    2    0    0  0.53785238872E+02 -0.44493585933E+02  0.10911900733E+03  0.12953566641E+03  0.00000000000E+00 0.  1.
         11    1    1    2    0    0 -0.33685533577E+02 -0.16201146908E+02  0.11611542502E+03  0.12198354094E+03  0.00000000000E+00 0. -1.
</event>
<event>
 7    1  0.2794945E-009  0.9784107E+02  0.7561462E-02  0.1284903E+00
          2   -1    0    0  501    0  0.00000000000E+00  0.00000000000E+00  0.12312138444E+04  0.12312138444E+04  0.00000000000E+00 0. -1.
         -2   -1    0    0    0  501 -0.00000000000E+00 -0.00000000000E+00 -0.28909724732E+02  0.28909724732E+02  0.00000000000E+00 0.  1.
         25    2    1    2    0    0 -0.61334601173E+02  0.71482350883E+02  0.10119859534E+04  0.10240280987E+04  0.12508524005E+03 0.  0.
          5    1    3    3  502    0 -0.11867993648E+02  0.20548578316E+02  0.25878673553E+02  0.35359178284E+02  0.41800000000E+01 0.  1.
         -5    1    3    3    0  502 -0.49466607525E+02  0.50933772567E+02  0.98610727986E+03  0.98866892043E+03  0.41800000000E+01 0.  1.
        -11    1    1    2    0    0  0.22337895068E+02 -0.52576396657E+02  0.20274613734E+02  0.60616161241E+02  0.00000000000E+00 0.  1.
         11    1    1    2    0    0  0.38996706105E+02 -0.18905954226E+02  0.17004355253E+03  0.17547930918E+03  0.00000000000E+00 0. -1.
</event>
<event>
 7    1  0.2794945E-009  0.1403687E+03  0.7561462E-02  0.1212834E+00
         -2   -1    0    0    0  501 -0.00000000000E+00  0.00000000000E+00  0.96067811957E+02  0.96067811957E+02  0.00000000000E+00 0.  1.
          2   -1    0    0  501    0  0.00000000000E+00 -0.00000000000E+00 -0.24688070227E+03  0.24688070227E+03  0.00000000000E+00 0. -1.
         25    2    1    2    0    0  0.10127450055E+03  0.15549920563E+02 -0.40821943843E+02  0.16676901269E+03  0.12508856064E+03 0.  0.
          5    1    3    3  502    0  0.37326287649E+02 -0.49114951667E+02 -0.43648012751E+02  0.75684553537E+02  0.41800000000E+01 0. -1.
         -5    1    3    3    0  502  0.63948212900E+02  0.64664872231E+02  0.28260689073E+01  0.91084459153E+02  0.41800000000E+01 0. -1.
        -11    1    1    2    0    0 -0.70066023180E+02  0.27008628366E+02 -0.95432251541E+02  0.12143322546E+03  0.00000000000E+00 0.  1.
         11    1    1    2    0    0 -0.31208477369E+02 -0.42558548929E+02 -0.14558694926E+02  0.54746276080E+02  0.00000000000E+00 0. -1.
</event>
<event>
 7    1  0.2794945E-009  0.7382959E+02  0.7561462E-02  0.1347534E+00
          1   -1    0    0  501    0  0.00000000000E+00  0.00000000000E+00  0.36250037776E+03  0.36250037776E+03  0.00000000000E+00 0. -1.
         -1   -1    0    0    0  501 -0.00000000000E+00 -0.00000000000E+00 -0.43074860428E+02  0.43074860428E+02  0.00000000000E+00 0.  1.
         25    2    1    2    0    0 -0.61975049755E+02 -0.91377569711E+01  0.17538135183E+03  0.22434285243E+03  0.12508673579E+03 0.  0.
          5    1    3    3  502    0 -0.29864037390E+02 -0.16714699220E+02 -0.10081822992E+02  0.35921545819E+02  0.41800000000E+01 0. -1.
         -5    1    3    3    0  502 -0.32111012365E+02  0.75769422485E+01  0.18546317482E+03  0.18842130661E+03  0.41800000000E+01 0. -1.
        -11    1    1    2    0    0  0.56232572209E+02  0.26116434938E+02  0.15002933907E+03  0.16233598779E+03  0.00000000000E+00 0. -1.
         11    1    1    2    0    0  0.57424775457E+01 -0.16978677967E+02 -0.59851735602E+01  0.18896397975E+02  0.00000000000E+00 0.  1.
</event>
<event>
 7    1  0.2794945E-009  0.2068332E+03  0.7561462E-02  0.1144099E+00
         -1   -1    0    0    0  501 -0.00000000000E+00  0.00000000000E+00  0.10669487810E+03  0.10669487810E+03  0.00000000000E+00 0. -1.
          1   -1    0    0  501    0  0.00000000000E+00 -0.00000000000E+00 -0.45096335084E+03  0.45096335084E+03  0.00000000000E+00 0.  1.
         25    2    1    2    0    0 -0.18393724047E+03 -0.49061354006E+02 -0.18380046560E+03  0.29270203179E+03  0.12510772707E+03 0.  0.
          5    1    3    3  502    0 -0.13167537064E+03  0.11761696380E+02 -0.16269178310E+03  0.20967314903E+03  0.41800000000E+01 0.  1.
         -5    1    3    3    0  502 -0.52261869829E+02 -0.60823050386E+02 -0.21108682499E+02  0.83028882765E+02  0.41800000000E+01 0.  1.
        -11    1    1    2    0    0  0.10686743417E+03 -0.49602956730E+01 -0.12462245242E+03  0.16424374772E+03  0.00000000000E+00 0. -1.
         11    1    1    2    0    0  0.77069806299E+02  0.54021649679E+02 -0.35845554716E+02  0.10071244943E+03  0.00000000000E+00 0.  1.
</event>
<event>
 7    1  0.2794945E-009  0.1063480E+03  0.7561462E-02  0.1267486E+00
          1   -1    0    0  501    0  0.00000000000E+00  0.00000000000E+00  0.81072331963E+03  0.81072331963E+03  0.00000000000E+00 0. -1.
         -1   -1    0    0    0  501 -0.00000000000E+00 -0.00000000000E+00 -0.20117890203E+02  0.20117890203E+02  0.00000000000E+00 0.  1.
         25    2    1    2    0    0 -0.21666887457E+02 -0.59014107115E+01  0.63196434603E+03  0.64461671309E+03  0.12508993358E+03 0.  0.
          5    1    3    3  502    0  0.52335897670E+02  0.19875284992E+01  0.26528661370E+03  0.27043937632E+03  0.41800000000E+01 0.  1.
         -5    1    3    3    0  502 -0.74002785128E+02 -0.78889392107E+01  0.36667773233E+03  0.37417733677E+03  0.41800000000E+01 0.  1.
        -11    1    1    2    0    0  0.51473275632E+02  0.16388134250E+02  0.51923439195E+02  0.74927382086E+02  0.00000000000E+00 0.  1.
         11    1    1    2    0    0 -0.29806388174E+02 -0.10486723539E+02  0.10671764421E+03  0.11129711466E+03  0.00000000000E+00 0. -1.
</event>
<event>
 7    1  0.2794945E-009  0.1276833E+03  0.7561462E-02  0.1230934E+00
          1   -1    0    0  501    0  0.00000000000E+00  0.00000000000E+00  0.41919468255E+02  0.41919468255E+02  0.00000000000E+00 0. -1.
         -1   -1    0    0    0  501 -0.00000000000E+00 -0.00000000000E+00 -0.57338851334E+03  0.57338851334E+03  0.00000000000E+00 0.  1.
         25    2    1    2    0    0  0.10527864847E+03  0.27943621002E+02 -0.30656604316E+03  0.34856262131E+03  0.12509485350E+03 0.  0.
          5    1    3    3  502    0  0.78389562584E+02 -0.24475461173E+02 -0.81114454013E+02  0.11550324139E+03  0.41800000000E+01 0.  1.
         -5    1    3    3    0  502  0.26889085890E+02  0.52419082175E+02 -0.22545158915E+03  0.23305937992E+03  0.41800000000E+01 0.  1.
        -11    1    1    2    0    0 -0.83325113783E+02 -0.68074386488E+01 -0.22067285979E+03  0.23597865763E+03  0.00000000000E+00 0.  1.
         11    1    1    2    0    0 -0.21953534691E+02 -0.21136182353E+02 -0.42301421251E+01  0.30766702656E+02  0.00000000000E+00 0. -1.
</event>
<event>
 7    1  0.2794945E-009  0.1296509E+03  0.7561462E-02  0.1227975E+00
          1   -1    0    0  501    0  0.00000000000E+00  0.00000000000E+00  0.27473318195E+03  0.27473318195E+03  0.00000000000E+00 0. -1.
         -1   -1    0    0    0  501 -0.00000000000E+00 -0.00000000000E+00 -0.99412666266E+02  0.99412666266E+02  0.00000000000E+00 0.  1.
         25    2    1    2    0    0  0.59238730713E+02  0.10981124774E+03  0.76819415568E+02  0.19265887162E+03  0.12509388817E+03 0.  0.
          5    1    3    3  502    0 -0.49950396955E+00  0.39476001649E+02  0.90923932227E+02  0.99213094207E+02  0.41800000000E+01 0. -1.
         -5    1    3    3    0  502  0.59738234683E+02  0.70335246089E+02 -0.14104516660E+02  0.93445777409E+02  0.41800000000E+01 0. -1.
        -11    1    1    2    0    0 -0.21371276615E+02 -0.18102549004E+02 -0.14143442166E+02  0.31376276084E+02  0.00000000000E+00 0.  1.
         11    1    1    2    0    0 -0.37867454098E+02 -0.91708698734E+02  0.11264454228E+03  0.15011070051E+03  0.00000000000E+00 0. -1.
</event>
<event>
 7    1  0.2794945E-009  0.1635949E+03  0.7561462E-02  0.1184697E+00
          1   -1    0    0  501    0  0.00000000000E+00  0.00000000000E+00  0.14747413800E+04  0.14747413800E+04  0.00000000000E+00 0. -1.
         -1   -1    0    0    0  501 -0.00000000000E+00 -0.00000000000E+00 -0.18865052529E+02  0.18865052529E+02  0.00000000000E+00 0.  1.
         25    2    1    2    0    0  0.12267709276E+03  0.25399769172E+02  0.79232223193E+03  0.81186010992E+03  0.12508997363E+03 0.  0.
          5    1    3    3  502    0 -0.22930030810E+02  0.20885045332E+02  0.14228776558E+03  0.14568888792E+03  0.41800000000E+01 0.  1.
         -5    1    3    3    0  502  0.14560712357E+03  0.45147238397E+01  0.65003446636E+03  0.66617122200E+03  0.41800000000E+01 0.  1.
        -11    1    1    2    0    0 -0.79929444020E+02 -0.55991939818E+02  0.51502804248E+03  0.52419242449E+03  0.00000000000E+00 0. -1.
         11    1    1    2    0    0 -0.42747648744E+02  0.30592170646E+02  0.14852605311E+03  0.15755389817E+03  0.00000000000E+00 0.  1.
</event>
<event>
 7    1  0.2794945E-009  0.6571603E+02  0.7561462E-02  0.1375298E+00
          3   -1    0    0  501    0  0.00000000000E+00  0.00000000000E+00  0.14710836456E+03  0.14710836456E+03  0.00000000000E+00 0. -1.
         -3   -1    0    0    0  501 -0.00000000000E+00 -0.00000000000E+00 -0.98982241644E+02  0.98982241644E+02  0.00000000000E+00 0.  1.
         25    2    1    2    0    0  0.23091832580E+02  0.16098236549E+02 -0.19877622387E+02  0.12975073040E+03  0.12509095177E+03 0.  0.
          5    1    3    3  502    0  0.81862524466E+01  0.30800551616E+02 -0.69038397469E+02  0.76154195118E+02  0.41800000000E+01 0.  1.
         -5    1    3    3    0  502  0.14905580133E+02 -0.14702315067E+02  0.49160775082E+02  0.53596535281E+02  0.41800000000E+01 0.  1.
        -11    1    1    2    0    0  0.26515176462E+02 -0.33927383341E+01 -0.49719378705E+01  0.27189803648E+02  0.00000000000E+00 0.  1.
         11    1    1    2    0    0 -0.49607009042E+02 -0.12705498215E+02  0.72975683176E+02  0.89150072159E+02  0.00000000000E+00 0. -1.
</event>
<event>
 7    1  0.2794945E-009  0.1268351E+03  0.7561462E-02  0.1232229E+00
         -2   -1    0    0    0  501 -0.00000000000E+00  0.00000000000E+00  0.13696802263E+02  0.13696802263E+02  0.00000000000E+00 0. -1.
          2   -1    0    0  501    0  0.00000000000E+00 -0.00000000000E+00 -0.14363596733E+04  0.14363596733E+04  0.00000000000E+00 0.  1.
         25    2    1    2    0    0  0.79485166030E+02 -0.34252752896E+02 -0.87349096516E+03  0.88663675096E+03  0.12508844570E+03 0.  0.
          5    1    3    3  502    0  0.64212708071E+02 -0.78438003800E+02 -0.49848082256E+03  0.50870069311E+03  0.41800000000E+01 0.  1.
         -5    1    3    3    0  502  0.15272457959E+02  0.44185250904E+02 -0.37501014260E+03  0.37793605785E+03  0.41800000000E+01 0.  1.
        -11    1    1    2    0    0  0.81089123282E+01  0.12705159259E+02 -0.13589728658E+02  0.20294241941E+02  0.00000000000E+00 0. -1.
         11    1    1    2    0    0 -0.87594078359E+02  0.21547593637E+02 -0.53558217719E+03  0.54312548263E+03  0.00000000000E+00 0.  1.
</event>
<event>
 7    1  0.3201708E-009  0.1394687E+03  0.7561462E-02  0.1214046E+00
          1   -1    0    0  501    0  0.00000000000E+00  0.00000000000E+00  0.14599379600E+03  0.14599379600E+03  0.00000000000E+00 0. -1.
         -1   -1    0    0    0  501 -0.00000000000E+00 -0.00000000000E+00 -0.16615136335E+03  0.16615136335E+03  0.00000000000E+00 0.  1.
         25    2    1    2    0    0  0.82181529100E+02  0.75517313799E+02 -0.99301545620E+01  0.16793249295E+03  0.12508415491E+03 0.  0.
          5    1    3    3  502    0 -0.17454592751E+02  0.54329206533E+01 -0.38426348243E+02  0.42757877335E+02  0.41800000000E+01 0.  1.
         -5    1    3    3    0  502  0.99636121851E+02  0.70084393146E+02  0.28496193681E+02  0.12517461561E+03  0.41800000000E+01 0.  1.
        -11    1    1    2    0    0 -0.24088412166E+02 -0.76492615385E+02 -0.25473476946E+02  0.84144339303E+02  0.00000000000E+00 0.  1.
         11    1    1    2    0    0 -0.58093116934E+02  0.97530158559E+00  0.15246064156E+02  0.60068327100E+02  0.00000000000E+00 0. -1.
</event>
<event>
 7    1  0.2794945E-009  0.1253229E+03  0.7561462E-02  0.1234566E+00
         -1   -1    0    0    0  501 -0.00000000000E+00  0.00000000000E+00  0.24896022679E+03  0.24896022679E+03  0.00000000000E+00 0.  1.
          1   -1    0    0  501    0  0.00000000000E+00 -0.00000000000E+00 -0.81797722459E+02  0.81797722459E+02  0.00000000000E+00 0. -1.
         25    2    1    2    0    0  0.74466789945E+02  0.25353518999E+02  0.32285221384E+02  0.15125847684E+03  0.12509471438E+03 0.  0.
          5    1    3    3  502    0 -0.55912664023E+01 -0.40424876692E+02  0.23280888060E+02  0.47168899335E+02  0.41800000000E+01 0. -1.
         -5    1    3    3    0  502  0.80058056348E+02  0.65778395692E+02  0.90043333233E+01  0.10408957750E+03  0.41800000000E+01 0. -1.
        -11    1    1    2    0    0 -0.77840193979E+02  0.24861422046E+01  0.12924553172E+03  0.15089626957E+03  0.00000000000E+00 0.  1.
         11    1    1    2    0    0  0.33734040335E+01 -0.27839661204E+02  0.56317512268E+01  0.28603202838E+02  0.00000000000E+00 0. -1.
</event>
<event>
 7    1  0.2794945E-009  0.9352780E+02  0.7561462E-02  0.1294527E+00
         -1   -1    0    0    0  501 -0.00000000000E+00  0.00000000000E+00  0.45824611573E+02  0.45824611573E+02  0.00000000000E+00 0.  1.
          1   -1    0    0  501    0  0.00000000000E+00 -0.00000000000E+00 -0.36713435729E+03  0.36713435729E+03  0.00000000000E+00 0. -1.
         25    2    1    2    0    0 -0.30631617664E+02 -0.74426943936E+01 -0.76494866626E+02  0.14997577327E+03  0.12509028038E+03 0.  0.
          5    1    3    3  502    0 -0.13803641275E+02  0.41925685422E+02 -0.86035886566E+02  0.96788169668E+02  0.41800000000E+01 0.  1.
         -5    1    3    3    0  502 -0.16827976389E+02 -0.49368379815E+02  0.95410199396E+01  0.53187603597E+02  0.41800000000E+01 0.  1.
        -11    1    1    2    0    0 -0.21563623624E+02  0.27088718986E+02 -0.53674979966E+02  0.63873249756E+02  0.00000000000E+00 0.  1.
         11    1    1    2    0    0  0.52195241288E+02 -0.19646024593E+02 -0.19113989912E+03  0.19910994584E+03  0.00000000000E+00 0. -1.
</event>
<event>
 7    1  0.3211190E-009  0.1102102E+03  0.7561462E-02  0.1260181E+00
          1   -1    0    0  501    0  0.00000000000E+00  0.00000000000E+00  0.58553737582E+03  0.58553737582E+03  0.00000000000E+00 0. -1.
         -1   -1    0    0    0  501 -0.00000000000E+00 -0.00000000000E+00 -0.30125216413E+02  0.30125216413E+02  0.00000000000E+00 0.  1.
         25    2    1    2    0    0 -0.45782371447E+02  0.52217986429E+02  0.38419052136E+03  0.40996634963E+03  0.12508919809E+03 0.  0.
          5    1    3    3  502    0 -0.83527238823E+02  0.51376870174E+02  0.32616624865E+03  0.34061455720E+03  0.41800000000E+01 0.  1.
         -5    1    3    3    0  502  0.37744867376E+02  0.84111625549E+00  0.58024272713E+02  0.69351792433E+02  0.41800000000E+01 0.  1.
        -11    1    1    2    0    0  0.26123603801E+02  0.24014675853E+01  0.14492047574E+01  0.26273749571E+02  0.00000000000E+00 0.  1.
         11    1    1    2    0    0  0.19658767647E+02 -0.54619454014E+02  0.16977243328E+03  0.17942249303E+03  0.00000000000E+00 0. -1.
</event>
<event>
 7    1  0.2794945E-009  0.4061467E+02  0.7561462E-02  0.1503736E+00
         -3   -1    0    0    0  501 -0.00000000000E+00  0.00000000000E+00  0.25585092762E+02  0.25585092762E+02  0.00000000000E+00 0. -1.
          3   -1    0    0  501    0  0.00000000000E+00 -0.00000000000E+00 -0.33415346928E+03  0.33415346928E+03  0.00000000000E+00 0.  1.
         25    2    1    2    0    0 -0.69876728827E+01  0.75559984168E+01 -0.23238161841E+03  0.26410965187E+03  0.12508705350E+03 0.  0.
          5    1    3    3  502    0  0.12316440832E+02  0.17431782263E+02  0.76566678061E+01  0.23057725593E+02  0.41800000000E+01 0.  1.
         -5    1    3    3    0  502 -0.19304113714E+02 -0.98757838464E+01 -0.24003828621E+03  0.24105192628E+03  0.41800000000E+01 0.  1.
        -11    1    1    2    0    0  0.46709841514E+01 -0.22141480499E+02 -0.53281165870E+01  0.23247625212E+02  0.00000000000E+00 0. -1.
         11    1    1    2    0    0  0.23166887313E+01  0.14585482082E+02 -0.70858641528E+02  0.72381284966E+02  0.00000000000E+00 0.  1.
</event>
<event>
 7    1  0.2794945E-009  0.1232119E+03  0.7561462E-02  0.1237891E+00
          2   -1    0    0  501    0  0.00000000000E+00  0.00000000000E+00  0.78722097639E+03  0.78722097639E+03  0.00000000000E+00 0.  1.
         -2   -1    0    0    0  501 -0.00000000000E+00 -0.00000000000E+00 -0.35735210700E+02  0.35735210700E+02  0.00000000000E+00 0. -1.
         25    2    1    2    0    0 -0.67857992943E+02 -0.80800060117E+02  0.58852648514E+03  0.61085617631E+03  0.12509391474E+03 0.  0.
          5    1    3    3  502    0 -0.86314736961E+02 -0.66352506936E+02  0.26594304120E+03  0.28739530712E+03  0.41800000000E+01 0.  1.
         -5    1    3    3    0  502  0.18456744018E+02 -0.14447553181E+02  0.32258344394E+03  0.32346086919E+03  0.41800000000E+01 0.  1.
        -11    1    1    2    0    0 -0.37610621716E+01  0.18069084968E+02  0.90747215214E+02  0.92605045701E+02  0.00000000000E+00 0.  1.
         11    1    1    2    0    0  0.71619055115E+02  0.62730975149E+02  0.72212065334E+02  0.11949496508E+03  0.00000000000E+00 0. -1.
</event>
<event>
 7    1  0.2794945E-009  0.1209150E+03  0.7561462E-02  0.1241595E+00
          2   -1    0    0  501    0  0.00000000000E+00  0.00000000000E+00  0.14172371099E+04  0.14172371099E+04  0.00000000000E+00 0.  1.
         -2   -1    0    0    0  501 -0.00000000000E+00 -0.00000000000E+00 -0.28794985911E+02  0.28794985911E+02  0.00000000000E+00 0. -1.
         25    2    1    2    0    0  0.35185549527E+02  0.49752396582E+02  0.12955124005E+04  0.13029628250E+04  0.12508564944E+03 0.  0.
          5    1    3    3  502    0  0.10976266648E+02  0.89434232237E+02  0.73589731572E+03  0.74140494469E+03  0.41800000000E+01 0. -1.
         -5    1    3    3    0  502  0.24209282879E+02 -0.39681835655E+02  0.55961508478E+03  0.56155788034E+03  0.41800000000E+01 0. -1.
        -11    1    1    2    0    0 -0.34825893418E+02  0.16616314584E+02  0.53187881307E+02  0.65710695330E+02  0.00000000000E+00 0. -1.
         11    1    1    2    0    0 -0.35965610844E+00 -0.66368711166E+02  0.39741842160E+02  0.77358575430E+02  0.00000000000E+00 0.  1.
</event>
<event>
 7    1  0.3453193E-009  0.1950800E+03  0.7561462E-02  0.1153958E+00
          2   -1    0    0  501    0  0.00000000000E+00  0.00000000000E+00  0.52763268414E+03  0.52763268414E+03  0.00000000000E+00 0. -1.
         -2   -1    0    0    0  501 -0.00000000000E+00 -0.00000000000E+00 -0.72425401200E+02  0.72425401200E+02  0.00000000000E+00 0.  1.
         25    2    1    2    0    0 -0.63111410229E+02 -0.14932768307E+03  0.22985831249E+03  0.30783624509E+03  0.12508598216E+03 0.  0.
          5    1    3    3  502    0 -0.77669223724E+02 -0.29041261160E+02  0.82959275214E+02  0.11736957403E+03  0.41800000000E+01 0.  1.
         -5    1    3    3    0  502  0.14557813496E+02 -0.12028642191E+03  0.14689903728E+03  0.19046667106E+03  0.41800000000E+01 0.  1.
        -11    1    1    2    0    0 -0.23652410655E+02  0.26561139041E+02  0.47746206850E+02  0.59536802950E+02  0.00000000000E+00 0.  1.
         11    1    1    2    0    0  0.86763820884E+02  0.12276654403E+03  0.17760276359E+03  0.23268503730E+03  0.00000000000E+00 0. -1.
</event>
<event>
 7    1  0.2794945E-009  0.1120972E+03  0.7561462E-02  0.1256735E+00
          2   -1    0    0  501    0  0.00000000000E+00  0.00000000000E+00  0.12302291091E+03  0.12302291091E+03  0.00000000000E+00 0. -1.
         -2   -1    0    0    0  501 -0.00000000000E+00 -0.00000000000E+00 -0.15228384549E+03  0.15228384549E+03  0.00000000000E+00 0.  1.
         25    2    1    2    0    0 -0.37909849482E+02 -0.27038582983E+02  0.54101213778E+02  0.14402389049E+03  0.12509075922E+03 0.  0.
          5    1    3    3  502    0 -0.55183115065E+02  0.35471673558E+02  0.41755035394E+02  0.77874072669E+02  0.41800000000E+01 0.  1.
         -5    1    3    3    0  502  0.17273265584E+02 -0.62510256540E+02  0.12346178384E+02  0.66149817818E+02  0.41800000000E+01 0.  1.
        -11    1    1    2    0    0 -0.19720102174E+02  0.29849104150E+02 -0.85089244188E+01  0.36772996112E+02  0.00000000000E+00 0. -1.
         11    1    1    2    0    0  0.57629951656E+02 -0.28105211670E+01 -0.74853223936E+02  0.94509869806E+02  0.00000000000E+00 0.  1.
</event>
<event>
 7    1  0.2794945E-009  0.1120006E+03  0.7561462E-02  0.1256909E+00
          2   -1    0    0  501    0  0.00000000000E+00  0.00000000000E+00  0.27823895267E+04  0.27823895267E+04  0.00000000000E+00 0. -1.
         -2   -1    0    0    0  501 -0.00000000000E+00 -0.00000000000E+00 -0.82410133192E+01  0.82410133192E+01  0.00000000000E+00 0.  1.
         25    2    1    2    0    0  0.35981974845E+02 -0.43380436983E+02  0.23097945444E+04  0.23138656769E+04  0.12508784308E+03 0.  0.
          5    1    3    3  502    0 -0.39211562203E+02 -0.24932813661E+02  0.44050325626E+03  0.44296702245E+03  0.41800000000E+01 0. -1.
         -5    1    3    3    0  502  0.75193537048E+02 -0.18447623322E+02  0.18692912881E+04  0.18708986544E+04  0.41800000000E+01 0. -1.
        -11    1    1    2    0    0  0.24854902993E+02  0.27226491629E+02  0.91710728216E+02  0.98842833423E+02  0.00000000000E+00 0.  1.
         11    1    1    2    0    0 -0.60836877838E+02  0.16153945354E+02  0.37264324079E+03  0.37792202974E+03  0.00000000000E+00 0. -1.
</event>
<event>
 7    1  0.2794945E-009  0.8474590E+02  0.7561462E-02  0.1316098E+00
         -1   -1    0    0    0  501 -0.00000000000E+00  0.00000000000E+00  0.19502509753E+03  0.19502509753E+03  0.00000000000E+00 0.  1.
          1   -1    0    0  501    0  0.00000000000E+00 -0.00000000000E+00 -0.72124807173E+02  0.72124807173E+02  0.00000000000E+00 0. -1.
         25    2    1    2    0    0 -0.35102445659E+02 -0.12824149666E+02  0.32729652133E+02  0.13459421948E+03  0.12509090008E+03 0.  0.
          5    1    3    3  502    0  0.18206981771E+02  0.10658179438E+02  0.64583244629E+02  0.68070249455E+02  0.41800000000E+01 0. -1.
         -5    1    3    3    0  502 -0.53309427430E+02 -0.23482329104E+02 -0.31853592496E+02  0.66523970025E+02  0.41800000000E+01 0. -1.
        -11    1    1    2    0    0  0.41882120641E+02 -0.26576653164E+02  0.74738099164E+02  0.89700691131E+02  0.00000000000E+00 0.  1.
         11    1    1    2    0    0 -0.67796749820E+01  0.39400802830E+02  0.15432539055E+02  0.42854994087E+02  0.00000000000E+00 0. -1.
</event>
<event>
 7    1  0.2794945E-009  0.1115505E+03  0.7561462E-02  0.1257725E+00
         -1   -1    0    0    0  501 -0.00000000000E+00  0.00000000000E+00  0.30624473871E+02  0.30624473871E+02  0.00000000000E+00 0.  1.
          1   -1    0    0  501    0  0.00000000000E+00 -0.00000000000E+00 -0.50201108027E+03  0.50201108027E+03  0.00000000000E+00 0. -1.
         25    2    1    2    0    0  0.57530609295E+02 -0.99766463554E+00 -0.29988410144E+03  0.32998206564E+03  0.12508766128E+03 0.  0.
          5    1    3    3  502    0  0.80985060346E+02  0.32959172319E+02 -0.25124421651E+03  0.26605641463E+03  0.41800000000E+01 0. -1.
         -5    1    3    3    0  502 -0.23454451051E+02 -0.33956836955E+02 -0.48639884937E+02  0.63925651008E+02  0.41800000000E+01 0. -1.
        -11    1    1    2    0    0  0.18150006901E+02 -0.25140273644E+01 -0.39155304423E+01  0.18736981154E+02  0.00000000000E+00 0.  1.
         11    1    1    2    0    0 -0.75680616196E+02  0.35116919999E+01 -0.16758697451E+03  0.18391650735E+03  0.00000000000E+00 0. -1.
</event>
<event>
 7    1  0.2794945E-009  0.1273710E+03  0.7561462E-02  0.1231410E+00
          4   -1    0    0  501    0  0.00000000000E+00  0.00000000000E+00  0.50248499919E+02  0.50248499919E+02  0.00000000000E+00 0.  1.
         -4   -1    0    0    0  501 -0.00000000000E+00 -0.00000000000E+00 -0.45359361679E+03  0.45359361679E+03  0.00000000000E+00 0. -1.
         25    2    1    2    0    0  0.10634407460E+03 -0.16169378247E+02 -0.21344647282E+03  0.26977270571E+03  0.12508958786E+03 0.  0.
          5    1    3    3  502    0  0.20731168896E+01 -0.27806341006E+02  0.38306298183E+01  0.28454112859E+02  0.41800000000E+01 0.  1.
         -5    1    3    3    0  502  0.10427095771E+03  0.11636962759E+02 -0.21727710264E+03  0.24131859285E+03  0.41800000000E+01 0.  1.
        -11    1    1    2    0    0 -0.70990047389E+02 -0.17076517899E+02 -0.57130596373E+02  0.92709758569E+02  0.00000000000E+00 0.  1.
         11    1    1    2    0    0 -0.35354027215E+02  0.33245896146E+02 -0.13276804768E+03  0.14135965243E+03  0.00000000000E+00 0. -1.
</event>
<event>
 7    1  0.2794945E-009  0.1013217E+03  0.7561462E-02  0.1277541E+00
         -1   -1    0    0    0  501 -0.00000000000E+00  0.00000000000E+00  0.52849545872E+02  0.52849545872E+02  0.00000000000E+00 0.  1.
          1   -1    0    0  501    0  0.00000000000E+00 -0.00000000000E+00 -0.40364127377E+03  0.40364127377E+03  0.00000000000E+00 0. -1.
         25    2    1    2    0    0  0.91167751915E+02  0.60299970593E+01 -0.24723118290E+03  0.29175020616E+03  0.12508798958E+03 0.  0.
          5    1    3    3  502    0  0.43941001342E+02  0.19583359498E+01 -0.45145668595E+01  0.44412840402E+02  0.41800000000E+01 0.  1.
         -5    1    3    3    0  502  0.47226750573E+02  0.40716611095E+01 -0.24271661604E+03  0.24733736575E+03  0.41800000000E+01 0.  1.
        -11    1    1    2    0    0 -0.75022067352E+02 -0.30971291572E+02 -0.10757583899E+03  0.13475938789E+03  0.00000000000E+00 0. -1.
         11    1    1    2    0    0 -0.16145684564E+02  0.24941294512E+02  0.40152939968E+01  0.29981225590E+02  0.00000000000E+00 0.  1.
</event>
<event>
 7    1  0.2794945E-009  0.1171731E+03  0.7561462E-02  0.1247835E+00
         -3   -1    0    0    0  501 -0.00000000000E+00  0.00000000000E+00  0.96552658774E+02  0.96552658774E+02  0.00000000000E+00 0.  1.
          3   -1    0    0  501    0  0.00000000000E+00 -0.00000000000E+00 -0.22793215296E+03  0.22793215296E+03  0.00000000000E+00 0. -1.
         25    2    1    2    0    0 -0.17563544304E+02  0.66780499219E+02  0.91528631564E+01  0.14317970742E+03  0.12509412675E+03 0.  0.
          5    1    3    3  502    0 -0.55220794520E+02 -0.10783527174E+02  0.47089855041E+00  0.56420871592E+02  0.41800000000E+01 0.  1.
         -5    1    3    3    0  502  0.37657250216E+02  0.77564026394E+02  0.86819646060E+01  0.86758835825E+02  0.41800000000E+01 0.  1.
        -11    1    1    2    0    0 -0.21770359694E+02 -0.14411065717E+02 -0.10205834662E+03  0.10534483135E+03  0.00000000000E+00 0. -1.
         11    1    1    2    0    0  0.39333903998E+02 -0.52369433502E+02 -0.38474010723E+02  0.75960272973E+02  0.00000000000E+00 0.  1.
</event>
<event>
 7    1  0.2794945E-009  0.1042271E+03  0.7561462E-02  0.1271650E+00
          2   -1    0    0  501    0  0.00000000000E+00  0.00000000000E+00  0.12282460799E+04  0.12282460799E+04  0.00000000000E+00 0.  1.
         -2   -1    0    0    0  501 -0.00000000000E+00 -0.00000000000E+00 -0.13015478554E+02  0.13015478554E+02  0.00000000000E+00 0. -1.
         25    2    1    2    0    0 -0.49519254025E+02  0.29165590527E+02  0.79151225866E+03  0.80339490576E+03  0.12509568654E+03 0.  0.
          5    1    3    3  502    0 -0.47332991550E+02 -0.22268772246E+02  0.13479243105E+03  0.14464709528E+03  0.41800000000E+01 0. -1.
         -5    1    3    3    0  502 -0.21862624756E+01  0.51434362773E+02  0.65671982762E+03  0.65874781047E+03  0.41800000000E+01 0. -1.
        -11    1    1    2    0    0 -0.29194876374E+01 -0.48388472000E+02  0.12699391652E+03  0.13593168307E+03  0.00000000000E+00 0.  1.
         11    1    1    2    0    0  0.52438741663E+02  0.19222881473E+02  0.29672442617E+03  0.30193496963E+03  0.00000000000E+00 0. -1.
</event>
<event>
 7    1  0.2794945E-009  0.1568944E+03  0.7561462E-02  0.1192248E+00
          2   -1    0    0  501    0  0.00000000000E+00  0.00000000000E+00  0.49519638414E+03  0.49519638414E+03  0.00000000000E+00 0.  1.
         -2   -1    0    0    0  501 -0.00000000000E+00 -0.00000000000E+00 -0.59028679469E+02  0.59028679469E+02  0.00000000000E+00 0. -1.
         25    2    1    2    0    0 -0.64143182180E+02  0.10702894152E+03  0.23558281377E+03  0.29447571276E+03  0.12508853312E+03 0.  0.
          5    1    3    3  502    0 -0.96045764680E+02  0.10636474895E+03  0.17854003969E+03  0.22898093131E+03  0.41800000000E+01 0. -1.
         -5    1    3    3    0  502  0.31902582500E+02  0.66419256422E+00  0.57042774081E+02  0.65494781447E+02  0.41800000000E+01 0. -1.
        -11    1    1    2    0    0  0.63120544163E+02 -0.48259358624E+02  0.18120301049E+03  0.19785777670E+03  0.00000000000E+00 0.  1.
         11    1    1    2    0    0  0.10226380169E+01 -0.58769582892E+02  0.19381880402E+02  0.61891574142E+02  0.00000000000E+00 0. -1.
</event>
<event>
 7    1  0.2794945E-009  0.9276611E+02  0.7561462E-02  0.1296288E+00
          1   -1    0    0  501    0  0.00000000000E+00  0.00000000000E+00  0.61277416773E+02  0.61277416773E+02  0.00000000000E+00 0. -1.
         -1   -1    0    0    0  501 -0.00000000000E+00 -0.00000000000E+00 -0.23427315646E+03  0.23427315646E+03  0.00000000000E+00 0.  1.
         25    2    1    2    0    0 -0.74229928039E+00  0.21168300880E+02 -0.42079452759E+02  0.13366907851E+03  0.12509234283E+03 0.  0.
          5    1    3    3  502    0  0.20782254147E+02 -0.29616427956E+02  0.26879054227E+02  0.45265780104E+02  0.41800000000E+01 0. -1.
         -5    1    3    3    0  502 -0.21524553427E+02  0.50784728835E+02 -0.68958506986E+02  0.88403298405E+02  0.41800000000E+01 0. -1.
        -11    1    1    2    0    0  0.32304425151E+02  0.22894323703E+02 -0.69345818060E+02  0.79853418365E+02  0.00000000000E+00 0.  1.
         11    1    1    2    0    0 -0.31562125871E+02 -0.44062624583E+02 -0.61570468868E+02  0.82028076360E+02  0.00000000000E+00 0. -1.
</event>
<event>
 7    1  0.3386480E-009  0.1093139E+03  0.7561462E-02  0.1261846E+00
          2   -1    0    0  501    0  0.00000000000E+00  0.00000000000E+00  0.34788786090E+03  0.34788786090E+03  0.00000000000E+00 0. -1.
         -2   -1    0    0    0  501 -0.00000000000E+00 -0.00000000000E+00 -0.51042525030E+02  0.51042525030E+02  0.00000000000E+00 0.  1.
         25    2    1    2    0    0  0.57744345411E+02 -0.77643719299E+01  0.23974822800E+03  0.27662277428E+03  0.12508497720E+03 0.  0.
          5    1    3    3  502    0 -0.27892222780E+02 -0.37094264500E+02  0.95712801153E+02  0.10645362021E+03  0.41800000000E+01 0. -1.
         -5    1    3    3    0  502  0.85636568191E+02  0.29329892570E+02  0.14403542685E+03  0.17016915407E+03  0.41800000000E+01 0. -1.
        -11    1    1    2    0    0 -0.15028843632E+02 -0.23905767644E+02  0.62771592421E+02  0.68830405219E+02  0.00000000000E+00 0. -1.
         11    1    1    2    0    0 -0.42715501778E+02  0.31670139574E+02 -0.56744845551E+01  0.53477206432E+02  0.00000000000E+00 0.  1.
</event>
<event>
 7    1  0.2794945E-009  0.1099734E+03  0.7561462E-02  0.1260619E+00
          1   -1    0    0  501    0  0.00000000000E+00  0.00000000000E+00  0.15813940133E+03  0.15813940133E+03  0.00000000000E+00 0. -1.
         -1   -1    0    0    0  501 -0.00000000000E+00 -0.00000000000E+00 -0.87299234970E+02  0.87299234970E+02  0.00000000000E+00 0.  1.
         25    2    1    2    0    0 -0.27039645792E+02 -0.19250435795E+01  0.23962630073E+01  0.12800473262E+03  0.12507846041E+03 0.  0.
          5    1    3    3  502    0  0.47732226263E+02 -0.11183562962E+02  0.15135700916E+02  0.51478144360E+02  0.41800000000E+01 0.  1.
         -5    1    3    3    0  502 -0.74771872055E+02  0.92585193827E+01 -0.12739437909E+02  0.76526588255E+02  0.41800000000E+01 0.  1.
        -11    1    1    2    0    0 -0.28524825422E+01 -0.42031341781E+02  0.27105268622E+02  0.50094569922E+02  0.00000000000E+00 0.  1.
         11    1    1    2    0    0  0.29892128334E+02  0.43956385361E+02  0.41338634731E+02  0.67339333764E+02  0.00000000000E+00 0. -1.
</event>
<event>
 7    1  0.2794945E-009  0.8746402E+02  0.7561462E-02  0.1309112E+00
         -1   -1    0    0    0  501 -0.00000000000E+00  0.00000000000E+00  0.11824701927E+03  0.11824701927E+03  0.00000000000E+00 0.  1.
          1   -1    0    0  501    0  0.00000000000E+00 -0.00000000000E+00 -0.13755114399E+03  0.13755114399E+03  0.00000000000E+00 0. -1.
         25    2    1    2    0    0 -0.18336521192E+02 -0.16228118767E+02  0.42612977611E+02  0.13443913857E+03  0.12513367360E+03 0.  0.
          5    1    3    3  502    0  0.40182197901E+02 -0.41505494557E+02  0.40214810687E+02  0.70512541474E+02  0.41800000000E+01 0.  1.
         -5    1    3    3    0  502 -0.58518719093E+02  0.25277375790E+02  0.23981669244E+01  0.63926597092E+02  0.41800000000E+01 0.  1.
        -11    1    1    2    0    0 -0.10658831922E+02 -0.95628884172E+01 -0.78035626694E+02  0.79338632244E+02  0.00000000000E+00 0. -1.
         11    1    1    2    0    0  0.28995353113E+02  0.25791007184E+02  0.16118524360E+02  0.42020392445E+02  0.00000000000E+00 0.  1.
</event>
<event>
 7    1  0.2794945E-009  0.1464264E+03  0.7561462E-02  0.1204934E+00
         -1   -1    0    0    0  501 -0.00000000000E+00  0.00000000000E+00  0.77027602598E+02  0.77027602598E+02  0.00000000000E+00 0.  1.
          1   -1    0    0  501    0  0.00000000000E+00 -0.00000000000E+00 -0.41261341198E+03  0.41261341198E+03  0.00000000000E+00 0. -1.
         25    2    1    2    0    0  0.17863490382E+02 -0.12545205240E+03 -0.88728686713E+02  0.19894016645E+03  0.12508832175E+03 0.  0.
          5    1    3    3  502    0  0.58988105430E+02 -0.73463188151E+02 -0.92913565818E+02  0.13238897125E+03  0.41800000000E+01 0.  1.
         -5    1    3    3    0  502 -0.41124615048E+02 -0.51988864250E+02  0.41848791054E+01  0.66551195196E+02  0.41800000000E+01 0.  1.
        -11    1    1    2    0    0 -0.15448769768E+02  0.14627772363E+02 -0.13379674247E+01  0.21317278637E+02  0.00000000000E+00 0.  1.
         11    1    1    2    0    0 -0.24147206133E+01  0.11082428004E+03 -0.24551915524E+03  0.26938356949E+03  0.00000000000E+00 0. -1.
</event>
<event>
 7    1  0.2794945E-009  0.1104282E+03  0.7561462E-02  0.1259779E+00
         -4   -1    0    0    0  501 -0.00000000000E+00  0.00000000000E+00  0.16823164408E+03  0.16823164408E+03  0.00000000000E+00 0.  1.
          4   -1    0    0  501    0  0.00000000000E+00 -0.00000000000E+00 -0.80259621037E+02  0.80259621037E+02  0.00000000000E+00 0. -1.
         25    2    1    2    0    0 -0.21415472043E+02  0.18538759292E+02  0.13807459438E+02  0.12899746554E+03  0.12508953649E+03 0.  0.
          5    1    3    3  502    0  0.40783612176E+02  0.44626878362E+02  0.87824947036E+01  0.61232882569E+02  0.41800000000E+01 0. -1.
         -5    1    3    3    0  502 -0.62199084219E+02 -0.26088119069E+02  0.50249647347E+01  0.67764582968E+02  0.41800000000E+01 0. -1.
        -11    1    1    2    0    0  0.51940990439E+02  0.75962402985E+01  0.33209030714E+02  0.62116093530E+02  0.00000000000E+00 0. -1.
         11    1    1    2    0    0 -0.30525518396E+02 -0.26134999591E+02  0.40955532888E+02  0.57377706046E+02  0.00000000000E+00 0.  1.
</event>
<event>
 7    1  0.2794945E-009  0.1526838E+03  0.7561462E-02  0.1197213E+00
         -1   -1    0    0    0  501 -0.00000000000E+00  0.00000000000E+00  0.23043399424E+02  0.23043399424E+02  0.00000000000E+00 0.  1.
          1   -1    0    0  501    0  0.00000000000E+00 -0.00000000000E+00 -0.16074783198E+04  0.16074783198E+04  0.00000000000E+00 0. -1.
         25    2    1    2    0    0  0.12386039406E+03  0.48046107342E+01 -0.12423731719E+04  0.12547917911E+04  0.12508740705E+03 0.  0.
          5    1    3    3  502    0  0.43943346123E+02  0.63098321600E+02 -0.52397240593E+03  0.52960076514E+03  0.41800000000E+01 0. -1.
         -5    1    3    3    0  502  0.79917047940E+02 -0.58293710866E+02 -0.71840076593E+03  0.72519102598E+03  0.41800000000E+01 0. -1.
        -11    1    1    2    0    0 -0.57881963580E+02  0.16213056553E+02 -0.26668321751E+03  0.27337359677E+03  0.00000000000E+00 0. -1.
         11    1    1    2    0    0 -0.65978430483E+02 -0.21017667287E+02 -0.75378531007E+02  0.10235633133E+03  0.00000000000E+00 0.  1.
</event>
<event>
 7    1  0.2794945E-009  0.1575931E+03  0.7561462E-02  0.1191441E+00
         -2   -1    0    0    0  501 -0.00000000000E+00  0.00000000000E+00  0.18876941044E+03  0.18876941044E+03  0.00000000000E+00 0.  1.
          2   -1    0    0  501    0  0.00000000000E+00 -0.00000000000E+00 -0.14143974859E+03  0.14143974859E+03  0.00000000000E+00 0. -1.
         25    2    1    2    0    0 -0.31480977815E+02  0.11706764687E+03  0.15605756159E+02  0.17489186963E+03  0.12509092904E+03 0.  0.
          5    1    3    3  502    0 -0.49414740910E+02 -0.11210801759E+01  0.23757659176E+02  0.54999747359E+02  0.41800000000E+01 0. -1.
         -5    1    3    3    0  502  0.17933763095E+02  0.11818872705E+03 -0.81519030173E+01  0.11989212227E+03  0.41800000000E+01 0. -1.
        -11    1    1    2    0    0 -0.17367720798E+02 -0.86758651924E+02  0.40242974090E+02  0.97201843465E+02  0.00000000000E+00 0.  1.
         11    1    1    2    0    0  0.48848698613E+02 -0.30308994946E+02 -0.85190683973E+01  0.58115445943E+02  0.00000000000E+00 0. -1.
</event>
<event>
 7    1  0.2794945E-009  0.1115047E+03  0.7561462E-02  0.1257809E+00
          1   -1    0    0  501    0  0.00000000000E+00  0.00000000000E+00  0.44165857199E+02  0.44165857199E+02  0.00000000000E+00 0. -1.
         -1   -1    0    0    0  501 -0.00000000000E+00 -0.00000000000E+00 -0.31163890669E+03  0.31163890669E+03  0.00000000000E+00 0.  1.
         25    2    1    2    0    0 -0.28005775049E+02  0.35125906775E+02 -0.12948713580E+03  0.18555957427E+03  0.12508910625E+03 0.  0.
          5    1    3    3  502    0  0.26223637803E+02  0.64763210015E+02 -0.57443914553E+02  0.90549590116E+02  0.41800000000E+01 0.  1.
         -5    1    3    3    0  502 -0.54229412851E+02 -0.29637303240E+02 -0.72043221249E+02  0.95009984157E+02  0.41800000000E+01 0.  1.
        -11    1    1    2    0    0  0.21637589952E+01 -0.57106119230E+02 -0.49954354622E+02  0.75902755235E+02  0.00000000000E+00 0.  1.
         11    1    1    2    0    0  0.25842016053E+02  0.21980212455E+02 -0.88031559062E+02  0.94342434377E+02  0.00000000000E+00 0. -1.
</event>
<event>
 7    1  0.2794945E-009  0.5353505E+02  0.7561462E-02  0.1427156E+00
          2   -1    0    0  501    0  0.00000000000E+00  0.00000000000E+00  0.65296785681E+02  0.65296785681E+02  0.00000000000E+00 0. -1.
         -2   -1    0    0    0  501 -0.00000000000E+00 -0.00000000000E+00 -0.18531384788E+03  0.18531384788E+03  0.00000000000E+00 0.  1.
         25    2    1    2    0    0 -0.12029826909E+01  0.84968959167E+01 -0.48083314451E+02  0.13429168871E+03  0.12509439684E+03 0.  0.
          5    1    3    3  502    0  0.30939506366E+01 -0.24548043517E+02 -0.82483536705E+02  0.86215921954E+02  0.41800000000E+01 0.  1.
         -5    1    3    3    0  502 -0.42969333275E+01  0.33044939434E+02  0.34400222255E+02  0.48075766758E+02  0.41800000000E+01 0.  1.
        -11    1    1    2    0    0  0.23108953331E+02  0.35704077122E+01  0.13704666957E+02  0.27103310346E+02  0.00000000000E+00 0. -1.
         11    1    1    2    0    0 -0.21905970640E+02 -0.12067303629E+02 -0.85638414705E+02  0.89215634503E+02  0.00000000000E+00 0.  1.
</event>
<event>
 7    1  0.2794945E-009  0.2423075E+03  0.7561462E-02  0.1118265E+00
          1   -1    0    0  501    0  0.00000000000E+00  0.00000000000E+00  0.14916036584E+03  0.14916036584E+03  0.00000000000E+00 0. -1.
         -1   -1    0    0    0  501 -0.00000000000E+00 -0.00000000000E+00 -0.44352608958E+03  0.44352608958E+03  0.00000000000E+00 0.  1.
         25    2    1    2    0    0  0.10726761271E+03 -0.20067140594E+03 -0.97531628384E+02  0.27737219871E+03  0.12509022417E+03 0.  0.
          5    1    3    3  502    0  0.85238387970E+02 -0.65358911401E+02 -0.89679052149E+02  0.13998990991E+03  0.41800000000E+01 0.  1.
         -5    1    3    3    0  502  0.22029224744E+02 -0.13531249454E+03 -0.78525762351E+01  0.13738228880E+03  0.41800000000E+01 0.  1.
        -11    1    1    2    0    0 -0.61213670904E+02  0.17878481460E+03 -0.18162440397E+03  0.26210407771E+03  0.00000000000E+00 0.  1.
         11    1    1    2    0    0 -0.46053941810E+02  0.21886591348E+02 -0.15209691383E+02  0.53210178998E+02  0.00000000000E+00 0. -1.
</event>
<event>
 7    1  0.2794945E-009  0.9350394E+02  0.7561462E-02  0.1294582E+00
          1   -1    0    0  501    0  0.00000000000E+00  0.00000000000E+00  0.25114024655E+03  0.25114024655E+03  0.00000000000E+00 0. -1.
         -1   -1    0    0    0  501 -0.00000000000E+00 -0.00000000000E+00 -0.53893366084E+02  0.53893366084E+02  0.00000000000E+00 0.  1.
         25    2    1    2    0    0 -0.12174443968E+02 -0.39642392835E+02  0.93368614582E+02  0.16151206583E+03  0.12509481534E+03 0.  0.
          5    1    3    3  502    0  0.24247582363E+02  0.30368247526E+02  0.68140599544E+02  0.78554372345E+02  0.41800000000E+01 0. -1.
         -5    1    3    3    0  502 -0.36422026331E+02 -0.70010640361E+02  0.25228015038E+02  0.82957693487E+02  0.41800000000E+01 0. -1.
        -11    1    1    2    0    0  0.28799852894E+02  0.43173519157E+02  0.16429349723E+02  0.54436272975E+02  0.00000000000E+00 0.  1.
         11    1    1    2    0    0 -0.16625408926E+02 -0.35311263213E+01  0.87448916159E+02  0.89085273825E+02  0.00000000000E+00 0. -1.
</event>
<event>
 7    1  0.3464899E-009  0.1414470E+03  0.7561462E-02  0.1211395E+00
         -2   -1    0    0    0  501 -0.00000000000E+00  0.00000000000E+00  0.40564095623E+02  0.40564095623E+02  0.00000000000E+00 0. -1.
          2   -1    0    0  501    0  0.00000000000E+00 -0.00000000000E+00 -0.70251198531E+03  0.70251198531E+03  0.00000000000E+00 0.  1.
         25    2    1    2    0    0 -0.38980631335E+02 -0.12297157880E+03 -0.37014536247E+03  0.41145558534E+03  0.12508641228E+03 0.  0.
          5    1    3    3  502    0 -0.29751587592E+02 -0.99139692839E+02 -0.11412642179E+03  0.15413029621E+03  0.41800000000E+01 0. -1.
         -5    1    3    3    0  502 -0.92290437428E+01 -0.23831885964E+02 -0.25601894068E+03  0.25732528913E+03  0.41800000000E+01 0. -1.
        -11    1    1    2    0    0 -0.15668121396E+02  0.86023871187E+02 -0.12781496370E+03  0.15486207214E+03  0.00000000000E+00 0. -1.
         11    1    1    2    0    0  0.54648752731E+02  0.36947707615E+02 -0.16398756351E+03  0.17675842345E+03  0.00000000000E+00 0.  1.
</event>
<event>
 7    1  0.2794945E-009  0.8281654E+02  0.7561462E-02  0.1321243E+00
         -2   -1    0    0    0  501 -0.00000000000E+00  0.00000000000E+00  0.61104009151E+02  0.61104009151E+02  0.00000000000E+00 0.  1.
          2   -1    0    0  501    0  0.00000000000E+00 -0.00000000000E+00 -0.28138647432E+03  0.28138647432E+03  0.00000000000E+00 0. -1.
         25    2    1    2    0    0  0.15541706955E+02 -0.33889501478E+02 -0.20889760550E+03  0.24632515559E+03  0.12509128558E+03 0.  0.
          5    1    3    3  502    0 -0.15577870835E+02 -0.39662846099E+02 -0.21005929198E+03  0.21437861360E+03  0.41800000000E+01 0. -1.
         -5    1    3    3    0  502  0.31119577790E+02  0.57733446215E+01  0.11616864793E+01  0.31946541995E+02  0.41800000000E+01 0. -1.
        -11    1    1    2    0    0 -0.48442746911E+02  0.81631958829E+01 -0.20807329823E+02  0.53350562037E+02  0.00000000000E+00 0. -1.
         11    1    1    2    0    0  0.32901039956E+02  0.25726305595E+02  0.94224701606E+01  0.42814765837E+02  0.00000000000E+00 0.  1.
</event>
<event>
 7    1  0.2794945E-009  0.1202544E+03  0.7561462E-02  0.1242678E+00
          1   -1    0    0  501    0  0.00000000000E+00  0.00000000000E+00  0.23636905576E+02  0.23636905576E+02  0.00000000000E+00 0. -1.
         -1   -1    0    0    0  501 -0.00000000000E+00 -0.00000000000E+00 -0.86311282238E+03  0.86311282238E+03  0.00000000000E+00 0.  1.
         25    2    1    2    0    0  0.54717782942E+02 -0.74761501180E+02 -0.43047385947E+03  0.45775526191E+03  0.12509523688E+03 0.  0.
          5    1    3    3  502    0  0.51495901778E+02 -0.34737391142E+01 -0.55011798590E+02  0.75549090977E+02  0.41800000000E+01 0. -1.
         -5    1    3    3    0  502  0.32218811640E+01 -0.71287762066E+02 -0.37546206088E+03  0.38220617093E+03  0.41800000000E+01 0. -1.
        -11    1    1    2    0    0 -0.72185802732E+02  0.54227582198E+02 -0.37438917358E+03  0.38512163544E+03  0.00000000000E+00 0.  1.
         11    1    1    2    0    0  0.17468019791E+02  0.20533918982E+02 -0.34612883757E+02  0.43872830615E+02  0.00000000000E+00 0. -1.
</event>
<event>
 7    1  0.2794945E-009  0.1952760E+03  0.7561462E-02  0.1153787E+00
          1   -1    0    0  501    0  0.00000000000E+00  0.00000000000E+00  0.46819876122E+02  0.46819876122E+02  0.00000000000E+00 0. -1.
         -1   -1    0    0    0  501 -0.00000000000E+00 -0.00000000000E+00 -0.87552555247E+03  0.87552555247E+03  0.00000000000E+00 0.  1.
         25    2    1    2    0    0  0.14651698623E+03 -0.80027279848E+02 -0.34840556759E+03  0.40608111733E+03  0.12507534351E+03 0.  0.
          5    1    3    3  502    0  0.16637776896E+03 -0.58197613600E+02 -0.31733121879E+03  0.36302217432E+03  0.41800000000E+01 0. -1.
         -5    1    3    3    0  502 -0.19860782738E+02 -0.21829666248E+02 -0.31074348802E+02  0.43058943008E+02  0.41800000000E+01 0. -1.
        -11    1    1    2    0    0 -0.74267270319E+02 -0.30545885965E+01 -0.13874038419E+03  0.15739711611E+03  0.00000000000E+00 0. -1.
         11    1    1    2    0    0 -0.72249715906E+02  0.83081868444E+02 -0.34155972457E+03  0.35886719516E+03  0.00000000000E+00 0.  1.
</event>
<event>
 7    1  0.2794945E-009  0.1272473E+03  0.7561462E-02  0.1231598E+00
          1   -1    0    0  501    0  0.00000000000E+00  0.00000000000E+00  0.88548062144E+02  0.88548062144E+02  0.00000000000E+00 0. -1.
         -1   -1    0    0    0  501 -0.00000000000E+00 -0.00000000000E+00 -0.23145991331E+03  0.23145991331E+03  0.00000000000E+00 0.  1.
         25    2    1    2    0    0 -0.50924478044E+02  0.50650953449E+02 -0.10926768908E+02  0.14465661330E+03  0.12508924791E+03 0.  0.
          5    1    3    3  502    0  0.39044721359E+02  0.19693909877E+02  0.14186026848E+02  0.46163363286E+02  0.41800000000E+01 0. -1.
         -5    1    3    3    0  502 -0.89969199402E+02  0.30957043572E+02 -0.25112795756E+02  0.98493250015E+02  0.41800000000E+01 0. -1.
        -11    1    1    2    0    0 -0.21797217514E+02  0.65992013065E+01 -0.22962759580E+02  0.32341250390E+02  0.00000000000E+00 0.  1.
         11    1    1    2    0    0  0.72721695558E+02 -0.57250154755E+02 -0.10902232268E+03  0.14301011176E+03  0.00000000000E+00 0. -1.
</event>
<event>
 7    1  0.2794945E-009  0.1894560E+03  0.7561462E-02  0.1158953E+00
          1   -1    0    0  501    0  0.00000000000E+00  0.00000000000E+00  0.50211737798E+03  0.50211737798E+03  0.00000000000E+00 0. -1.
         -1   -1    0    0    0  501 -0.00000000000E+00 -0.00000000000E+00 -0.89029694722E+02  0.89029694722E+02  0.00000000000E+00 0.  1.
         25    2    1    2    0    0 -0.73652798096E+02 -0.15030670624E+03  0.31039451254E+03  0.37418756468E+03  0.12511890160E+03 0.  0.
          5    1    3    3  502    0 -0.95595508247E+02 -0.15113363146E+03  0.23369294057E+03  0.29429532553E+03  0.41800000000E+01 0. -1.
         -5    1    3    3    0  502  0.21942710151E+02  0.82692521847E+00  0.76701571972E+02  0.79892239154E+02  0.41800000000E+01 0. -1.
        -11    1    1    2    0    0  0.80578929407E+02  0.10765774336E+03  0.39038386333E+02  0.14002553045E+03  0.00000000000E+00 0.  1.
         11    1    1    2    0    0 -0.69261313107E+01  0.42648962882E+02  0.63654784386E+02  0.76933977572E+02  0.00000000000E+00 0. -1.
</event>
<event>
 7    1  0.2794945E-009  0.1378353E+03  0.7561462E-02  0.1216272E+00
          2   -1    0    0  501    0  0.00000000000E+00  0.00000000000E+00  0.32571351608E+03  0.32571351608E+03  0.00000000000E+00 0. -1.
         -2   -1    0    0    0  501 -0.00000000000E+00 -0.00000000000E+00 -0.72831610120E+02  0.72831610120E+02  0.00000000000E+00 0.  1.
         25    2    1    2    0    0 -0.28515378717E+02 -0.95617689879E+02  0.81371799489E+02  0.17951369882E+03  0.12509168186E+03 0.  0.
          5    1    3    3  502    0 -0.26161831967E+02  0.26691726053E+02  0.19298051311E+02  0.42270283604E+02  0.41800000000E+01 0.  1.
         -5    1    3    3    0  502 -0.23535467501E+01 -0.12230941593E+03  0.62073748177E+02  0.13724341522E+03  0.41800000000E+01 0.  1.
        -11    1    1    2    0    0  0.19164343075E+02  0.10235510672E+03  0.17768885399E+03  0.20595428801E+03  0.00000000000E+00 0. -1.
         11    1    1    2    0    0  0.93510356417E+01 -0.67374168448E+01 -0.61787475134E+01  0.13077139372E+02  0.00000000000E+00 0.  1.
</event>
<event>
 6    1  0.2794945E-009  0.1080051E+03  0.7561462E-02  0.1264309E+00
         -2   -1    0    0    0  501 -0.00000000000E+00  0.00000000000E+00  0.23868666780E+03  0.23868666780E+03  0.00000000000E+00 0.  1.
          2   -1    0    0  501    0  0.00000000000E+00 -0.00000000000E+00 -0.53278191674E+02  0.53278191674E+02  0.00000000000E+00 0. -1.
          5    1    1    2  502    0  0.72305965690E+02 -0.30582942992E+02  0.51192529521E+02  0.93816931069E+02  0.41800000000E+01 0.  1.
         -5    1    1    2    0  502 -0.43364063594E+02  0.23456687130E+02  0.42615972285E+02  0.65301237938E+02  0.41800000000E+01 0.  1.
        -11    1    1    2    0    0 -0.32196605512E+02  0.41981244050E+02  0.80108522814E+02  0.96002196256E+02  0.00000000000E+00 0. -1.
         11    1    1    2    0    0  0.32547034164E+01 -0.34854988187E+02  0.11491451505E+02  0.36844494209E+02  0.00000000000E+00 0.  1.
</event>
<event>
 7    1  0.2794945E-009  0.8960844E+02  0.7561462E-02  0.1303803E+00
          1   -1    0    0  501    0  0.00000000000E+00  0.00000000000E+00  0.60359848743E+03  0.60359848743E+03  0.00000000000E+00 0. -1.
         -1   -1    0    0    0  501 -0.00000000000E+00 -0.00000000000E+00 -0.22678203645E+02  0.22678203645E+02  0.00000000000E+00 0.  1.
         25    2    1    2    0    0  0.47563087287E+02 -0.15569253655E+02  0.31305089788E+03  0.34081157983E+03  0.12508804640E+03 0.  0.
          5    1    3    3  502    0  0.51855278718E+02  0.11139404433E+02  0.40433934489E+02  0.66823885852E+02  0.41800000000E+01 0.  1.
         -5    1    3    3    0  502 -0.42921914310E+01 -0.26708658088E+02  0.27261696339E+03  0.27398769398E+03  0.41800000000E+01 0.  1.
        -11    1    1    2    0    0 -0.24429332662E+02 -0.35202138151E+02  0.11282135394E+03  0.12068405334E+03  0.00000000000E+00 0. -1.
         11    1    1    2    0    0 -0.23133754624E+02  0.50771391805E+02  0.15504803196E+03  0.16478105790E+03  0.00000000000E+00 0.  1.
</event>
<event>
 7    1  0.2794945E-009  0.9374611E+02  0.7561462E-02  0.1294025E+00
          2   -1    0    0  501    0  0.00000000000E+00  0.00000000000E+00  0.70648697095E+03  0.70648697095E+03  0.00000000000E+00 0. -1.
         -2   -1    0    0    0  501 -0.00000000000E+00 -0.00000000000E+00 -0.20287100965E+02  0.20287100965E+02  0.00000000000E+00 0.  1.
         25    2    1    2    0    0  0.48233863917E+02  0.12590767646E+02  0.35030382462E+03  0.37529394728E+03  0.12509094398E+03 0.  0.
          5    1    3    3  502    0 -0.28692967468E+02 -0.41631034447E+01  0.19417338219E+02  0.35144320109E+02  0.41800000000E+01 0.  1.
         -5    1    3    3    0  502  0.76926831385E+02  0.16753871091E+02  0.33088648640E+03  0.34014962718E+03  0.41800000000E+01 0.  1.
        -11    1    1    2    0    0  0.11071397458E+02  0.10931097773E+02  0.81146226019E+01  0.17547416908E+02  0.00000000000E+00 0.  1.
         11    1    1    2    0    0 -0.59305261375E+02 -0.23521865419E+02  0.32778142276E+03  0.33393270772E+03  0.00000000000E+00 0. -1.
</event>
<event>
 7    1  0.2794945E-009  0.9643709E+02  0.7561462E-02  0.1287972E+00
          2   -1    0    0  501    0  0.00000000000E+00  0.00000000000E+00  0.96723744963E+02  0.96723744963E+02  0.00000000000E+00 0. -1.
         -2   -1    0    0    0  501 -0.00000000000E+00 -0.00000000000E+00 -0.20399836657E+03  0.20399836657E+03  0.00000000000E+00 0.  1.
         25    2    1    2    0    0 -0.50324818196E+02 -0.55029550419E+02 -0.11398308144E+03  0.18492549393E+03  0.12507780261E+03 0.  0.
          5    1    3    3  502    0 -0.12380338076E+02  0.17188701848E+02  0.19063719259E+02  0.28803160141E+02  0.41800000000E+01 0. -1.
         -5    1    3    3    0  502 -0.37944480120E+02 -0.72218252267E+02 -0.13304680069E+03  0.15612233379E+03  0.41800000000E+01 0. -1.
        -11    1    1    2    0    0  0.35701539714E+02  0.63389294269E+02 -0.27412272498E+02  0.77744679878E+02  0.00000000000E+00 0.  1.
         11    1    1    2    0    0  0.14623278482E+02 -0.83597438498E+01  0.34120732323E+02  0.38051937731E+02  0.00000000000E+00 0. -1.
</event>
<event>
 7    1  0.2794945E-009  0.2874143E+03  0.7561462E-02  0.1091707E+00
          1   -1    0    0  501    0  0.00000000000E+00  0.00000000000E+00  0.19910250716E+03  0.19910250716E+03  0.00000000000E+00 0. -1.
         -1   -1    0    0    0  501 -0.00000000000E+00 -0.00000000000E+00 -0.42313007896E+03  0.42313007896E+03  0.00000000000E+00 0.  1.
         25    2    1    2    0    0 -0.23934335993E+02  0.26948064837E+03 -0.11145896194E+03  0.31821724181E+03  0.12508573261E+03 0.  0.
          5    1    3    3  502    0 -0.72113678553E+02  0.11246878275E+03 -0.54112487861E+02  0.14420555977E+03  0.41800000000E+01 0. -1.
         -5    1    3    3    0  502  0.48179342560E+02  0.15701186563E+03 -0.57346474080E+02  0.17401168204E+03  0.41800000000E+01 0. -1.
        -11    1    1    2    0    0 -0.11846714069E+02 -0.11813239380E+02 -0.23911011885E+02  0.29182764575E+02  0.00000000000E+00 0.  1.
         11    1    1    2    0    0  0.35781050062E+02 -0.25766740899E+03 -0.88657597971E+02  0.27483257973E+03  0.00000000000E+00 0. -1.
</event>
<event>
 7    1  0.2794945E-009  0.1354715E+03  0.7561462E-02  0.1219556E+00
         -2   -1    0    0    0  501 -0.00000000000E+00  0.00000000000E+00  0.20749164378E+03  0.20749164378E+03  0.00000000000E+00 0.  1.
          2   -1    0    0  501    0  0.00000000000E+00 -0.00000000000E+00 -0.10014609637E+03  0.10014609637E+03  0.00000000000E+00 0. -1.
         25    2    1    2    0    0 -0.79321215556E+02 -0.48952728889E+02  0.74016687968E+02  0.17266763856E+03  0.12508964148E+03 0.  0.
          5    1    3    3  502    0 -0.68246254492E+02  0.23059020003E+02  0.68479660879E+02  0.99479676365E+02  0.41800000000E+01 0.  1.
         -5    1    3    3    0  502 -0.11074961064E+02 -0.72011748892E+02  0.55370270896E+01  0.73187962193E+02  0.41800000000E+01 0.  1.
        -11    1    1    2    0    0  0.37659656950E+02 -0.21935852585E+02  0.29555740835E+02  0.52659027778E+02  0.00000000000E+00 0.  1.
         11    1    1    2    0    0  0.41661558606E+02  0.70888581474E+02  0.37731186046E+01  0.82311073817E+02  0.00000000000E+00 0. -1.
</event>
<event>
 7    1  0.2794945E-009  0.1288696E+03  0.7561462E-02  0.1229143E+00
          2   -1    0    0  501    0  0.00000000000E+00  0.00000000000E+00  0.52828812084E+03  0.52828812084E+03  0.00000000000E+00 0. -1.
         -2   -1    0    0    0  501 -0.00000000000E+00 -0.00000000000E+00 -0.34411413021E+02  0.34411413021E+02  0.00000000000E+00 0.  1.
         25    2    1    2    0    0  0.15773690146E+02 -0.75844579971E+02  0.22555706069E+03  0.26930161876E+03  0.12508462987E+03 0.  0.
          5    1    3    3  502    0  0.37289756842E+02  0.18862430053E+02  0.32331742898E+02  0.53001238020E+02  0.41800000000E+01 0. -1.
         -5    1    3    3    0  502 -0.21516066696E+02 -0.94707010024E+02  0.19322531779E+03  0.21630038074E+03  0.41800000000E+01 0. -1.
        -11    1    1    2    0    0  0.22219238149E+02 -0.10217752458E+02  0.49463928340E+02  0.55179499962E+02  0.00000000000E+00 0.  1.
         11    1    1    2    0    0 -0.37992928295E+02  0.86062332429E+02  0.21885571879E+03  0.23821841514E+03  0.00000000000E+00 0. -1.
</event>
<event>
 7    1  0.2794945E-009  0.1050255E+03  0.7561462E-02  0.1270069E+00
         -3   -1    0    0    0  501 -0.00000000000E+00  0.00000000000E+00  0.31136156018E+03  0.31136156018E+03  0.00000000000E+00 0.  1.
          3   -1    0    0  501    0  0.00000000000E+00 -0.00000000000E+00 -0.49770282821E+02  0.49770282821E+02  0.00000000000E+00 0. -1.
         25    2    1    2    0    0  0.35193741659E+02 -0.19247845160E+02  0.81270760146E+02  0.15448002583E+03  0.12510021155E+03 0.  0.
          5    1    3    3  502    0 -0.22002224354E+02  0.37817558481E+02  0.52832787379E+02  0.68724387434E+02  0.41800000000E+01 0. -1.
         -5    1    3    3    0  502  0.57195966013E+02 -0.57065403641E+02  0.28437972767E+02  0.85755638391E+02  0.41800000000E+01 0. -1.
        -11    1    1    2    0    0 -0.33975287291E+02 -0.24211719162E+02  0.14424484776E+03  0.15015692990E+03  0.00000000000E+00 0.  1.
         11    1    1    2    0    0 -0.12184543675E+01  0.43459564322E+02  0.36075669454E+02  0.56494887278E+02  0.00000000000E+00 0. -1.
</event>
<event>
 7    1  0.2794945E-009  0.9879553E+02  0.7561462E-02  0.1282849E+00
          4   -1    0    0  501    0  0.00000000000E+00  0.00000000000E+00  0.33195803859E+03  0.33195803859E+03  0.00000000000E+00 0. -1.
         -4   -1    0    0    0  501 -0.00000000000E+00 -0.00000000000E+00 -0.94402813814E+02  0.94402813814E+02  0.00000000000E+00 0.  1.
         25    2    1    2    0    0  0.26465939765E+02 -0.70081842133E+02 -0.16318765845E+02  0.14671740213E+03  0.12509110042E+03 0.  0.
          5    1    3    3  502    0 -0.11716518155E+02  0.43880950498E+01 -0.53459381033E+02  0.55062782315E+02  0.41800000000E+01 0.  1.
         -5    1    3    3    0  502  0.38182457920E+02 -0.74469937182E+02  0.37140615187E+02  0.91654619814E+02  0.41800000000E+01 0.  1.
        -11    1    1    2    0    0 -0.30436616531E+02  0.23183944838E-01  0.15759046075E+03  0.16050277718E+03  0.00000000000E+00 0. -1.
         11    1    1    2    0    0  0.39706767662E+01  0.70058658188E+02  0.96283529874E+02  0.11914067310E+03  0.00000000000E+00 0.  1.
</event>
<event>
 7    1  0.2794945E-009  0.1166378E+03  0.7561462E-02  0.1248749E+00
          2   -1    0    0  501    0  0.00000000000E+00  0.00000000000E+00  0.32559827030E+03  0.32559827030E+03  0.00000000000E+00 0. -1.
         -2   -1    0    0    0  501 -0.00000000000E+00 -0.00000000000E+00 -0.71070885991E+02  0.71070885991E+02  0.00000000000E+00 0.  1.
         25    2    1    2    0    0 -0.74957603395E+02  0.37657117793E+02  0.22492346289E+03  0.27069373458E+03  0.12509129849E+03 0.  0.
          5    1    3    3  502    0 -0.87087466027E+02  0.71489982826E+02  0.15163378396E+03  0.18895851720E+03  0.41800000000E+01 0. -1.
         -5    1    3    3    0  502  0.12129862632E+02 -0.33832865033E+02  0.73289678931E+02  0.81735217389E+02  0.41800000000E+01 0. -1.
        -11    1    1    2    0    0  0.43628476915E+02 -0.17042320504E+02  0.61109357050E+02  0.76995053121E+02  0.00000000000E+00 0. -1.
         11    1    1    2    0    0  0.31329126480E+02 -0.20614797288E+02 -0.31505435625E+02  0.48980368590E+02  0.00000000000E+00 0.  1.
</event>
<event>
 7    1  0.3315152E-009  0.9725243E+02  0.7561462E-02  0.1286182E+00
          1   -1    0    0  501    0  0.00000000000E+00  0.00000000000E+00  0.27736707177E+03  0.27736707177E+03  0.00000000000E+00 0. -1.
         -1   -1    0    0    0  501 -0.00000000000E+00 -0.00000000000E+00 -0.97804350004E+02  0.97804350004E+02  0.00000000000E+00 0.  1.
         25    2    1    2    0    0  0.39193308399E+02  0.10965245377E+01 -0.37682338536E+02  0.13640185444E+03  0.12509272348E+03 0.  0.
          5    1    3    3  502    0  0.84286278664E+02 -0.77866811744E+01 -0.27941807231E+02  0.89235789715E+02  0.41800000000E+01 0. -1.
         -5    1    3    3    0  502 -0.45092970266E+02  0.88832057121E+01 -0.97405313055E+01  0.47166064720E+02  0.41800000000E+01 0. -1.
        -11    1    1    2    0    0 -0.15910968799E+02 -0.25386759919E+02  0.14560889828E+02  0.33311649912E+02  0.00000000000E+00 0.  1.
         11    1    1    2    0    0 -0.23282339600E+02  0.24290235381E+02  0.20268417048E+03  0.20545791743E+03  0.00000000000E+00 0. -1.
</event>
<event>
 7    1  0.3179275E-009  0.1141232E+03  0.7561462E-02  0.1253119E+00
          1   -1    0    0  501    0  0.00000000000E+00  0.00000000000E+00  0.12888824525E+04  0.12888824525E+04  0.00000000000E+00 0. -1.
         -1   -1    0    0    0  501 -0.00000000000E+00 -0.00000000000E+00 -0.13465272495E+02  0.13465272495E+02  0.00000000000E+00 0.  1.
         25    2    1    2    0    0  0.30821537643E+02 -0.26139640367E+02  0.10136094986E+04  0.10220983280E+04  0.12509008078E+03 0.  0.
          5    1    3    3  502    0 -0.48250435114E+02 -0.14986227714E+01  0.35740902836E+03  0.36067857756E+03  0.41800000000E+01 0.  1.
         -5    1    3    3    0  502  0.79071972757E+02 -0.24641017596E+02  0.65620047028E+03  0.66141975040E+03  0.41800000000E+01 0.  1.
        -11    1    1    2    0    0 -0.20822283776E+02  0.58973517604E+02  0.13338784175E+03  0.14732195902E+03  0.00000000000E+00 0. -1.
         11    1    1    2    0    0 -0.99992538670E+01 -0.32833877236E+02  0.12841983960E+03  0.13292743801E+03  0.00000000000E+00 0.  1.
</event>
<event>
 7    1  0.2794945E-009  0.1187529E+03  0.7561462E-02  0.1245169E+00
          1   -1    0    0  501    0  0.00000000000E+00  0.00000000000E+00  0.52395832766E+03  0.52395832766E+03  0.00000000000E+00 0. -1.
         -1   -1    0    0    0  501 -0.00000000000E+00 -0.00000000000E+00 -0.31171408250E+02  0.31171408250E+02  0.00000000000E+00 0.  1.
         25    2    1    2    0    0  0.59508669510E+02  0.23989667025E+02  0.32318387479E+03  0.35243740935E+03  0.12509006642E+03 0.  0.
          5    1    3    3  502    0  0.59403789869E+02  0.65394795277E+02  0.14831632585E+03  0.17268611529E+03  0.41800000000E+01 0. -1.
         -5    1    3    3    0  502  0.10487964093E+00 -0.41405128252E+02  0.17486754894E+03  0.17975129407E+03  0.41800000000E+01 0. -1.
        -11    1    1    2    0    0 -0.12134677744E+02 -0.51331078459E+02  0.10877103454E+03  0.12088535054E+03  0.00000000000E+00 0. -1.
         11    1    1    2    0    0 -0.47373991766E+02  0.27341411434E+02  0.60832010083E+02  0.81806976021E+02  0.00000000000E+00 0.  1.
</event>
<event>
 7    1  0.2794945E-009  0.1087436E+03  0.7561462E-02  0.1262914E+00
         -2   -1    0    0    0  501 -0.00000000000E+00  0.00000000000E+00  0.21937784673E+03  0.21937784673E+03  0.00000000000E+00 0.  1.
          2   -1    0    0  501    0  0.00000000000E+00 -0.00000000000E+00 -0.93939216524E+02  0.93939216524E+02  0.00000000000E+00 0. -1.
         25    2    1    2    0    0 -0.28096509710E+02  0.32362417673E+01  0.16657130180E+03  0.21022328830E+03  0.12509174729E+03 0.  0.
          5    1    3    3  502    0 -0.65534544190E+02 -0.31300951923E+02  0.69962733624E+02  0.10092959214E+03  0.41800000000E+01 0. -1.
         -5    1    3    3    0  502  0.37438034480E+02  0.34537193690E+02  0.96608568181E+02  0.10929369616E+03  0.41800000000E+01 0. -1.
        -11    1    1    2    0    0  0.60803496459E+02 -0.40143917737E+00 -0.33366351966E+02  0.69358054893E+02  0.00000000000E+00 0. -1.
         11    1    1    2    0    0 -0.32706986750E+02 -0.28348025899E+01 -0.77663196276E+01  0.33735720068E+02  0.00000000000E+00 0.  1.
</event>
<event>
 7    1  0.2794945E-009  0.1061353E+03  0.7561462E-02  0.1267899E+00
          1   -1    0    0  501    0  0.00000000000E+00  0.00000000000E+00  0.56626070874E+03  0.56626070874E+03  0.00000000000E+00 0. -1.
         -1   -1    0    0    0  501 -0.00000000000E+00 -0.00000000000E+00 -0.37171930781E+02  0.37171930781E+02  0.00000000000E+00 0.  1.
         25    2    1    2    0    0  0.75912437995E+01  0.22353486536E+02  0.48193240760E+03  0.49846140508E+03  0.12509045335E+03 0.  0.
          5    1    3    3  502    0  0.18191817118E+02 -0.48505858047E+02  0.14675909415E+03  0.15569028419E+03  0.41800000000E+01 0. -1.
         -5    1    3    3    0  502 -0.10600573318E+02  0.70859344584E+02  0.33517331345E+03  0.34277112089E+03  0.41800000000E+01 0. -1.
        -11    1    1    2    0    0 -0.45458814412E+02 -0.22359194873E+02  0.43775203396E+02  0.66953012146E+02  0.00000000000E+00 0. -1.
         11    1    1    2    0    0  0.37867570612E+02  0.57083368806E-02  0.33811669691E+01  0.38018222298E+02  0.00000000000E+00 0.  1.
</event>
<event>
 7    1  0.2794945E-009  0.6616774E+02  0.7561462E-02  0.1373632E+00
          2   -1    0    0  501    0  0.00000000000E+00  0.00000000000E+00  0.45687015986E+03  0.45687015986E+03  0.00000000000E+00 0. -1.
         -2   -1    0    0    0  501 -0.00000000000E+00 -0.00000000000E+00 -0.32887054591E+02  0.32887054591E+02  0.00000000000E+00 0.  1.
         25    2    1    2    0    0  0.14389844262E+02  0.39638647984E+02  0.31407733390E+03  0.34068994292E+03  0.12508707169E+03 0.  0.
          5    1    3    3  502    0  0.26953237456E+02  0.41344531204E+02  0.32158274784E+03  0.32537483519E+03  0.41800000000E+01 0.  1.
         -5    1    3    3    0  502 -0.12563393194E+02 -0.17058832199E+01 -0.75054139399E+01  0.15315107722E+02  0.41800000000E+01 0.  1.
        -11    1    1    2    0    0 -0.25014795122E+02 -0.49178735224E+02  0.11966426615E+03  0.13177186561E+03  0.00000000000E+00 0. -1.
         11    1    1    2    0    0  0.10624950860E+02  0.95400872404E+01 -0.97584947874E+01  0.17295405918E+02  0.00000000000E+00 0.  1.
</event>
<event>
 7    1  0.2794945E-009  0.2203469E+03  0.7561462E-02  0.1133625E+00
          2   -1    0    0  501    0  0.00000000000E+00  0.00000000000E+00  0.27970337516E+04  0.27970337516E+04  0.00000000000E+00 0. -1.
         -2   -1    0    0    0  501 -0.00000000000E+00 -0.00000000000E+00 -0.18968229107E+02  0.18968229107E+02  0.00000000000E+00 0.  1.
         25    2    1    2    0    0 -0.16582032119E+03  0.10839081761E+03  0.17063794436E+04  0.17223893779E+04  0.12509762232E+03 0.  0.
          5    1    3    3  502    0 -0.34275570111E+02 -0.19255655041E+02  0.56465836112E+03  0.56604075131E+03  0.41800000000E+01 0.  1.
         -5    1    3    3    0  502 -0.13154475108E+03  0.12764647265E+03  0.11417210825E+04  0.11563486266E+04  0.41800000000E+01 0.  1.
        -11    1    1    2    0    0  0.16587704754E+01 -0.39905046822E+02  0.18533670901E+03  0.18959129723E+03  0.00000000000E+00 0.  1.
         11    1    1    2    0    0  0.16416155071E+03 -0.68485770786E+02  0.88634936984E+03  0.90402130558E+03  0.00000000000E+00 0. -1.
</event>
<event>
 7    1  0.2794945E-009  0.7341936E+02  0.7561462E-02  0.1348837E+00
          2   -1    0    0  501    0  0.00000000000E+00  0.00000000000E+00  0.58079936986E+02  0.58079936986E+02  0.00000000000E+00 0. -1.
         -2   -1    0    0    0  501 -0.00000000000E+00 -0.00000000000E+00 -0.28997716800E+03  0.28997716800E+03  0.00000000000E+00 0.  1.
         25    2    1    2    0    0  0.55137949351E+01 -0.64009154520E+02 -0.86219372768E+02  0.16494963889E+03  0.12508808629E+03 0.  0.
          5    1    3    3  502    0  0.51506346774E+01 -0.79356110221E+01  0.32220345143E+02  0.33839710415E+02  0.41800000000E+01 0. -1.
         -5    1    3    3    0  502  0.36316025768E+00 -0.56073543498E+02 -0.11843971791E+03  0.13110992847E+03  0.41800000000E+01 0. -1.
        -11    1    1    2    0    0 -0.26361550472E+02  0.26663943634E+02 -0.72069050804E+01  0.38181627967E+02  0.00000000000E+00 0. -1.
         11    1    1    2    0    0  0.20847755537E+02  0.37345210886E+02 -0.13847095316E+03  0.14492583813E+03  0.00000000000E+00 0.  1.
</event>
<event>
 7    1  0.2794945E-009  0.1767965E+03  0.7561462E-02  0.1170940E+00
          1   -1    0    0  501    0  0.00000000000E+00  0.00000000000E+00  0.25143238879E+03  0.25143238879E+03  0.00000000000E+00 0. -1.
         -1   -1    0    0    0  501 -0.00000000000E+00 -0.00000000000E+00 -0.14857241686E+03  0.14857241686E+03  0.00000000000E+00 0.  1.
         25    2    1    2    0    0  0.11365429522E+03  0.11335677507E+03  0.63576045770E+02  0.21321870354E+03  0.12511292765E+03 0.  0.
          5    1    3    3  502    0  0.41525144257E+02  0.83502164691E+02  0.91006049556E+02  0.13037071208E+03  0.41800000000E+01 0.  1.
         -5    1    3    3    0  502  0.72129150964E+02  0.29854610383E+02 -0.27430003786E+02  0.82847991452E+02  0.41800000000E+01 0.  1.
        -11    1    1    2    0    0 -0.79139487195E+02 -0.18707475723E+02  0.24707052086E+02  0.84990978958E+02  0.00000000000E+00 0. -1.
         11    1    1    2    0    0 -0.34514808026E+02 -0.94649299351E+02  0.14576874072E+02  0.10179512316E+03  0.00000000000E+00 0.  1.
</event>
<event>
 7    1  0.2794945E-009  0.1940433E+03  0.7561462E-02  0.1154864E+00
          2   -1    0    0  501    0  0.00000000000E+00  0.00000000000E+00  0.20063059743E+04  0.20063059743E+04  0.00000000000E+00 0. -1.
         -2   -1    0    0    0  501 -0.00000000000E+00 -0.00000000000E+00 -0.24815314278E+02  0.24815314278E+02  0.00000000000E+00 0.  1.
         25    2    1    2    0    0 -0.11654097196E+02  0.16430532327E+03  0.14994920084E+04  0.15136894608E+04  0.12508973970E+03 0.  0.
          5    1    3    3  502    0 -0.28152779003E+02  0.17884271250E+03  0.12286557970E+04  0.12419298831E+04  0.41800000000E+01 0.  1.
         -5    1    3    3    0  502  0.16498681807E+02 -0.14537389222E+02  0.27083621147E+03  0.27175957762E+03  0.41800000000E+01 0.  1.
        -11    1    1    2    0    0  0.44840054886E+02 -0.58410831945E+02  0.14491271774E+03  0.16254892056E+03  0.00000000000E+00 0.  1.
         11    1    1    2    0    0 -0.33185957690E+02 -0.10589449133E+03  0.33708593388E+03  0.35488290731E+03  0.00000000000E+00 0. -1.
</event>
<event>
 7    1  0.2794945E-009  0.1930278E+03  0.7561462E-02  0.1155758E+00
         -2   -1    0    0    0  501 -0.00000000000E+00  0.00000000000E+00  0.27613159111E+02  0.27613159111E+02  0.00000000000E+00 0.  1.
          2   -1    0    0  501    0  0.00000000000E+00 -0.00000000000E+00 -0.14224938235E+04  0.14224938235E+04  0.00000000000E+00 0. -1.
         25    2    1    2    0    0 -0.16471445691E+03  0.17166013234E+01 -0.70584806652E+03  0.73552839161E+03  0.12508686110E+03 0.  0.
          5    1    3    3  502    0 -0.14345149462E+03  0.51552019380E+02 -0.52134225497E+03  0.54318612025E+03  0.41800000000E+01 0.  1.
         -5    1    3    3    0  502 -0.21262962295E+02 -0.49835418056E+02 -0.18450581155E+03  0.19234227136E+03  0.41800000000E+01 0.  1.
        -11    1    1    2    0    0  0.11584967922E+03 -0.33903811243E+02 -0.56054954997E+03  0.57339900118E+03  0.00000000000E+00 0. -1.
         11    1    1    2    0    0  0.48864777688E+02  0.32187209919E+02 -0.12848304787E+03  0.14117958978E+03  0.00000000000E+00 0.  1.
</event>
<event>
 7    1  0.2794945E-009  0.3624283E+03  0.7561462E-02  0.1057626E+00
          1   -1    0    0  501    0  0.00000000000E+00  0.00000000000E+00  0.11774478677E+04  0.11774478677E+04  0.00000000000E+00 0. -1.
         -1   -1    0    0    0  501 -0.00000000000E+00 -0.00000000000E+00 -0.14666914262E+03  0.14666914262E+03  0.00000000000E+00 0.  1.
         25    2    1    2    0    0  0.29586544613E+03 -0.20278568129E+03  0.80663552100E+03  0.89160884720E+03  0.12508828049E+03 0.  0.
          5    1    3    3  502    0  0.28371471003E+03 -0.16967330016E+03  0.63042237757E+03  0.71185174862E+03  0.41800000000E+01 0. -1.
         -5    1    3    3    0  502  0.12150736098E+02 -0.33112381132E+02  0.17621314343E+03  0.17975709858E+03  0.41800000000E+01 0. -1.
        -11    1    1    2    0    0 -0.16327041812E+03  0.11522333451E+03  0.71695315465E+02  0.21230606329E+03  0.00000000000E+00 0.  1.
         11    1    1    2    0    0 -0.13259502801E+03  0.87562346785E+02  0.15244788859E+03  0.22020209981E+03  0.00000000000E+00 0. -1.
</event>
<event>
 7    1  0.2794945E-009  0.1139717E+03  0.7561462E-02  0.1253387E+00
          1   -1    0    0  501    0  0.00000000000E+00  0.00000000000E+00  0.37897257078E+03  0.37897257078E+03  0.00000000000E+00 0. -1.
         -1   -1    0    0    0  501 -0.00000000000E+00 -0.00000000000E+00 -0.72746313674E+02  0.72746313674E+02  0.00000000000E+00 0.  1.
         25    2    1    2    0    0  0.27207454702E+02  0.32999195048E+02  0.27375961852E+01  0.13222386300E+03  0.12508582273E+03 0.  0.
          5    1    3    3  502    0  0.68875784877E+02  0.47726459905E+02  0.16985488004E+02  0.85601798580E+02  0.41800000000E+01 0. -1.
         -5    1    3    3    0  502 -0.41668330174E+02 -0.14727264856E+02 -0.14247891819E+02  0.46622064422E+02  0.41800000000E+01 0. -1.
        -11    1    1    2    0    0  0.33409756512E+02 -0.11354086413E+02  0.11746360847E+03  0.12264920066E+03  0.00000000000E+00 0.  1.
         11    1    1    2    0    0 -0.60617211215E+02 -0.21645108636E+02  0.18602505246E+03  0.19684582079E+03  0.00000000000E+00 0. -1.
</event>
<event>
 7    1  0.2794945E-009  0.1024344E+03  0.7561462E-02  0.1275258E+00
         -1   -1    0    0    0  501 -0.00000000000E+00  0.00000000000E+00  0.12994586323E+03  0.12994586323E+03  0.00000000000E+00 0.  1.
          1   -1    0    0  501    0  0.00000000000E+00 -0.00000000000E+00 -0.10493584012E+03  0.10493584012E+03  0.00000000000E+00 0. -1.
         25    2    1    2    0    0 -0.15699080262E+02  0.30939531449E+01 -0.21227376481E+02  0.12788383498E+03  0.12509052750E+03 0.  0.
          5    1    3    3  502    0  0.44038706285E+02  0.33077598584E+02 -0.25372914003E+02  0.60784803564E+02  0.41800000000E+01 0. -1.
         -5    1    3    3    0  502 -0.59737786546E+02 -0.29983645439E+02  0.41455375222E+01  0.67099031414E+02  0.41800000000E+01 0. -1.
        -11    1    1    2    0    0  0.41831941414E+02 -0.24851842384E+02  0.53403794624E+02  0.72246042609E+02  0.00000000000E+00 0.  1.
         11    1    1    2    0    0 -0.26132861152E+02  0.21757889239E+02 -0.71663950264E+01  0.34751825763E+02  0.00000000000E+00 0. -1.
</event>
<event>
 7    1  0.4721596E-009  0.1351920E+03  0.7561462E-02  0.1219949E+00
          2   -1    0    0  501    0  0.00000000000E+00  0.00000000000E+00  0.51479137917E+03  0.51479137917E+03  0.00000000000E+00 0. -1.
         -2   -1    0    0    0  501 -0.00000000000E+00 -0.00000000000E+00 -0.43522292756E+02  0.43522292756E+02  0.00000000000E+00 0.  1.
         25    2    1    2    0    0  0.12054073248E+02 -0.96630918339E+02  0.31566101704E+03  0.35322860521E+03  0.12508291170E+03 0.  0.
          5    1    3    3  502    0 -0.50316100780E+02 -0.21381945570E+02  0.70798116153E+02  0.89547435724E+02  0.41800000000E+01 0.  1.
         -5    1    3    3    0  502  0.62370174028E+02 -0.75248972769E+02  0.24486290089E+03  0.26368116949E+03  0.41800000000E+01 0.  1.
        -11    1    1    2    0    0 -0.39549512643E+02  0.61442807372E+02  0.45033645534E+02  0.85833628364E+02  0.00000000000E+00 0.  1.
         11    1    1    2    0    0  0.27495439395E+02  0.35188110967E+02  0.11057442384E+03  0.11925143835E+03  0.00000000000E+00 0. -1.
</event>
<event>
 7    1  0.2794945E-009  0.1167587E+03  0.7561462E-02  0.1248542E+00
          1   -1    0    0  501    0  0.00000000000E+00  0.00000000000E+00  0.47770378763E+03  0.47770378763E+03  0.00000000000E+00 0. -1.
         -1   -1    0    0    0  501 -0.00000000000E+00 -0.00000000000E+00 -0.43151410337E+02  0.43151410337E+02  0.00000000000E+00 0.  1.
         25    2    1    2    0    0 -0.57572572789E+02  0.49609249011E+02  0.33506135396E+03  0.36563719391E+03  0.12509503558E+03 0.  0.
          5    1    3    3  502    0 -0.31636674538E+02 -0.26213768636E+02  0.32319848146E+02  0.52441260722E+02  0.41800000000E+01 0.  1.
         -5    1    3    3    0  502 -0.25935898251E+02  0.75823017647E+02  0.30274150581E+03  0.31319593319E+03  0.41800000000E+01 0.  1.
        -11    1    1    2    0    0 -0.17586765542E+02 -0.29210567154E+02  0.79112317447E+01  0.35001987706E+02  0.00000000000E+00 0.  1.
         11    1    1    2    0    0  0.75159338331E+02 -0.20398681857E+02  0.91579791592E+02  0.12021601635E+03  0.00000000000E+00 0. -1.
</event>
<event>
 7    1  0.2794945E-009  0.1208533E+03  0.7561462E-02  0.1241696E+00
          1   -1    0    0  501    0  0.00000000000E+00  0.00000000000E+00  0.59434797946E+03  0.59434797946E+03  0.00000000000E+00 0. -1.
         -1   -1    0    0    0  501 -0.00000000000E+00 -0.00000000000E+00 -0.31865862307E+02  0.31865862307E+02  0.00000000000E+00 0.  1.
         25    2    1    2    0    0 -0.58328336726E+02 -0.55452910250E+02  0.24747841303E+03  0.28873927283E+03  0.12509029792E+03 0.  0.
          5    1    3    3  502    0  0.29185954325E+02  0.13008310441E+02  0.92856380682E+02  0.98289449606E+02  0.41800000000E+01 0. -1.
         -5    1    3    3    0  502 -0.87514291051E+02 -0.68461220691E+02  0.15462203235E+03  0.19044982322E+03  0.41800000000E+01 0. -1.
        -11    1    1    2    0    0  0.17595592625E+02  0.54797273698E+02  0.27284565409E+03  0.27884959573E+03  0.00000000000E+00 0. -1.
         11    1    1    2    0    0  0.40732744101E+02  0.65563655214E+00  0.42158050034E+02  0.58624973210E+02  0.00000000000E+00 0.  1.
</event>
<event>
 7    1  0.2794945E-009  0.9808403E+02  0.7561462E-02  0.1284377E+00
         -1   -1    0    0    0  501 -0.00000000000E+00  0.00000000000E+00  0.16137570513E+03  0.16137570513E+03  0.00000000000E+00 0.  1.
          1   -1    0    0  501    0  0.00000000000E+00 -0.00000000000E+00 -0.99097405897E+02  0.99097405897E+02  0.00000000000E+00 0. -1.
         25    2    1    2    0    0 -0.13678813981E+02 -0.19431712720E+02 -0.27889412218E+02  0.13034743267E+03  0.12509169628E+03 0.  0.
          5    1    3    3  502    0 -0.54900494223E+02 -0.28792285399E+02 -0.52423261795E+02  0.81294100288E+02  0.41800000000E+01 0. -1.
         -5    1    3    3    0  502  0.41221680242E+02  0.93605726788E+01  0.24533849577E+02  0.49053332383E+02  0.41800000000E+01 0. -1.
        -11    1    1    2    0    0  0.47799555136E+02  0.29266781905E+02  0.40852578238E+02  0.69356147118E+02  0.00000000000E+00 0.  1.
         11    1    1    2    0    0 -0.34120741155E+02 -0.98350691855E+01  0.49315133209E+02  0.60769531233E+02  0.00000000000E+00 0. -1.
</event>
<event>
 6    1  0.2794945E-009  0.9426302E+02  0.7561462E-02  0.1292845E+00
          2   -1    0    0  501    0  0.00000000000E+00  0.00000000000E+00  0.25265959244E+03  0.25265959244E+03  0.00000000000E+00 0. -1.
         -2   -1    0    0    0  501 -0.00000000000E+00 -0.00000000000E+00 -0.51664706316E+02  0.51664706316E+02  0.00000000000E+00 0.  1.
          5    1    1    2  502    0  0.31043389483E+02 -0.49513651935E+02  0.57928944016E+02  0.82392528262E+02  0.41800000000E+01 0. -1.
         -5    1    1    2    0  502 -0.42304353532E+02  0.48475683245E+02  0.10618223781E+03  0.12422435438E+03  0.41800000000E+01 0. -1.
        -11    1    1    2    0    0  0.16572396144E+02 -0.29838210928E+02 -0.14853598566E+02  0.37223548134E+02  0.00000000000E+00 0.  1.
         11    1    1    2    0    0 -0.53114320948E+01  0.30876179619E+02  0.51737302861E+02  0.60483867982E+02  0.00000000000E+00 0. -1.
</event>
<event>
 7    1  0.2794945E-009  0.8896649E+02  0.7561462E-02  0.1305374E+00
         -2   -1    0    0    0  501 -0.00000000000E+00  0.00000000000E+00  0.45667862810E+02  0.45667862810E+02  0.00000000000E+00 0.  1.
          2   -1    0    0  501    0  0.00000000000E+00 -0.00000000000E+00 -0.26271480465E+03  0.26271480465E+03  0.00000000000E+00 0. -1.
         25    2    1    2    0    0 -0.17331099492E+02 -0.15347640532E+01 -0.11262896278E+03  0.16919555242E+03  0.12505650400E+03 0.  0.
          5    1    3    3  502    0  0.38707337087E+02 -0.41792867224E+02 -0.52348817188E+02  0.77477562921E+02  0.41800000000E+01 0. -1.
         -5    1    3    3    0  502 -0.56038436579E+02  0.40258103171E+02 -0.60280145590E+02  0.91717989498E+02  0.41800000000E+01 0. -1.
        -11    1    1    2    0    0  0.29635826005E+02 -0.13242259111E+02  0.55785938078E+00  0.32464608676E+02  0.00000000000E+00 0.  1.
         11    1    1    2    0    0 -0.12304726513E+02  0.14777023165E+02 -0.10497583844E+03  0.10672250637E+03  0.00000000000E+00 0. -1.
</event>
<event>
 7    1  0.2794945E-009  0.1455352E+03  0.7561462E-02  0.1206069E+00
         -1   -1    0    0    0  501 -0.00000000000E+00  0.00000000000E+00  0.10007365554E+03  0.10007365554E+03  0.00000000000E+00 0.  1.
          1   -1    0    0  501    0  0.00000000000E+00 -0.00000000000E+00 -0.26032850046E+03  0.26032850046E+03  0.00000000000E+00 0. -1.
         25    2    1    2    0    0 -0.64934746722E+02 -0.89575765333E+02 -0.13363780829E+03  0.21388249695E+03  0.12508524944E+03 0.  0.
          5    1    3    3  502    0 -0.44191148049E+02  0.24546087689E+02 -0.35856628833E+02  0.62117133047E+02  0.41800000000E+01 0. -1.
         -5    1    3    3    0  502 -0.20743598674E+02 -0.11412185302E+03 -0.97781179459E+02  0.15176536390E+03  0.41800000000E+01 0. -1.
        -11    1    1    2    0    0  0.89872920717E+01  0.60622047451E+02  0.23890476013E+02  0.65776583220E+02  0.00000000000E+00 0.  1.
         11    1    1    2    0    0  0.55947454651E+02  0.28953717882E+02 -0.50507512648E+02  0.80743075833E+02  0.00000000000E+00 0. -1.
</event>
<event>
 7    1  0.2794945E-009  0.9767514E+02  0.7561462E-02  0.1285262E+00
         -3   -1    0    0    0  501 -0.00000000000E+00  0.00000000000E+00  0.28004212484E+03  0.28004212484E+03  0.00000000000E+00 0.  1.
          3   -1    0    0  501    0  0.00000000000E+00 -0.00000000000E+00 -0.56629940922E+02  0.56629940922E+02  0.00000000000E+00 0. -1.
         25    2    1    2    0    0  0.26224799460E+02  0.14842120666E+02  0.20415495736E+03  0.24131999768E+03  0.12509223003E+03 0.  0.
          5    1    3    3  502    0  0.28549520597E+01 -0.42466667772E+02  0.15884768851E+03  0.16450419195E+03  0.41800000000E+01 0. -1.
         -5    1    3    3    0  502  0.23369847401E+02  0.57308788439E+02  0.45307268845E+02  0.76815805730E+02  0.41800000000E+01 0. -1.
        -11    1    1    2    0    0  0.22409277717E+02  0.20547928413E+02 -0.43975362832E+01  0.30720211836E+02  0.00000000000E+00 0. -1.
         11    1    1    2    0    0 -0.48634077177E+02 -0.35390049079E+02  0.23654762844E+02  0.64631856247E+02  0.00000000000E+00 0.  1.
</event>
<event>
 7    1  0.2794945E-009  0.1324957E+03  0.7561462E-02  0.1223799E+00
         -2   -1    0    0    0  501 -0.00000000000E+00  0.00000000000E+00  0.10734749447E+03  0.10734749447E+03  0.00000000000E+00 0.  1.
          2   -1    0    0  501    0  0.00000000000E+00 -0.00000000000E+00 -0.24803306732E+03  0.24803306732E+03  0.00000000000E+00 0. -1.
         25    2    1    2    0    0 -0.55172380795E+02  0.99308880067E+02 -0.12559104013E+03  0.21054101713E+03  0.12509262676E+03 0.  0.
          5    1    3    3  502    0 -0.61547615497E+02  0.70532041987E+02 -0.13629761196E+02  0.94689601913E+02  0.41800000000E+01 0. -1.
         -5    1    3    3    0  502  0.63752347018E+01  0.28776838080E+02 -0.11196127893E+03  0.11585141522E+03  0.41800000000E+01 0. -1.
        -11    1    1    2    0    0  0.18516154010E+02  0.13492483875E+02 -0.12726598354E+02  0.26208040485E+02  0.00000000000E+00 0. -1.
         11    1    1    2    0    0  0.36656226786E+02 -0.11280136394E+03 -0.23679343754E+01  0.11863150417E+03  0.00000000000E+00 0.  1.
</event>
<event>
 7    1  0.2794945E-009  0.1046720E+03  0.7561462E-02  0.1270767E+00
         -2   -1    0    0    0  501 -0.00000000000E+00  0.00000000000E+00  0.25699334123E+03  0.25699334123E+03  0.00000000000E+00 0.  1.
          2   -1    0    0  501    0  0.00000000000E+00 -0.00000000000E+00 -0.69730694166E+02  0.69730694166E+02  0.00000000000E+00 0. -1.
         25    2    1    2    0    0 -0.15503493957E+02  0.96558330149E+01  0.19512429284E+03  0.23249656909E+03  0.12509025359E+03 0.  0.
          5    1    3    3  502    0  0.32731372156E+02 -0.36378580429E+02  0.13095922576E+03  0.13986613260E+03  0.41800000000E+01 0. -1.
         -5    1    3    3    0  502 -0.48234866112E+02  0.46034413444E+02  0.64165067082E+02  0.92630436486E+02  0.41800000000E+01 0. -1.
        -11    1    1    2    0    0 -0.14086433629E+02 -0.45100846755E+02 -0.87172493486E+01  0.48046898200E+02  0.00000000000E+00 0. -1.
         11    1    1    2    0    0  0.29589927586E+02  0.35445013740E+02  0.85560357361E+00  0.46180568111E+02  0.00000000000E+00 0.  1.
</event>
<event>
 7    1  0.2794945E-009  0.1740292E+03  0.7561462E-02  0.1173710E+00
          2   -1    0    0  501    0  0.00000000000E+00  0.00000000000E+00  0.11257914293E+03  0.11257914293E+03  0.00000000000E+00 0. -1.
         -2   -1    0    0    0  501 -0.00000000000E+00 -0.00000000000E+00 -0.27931451945E+03  0.27931451945E+03  0.00000000000E+00 0.  1.
         25    2    1    2    0    0 -0.11832613165E+03 -0.72672124207E+02 -0.71296406395E+02  0.20002831608E+03  0.12508332664E+03 0.  0.
          5    1    3    3  502    0  0.25598232074E+02 -0.42073832230E+01 -0.25336924020E+01  0.26398173348E+02  0.41800000000E+01 0. -1.
         -5    1    3    3    0  502 -0.14392436372E+03 -0.68464740984E+02 -0.68762713993E+02  0.17363014274E+03  0.41800000000E+01 0. -1.
        -11    1    1    2    0    0  0.80359839342E+02  0.38822387142E-02 -0.26113690579E+02  0.84496323174E+02  0.00000000000E+00 0.  1.
         11    1    1    2    0    0  0.37966292305E+02  0.72668241968E+02 -0.69325279543E+02  0.10736902312E+03  0.00000000000E+00 0. -1.
</event>
<event>
 7    1  0.2794945E-009  0.7902161E+02  0.7561462E-02  0.1331851E+00
          2   -1    0    0  501    0  0.00000000000E+00  0.00000000000E+00  0.48349309136E+03  0.48349309136E+03  0.00000000000E+00 0. -1.
         -2   -1    0    0    0  501 -0.00000000000E+00 -0.00000000000E+00 -0.28812231197E+02  0.28812231197E+02  0.00000000000E+00 0.  1.
         25    2    1    2    0    0 -0.45964588516E+02  0.12819658073E+01  0.28154013375E+03  0.31149174769E+03  0.12509146705E+03 0.  0.
          5    1    3    3  502    0 -0.49911068858E+02 -0.40804701303E+01  0.29317466325E+03  0.29745019852E+03  0.41800000000E+01 0.  1.
         -5    1    3    3    0  502  0.39464803422E+01  0.53624359376E+01 -0.11634529495E+02  0.14041549161E+02  0.41800000000E+01 0.  1.
        -11    1    1    2    0    0 -0.98803602188E+01  0.32969398372E+02  0.78466586040E+02  0.85683183133E+02  0.00000000000E+00 0. -1.
         11    1    1    2    0    0  0.55844948734E+02 -0.34251364179E+02  0.94674140365E+02  0.11513039174E+03  0.00000000000E+00 0.  1.
</event>
<event>
 7    1  0.2927236E-009  0.1486930E+03  0.7561462E-02  0.1202088E+00
          2   -1    0    0  501    0  0.00000000000E+00  0.00000000000E+00  0.18011958329E+03  0.18011958329E+03  0.00000000000E+00 0. -1.
         -2   -1    0    0    0  501 -0.00000000000E+00 -0.00000000000E+00 -0.17963248479E+03  0.17963248479E+03  0.00000000000E+00 0.  1.
         25    2    1    2    0    0 -0.12806582073E+03  0.61983598447E+02 -0.13617177324E+02  0.18993577344E+03  0.12508936645E+03 0.  0.
          5    1    3    3  502    0 -0.10816242249E+03  0.53117306605E+02  0.43877251021E+02  0.12830917137E+03  0.41800000000E+01 0.  1.
         -5    1    3    3    0  502 -0.19903398239E+02  0.88662918420E+01 -0.57494428345E+02  0.61626602074E+02  0.41800000000E+01 0.  1.
        -11    1    1    2    0    0  0.84902197911E+02 -0.76674208419E+01  0.42009037946E+02  0.95036476268E+02  0.00000000000E+00 0.  1.
         11    1    1    2    0    0  0.43163622820E+02 -0.54316177606E+02 -0.27904762121E+02  0.74779818358E+02  0.00000000000E+00 0. -1.
</event>
<event>
 7    1  0.2794945E-009  0.6729102E+02  0.7561462E-02  0.1369555E+00
          2   -1    0    0  501    0  0.00000000000E+00  0.00000000000E+00  0.22629013971E+03  0.22629013971E+03  0.00000000000E+00 0. -1.
         -2   -1    0    0    0  501 -0.00000000000E+00 -0.00000000000E+00 -0.62248907939E+02  0.62248907939E+02  0.00000000000E+00 0.  1.
         25    2    1    2    0    0  0.64268540610E+01  0.12144239556E+02  0.39240891454E+02  0.13182175770E+03  0.12509333010E+03 0.  0.
          5    1    3    3  502    0 -0.20803002104E+02  0.31556792204E+02 -0.34119705976E+02  0.51090339269E+02  0.41800000000E+01 0. -1.
         -5    1    3    3    0  502  0.27229856165E+02 -0.19412552648E+02  0.73360597429E+02  0.80731418434E+02  0.41800000000E+01 0. -1.
        -11    1    1    2    0    0  0.11698540235E+02  0.21591366049E+02  0.11443867437E+03  0.11704380856E+03  0.00000000000E+00 0. -1.
         11    1    1    2    0    0 -0.18125394296E+02 -0.33735605605E+02  0.10361665949E+02  0.39673481384E+02  0.00000000000E+00 0.  1.
</event>
<event>
 7    1  0.2794945E-009  0.1916147E+03  0.7561462E-02  0.1157013E+00
         -1   -1    0    0    0  501 -0.00000000000E+00  0.00000000000E+00  0.50855439131E+02  0.50855439131E+02  0.00000000000E+00 0.  1.
          1   -1    0    0  501    0  0.00000000000E+00 -0.00000000000E+00 -0.75200876531E+03  0.75200876531E+03  0.00000000000E+00 0. -1.
         25    2    1    2    0    0 -0.16110772454E+03 -0.14667927836E+02 -0.33989261793E+03  0.39666727344E+03  0.12508831713E+03 0.  0.
          5    1    3    3  502    0 -0.16398420424E+03  0.18118183465E+02 -0.31345036010E+03  0.35424241482E+03  0.41800000000E+01 0.  1.
         -5    1    3    3    0  502  0.28764796994E+01 -0.32786111301E+02 -0.26442257825E+02  0.42424858616E+02  0.41800000000E+01 0.  1.
        -11    1    1    2    0    0  0.16216463400E+03  0.33972156125E+02 -0.31170484585E+03  0.35300338078E+03  0.00000000000E+00 0.  1.
         11    1    1    2    0    0 -0.10569094641E+01 -0.19304228289E+02 -0.49555862401E+02  0.53193550227E+02  0.00000000000E+00 0. -1.
</event>
<event>
 7    1  0.2794945E-009  0.1133026E+03  0.7561462E-02  0.1254573E+00
         -2   -1    0    0    0  501 -0.00000000000E+00  0.00000000000E+00  0.13221556116E+02  0.13221556116E+02  0.00000000000E+00 0.  1.
          2   -1    0    0  501    0  0.00000000000E+00 -0.00000000000E+00 -0.11716834199E+04  0.11716834199E+04  0.00000000000E+00 0. -1.
         25    2    1    2    0    0  0.53883755565E+02  0.19020899322E+02 -0.74458670168E+03  0.75718033826E+03  0.12508978614E+03 0.  0.
          5    1    3    3  502    0  0.26452856668E+02 -0.44812271848E+02 -0.15624429060E+03  0.16473507240E+03  0.41800000000E+01 0.  1.
         -5    1    3    3    0  502  0.27430898897E+02  0.63833171171E+02 -0.58834241108E+03  0.59244526585E+03  0.41800000000E+01 0.  1.
        -11    1    1    2    0    0 -0.11085301171E+02 -0.50478366353E+02 -0.15287183935E+03  0.16137146166E+03  0.00000000000E+00 0.  1.
         11    1    1    2    0    0 -0.42798454394E+02  0.31457467031E+02 -0.26100332271E+03  0.26635317606E+03  0.00000000000E+00 0. -1.
</event>
<event>
 7    1  0.2794945E-009  0.9490029E+02  0.7561462E-02  0.1291401E+00
          1   -1    0    0  501    0  0.00000000000E+00  0.00000000000E+00  0.69377071353E+02  0.69377071353E+02  0.00000000000E+00 0. -1.
         -1   -1    0    0    0  501 -0.00000000000E+00 -0.00000000000E+00 -0.18823670567E+03  0.18823670567E+03  0.00000000000E+00 0.  1.
         25    2    1    2    0    0  0.30718311270E+02 -0.19015072266E+02 -0.61359752722E+02  0.14393324293E+03  0.12508625642E+03 0.  0.
          5    1    3    3  502    0  0.94107476252E+01 -0.55042393234E+02  0.13916957850E+02  0.57700791499E+02  0.41800000000E+01 0.  1.
         -5    1    3    3    0  502  0.21307563645E+02  0.36027320967E+02 -0.75276710572E+02  0.86232451427E+02  0.41800000000E+01 0.  1.
        -11    1    1    2    0    0 -0.19239549579E+02 -0.33148213808E+02 -0.44461435626E+02  0.58700797308E+02  0.00000000000E+00 0.  1.
         11    1    1    2    0    0 -0.11478761691E+02  0.52163286074E+02 -0.13038445966E+02  0.54979736788E+02  0.00000000000E+00 0. -1.
</event>
<event>
 7    1  0.2794945E-009  0.1253168E+03  0.7561462E-02  0.1234575E+00
          1   -1    0    0  501    0  0.00000000000E+00  0.00000000000E+00  0.93617210984E+02  0.93617210984E+02  0.00000000000E+00 0. -1.
         -1   -1    0    0    0  501 -0.00000000000E+00 -0.00000000000E+00 -0.28100381865E+03  0.28100381865E+03  0.00000000000E+00 0.  1.
         25    2    1    2    0    0 -0.10693882929E+03 -0.19466351841E+02 -0.39955301247E+02  0.17046622445E+03  0.12508978982E+03 0.  0.
          5    1    3    3  502    0 -0.56186313453E+02 -0.99082894545E+00  0.43350419726E+02  0.71095814588E+02  0.41800000000E+01 0.  1.
         -5    1    3    3    0  502 -0.50752515834E+02 -0.18475522895E+02 -0.83305720973E+02  0.99370409864E+02  0.41800000000E+01 0.  1.
        -11    1    1    2    0    0  0.88624320330E+02 -0.24947933662E+02 -0.10864988008E+03  0.14241301201E+03  0.00000000000E+00 0.  1.
         11    1    1    2    0    0  0.18314508957E+02  0.44414285503E+02 -0.38781426331E+02  0.61741793166E+02  0.00000000000E+00 0. -1.
</event>
<event>
 7    1  0.2794945E-009  0.1088231E+03  0.7561462E-02  0.1262765E+00
          2   -1    0    0  501    0  0.00000000000E+00  0.00000000000E+00  0.33830144918E+02  0.33830144918E+02  0.00000000000E+00 0. -1.
         -2   -1    0    0    0  501 -0.00000000000E+00 -0.00000000000E+00 -0.64404590884E+03  0.64404590884E+03  0.00000000000E+00 0.  1.
         25    2    1    2    0    0  0.26272536970E+02  0.48718038603E+02 -0.52939044808E+03  0.54677739421E+03  0.12509028264E+03 0.  0.
          5    1    3    3  502    0  0.67929520280E+02  0.62081162844E+02 -0.33115029498E+03  0.34372442562E+03  0.41800000000E+01 0. -1.
         -5    1    3    3    0  502 -0.41656983309E+02 -0.13363124241E+02 -0.19824015310E+03  0.20305296858E+03  0.41800000000E+01 0. -1.
        -11    1    1    2    0    0  0.97425839326E+01  0.91852305145E+01 -0.57486432917E+02  0.59025218092E+02  0.00000000000E+00 0.  1.
         11    1    1    2    0    0 -0.36015120903E+02 -0.57903269118E+02 -0.23338882926E+02  0.72073441464E+02  0.00000000000E+00 0. -1.
</event>
<event>
 7    1  0.2794945E-009  0.1119852E+03  0.7561462E-02  0.1256937E+00
         -1   -1    0    0    0  501 -0.00000000000E+00  0.00000000000E+00  0.94721152739E+02  0.94721152739E+02  0.00000000000E+00 0.  1.
          1   -1    0    0  501    0  0.00000000000E+00 -0.00000000000E+00 -0.13813940122E+03  0.13813940122E+03  0.00000000000E+00 0. -1.
         25    2    1    2    0    0  0.27798264100E+02  0.11275856721E+02 -0.27412099310E+02  0.13152471296E+03  0.12508972179E+03 0.  0.
          5    1    3    3  502    0  0.71548743556E+02 -0.18099793007E+02 -0.26887636146E+02  0.78659027383E+02  0.41800000000E+01 0.  1.
         -5    1    3    3    0  502 -0.43750479456E+02  0.29375649728E+02 -0.52446316414E+00  0.52865685574E+02  0.41800000000E+01 0.  1.
        -11    1    1    2    0    0 -0.50093504987E+02 -0.37640120924E+02 -0.21764857992E+02  0.66331342430E+02  0.00000000000E+00 0.  1.
         11    1    1    2    0    0  0.22295240887E+02  0.26364264203E+02  0.57587088185E+01  0.35004498575E+02  0.00000000000E+00 0. -1.
</event>
<event>
 7    1  0.3670711E-009  0.8415220E+02  0.7561462E-02  0.1317665E+00
         -2   -1    0    0    0  501 -0.00000000000E+00  0.00000000000E+00  0.37147956292E+02  0.37147956292E+02  0.00000000000E+00 0.  1.
          2   -1    0    0  501    0  0.00000000000E+00 -0.00000000000E+00 -0.40241391927E+03  0.40241391927E+03  0.00000000000E+00 0. -1.
         25    2    1    2    0    0  0.25560520096E+02 -0.48257957258E+02 -0.17682473616E+03  0.22336880830E+03  0.12507784207E+03 0.  0.
          5    1    3    3  502    0  0.65642831729E+01  0.50343061095E+01 -0.16519917345E+03  0.16545897787E+03  0.41800000000E+01 0.  1.
         -5    1    3    3    0  502  0.18996236923E+02 -0.53292263368E+02 -0.11625562716E+02  0.57909830431E+02  0.41800000000E+01 0.  1.
        -11    1    1    2    0    0  0.30839903563E+02  0.29996074047E+02 -0.52417447688E+02  0.67811893737E+02  0.00000000000E+00 0.  1.
         11    1    1    2    0    0 -0.56400423659E+02  0.18261883211E+02 -0.13602377913E+03  0.14838117352E+03  0.00000000000E+00 0. -1.
</event>
<event>
 7    1  0.2794945E-009  0.1068892E+03  0.7561462E-02  0.1266441E+00
          1   -1    0    0  501    0  0.00000000000E+00  0.00000000000E+00  0.14529926887E+03  0.14529926887E+03  0.00000000000E+00 0. -1.
         -1   -1    0    0    0  501 -0.00000000000E+00 -0.00000000000E+00 -0.94577777260E+02  0.94577777260E+02  0.00000000000E+00 0.  1.
         25    2    1    2    0    0  0.15249024764E+02  0.29047676089E+01  0.70839034028E+02  0.14459099546E+03  0.12508963505E+03 0.  0.
          5    1    3    3  502    0 -0.52255017634E+02  0.20250425881E+02  0.30033812913E+02  0.63719454913E+02  0.41800000000E+01 0. -1.
         -5    1    3    3    0  502  0.67504042398E+02 -0.17345658272E+02  0.40805221115E+02  0.80871540552E+02  0.41800000000E+01 0. -1.
        -11    1    1    2    0    0  0.34834684656E+02  0.96085906076E+01 -0.24217536231E+02  0.43500222179E+02  0.00000000000E+00 0.  1.
         11    1    1    2    0    0 -0.50083709420E+02 -0.12513358217E+02  0.40999938162E+01  0.51785828490E+02  0.00000000000E+00 0. -1.
</event>
<event>
 7    1  0.2794945E-009  0.1085240E+03  0.7561462E-02  0.1263328E+00
         -3   -1    0    0    0  501 -0.00000000000E+00  0.00000000000E+00  0.13521850533E+02  0.13521850533E+02  0.00000000000E+00 0.  1.
          3   -1    0    0  501    0  0.00000000000E+00 -0.00000000000E+00 -0.11877075206E+04  0.11877075206E+04  0.00000000000E+00 0. -1.
         25    2    1    2    0    0  0.19813739720E+02  0.61782461965E+02 -0.60867888256E+03  0.62477800124E+03  0.12509161390E+03 0.  0.
          5    1    3    3  502    0 -0.12519024663E+02 -0.16777920592E+02 -0.17759838740E+02  0.27768847113E+02  0.41800000000E+01 0. -1.
         -5    1    3    3    0  502  0.32332764383E+02  0.78560382558E+02 -0.59091904382E+03  0.59700915412E+03  0.41800000000E+01 0. -1.
        -11    1    1    2    0    0  0.19426796878E+02  0.14914626557E+02 -0.93992250191E+02  0.97130786150E+02  0.00000000000E+00 0. -1.
         11    1    1    2    0    0 -0.39240536598E+02 -0.76697088522E+02 -0.47151453732E+03  0.47932058375E+03  0.00000000000E+00 0.  1.
</event>
<event>
 7    1  0.2794945E-009  0.1292525E+03  0.7561462E-02  0.1228569E+00
          2   -1    0    0  501    0  0.00000000000E+00  0.00000000000E+00  0.23895548391E+04  0.23895548391E+04  0.00000000000E+00 0.  1.
         -2   -1    0    0    0  501 -0.00000000000E+00 -0.00000000000E+00 -0.90999285514E+01  0.90999285514E+01  0.00000000000E+00 0. -1.
         25    2    1    2    0    0  0.70535377262E+02 -0.14929530198E+02  0.18405558728E+04  0.18462062610E+04  0.12503402333E+03 0.  0.
          5    1    3    3  502    0 -0.12436138888E+02  0.41446786344E+02  0.62603234012E+03  0.62754000424E+03  0.41800000000E+01 0. -1.
         -5    1    3    3    0  502  0.82971516151E+02 -0.56376316542E+02  0.12145235327E+04  0.12186662568E+04  0.41800000000E+01 0. -1.
        -11    1    1    2    0    0 -0.33832873818E+02  0.52276114979E+02  0.34833399629E+03  0.35385594318E+03  0.00000000000E+00 0. -1.
         11    1    1    2    0    0 -0.36702503445E+02 -0.37346584781E+02  0.19156504144E+03  0.19859256345E+03  0.00000000000E+00 0.  1.
</event>
<event>
 7    1  0.2794945E-009  0.1964771E+03  0.7561462E-02  0.1152746E+00
         -2   -1    0    0    0  501 -0.00000000000E+00  0.00000000000E+00  0.10030654332E+03  0.10030654332E+03  0.00000000000E+00 0. -1.
          2   -1    0    0  501    0  0.00000000000E+00 -0.00000000000E+00 -0.49356811037E+03  0.49356811037E+03  0.00000000000E+00 0.  1.
         25    2    1    2    0    0 -0.18285010183E+03  0.61149348020E+02 -0.17485352160E+03  0.28878045155E+03  0.12508793980E+03 0.  0.
          5    1    3    3  502    0 -0.69485605052E+02  0.13365663033E+02 -0.14607793265E+03  0.16236725367E+03  0.41800000000E+01 0. -1.
         -5    1    3    3    0  502 -0.11336449677E+03  0.47783684988E+02 -0.28775588954E+02  0.12641319788E+03  0.41800000000E+01 0. -1.
        -11    1    1    2    0    0  0.16163938531E+03 -0.69804868030E+02 -0.22040747699E+03  0.28209832754E+03  0.00000000000E+00 0.  1.
         11    1    1    2    0    0  0.21210716516E+02  0.86555200097E+01  0.19994315434E+01  0.22995874592E+02  0.00000000000E+00 0. -1.
</event>
<event>
 7    1  0.2794945E-009  0.1657561E+03  0.7561462E-02  0.1182347E+00
          2   -1    0    0  501    0  0.00000000000E+00  0.00000000000E+00  0.75358472964E+03  0.75358472964E+03  0.00000000000E+00 0. -1.
         -2   -1    0    0    0  501 -0.00000000000E+00 -0.00000000000E+00 -0.39877311659E+02  0.39877311659E+02  0.00000000000E+00 0.  1.
         25    2    1    2    0    0 -0.43921375826E+02  0.12661211388E+03  0.33839656696E+03  0.38486449017E+03  0.12509486252E+03 0.  0.
          5    1    3    3  502    0  0.68319141097E+01  0.12121794146E+03  0.17064104801E+03  0.20946671346E+03  0.41800000000E+01 0. -1.
         -5    1    3    3    0  502 -0.50753289935E+02  0.53941724156E+01  0.16775551895E+03  0.17539777671E+03  0.41800000000E+01 0. -1.
        -11    1    1    2    0    0  0.69289223625E+02 -0.80693911585E+02  0.28438477264E+03  0.30362345559E+03  0.00000000000E+00 0. -1.
         11    1    1    2    0    0 -0.25367847800E+02 -0.45918202293E+02  0.90926078376E+02  0.10497409553E+03  0.00000000000E+00 0.  1.
</event>
<event>
 7    1  0.2794945E-009  0.9826019E+02  0.7561462E-02  0.1283998E+00
          2   -1    0    0  501    0  0.00000000000E+00  0.00000000000E+00  0.60921542519E+02  0.60921542519E+02  0.00000000000E+00 0.  1.
         -2   -1    0    0    0  501 -0.00000000000E+00 -0.00000000000E+00 -0.26934382334E+03  0.26934382334E+03  0.00000000000E+00 0. -1.
         25    2    1    2    0    0  0.22365266064E+02 -0.42623142975E+02 -0.54155193805E+02  0.14455489196E+03  0.12508554805E+03 0.  0.
          5    1    3    3  502    0  0.56786292269E+02 -0.67577192288E+02 -0.21942177953E+02  0.91051037779E+02  0.41800000000E+01 0.  1.
         -5    1    3    3    0  502 -0.34421026205E+02  0.24954049313E+02 -0.32213015852E+02  0.53503854183E+02  0.41800000000E+01 0.  1.
        -11    1    1    2    0    0  0.12965313309E+02  0.52062217704E+01  0.75685462018E+01  0.15889839078E+02  0.00000000000E+00 0.  1.
         11    1    1    2    0    0 -0.35330579374E+02  0.37416921204E+02 -0.16183563321E+03  0.16982063482E+03  0.00000000000E+00 0. -1.
</event>
<event>
 7    1  0.2794945E-009  0.9791695E+02  0.7561462E-02  0.1284738E+00
          2   -1    0    0  501    0  0.00000000000E+00  0.00000000000E+00  0.66858209990E+03  0.66858209990E+03  0.00000000000E+00 0. -1.
         -2   -1    0    0    0  501 -0.00000000000E+00 -0.00000000000E+00 -0.19515828250E+02  0.19515828250E+02  0.00000000000E+00 0.  1.
         25    2    1    2    0    0  0.27765320163E+01 -0.31131366225E+01  0.48179415699E+03  0.49778528427E+03  0.12508868365E+03 0.  0.
          5    1    3    3  502    0  0.23270530844E+02  0.47482335233E+02  0.11159541048E+03  0.12356009795E+03  0.41800000000E+01 0. -1.
         -5    1    3    3    0  502 -0.20493998828E+02 -0.50595471856E+02  0.37019874650E+03  0.37422518631E+03  0.41800000000E+01 0. -1.
        -11    1    1    2    0    0 -0.11474518476E+02  0.44395212491E+02  0.11003889415E+03  0.11921056032E+03  0.00000000000E+00 0. -1.
         11    1    1    2    0    0  0.86979864594E+01 -0.41282075868E+02  0.57233220518E+02  0.71102083565E+02  0.00000000000E+00 0.  1.
</event>
<event>
 7    1  0.2794945E-009  0.1963939E+03  0.7561462E-02  0.1152818E+00
         -3   -1    0    0    0  501 -0.00000000000E+00  0.00000000000E+00  0.29595921338E+02  0.29595921338E+02  0.00000000000E+00 0.  1.
          3   -1    0    0  501    0  0.00000000000E+00 -0.00000000000E+00 -0.13450393194E+04  0.13450393194E+04  0.00000000000E+00 0. -1.
         25    2    1    2    0    0 -0.97207792233E+02  0.13404231687E+03 -0.66423665718E+03  0.69589857816E+03  0.12509115385E+03 0.  0.
          5    1    3    3  502    0 -0.23721706608E+02 -0.20082374147E+02 -0.56529510402E+02  0.64645796941E+02  0.41800000000E+01 0. -1.
         -5    1    3    3    0  502 -0.73486085625E+02  0.15412469101E+03 -0.60770714678E+03  0.63125278122E+03  0.41800000000E+01 0. -1.
        -11    1    1    2    0    0  0.11363285009E+03 -0.94436320949E+02 -0.52794739809E+03  0.54823270468E+03  0.00000000000E+00 0.  1.
         11    1    1    2    0    0 -0.16425057856E+02 -0.39605995917E+02 -0.12325934274E+03  0.13050395784E+03  0.00000000000E+00 0. -1.
</event>
<event>
 7    1  0.2794945E-009  0.1176058E+03  0.7561462E-02  0.1247100E+00
          2   -1    0    0  501    0  0.00000000000E+00  0.00000000000E+00  0.17400905929E+04  0.17400905929E+04  0.00000000000E+00 0.  1.
         -2   -1    0    0    0  501 -0.00000000000E+00 -0.00000000000E+00 -0.93466729304E+01  0.93466729304E+01  0.00000000000E+00 0. -1.
         25    2    1    2    0    0  0.55253346126E+01  0.52612948528E+02  0.13005408137E+04  0.13076134953E+04  0.12509193956E+03 0.  0.
          5    1    3    3  502    0  0.26906412520E+02 -0.34985439677E+02  0.51456029606E+03  0.51646655914E+03  0.41800000000E+01 0.  1.
         -5    1    3    3    0  502 -0.21381077907E+02  0.87598388205E+02  0.78598051765E+03  0.79114693618E+03  0.41800000000E+01 0.  1.
        -11    1    1    2    0    0  0.31616652433E+02  0.50548303078E+01  0.14369968195E+03  0.14722351243E+03  0.00000000000E+00 0.  1.
         11    1    1    2    0    0 -0.37141987046E+02 -0.57667778836E+02  0.28650342427E+03  0.29460025804E+03  0.00000000000E+00 0. -1.
</event>
<event>
 7    1  0.2794945E-009  0.9655990E+02  0.7561462E-02  0.1287701E+00
          2   -1    0    0  501    0  0.00000000000E+00  0.00000000000E+00  0.53177596143E+03  0.53177596143E+03  0.00000000000E+00 0. -1.
         -2   -1    0    0    0  501 -0.00000000000E+00 -0.00000000000E+00 -0.38604955777E+02  0.38604955777E+02  0.00000000000E+00 0.  1.
         25    2    1    2    0    0  0.19912650970E+02 -0.26894648841E+02  0.44699208830E+03  0.46537067916E+03  0.12509239071E+03 0.  0.
          5    1    3    3  502    0  0.12763534344E+02  0.35798037900E+02  0.47846649425E+02  0.61246890432E+02  0.41800000000E+01 0. -1.
         -5    1    3    3    0  502  0.71491166254E+01 -0.62692686741E+02  0.39914543888E+03  0.40412378873E+03  0.41800000000E+01 0. -1.
        -11    1    1    2    0    0 -0.37274688396E+02 -0.19531310003E+02  0.89578593575E+01  0.43024617485E+02  0.00000000000E+00 0.  1.
         11    1    1    2    0    0  0.17362037427E+02  0.46425958844E+02  0.37221057991E+02  0.61985620560E+02  0.00000000000E+00 0. -1.
</event>
<event>
 7    1  0.2794945E-009  0.1361685E+03  0.7561462E-02  0.1218580E+00
         -1   -1    0    0    0  501 -0.00000000000E+00  0.00000000000E+00  0.47609985741E+02  0.47609985741E+02  0.00000000000E+00 0. -1.
          1   -1    0    0  501    0  0.00000000000E+00 -0.00000000000E+00 -0.42152485587E+03  0.42152485587E+03  0.00000000000E+00 0.  1.
         25    2    1    2    0    0  0.53451459931E+02 -0.71850457837E+02 -0.22262126612E+03  0.27060466437E+03  0.12508840629E+03 0.  0.
          5    1    3    3  502    0 -0.35029316797E+02 -0.27973662710E+02 -0.11976502337E+03  0.12794808347E+03  0.41800000000E+01 0. -1.
         -5    1    3    3    0  502  0.88480776728E+02 -0.43876795127E+02 -0.10285624274E+03  0.14265658089E+03  0.41800000000E+01 0. -1.
        -11    1    1    2    0    0 -0.55291043654E+02  0.92482045359E+02 -0.12947676371E+03  0.16844661042E+03  0.00000000000E+00 0.  1.
         11    1    1    2    0    0  0.18395837237E+01 -0.20631587522E+02 -0.21816840299E+02  0.30083566820E+02  0.00000000000E+00 0. -1.
</event>
<event>
 7    1  0.2794945E-009  0.9702431E+02  0.7561462E-02  0.1286681E+00
          2   -1    0    0  501    0  0.00000000000E+00  0.00000000000E+00  0.24638418201E+03  0.24638418201E+03  0.00000000000E+00 0. -1.
         -2   -1    0    0    0  501 -0.00000000000E+00 -0.00000000000E+00 -0.90783566855E+02  0.90783566855E+02  0.00000000000E+00 0.  1.
         25    2    1    2    0    0  0.53269666369E+01  0.38237503673E+02  0.19083515700E+03  0.23141838371E+03  0.12508368363E+03 0.  0.
          5    1    3    3  502    0  0.57270473530E+02  0.13251618227E+02  0.14853866812E+03  0.15980213031E+03  0.41800000000E+01 0.  1.
         -5    1    3    3    0  502 -0.51943506893E+02  0.24985885447E+02  0.42296488884E+02  0.71616253405E+02  0.41800000000E+01 0.  1.
        -11    1    1    2    0    0  0.16655179575E+02 -0.49782932841E+02  0.10662040636E+02  0.53566916277E+02  0.00000000000E+00 0. -1.
         11    1    1    2    0    0 -0.21982146212E+02  0.11545429167E+02 -0.45896582485E+02  0.52182448875E+02  0.00000000000E+00 0.  1.
</event>
<event>
 7    1  0.5500360E-009  0.1768558E+03  0.7561462E-02  0.1170881E+00
          1   -1    0    0  501    0  0.00000000000E+00  0.00000000000E+00  0.61506233900E+03  0.61506233900E+03  0.00000000000E+00 0. -1.
         -1   -1    0    0    0  501 -0.00000000000E+00 -0.00000000000E+00 -0.63273020748E+02  0.63273020748E+02  0.00000000000E+00 0.  1.
         25    2    1    2    0    0  0.46372896905E+02 -0.15172318873E+03  0.21452660668E+03  0.29468466238E+03  0.12508802381E+03 0.  0.
          5    1    3    3  502    0 -0.19953604652E+02 -0.10991743879E+03  0.75112182666E+02  0.13468222627E+03  0.41800000000E+01 0. -1.
         -5    1    3    3    0  502  0.66326501558E+02 -0.41805749942E+02  0.13941442401E+03  0.16000243611E+03  0.41800000000E+01 0. -1.
        -11    1    1    2    0    0 -0.10927000119E+02  0.10062857866E+03  0.11666061230E+03  0.15445131477E+03  0.00000000000E+00 0.  1.
         11    1    1    2    0    0 -0.35445896787E+02  0.51094610073E+02  0.22060209928E+03  0.22919938260E+03  0.00000000000E+00 0. -1.
</event>
<event>
 7    1  0.2794945E-009  0.9882288E+02  0.7561462E-02  0.1282791E+00
         -1   -1    0    0    0  501 -0.00000000000E+00  0.00000000000E+00  0.35954439427E+03  0.35954439427E+03  0.00000000000E+00 0.  1.
          1   -1    0    0  501    0  0.00000000000E+00 -0.00000000000E+00 -0.35495468878E+02  0.35495468878E+02  0.00000000000E+00 0. -1.
         25    2    1    2    0    0  0.30571987535E+02 -0.47439124171E+01  0.20262895765E+03  0.24013273570E+03  0.12509230652E+03 0.  0.
          5    1    3    3  502    0 -0.34097656745E+02 -0.31110572226E+02  0.13536707404E+03  0.14308121832E+03  0.41800000000E+01 0. -1.
         -5    1    3    3    0  502  0.64669644280E+02  0.26366659809E+02  0.67261883606E+02  0.97051517387E+02  0.41800000000E+01 0. -1.
        -11    1    1    2    0    0 -0.16184336849E+02  0.40057906963E+02  0.10471234433E+03  0.11327507989E+03  0.00000000000E+00 0.  1.
         11    1    1    2    0    0 -0.14387650685E+02 -0.35313994546E+02  0.16707623405E+02  0.41632047546E+02  0.00000000000E+00 0. -1.
</event>
<event>
 7    1  0.2794945E-009  0.1289748E+03  0.7561462E-02  0.1228985E+00
         -1   -1    0    0    0  501 -0.00000000000E+00  0.00000000000E+00  0.30910484070E+03  0.30910484070E+03  0.00000000000E+00 0.  1.
          1   -1    0    0  501    0  0.00000000000E+00 -0.00000000000E+00 -0.94711785571E+02  0.94711785571E+02  0.00000000000E+00 0. -1.
         25    2    1    2    0    0 -0.35143521546E+02  0.82963575930E+02  0.56551045495E+01  0.15426568991E+03  0.12509156982E+03 0.  0.
          5    1    3    3  502    0  0.17397770333E+02  0.74703827083E+02 -0.37654099088E+02  0.85549095679E+02  0.41800000000E+01 0. -1.
         -5    1    3    3    0  502 -0.52541291879E+02  0.82597488471E+01  0.43309203637E+02  0.68716594233E+02  0.41800000000E+01 0. -1.
        -11    1    1    2    0    0 -0.80010171114E+01  0.17064050797E+02  0.73591818376E+02  0.75966794301E+02  0.00000000000E+00 0.  1.
         11    1    1    2    0    0  0.43144538657E+02 -0.10002762673E+03  0.13514613220E+03  0.17358414206E+03  0.00000000000E+00 0. -1.
</event>
<event>
 7    1  0.2794945E-009  0.8681711E+02  0.7561462E-02  0.1310748E+00
         -1   -1    0    0    0  501 -0.00000000000E+00  0.00000000000E+00  0.22571319204E+02  0.22571319204E+02  0.00000000000E+00 0.  1.
          1   -1    0    0  501    0  0.00000000000E+00 -0.00000000000E+00 -0.54801572784E+03  0.54801572784E+03  0.00000000000E+00 0. -1.
         25    2    1    2    0    0 -0.74182897209E+01  0.18491650439E+02 -0.35148369054E+03  0.37361235473E+03  0.12509370382E+03 0.  0.
          5    1    3    3  502    0 -0.27159970716E+02 -0.47740401530E+02 -0.19204769792E+03  0.19979139276E+03  0.41800000000E+01 0. -1.
         -5    1    3    3    0  502  0.19741680995E+02  0.66232051969E+02 -0.15943599262E+03  0.17382096197E+03  0.41800000000E+01 0. -1.
        -11    1    1    2    0    0 -0.18342499531E+02 -0.13978470461E+01  0.18296041446E+01  0.18486446840E+02  0.00000000000E+00 0.  1.
         11    1    1    2    0    0  0.25760789252E+02 -0.17093803393E+02 -0.17579032224E+03  0.17848824547E+03  0.00000000000E+00 0. -1.
</event>
<event>
 7    1  0.2794945E-009  0.1376627E+03  0.7561462E-02  0.1216509E+00
         -2   -1    0    0    0  501 -0.00000000000E+00  0.00000000000E+00  0.36985342593E+02  0.36985342593E+02  0.00000000000E+00 0.  1.
          2   -1    0    0  501    0  0.00000000000E+00 -0.00000000000E+00 -0.53148428916E+03  0.53148428916E+03  0.00000000000E+00 0. -1.
         25    2    1    2    0    0 -0.59241456172E+02 -0.65417222183E+02 -0.27044051910E+03  0.31076445430E+03  0.12509000199E+03 0.  0.
          5    1    3    3  502    0 -0.61583222499E+02  0.18132975844E+02 -0.15802640547E+03  0.17061979759E+03  0.41800000000E+01 0. -1.
         -5    1    3    3    0  502  0.23417663261E+01 -0.83550198027E+02 -0.11241411363E+03  0.14014465671E+03  0.41800000000E+01 0. -1.
        -11    1    1    2    0    0 -0.20311233652E+02  0.38129644774E+02 -0.77789112280E+02  0.88980683366E+02  0.00000000000E+00 0.  1.
         11    1    1    2    0    0  0.79552689824E+02  0.27287577409E+02 -0.14626931519E+03  0.16872449409E+03  0.00000000000E+00 0. -1.
</event>
<event>
 7    1  0.2794945E-009  0.1054475E+03  0.7561462E-02  0.1269241E+00
          4   -1    0    0  501    0  0.00000000000E+00  0.00000000000E+00  0.32733773920E+03  0.32733773920E+03  0.00000000000E+00 0.  1.
         -4   -1    0    0    0  501 -0.00000000000E+00 -0.00000000000E+00 -0.38424472564E+02  0.38424472564E+02  0.00000000000E+00 0. -1.
         25    2    1    2    0    0  0.16841507900E+02 -0.19654769110E+02  0.13900451708E+03  0.18878541163E+03  0.12509088511E+03 0.  0.
          5    1    3    3  502    0  0.65839145571E+02 -0.14007631652E+02  0.40831525948E+02  0.78839664796E+02  0.41800000000E+01 0.  1.
         -5    1    3    3    0  502 -0.48997637671E+02 -0.56471374577E+01  0.98172991134E+02  0.10994574683E+03  0.41800000000E+01 0.  1.
        -11    1    1    2    0    0 -0.53736333131E+02  0.40316051185E+01  0.81704852314E+02  0.97875074610E+02  0.00000000000E+00 0.  1.
         11    1    1    2    0    0  0.36894825231E+02  0.15623163992E+02  0.68203897244E+02  0.79101725526E+02  0.00000000000E+00 0. -1.
</event>
<event>
 7    1  0.2794945E-009  0.1166682E+03  0.7561462E-02  0.1248697E+00
         -1   -1    0    0    0  501 -0.00000000000E+00  0.00000000000E+00  0.17557251635E+03  0.17557251635E+03  0.00000000000E+00 0.  1.
          1   -1    0    0  501    0  0.00000000000E+00 -0.00000000000E+00 -0.10812100676E+03  0.10812100676E+03  0.00000000000E+00 0. -1.
         25    2    1    2    0    0 -0.65296804246E+02 -0.39127085276E+02  0.16636169991E+00  0.14642927891E+03  0.12508758771E+03 0.  0.
          5    1    3    3  502    0 -0.73809074015E+02 -0.76557355165E+02 -0.88025732340E+01  0.10678841572E+03  0.41800000000E+01 0.  1.
         -5    1    3    3    0  502  0.85122697689E+01  0.37430269889E+02  0.89689349340E+01  0.39640863189E+02  0.41800000000E+01 0.  1.
        -11    1    1    2    0    0  0.26832507560E+02  0.41876966308E+02  0.82070287414E+02  0.95964555151E+02  0.00000000000E+00 0.  1.
         11    1    1    2    0    0  0.38464296686E+02 -0.27498810319E+01 -0.14785139523E+02  0.41299689054E+02  0.00000000000E+00 0. -1.
</event>
<event>
 7    1  0.2794945E-009  0.3564719E+03  0.7561462E-02  0.1059990E+00
          1   -1    0    0  501    0  0.00000000000E+00  0.00000000000E+00  0.16332239929E+03  0.16332239929E+03  0.00000000000E+00 0. -1.
         -1   -1    0    0    0  501 -0.00000000000E+00 -0.00000000000E+00 -0.11484357938E+04  0.11484357938E+04  0.00000000000E+00 0.  1.
         25    2    1    2    0    0 -0.24896233591E+03  0.23969844236E+03 -0.13866580558E+03  0.39282555615E+03  0.12508446730E+03 0.  0.
          5    1    3    3  502    0 -0.20033958608E+03  0.13024794026E+03 -0.13147999115E+03  0.27277268222E+03  0.41800000000E+01 0. -1.
         -5    1    3    3    0  502 -0.48622749834E+02  0.10945050210E+03 -0.71858144229E+01  0.12005287394E+03  0.41800000000E+01 0. -1.
        -11    1    1    2    0    0  0.18688554909E+03 -0.12863143219E+03 -0.47740475203E+03  0.52857123557E+03  0.00000000000E+00 0.  1.
         11    1    1    2    0    0  0.62076786825E+02 -0.11106701016E+03 -0.36904283696E+03  0.39036140142E+03  0.00000000000E+00 0. -1.
</event>
<event>
 7    1  0.2794945E-009  0.2972307E+03  0.7561462E-02  0.1086633E+00
         -2   -1    0    0    0  501 -0.00000000000E+00  0.00000000000E+00  0.90423559817E+02  0.90423559817E+02  0.00000000000E+00 0.  1.
          2   -1    0    0  501    0  0.00000000000E+00 -0.00000000000E+00 -0.10761253728E+04  0.10761253728E+04  0.00000000000E+00 0. -1.
         25    2    1    2    0    0  0.16289701922E+03 -0.24274655545E+03 -0.52545303208E+03  0.61418322421E+03  0.12513518661E+03 0.  0.
          5    1    3    3  502    0  0.80051844965E+02 -0.11172464021E+03 -0.12925963717E+03  0.18872259884E+03  0.41800000000E+01 0.  1.
         -5    1    3    3    0  502  0.82845174254E+02 -0.13102191525E+03 -0.39619339491E+03  0.42546062537E+03  0.41800000000E+01 0.  1.
        -11    1    1    2    0    0 -0.11518665829E+03  0.10410484769E+03 -0.19468043379E+03  0.24901055572E+03  0.00000000000E+00 0.  1.
         11    1    1    2    0    0 -0.47710360932E+02  0.13864170776E+03 -0.26556834712E+03  0.30335515269E+03  0.00000000000E+00 0. -1.
</event>
<event>
 7    1  0.2794945E-009  0.7924534E+02  0.7561462E-02  0.1331207E+00
          3   -1    0    0  501    0  0.00000000000E+00  0.00000000000E+00  0.71609050211E+02  0.71609050211E+02  0.00000000000E+00 0. -1.
         -3   -1    0    0    0  501 -0.00000000000E+00 -0.00000000000E+00 -0.24221843844E+03  0.24221843844E+03  0.00000000000E+00 0.  1.
         25    2    1    2    0    0  0.80272880160E+01 -0.59156414723E+02 -0.44962331908E+02  0.14571247409E+03  0.12508635041E+03 0.  0.
          5    1    3    3  502    0 -0.30817898528E+02 -0.17517431754E+02  0.33313091449E+02  0.48824560898E+02  0.41800000000E+01 0. -1.
         -5    1    3    3    0  502  0.38845186544E+02 -0.41638982970E+02 -0.78275423358E+02  0.96887913190E+02  0.41800000000E+01 0. -1.
        -11    1    1    2    0    0  0.10245647029E+02  0.23336269418E+02  0.94335290082E+01  0.27176206927E+02  0.00000000000E+00 0. -1.
         11    1    1    2    0    0 -0.18272935045E+02  0.35820145305E+02 -0.13508058533E+03  0.14093880764E+03  0.00000000000E+00 0.  1.
</event>
<event>
 7    1  0.2794945E-009  0.9812944E+02  0.7561462E-02  0.1284279E+00
          1   -1    0    0  501    0  0.00000000000E+00  0.00000000000E+00  0.17834281971E+03  0.17834281971E+03  0.00000000000E+00 0. -1.
         -1   -1    0    0    0  501 -0.00000000000E+00 -0.00000000000E+00 -0.81678977754E+02  0.81678977754E+02  0.00000000000E+00 0.  1.
         25    2    1    2    0    0 -0.18189167155E+02  0.94101624557E+01  0.10105083004E+03  0.16210500226E+03  0.12508942620E+03 0.  0.
          5    1    3    3  502    0  0.29787459456E+02 -0.30247459582E+02  0.88818951721E+02  0.98531619984E+02  0.41800000000E+01 0. -1.
         -5    1    3    3    0  502 -0.47976626611E+02  0.39657622038E+02  0.12231878319E+02  0.63573382275E+02  0.41800000000E+01 0. -1.
        -11    1    1    2    0    0 -0.26346185768E+02  0.23923421803E+02  0.15532812583E+02  0.38829368808E+02  0.00000000000E+00 0. -1.
         11    1    1    2    0    0  0.44535352923E+02 -0.33333584259E+02 -0.19919800668E+02  0.59087426396E+02  0.00000000000E+00 0.  1.
</event>
<event>
 7    1  0.2794945E-009  0.3493214E+03  0.7561462E-02  0.1062894E+00
          1   -1    0    0  501    0  0.00000000000E+00  0.00000000000E+00  0.91334648877E+03  0.91334648877E+03  0.00000000000E+00 0. -1.
         -1   -1    0    0    0  501 -0.00000000000E+00 -0.00000000000E+00 -0.14300660851E+03  0.14300660851E+03  0.00000000000E+00 0.  1.
         25    2    1    2    0    0 -0.55717706574E+02  0.32745433460E+03  0.52340813791E+03  0.63240370328E+03  0.12509021151E+03 0.  0.
          5    1    3    3  502    0 -0.51980072514E+02  0.37622507144E+02  0.11153718030E+03  0.12874546971E+03  0.41800000000E+01 0. -1.
         -5    1    3    3    0  502 -0.37376340594E+01  0.28983182746E+03  0.41187095761E+03  0.50365823357E+03  0.41800000000E+01 0. -1.
        -11    1    1    2    0    0  0.75131078596E+02 -0.17070550404E+03  0.12728544823E+03  0.22580219975E+03  0.00000000000E+00 0. -1.
         11    1    1    2    0    0 -0.19413372022E+02 -0.15674883056E+03  0.11964629412E+03  0.19814719426E+03  0.00000000000E+00 0.  1.
</event>
<event>
 7    1  0.2794945E-009  0.1277948E+03  0.7561462E-02  0.1230765E+00
          1   -1    0    0  501    0  0.00000000000E+00  0.00000000000E+00  0.12469979238E+03  0.12469979238E+03  0.00000000000E+00 0. -1.
         -1   -1    0    0    0  501 -0.00000000000E+00 -0.00000000000E+00 -0.24597144272E+03  0.24597144272E+03  0.00000000000E+00 0.  1.
         25    2    1    2    0    0 -0.49471295800E+02 -0.96382598812E+02 -0.15408922790E+03  0.22611544983E+03  0.12509073521E+03 0.  0.
          5    1    3    3  502    0  0.40648091919E+01  0.18821337752E+02  0.70085018560E+01  0.20913080280E+02  0.41800000000E+01 0. -1.
         -5    1    3    3    0  502 -0.53536104991E+02 -0.11520393656E+03 -0.16109772975E+03  0.20520236955E+03  0.41800000000E+01 0. -1.
        -11    1    1    2    0    0  0.16856688706E+02  0.23364751822E+02 -0.30942187374E+02  0.42278582537E+02  0.00000000000E+00 0.  1.
         11    1    1    2    0    0  0.32614607094E+02  0.73017846989E+02  0.63759764931E+02  0.10227720273E+03  0.00000000000E+00 0. -1.
</event>
<event>
 7    1  0.2794945E-009  0.8529563E+02  0.7561462E-02  0.1314661E+00
          1   -1    0    0  501    0  0.00000000000E+00  0.00000000000E+00  0.33871302801E+02  0.33871302801E+02  0.00000000000E+00 0. -1.
         -1   -1    0    0    0  501 -0.00000000000E+00 -0.00000000000E+00 -0.40294986824E+03  0.40294986824E+03  0.00000000000E+00 0.  1.
         25    2    1    2    0    0  0.37611192565E+02  0.11685889114E+02 -0.33182241154E+03  0.35679392262E+03  0.12507848978E+03 0.  0.
          5    1    3    3  502    0 -0.23841463803E+02  0.49742693275E+02 -0.18493413926E+03  0.19303072085E+03  0.41800000000E+01 0.  1.
         -5    1    3    3    0  502  0.61452656368E+02 -0.38056804161E+02 -0.14688827229E+03  0.16376320177E+03  0.41800000000E+01 0.  1.
        -11    1    1    2    0    0 -0.11962133129E+02  0.42240182757E+01 -0.46707225200E+02  0.48399378563E+02  0.00000000000E+00 0.  1.
         11    1    1    2    0    0 -0.25649059436E+02 -0.15909907389E+02  0.94510713032E+01  0.31627869860E+02  0.00000000000E+00 0. -1.
</event>
<event>
 7    1  0.2794945E-009  0.6947336E+02  0.7561462E-02  0.1361893E+00
          2   -1    0    0  501    0  0.00000000000E+00  0.00000000000E+00  0.46617690917E+03  0.46617690917E+03  0.00000000000E+00 0. -1.
         -2   -1    0    0    0  501 -0.00000000000E+00 -0.00000000000E+00 -0.25249497382E+02  0.25249497382E+02  0.00000000000E+00 0.  1.
         25    2    1    2    0    0  0.22280574532E+02  0.26057231881E+02  0.41993767123E+03  0.43951245852E+03  0.12509256629E+03 0.  0.
          5    1    3    3  502    0  0.33376177569E+02 -0.30914163365E+02  0.62768503984E+02  0.77633834235E+02  0.41800000000E+01 0. -1.
         -5    1    3    3    0  502 -0.11095603037E+02  0.56971395246E+02  0.35716916724E+03  0.36187862428E+03  0.41800000000E+01 0. -1.
        -11    1    1    2    0    0 -0.47522729153E+01 -0.10921623884E+02  0.25659433456E+02  0.28289087850E+02  0.00000000000E+00 0. -1.
         11    1    1    2    0    0 -0.17528301617E+02 -0.15135607998E+02 -0.46696928945E+01  0.23624860185E+02  0.00000000000E+00 0.  1.
</event>
<event>
 7    1  0.2794945E-009  0.1567805E+03  0.7561462E-02  0.1192380E+00
          1   -1    0    0  501    0  0.00000000000E+00  0.00000000000E+00  0.20169369942E+04  0.20169369942E+04  0.00000000000E+00 0. -1.
         -1   -1    0    0    0  501 -0.00000000000E+00 -0.00000000000E+00 -0.14818225450E+02  0.14818225450E+02  0.00000000000E+00 0.  1.
         25    2    1    2    0    0  0.11341855425E+03  0.58880105835E+02  0.12994802566E+04  0.13117268553E+04  0.12509104843E+03 0.  0.
          5    1    3    3  502    0  0.77491887850E+02  0.82362380025E+02  0.57887440782E+03  0.58983184616E+03  0.41800000000E+01 0.  1.
         -5    1    3    3    0  502  0.35926666405E+02 -0.23482274190E+02  0.72060584879E+03  0.72189500917E+03  0.41800000000E+01 0.  1.
        -11    1    1    2    0    0 -0.21776950412E+02  0.24919789376E+02  0.14378218322E+03  0.14754168118E+03  0.00000000000E+00 0.  1.
         11    1    1    2    0    0 -0.91641603842E+02 -0.83799895212E+02  0.55885632895E+03  0.57248668317E+03  0.00000000000E+00 0. -1.
</event>
<event>
 7    1  0.2794945E-009  0.1250400E+03  0.7561462E-02  0.1235007E+00
          1   -1    0    0  501    0  0.00000000000E+00  0.00000000000E+00  0.62166456346E+03  0.62166456346E+03  0.00000000000E+00 0. -1.
         -1   -1    0    0    0  501 -0.00000000000E+00 -0.00000000000E+00 -0.42625203310E+02  0.42625203310E+02  0.00000000000E+00 0.  1.
         25    2    1    2    0    0 -0.21071877626E+01  0.10266138556E+03  0.17901971834E+03  0.24132216617E+03  0.12507808764E+03 0.  0.
          5    1    3    3  502    0  0.23254077045E+02  0.95206752415E+02  0.51048664448E+02  0.11058262226E+03  0.41800000000E+01 0.  1.
         -5    1    3    3    0  502 -0.25361264808E+02  0.74546331417E+01  0.12797105389E+03  0.13073954391E+03  0.41800000000E+01 0.  1.
        -11    1    1    2    0    0  0.50458827850E+01  0.10696466083E+02  0.66253838061E+01  0.13556217405E+02  0.00000000000E+00 0.  1.
         11    1    1    2    0    0 -0.29386950224E+01 -0.11335785164E+03  0.39339425801E+03  0.40941138320E+03  0.00000000000E+00 0. -1.
</event>
<event>
 7    1  0.2794945E-009  0.1161500E+03  0.7561462E-02  0.1249587E+00
          1   -1    0    0  501    0  0.00000000000E+00  0.00000000000E+00  0.37828734901E+02  0.37828734901E+02  0.00000000000E+00 0. -1.
         -1   -1    0    0    0  501 -0.00000000000E+00 -0.00000000000E+00 -0.52859592325E+03  0.52859592325E+03  0.00000000000E+00 0.  1.
         25    2    1    2    0    0 -0.12075390966E+02  0.59951565070E+02 -0.13781462802E+03  0.19591068108E+03  0.12509243799E+03 0.  0.
          5    1    3    3  502    0  0.22998321894E+02 -0.24212393909E+02 -0.82700776413E+02  0.89286357570E+02  0.41800000000E+01 0.  1.
         -5    1    3    3    0  502 -0.35073712860E+02  0.84163958978E+02 -0.55113851609E+02  0.10662432351E+03  0.41800000000E+01 0.  1.
        -11    1    1    2    0    0  0.47907688578E+02 -0.51925338105E+02 -0.17331218797E+03  0.18715902827E+03  0.00000000000E+00 0. -1.
         11    1    1    2    0    0 -0.35832297612E+02 -0.80262269650E+01 -0.17964037236E+03  0.18335494881E+03  0.00000000000E+00 0.  1.
</event>
<event>
 7    1  0.2794945E-009  0.1107737E+03  0.7561462E-02  0.1259144E+00
          2   -1    0    0  501    0  0.00000000000E+00  0.00000000000E+00  0.10966421434E+04  0.10966421434E+04  0.00000000000E+00 0. -1.
         -2   -1    0    0    0  501 -0.00000000000E+00 -0.00000000000E+00 -0.15886752413E+02  0.15886752413E+02  0.00000000000E+00 0.  1.
         25    2    1    2    0    0 -0.66294495467E+02 -0.34827701414E+02  0.57927019707E+03  0.59733405249E+03  0.12508429212E+03 0.  0.
          5    1    3    3  502    0 -0.11305493186E+02  0.21536209918E+02  0.40840974808E+03  0.40915475952E+03  0.41800000000E+01 0.  1.
         -5    1    3    3    0  502 -0.54989002280E+02 -0.56363911332E+02  0.17086044899E+03  0.18817929297E+03  0.41800000000E+01 0.  1.
        -11    1    1    2    0    0 -0.43583190023E+01  0.46238913080E+02  0.19019507086E+03  0.19578354631E+03  0.00000000000E+00 0. -1.
         11    1    1    2    0    0  0.70652814469E+02 -0.11411211666E+02  0.31129012302E+03  0.31941129698E+03  0.00000000000E+00 0.  1.
</event>
<event>
 7    1  0.2794945E-009  0.1858460E+03  0.7561462E-02  0.1162262E+00
         -1   -1    0    0    0  501 -0.00000000000E+00  0.00000000000E+00  0.23531432676E+03  0.23531432676E+03  0.00000000000E+00 0.  1.
          1   -1    0    0  501    0  0.00000000000E+00 -0.00000000000E+00 -0.16968376592E+03  0.16968376592E+03  0.00000000000E+00 0. -1.
         25    2    1    2    0    0  0.25096991952E+02 -0.16342649989E+03  0.61772772498E+02  0.21633466008E+03  0.12508688922E+03 0.  0.
          5    1    3    3  502    0 -0.37166867712E+02 -0.55979293269E+02 -0.16713694748E+02  0.69367696535E+02  0.41800000000E+01 0. -1.
         -5    1    3    3    0  502  0.62263859664E+02 -0.10744720662E+03  0.78486467246E+02  0.14696696354E+03  0.41800000000E+01 0. -1.
        -11    1    1    2    0    0  0.24220786163E+02  0.75628795341E+02  0.29557338709E+02  0.84734865544E+02  0.00000000000E+00 0.  1.
         11    1    1    2    0    0 -0.49317778115E+02  0.87797704551E+02 -0.25699550363E+02  0.10392856706E+03  0.00000000000E+00 0. -1.
</event>
<event>
 7    1  0.4056613E-009  0.8611083E+02  0.7561462E-02  0.1312553E+00
         -1   -1    0    0    0  501 -0.00000000000E+00  0.00000000000E+00  0.37965129343E+02  0.37965129343E+02  0.00000000000E+00 0.  1.
          1   -1    0    0  501    0  0.00000000000E+00 -0.00000000000E+00 -0.42461208379E+03  0.42461208379E+03  0.00000000000E+00 0. -1.
         25    2    1    2    0    0  0.30048523032E+02 -0.42280683117E+01 -0.32196481540E+03  0.34674048873E+03  0.12508730499E+03 0.  0.
          5    1    3    3  502    0  0.61929371763E+02  0.19767249012E+02 -0.88700562901E+02  0.11005114029E+03  0.41800000000E+01 0. -1.
         -5    1    3    3    0  502 -0.31880848732E+02 -0.23995317324E+02 -0.23326425250E+03  0.23668934844E+03  0.41800000000E+01 0. -1.
        -11    1    1    2    0    0 -0.15348304861E+02  0.32026061584E+02  0.82104110676E+01  0.36450650648E+02  0.00000000000E+00 0.  1.
         11    1    1    2    0    0 -0.14700218170E+02 -0.27797993273E+02 -0.72892550114E+02  0.79386073756E+02  0.00000000000E+00 0. -1.
</event>
<event>
 7    1  0.2794945E-009  0.5594737E+02  0.7561462E-02  0.1415671E+00
         -2   -1    0    0    0  501 -0.00000000000E+00  0.00000000000E+00  0.11078885422E+03  0.11078885422E+03  0.00000000000E+00 0.  1.
          2   -1    0    0  501    0  0.00000000000E+00 -0.00000000000E+00 -0.14251386814E+03  0.14251386814E+03  0.00000000000E+00 0. -1.
         25    2    1    2    0    0  0.34063491013E+02 -0.32728666072E+02  0.25301502621E+02  0.13607867784E+03  0.12508298655E+03 0.  0.
          5    1    3    3  502    0  0.57200211967E+01 -0.30630668136E+02 -0.47982728546E+02  0.57365243063E+02  0.41800000000E+01 0.  1.
         -5    1    3    3    0  502  0.28343469817E+02 -0.20979979366E+01  0.73284231167E+02  0.78713434777E+02  0.41800000000E+01 0.  1.
        -11    1    1    2    0    0 -0.19601134520E+02  0.46512051395E+01 -0.77175123756E+02  0.79761130324E+02  0.00000000000E+00 0. -1.
         11    1    1    2    0    0 -0.14462356493E+02  0.28077460933E+02  0.20148607211E+02  0.37462914199E+02  0.00000000000E+00 0.  1.
</event>
<event>
 7    1  0.2794945E-009  0.1103158E+03  0.7561462E-02  0.1259986E+00
         -2   -1    0    0    0  501 -0.00000000000E+00  0.00000000000E+00  0.34657233605E+02  0.34657233605E+02  0.00000000000E+00 0.  1.
          2   -1    0    0  501    0  0.00000000000E+00 -0.00000000000E+00 -0.40012056778E+03  0.40012056778E+03  0.00000000000E+00 0. -1.
         25    2    1    2    0    0 -0.24431158951E+02 -0.25317306252E+02 -0.15101209548E+03  0.19922309373E+03  0.12508933036E+03 0.  0.
          5    1    3    3  502    0  0.49895967070E+02 -0.59063246752E+01 -0.79784010123E+02  0.94379303199E+02  0.41800000000E+01 0. -1.
         -5    1    3    3    0  502 -0.74327126021E+02 -0.19410981577E+02 -0.71228085358E+02  0.10484379053E+03  0.41800000000E+01 0. -1.
        -11    1    1    2    0    0 -0.32605251033E+02  0.11698530692E+02 -0.11498675715E+03  0.12009126668E+03  0.00000000000E+00 0.  1.
         11    1    1    2    0    0  0.57036409984E+02  0.13618775560E+02 -0.99464481546E+02  0.11546344097E+03  0.00000000000E+00 0. -1.
</event>
<event>
 7    1  0.2794945E-009  0.1282993E+03  0.7561462E-02  0.1230001E+00
         -2   -1    0    0    0  501 -0.00000000000E+00  0.00000000000E+00  0.39305451503E+02  0.39305451503E+02  0.00000000000E+00 0.  1.
          2   -1    0    0  501    0  0.00000000000E+00 -0.00000000000E+00 -0.59399237282E+03  0.59399237282E+03  0.00000000000E+00 0. -1.
         25    2    1    2    0    0 -0.60020694481E+02 -0.41525266388E+02 -0.46359798727E+03  0.48569342932E+03  0.12509269348E+03 0.  0.
          5    1    3    3  502    0 -0.15350507398E+01  0.40542184681E+02 -0.18380609538E+03  0.18827686586E+03  0.41800000000E+01 0.  1.
         -5    1    3    3    0  502 -0.58485643742E+02 -0.82067451069E+02 -0.27979189189E+03  0.29741656346E+03  0.41800000000E+01 0.  1.
        -11    1    1    2    0    0  0.30701181443E+02  0.68528175541E+02 -0.69280262230E+02  0.10216862591E+03  0.00000000000E+00 0. -1.
         11    1    1    2    0    0  0.29319513038E+02 -0.27002909153E+02 -0.21808671814E+02  0.45435769101E+02  0.00000000000E+00 0.  1.
</event>
<event>
 7    1  0.2794945E-009  0.1913760E+03  0.7561462E-02  0.1157226E+00
         -1   -1    0    0    0  501 -0.00000000000E+00  0.00000000000E+00  0.41103168971E+02  0.41103168971E+02  0.00000000000E+00 0.  1.
          1   -1    0    0  501    0  0.00000000000E+00 -0.00000000000E+00 -0.93047883727E+03  0.93047883727E+03  0.00000000000E+00 0. -1.
         25    2    1    2    0    0  0.12256676555E+03  0.10567432166E+03 -0.43107192700E+03  0.47713761896E+03  0.12509047487E+03 0.  0.
          5    1    3    3  502    0 -0.16558726409E+02  0.40924098294E+02 -0.15541746932E+03  0.16162003406E+03  0.41800000000E+01 0.  1.
         -5    1    3    3    0  502  0.13912549196E+03  0.64750223361E+02 -0.27565445769E+03  0.31551758490E+03  0.41800000000E+01 0.  1.
        -11    1    1    2    0    0 -0.12934919885E+03 -0.11519328217E+03 -0.43819917523E+03  0.47118916018E+03  0.00000000000E+00 0.  1.
         11    1    1    2    0    0  0.67824333039E+01  0.95189605115E+01 -0.20104566062E+02  0.23255227096E+02  0.00000000000E+00 0. -1.
</event>
<event>
 7    1  0.2794945E-009  0.1356975E+03  0.7561462E-02  0.1219238E+00
          2   -1    0    0  501    0  0.00000000000E+00  0.00000000000E+00  0.12029102828E+03  0.12029102828E+03  0.00000000000E+00 0. -1.
         -2   -1    0    0    0  501 -0.00000000000E+00 -0.00000000000E+00 -0.20854997085E+03  0.20854997085E+03  0.00000000000E+00 0.  1.
         25    2    1    2    0    0  0.10340127591E+03  0.25441751411E+02 -0.18149219273E+01  0.16428549642E+03  0.12508926340E+03 0.  0.
          5    1    3    3  502    0  0.81284261746E+02 -0.32122383287E+02  0.32797258328E+02  0.93445766460E+02  0.41800000000E+01 0.  1.
         -5    1    3    3    0  502  0.22117014169E+02  0.57564134697E+02 -0.34612180255E+02  0.70839729963E+02  0.41800000000E+01 0.  1.
        -11    1    1    2    0    0 -0.96694822984E+02 -0.95755655497E+00 -0.97087570084E+02  0.13702847139E+03  0.00000000000E+00 0.  1.
         11    1    1    2    0    0 -0.67064529311E+01 -0.24484194856E+02  0.10643549445E+02  0.27527031322E+02  0.00000000000E+00 0. -1.
</event>
<event>
 7    1  0.2794945E-009  0.8562362E+02  0.7561462E-02  0.1313810E+00
          2   -1    0    0  501    0  0.00000000000E+00  0.00000000000E+00  0.76684680323E+03  0.76684680323E+03  0.00000000000E+00 0. -1.
         -2   -1    0    0    0  501 -0.00000000000E+00 -0.00000000000E+00 -0.16109843615E+02  0.16109843615E+02  0.00000000000E+00 0.  1.
         25    2    1    2    0    0 -0.30099829078E+02 -0.45744736196E+01  0.40239390798E+03  0.42248894896E+03  0.12509647997E+03 0.  0.
          5    1    3    3  502    0 -0.46446004944E+02 -0.25011783597E+02  0.63934065560E+02  0.82993119190E+02  0.41800000000E+01 0.  1.
         -5    1    3    3    0  502  0.16346175866E+02  0.20437309978E+02  0.33845984242E+03  0.33949582977E+03  0.41800000000E+01 0.  1.
        -11    1    1    2    0    0  0.21668108311E+02 -0.40520955016E+02  0.14957907619E+03  0.15647796889E+03  0.00000000000E+00 0.  1.
         11    1    1    2    0    0  0.84317207670E+01  0.45095428636E+02  0.19876397545E+03  0.20398972899E+03  0.00000000000E+00 0. -1.
</event>
<event>
 7    1  0.2794945E-009  0.1046711E+03  0.7561462E-02  0.1270769E+00
          1   -1    0    0  501    0  0.00000000000E+00  0.00000000000E+00  0.20701556383E+03  0.20701556383E+03  0.00000000000E+00 0. -1.
         -1   -1    0    0    0  501 -0.00000000000E+00 -0.00000000000E+00 -0.10594761197E+03  0.10594761197E+03  0.00000000000E+00 0.  1.
         25    2    1    2    0    0 -0.64675064476E+02 -0.32024273152E+02  0.12789959211E+03  0.19291096447E+03  0.12509163246E+03 0.  0.
          5    1    3    3  502    0  0.54764200036E+01  0.21718137415E+02 -0.13227735790E+02  0.26346044541E+02  0.41800000000E+01 0. -1.
         -5    1    3    3    0  502 -0.70151484480E+02 -0.53742410567E+02  0.14112732790E+03  0.16656491992E+03  0.41800000000E+01 0. -1.
        -11    1    1    2    0    0  0.39189206559E+02  0.52416900452E+02  0.14850513690E+02  0.67110827149E+02  0.00000000000E+00 0. -1.
         11    1    1    2    0    0  0.25485857917E+02 -0.20392627301E+02 -0.41682153941E+02  0.52941384182E+02  0.00000000000E+00 0.  1.
</event>
<event>
 7    1  0.2794945E-009  0.1444187E+03  0.7561462E-02  0.1207504E+00
          1   -1    0    0  501    0  0.00000000000E+00  0.00000000000E+00  0.57881385161E+02  0.57881385161E+02  0.00000000000E+00 0. -1.
         -1   -1    0    0    0  501 -0.00000000000E+00 -0.00000000000E+00 -0.46326367471E+03  0.46326367471E+03  0.00000000000E+00 0.  1.
         25    2    1    2    0    0 -0.92679266165E+02 -0.63720223845E+02 -0.14493489167E+03  0.22204355509E+03  0.12508998454E+03 0.  0.
          5    1    3    3  502    0 -0.62113976447E+02 -0.94690266193E+02 -0.64225672338E+02  0.13025667725E+03  0.41800000000E+01 0. -1.
         -5    1    3    3    0  502 -0.30565289718E+02  0.30970042348E+02 -0.80709219331E+02  0.91786877840E+02  0.41800000000E+01 0. -1.
        -11    1    1    2    0    0  0.34497160118E+02 -0.11808229442E+02 -0.22701899157E+02  0.42951886619E+02  0.00000000000E+00 0. -1.
         11    1    1    2    0    0  0.58182106047E+02  0.75528453286E+02 -0.23774549872E+03  0.25614961816E+03  0.00000000000E+00 0.  1.
</event>
<event>
 7    1  0.2794945E-009  0.1290296E+03  0.7561462E-02  0.1228903E+00
         -4   -1    0    0    0  501 -0.00000000000E+00  0.00000000000E+00  0.11031049331E+03  0.11031049331E+03  0.00000000000E+00 0.  1.
          4   -1    0    0  501    0  0.00000000000E+00 -0.00000000000E+00 -0.28399453680E+03  0.28399453680E+03  0.00000000000E+00 0. -1.
         25    2    1    2    0    0  0.77600932470E+02  0.81799857323E+02  0.10111068625E+01  0.16840819464E+03  0.12508867377E+03 0.  0.
          5    1    3    3  502    0  0.30869370433E+02  0.90334269222E+02  0.43079479341E+02  0.10481656437E+03  0.41800000000E+01 0.  1.
         -5    1    3    3    0  502  0.46731562036E+02 -0.85344118990E+01 -0.42068372479E+02  0.63591630266E+02  0.41800000000E+01 0.  1.
        -11    1    1    2    0    0 -0.12227988749E+02 -0.33094677734E+01  0.91175040322E+01  0.15607855893E+02  0.00000000000E+00 0.  1.
         11    1    1    2    0    0 -0.65372943720E+02 -0.78490389549E+02 -0.18381265438E+03  0.21028897958E+03  0.00000000000E+00 0. -1.
</event>
<event>
 7    1  0.2794945E-009  0.1179685E+03  0.7561462E-02  0.1246486E+00
          2   -1    0    0  501    0  0.00000000000E+00  0.00000000000E+00  0.50983962477E+03  0.50983962477E+03  0.00000000000E+00 0. -1.
         -2   -1    0    0    0  501 -0.00000000000E+00 -0.00000000000E+00 -0.30757243260E+02  0.30757243260E+02  0.00000000000E+00 0.  1.
         25    2    1    2    0    0  0.36507794673E+01  0.51224312651E+02  0.34312936062E+03  0.36881240982E+03  0.12509027588E+03 0.  0.
          5    1    3    3  502    0  0.52246834565E+02 -0.93308347098E+01  0.18642209929E+03  0.19387487640E+03  0.41800000000E+01 0.  1.
         -5    1    3    3    0  502 -0.48596055098E+02  0.60555147360E+02  0.15670726134E+03  0.17493753342E+03  0.41800000000E+01 0.  1.
        -11    1    1    2    0    0  0.41023685758E+02 -0.43161534812E+02  0.74145694801E+02  0.95097029071E+02  0.00000000000E+00 0. -1.
         11    1    1    2    0    0 -0.44674465225E+02 -0.80627778386E+01  0.61807326085E+02  0.76687429136E+02  0.00000000000E+00 0.  1.
</event>
<event>
 7    1  0.2794945E-009  0.8707191E+02  0.7561462E-02  0.1310101E+00
          1   -1    0    0  501    0  0.00000000000E+00  0.00000000000E+00  0.30475300870E+03  0.30475300870E+03  0.00000000000E+00 0. -1.
         -1   -1    0    0    0  501 -0.00000000000E+00 -0.00000000000E+00 -0.57572588408E+02  0.57572588408E+02  0.00000000000E+00 0.  1.
         25    2    1    2    0    0  0.23419576328E+02 -0.55667648287E+02  0.88820306942E+02  0.16487447954E+03  0.12508870236E+03 0.  0.
          5    1    3    3  502    0 -0.22243547496E+02  0.67701243253E+01  0.83999310913E+02  0.87258046175E+02  0.41800000000E+01 0. -1.
         -5    1    3    3    0  502  0.45663123824E+02 -0.62437772613E+02  0.48209960294E+01  0.77616433369E+02  0.41800000000E+01 0. -1.
        -11    1    1    2    0    0  0.97665954586E+01  0.28621899772E+02 -0.31101972682E+01  0.30401856201E+02  0.00000000000E+00 0.  1.
         11    1    1    2    0    0 -0.33186171787E+02  0.27045748515E+02  0.16147031062E+03  0.16704926137E+03  0.00000000000E+00 0. -1.
</event>
<event>
 7    1  0.2794945E-009  0.1063664E+03  0.7561462E-02  0.1267451E+00
         -2   -1    0    0    0  501 -0.00000000000E+00  0.00000000000E+00  0.29086405201E+03  0.29086405201E+03  0.00000000000E+00 0. -1.
          2   -1    0    0  501    0  0.00000000000E+00 -0.00000000000E+00 -0.42571067279E+02  0.42571067279E+02  0.00000000000E+00 0.  1.
         25    2    1    2    0    0  0.22748178179E+02  0.62514076762E+01  0.10261022806E+03  0.16350033734E+03  0.12508773601E+03 0.  0.
          5    1    3    3  502    0  0.57321911846E+02 -0.39087821657E+02  0.64249090536E+02  0.94652403109E+02  0.41800000000E+01 0. -1.
         -5    1    3    3    0  502 -0.34573733666E+02  0.45339229334E+02  0.38361137520E+02  0.68847934232E+02  0.41800000000E+01 0. -1.
        -11    1    1    2    0    0  0.27957587914E+02 -0.18961906067E+02  0.42725848614E+02  0.54467226324E+02  0.00000000000E+00 0.  1.
         11    1    1    2    0    0 -0.50705766093E+02  0.12710498391E+02  0.10295690806E+03  0.11546755562E+03  0.00000000000E+00 0. -1.
</event>
<event>
 7    1  0.2794945E-009  0.1741975E+03  0.7561462E-02  0.1173540E+00
          1   -1    0    0  501    0  0.00000000000E+00  0.00000000000E+00  0.25332464695E+03  0.25332464695E+03  0.00000000000E+00 0. -1.
         -1   -1    0    0    0  501 -0.00000000000E+00 -0.00000000000E+00 -0.17398323302E+03  0.17398323302E+03  0.00000000000E+00 0.  1.
         25    2    1    2    0    0  0.81648676020E+02 -0.12776546648E+03 -0.57257294952E+02  0.20473480417E+03  0.12508965383E+03 0.  0.
          5    1    3    3  502    0  0.11156449423E+03 -0.91502199192E+02 -0.62400265759E+02  0.15725951289E+03  0.41800000000E+01 0.  1.
         -5    1    3    3    0  502 -0.29915818207E+02 -0.36263267288E+02  0.51429708072E+01  0.47475291280E+02  0.41800000000E+01 0.  1.
        -11    1    1    2    0    0 -0.85600089755E+02  0.11419810976E+03  0.78709222133E+02  0.16298381910E+03  0.00000000000E+00 0.  1.
         11    1    1    2    0    0  0.39514137358E+01  0.13567356720E+02  0.57889486741E+02  0.59589256699E+02  0.00000000000E+00 0. -1.
</event>
<event>
 7    1  0.2794945E-009  0.1309349E+03  0.7561462E-02  0.1226075E+00
          2   -1    0    0  501    0  0.00000000000E+00  0.00000000000E+00  0.11378172971E+04  0.11378172971E+04  0.00000000000E+00 0. -1.
         -2   -1    0    0    0  501 -0.00000000000E+00 -0.00000000000E+00 -0.21618952159E+02  0.21618952159E+02  0.00000000000E+00 0.  1.
         25    2    1    2    0    0 -0.71450156214E+02  0.84580745212E+02  0.67580676146E+03  0.69615168308E+03  0.12511338748E+03 0.  0.
          5    1    3    3  502    0 -0.85059942039E+01  0.39536147115E+02  0.45182920438E+02  0.60781802913E+02  0.41800000000E+01 0. -1.
         -5    1    3    3    0  502 -0.62944162010E+02  0.45044598097E+02  0.63062384103E+03  0.63536988016E+03  0.41800000000E+01 0. -1.
        -11    1    1    2    0    0  0.81212641218E+02 -0.27428583224E+02  0.27240665185E+03  0.28557521644E+03  0.00000000000E+00 0. -1.
         11    1    1    2    0    0 -0.97624850037E+01 -0.57152161987E+02  0.16798493163E+03  0.17770934975E+03  0.00000000000E+00 0.  1.
</event>
<event>
 7    1  0.2794945E-009  0.9874387E+02  0.7561462E-02  0.1282960E+00
         -2   -1    0    0    0  501 -0.00000000000E+00  0.00000000000E+00  0.21533832255E+02  0.21533832255E+02  0.00000000000E+00 0.  1.
          2   -1    0    0  501    0  0.00000000000E+00 -0.00000000000E+00 -0.95983588944E+03  0.95983588944E+03  0.00000000000E+00 0. -1.
         25    2    1    2    0    0 -0.15176954496E+02 -0.22253782246E+02 -0.81534144491E+03  0.82532092705E+03  0.12508952819E+03 0.  0.
          5    1    3    3  502    0 -0.38454631761E+02 -0.52462296933E+02 -0.71386116266E+03  0.71683072148E+03  0.41800000000E+01 0. -1.
         -5    1    3    3    0  502  0.23277677265E+02  0.30208514687E+02 -0.10148028225E+03  0.10849020557E+03  0.41800000000E+01 0. -1.
        -11    1    1    2    0    0 -0.27264003991E+02 -0.20185078948E+02 -0.29391097762E+02  0.44884295176E+02  0.00000000000E+00 0.  1.
         11    1    1    2    0    0  0.42440958488E+02  0.42438861194E+02 -0.93569514515E+02  0.11116449947E+03  0.00000000000E+00 0. -1.
</event>
<event>
 7    1  0.2794945E-009  0.9166624E+02  0.7561462E-02  0.1298866E+00
          3   -1    0    0  501    0  0.00000000000E+00  0.00000000000E+00  0.35394674581E+02  0.35394674581E+02  0.00000000000E+00 0. -1.
         -3   -1    0    0    0  501 -0.00000000000E+00 -0.00000000000E+00 -0.45644846583E+03  0.45644846583E+03  0.00000000000E+00 0.  1.
         25    2    1    2    0    0  0.55708759878E+01  0.53837295933E+02 -0.23292242830E+03  0.26987565294E+03  0.12510204374E+03 0.  0.
          5    1    3    3  502    0 -0.50539737230E+02  0.32518599331E+02 -0.53277054843E+02  0.80421647051E+02  0.41800000000E+01 0. -1.
         -5    1    3    3    0  502  0.56110613218E+02  0.21318696602E+02 -0.17964537346E+03  0.18945400588E+03  0.41800000000E+01 0. -1.
        -11    1    1    2    0    0 -0.17359325311E+02 -0.17217271996E+02  0.50729393560E+01  0.24970289225E+02  0.00000000000E+00 0. -1.
         11    1    1    2    0    0  0.11788449323E+02 -0.36620023936E+02 -0.19320430230E+03  0.19699719825E+03  0.00000000000E+00 0.  1.
</event>
<event>
 7    1  0.2794945E-009  0.1028110E+03  0.7561462E-02  0.1274493E+00
          2   -1    0    0  501    0  0.00000000000E+00  0.00000000000E+00  0.14720367030E+02  0.14720367030E+02  0.00000000000E+00 0. -1.
         -2   -1    0    0    0  501 -0.00000000000E+00 -0.00000000000E+00 -0.77917654627E+03  0.77917654627E+03  0.00000000000E+00 0.  1.
         25    2    1    2    0    0  0.10550488570E+01  0.58338088290E+01 -0.40705799794E+03  0.42588531190E+03  0.12508772424E+03 0.  0.
          5    1    3    3  502    0 -0.55452186175E+02  0.20800215739E+02 -0.13329756103E+03  0.14592226048E+03  0.41800000000E+01 0. -1.
         -5    1    3    3    0  502  0.56507235032E+02 -0.14966406909E+02 -0.27376043691E+03  0.27996305142E+03  0.41800000000E+01 0. -1.
        -11    1    1    2    0    0 -0.24044400997E+02 -0.39877705638E+02 -0.19860502687E+03  0.20399098344E+03  0.00000000000E+00 0. -1.
         11    1    1    2    0    0  0.22989352140E+02  0.34043896809E+02 -0.15879315442E+03  0.16402061795E+03  0.00000000000E+00 0.  1.
</event>
<event>
 7    1  0.2794945E-009  0.4497487E+03  0.7561462E-02  0.1027797E+00
         -1   -1    0    0    0  501 -0.00000000000E+00  0.00000000000E+00  0.15561242056E+03  0.15561242056E+03  0.00000000000E+00 0.  1.
          1   -1    0    0  501    0  0.00000000000E+00 -0.00000000000E+00 -0.13775122592E+04  0.13775122592E+04  0.00000000000E+00 0. -1.
         25    2    1    2    0    0 -0.38906354417E+03  0.21147840212E+03 -0.48454408853E+03  0.66822536201E+03  0.12509438334E+03 0.  0.
          5    1    3    3  502    0 -0.90797180512E+02  0.82721529853E+02 -0.69674728239E+02  0.14127639451E+03  0.41800000000E+01 0.  1.
         -5    1    3    3    0  502 -0.29826636366E+03  0.12875687227E+03 -0.41486936029E+03  0.52694896750E+03  0.41800000000E+01 0.  1.
        -11    1    1    2    0    0  0.18207965959E+03 -0.48989408323E+02 -0.29088546455E+03  0.34665158019E+03  0.00000000000E+00 0. -1.
         11    1    1    2    0    0  0.20698388459E+03 -0.16248899380E+03 -0.44647028552E+03  0.51824773752E+03  0.00000000000E+00 0.  1.
</event>
<event>
 7    1  0.2794945E-009  0.1031014E+03  0.7561462E-02  0.1273906E+00
         -1   -1    0    0    0  501 -0.00000000000E+00  0.00000000000E+00  0.75527463469E+02  0.75527463469E+02  0.00000000000E+00 0.  1.
          1   -1    0    0  501    0  0.00000000000E+00 -0.00000000000E+00 -0.17564804280E+03  0.17564804280E+03  0.00000000000E+00 0. -1.
         25    2    1    2    0    0 -0.22876089179E+02 -0.21671025839E+02 -0.34865270194E+02  0.13362818639E+03  0.12509179155E+03 0.  0.
          5    1    3    3  502    0 -0.33633735938E+02 -0.68889626886E+02 -0.36460911002E+02  0.84993407490E+02  0.41800000000E+01 0.  1.
         -5    1    3    3    0  502  0.10757646759E+02  0.47218601047E+02  0.15956408082E+01  0.48634778895E+02  0.41800000000E+01 0.  1.
        -11    1    1    2    0    0 -0.11443898043E+02  0.40213340180E+02 -0.66462803342E+02  0.78519932239E+02  0.00000000000E+00 0. -1.
         11    1    1    2    0    0  0.34319987222E+02 -0.18542314341E+02  0.12074942052E+01  0.39027387644E+02  0.00000000000E+00 0.  1.
</event>
<event>
 7    1  0.2794945E-009  0.1133633E+03  0.7561462E-02  0.1254465E+00
          2   -1    0    0  501    0  0.00000000000E+00  0.00000000000E+00  0.67559642708E+03  0.67559642708E+03  0.00000000000E+00 0. -1.
         -2   -1    0    0    0  501 -0.00000000000E+00 -0.00000000000E+00 -0.37554377881E+02  0.37554377881E+02  0.00000000000E+00 0.  1.
         25    2    1    2    0    0 -0.83547505458E+02 -0.26971873608E+02  0.51722008848E+03  0.53932501980E+03  0.12508872618E+03 0.  0.
          5    1    3    3  502    0 -0.38052368994E+02 -0.65414620702E+02  0.15873513999E+03  0.17590159878E+03  0.41800000000E+01 0.  1.
         -5    1    3    3    0  502 -0.45495136464E+02  0.38442747094E+02  0.35848494849E+03  0.36342342101E+03  0.41800000000E+01 0.  1.
        -11    1    1    2    0    0  0.29938084916E+02 -0.25115808528E+01 -0.81059000389E+01  0.31117560674E+02  0.00000000000E+00 0.  1.
         11    1    1    2    0    0  0.53609420541E+02  0.29483454460E+02  0.12892786076E+03  0.14270822449E+03  0.00000000000E+00 0. -1.
</event>
<event>
 7    1  0.2794945E-009  0.1430560E+03  0.7561462E-02  0.1209275E+00
         -4   -1    0    0    0  501 -0.00000000000E+00  0.00000000000E+00  0.10683301653E+03  0.10683301653E+03  0.00000000000E+00 0.  1.
          4   -1    0    0  501    0  0.00000000000E+00 -0.00000000000E+00 -0.23999812245E+03  0.23999812245E+03  0.00000000000E+00 0. -1.
         25    2    1    2    0    0 -0.77155777954E+02 -0.82595953161E+02 -0.36625197063E+02  0.17252432209E+03  0.12509249019E+03 0.  0.
          5    1    3    3  502    0 -0.67867027874E+02 -0.10755882692E+03 -0.25303768093E+00  0.12724924812E+03  0.41800000000E+01 0. -1.
         -5    1    3    3    0  502 -0.92887500797E+01  0.24962873756E+02 -0.36372159383E+02  0.45275073963E+02  0.41800000000E+01 0. -1.
        -11    1    1    2    0    0 -0.12732843581E+02  0.13219376617E+02  0.79462726751E+01  0.20000511825E+02  0.00000000000E+00 0.  1.
         11    1    1    2    0    0  0.89888621535E+02  0.69376576544E+02 -0.10448618153E+03  0.15430630507E+03  0.00000000000E+00 0. -1.
</event>
<event>
 7    1  0.2794945E-009  0.1275899E+03  0.7561462E-02  0.1231076E+00
         -1   -1    0    0    0  501 -0.00000000000E+00  0.00000000000E+00  0.33566432187E+02  0.33566432187E+02  0.00000000000E+00 0.  1.
          1   -1    0    0  501    0  0.00000000000E+00 -0.00000000000E+00 -0.68980925767E+03  0.68980925767E+03  0.00000000000E+00 0. -1.
         25    2    1    2    0    0  0.44692930339E+02  0.75757273880E+02 -0.49152004783E+03  0.51475783731E+03  0.12508817326E+03 0.  0.
          5    1    3    3  502    0  0.27809255881E+02  0.96933209109E+02 -0.46764497188E+03  0.47841268155E+03  0.41800000000E+01 0.  1.
         -5    1    3    3    0  502  0.16883674458E+02 -0.21175935230E+02 -0.23875075947E+02  0.36345155764E+02  0.41800000000E+01 0.  1.
        -11    1    1    2    0    0 -0.64938802789E+02 -0.20658454073E+02 -0.74358874502E+02  0.10086159849E+03  0.00000000000E+00 0.  1.
         11    1    1    2    0    0  0.20245872450E+02 -0.55098819806E+02 -0.90363903154E+02  0.10775625406E+03  0.00000000000E+00 0. -1.
</event>
<event>
 7    1  0.2794945E-009  0.5636006E+02  0.7561462E-02  0.1413774E+00
         -2   -1    0    0    0  501 -0.00000000000E+00  0.00000000000E+00  0.58588476766E+02  0.58588476766E+02  0.00000000000E+00 0.  1.
          2   -1    0    0  501    0  0.00000000000E+00 -0.00000000000E+00 -0.31874428050E+03  0.31874428050E+03  0.00000000000E+00 0. -1.
         25    2    1    2    0    0 -0.20267597558E+02  0.27942590762E+02 -0.38874217307E+02  0.13546160332E+03  0.12508827808E+03 0.  0.
          5    1    3    3  502    0 -0.15578195421E+01  0.29862482823E+02  0.42334388539E+02  0.51998726283E+02  0.41800000000E+01 0.  1.
         -5    1    3    3    0  502 -0.18709778016E+02 -0.19198920609E+01 -0.81208605847E+02  0.83462877032E+02  0.41800000000E+01 0.  1.
        -11    1    1    2    0    0 -0.18242409489E+02 -0.87999581596E+01 -0.43474035438E+01  0.20715324886E+02  0.00000000000E+00 0.  1.
         11    1    1    2    0    0  0.38510007048E+02 -0.19142632603E+02 -0.21693418288E+03  0.22115582906E+03  0.00000000000E+00 0. -1.
</event>
<event>
 7    1  0.2794945E-009  0.1549716E+03  0.7561462E-02  0.1194494E+00
         -1   -1    0    0    0  501 -0.00000000000E+00  0.00000000000E+00  0.77194818895E+03  0.77194818895E+03  0.00000000000E+00 0.  1.
          1   -1    0    0  501    0  0.00000000000E+00 -0.00000000000E+00 -0.37353248606E+02  0.37353248606E+02  0.00000000000E+00 0. -1.
         25    2    1    2    0    0 -0.29704827326E+02  0.11147418779E+03  0.24583531071E+03  0.29898440006E+03  0.12509116746E+03 0.  0.
          5    1    3    3  502    0  0.45870328254E+02  0.69328745991E+02  0.12931706128E+03  0.15378861068E+03  0.41800000000E+01 0.  1.
         -5    1    3    3    0  502 -0.75575155580E+02  0.42145441802E+02  0.11651824943E+03  0.14519578939E+03  0.41800000000E+01 0.  1.
        -11    1    1    2    0    0 -0.27288111329E+02 -0.43729282939E+02  0.11193898060E+03  0.12323646613E+03  0.00000000000E+00 0. -1.
         11    1    1    2    0    0  0.56992938656E+02 -0.67744904855E+02  0.37682064903E+03  0.38708057136E+03  0.00000000000E+00 0.  1.
</event>
<event>
 7    1  0.2794945E-009  0.1128524E+03  0.7561462E-02  0.1255377E+00
         -4   -1    0    0    0  501 -0.00000000000E+00  0.00000000000E+00  0.97261419905E+02  0.97261419905E+02  0.00000000000E+00 0.  1.
          4   -1    0    0  501    0  0.00000000000E+00 -0.00000000000E+00 -0.15000091231E+03  0.15000091231E+03  0.00000000000E+00 0. -1.
         25    2    1    2    0    0 -0.46149359490E+02 -0.12080327890E+02 -0.44293702791E+02  0.14101417132E+03  0.12508943482E+03 0.  0.
          5    1    3    3  502    0  0.41499726059E+02 -0.18723563167E+02 -0.18407437324E+02  0.49285953673E+02  0.41800000000E+01 0. -1.
         -5    1    3    3    0  502 -0.87649085549E+02  0.66432352771E+01 -0.25886265467E+02  0.91728217645E+02  0.41800000000E+01 0. -1.
        -11    1    1    2    0    0  0.54352821015E+02  0.36999333755E+02 -0.30022021884E+02  0.72280714223E+02  0.00000000000E+00 0. -1.
         11    1    1    2    0    0 -0.82034615253E+01 -0.24919005865E+02  0.21576232272E+02  0.33967446671E+02  0.00000000000E+00 0.  1.
</event>
<event>
 7    1  0.2794945E-009  0.2005890E+03  0.7561462E-02  0.1149243E+00
          1   -1    0    0  501    0  0.00000000000E+00  0.00000000000E+00  0.28992571391E+02  0.28992571391E+02  0.00000000000E+00 0. -1.
         -1   -1    0    0    0  501 -0.00000000000E+00 -0.00000000000E+00 -0.15490872566E+04  0.15490872566E+04  0.00000000000E+00 0.  1.
         25    2    1    2    0    0  0.17811817644E+03  0.30216623408E+02 -0.82635724537E+03  0.85507399195E+03  0.12508439405E+03 0.  0.
          5    1    3    3  502    0  0.18692781281E+03  0.83811054325E+01 -0.78759972460E+03  0.80953261127E+03  0.41800000000E+01 0. -1.
         -5    1    3    3    0  502 -0.88096363627E+01  0.21835517975E+02 -0.38757520769E+02  0.45541380680E+02  0.41800000000E+01 0. -1.
        -11    1    1    2    0    0 -0.83078538705E+02  0.15704002732E+02 -0.18458871053E+03  0.20303115857E+03  0.00000000000E+00 0. -1.
         11    1    1    2    0    0 -0.95039637739E+02 -0.45920626140E+02 -0.50914872935E+03  0.51997467750E+03  0.00000000000E+00 0.  1.
</event>
<event>
 7    1  0.2913248E-009  0.9868719E+02  0.7561462E-02  0.1283081E+00
         -2   -1    0    0    0  501 -0.00000000000E+00  0.00000000000E+00  0.19781398204E+02  0.19781398204E+02  0.00000000000E+00 0.  1.
          2   -1    0    0  501    0  0.00000000000E+00 -0.00000000000E+00 -0.88220159002E+03  0.88220159002E+03  0.00000000000E+00 0. -1.
         25    2    1    2    0    0  0.68108108539E+02  0.31619735793E+02 -0.48468266024E+03  0.50616604991E+03  0.12509303259E+03 0.  0.
          5    1    3    3  502    0  0.10095138831E+02  0.27121276159E+02 -0.41168278131E+03  0.41271983266E+03  0.41800000000E+01 0.  1.
         -5    1    3    3    0  502  0.58012969708E+02  0.44984596347E+01 -0.72999878934E+02  0.93446217247E+02  0.41800000000E+01 0.  1.
        -11    1    1    2    0    0 -0.52086450658E+02 -0.58610270181E+02 -0.32604877365E+03  0.33534454657E+03  0.00000000000E+00 0.  1.
         11    1    1    2    0    0 -0.16021657881E+02  0.26990534388E+02 -0.51688757925E+02  0.60472391747E+02  0.00000000000E+00 0. -1.
</event>
<event>
 7    1  0.2794945E-009  0.1621260E+03  0.7561462E-02  0.1186317E+00
          2   -1    0    0  501    0  0.00000000000E+00  0.00000000000E+00  0.86655800154E+03  0.86655800154E+03  0.00000000000E+00 0. -1.
         -2   -1    0    0    0  501 -0.00000000000E+00 -0.00000000000E+00 -0.42001423402E+02  0.42001423402E+02  0.00000000000E+00 0.  1.
         25    2    1    2    0    0  0.13121972268E+03 -0.43566561211E+02  0.25726160516E+03  0.31772257792E+03  0.12508973642E+03 0.  0.
          5    1    3    3  502    0  0.84038241132E+02  0.19565108872E+02  0.20660841985E+03  0.22394135619E+03  0.41800000000E+01 0. -1.
         -5    1    3    3    0  502  0.47181481546E+02 -0.63131670084E+02  0.50653185306E+02  0.93781221735E+02  0.41800000000E+01 0. -1.
        -11    1    1    2    0    0 -0.47961744948E+02  0.57120334500E+02  0.34742094850E+03  0.35533699083E+03  0.00000000000E+00 0.  1.
         11    1    1    2    0    0 -0.83257977729E+02 -0.13553773288E+02  0.21987402448E+03  0.23549985619E+03  0.00000000000E+00 0. -1.
</event>
<event>
 7    1  0.2794945E-009  0.1355404E+03  0.7561462E-02  0.1219459E+00
         -2   -1    0    0    0  501 -0.00000000000E+00  0.00000000000E+00  0.17777938519E+02  0.17777938519E+02  0.00000000000E+00 0.  1.
          2   -1    0    0  501    0  0.00000000000E+00 -0.00000000000E+00 -0.12907857986E+04  0.12907857986E+04  0.00000000000E+00 0. -1.
         25    2    1    2    0    0  0.57535142559E+02  0.74950457845E+02 -0.88931027742E+03  0.90302151972E+03  0.12508889562E+03 0.  0.
          5    1    3    3  502    0  0.83601996791E+01 -0.32518785969E+02 -0.30448789194E+03  0.30636206214E+03  0.41800000000E+01 0. -1.
         -5    1    3    3    0  502  0.49174942879E+02  0.10746924381E+03 -0.58482238548E+03  0.59665945759E+03  0.41800000000E+01 0. -1.
        -11    1    1    2    0    0 -0.56462090938E+02 -0.14192467026E+02 -0.27420404304E+03  0.28031634104E+03  0.00000000000E+00 0.  1.
         11    1    1    2    0    0 -0.10730516211E+01 -0.60757990820E+02 -0.10949353958E+03  0.12522587631E+03  0.00000000000E+00 0. -1.
</event>
<event>
 7    1  0.3164383E-009  0.1216944E+03  0.7561462E-02  0.1240328E+00
          1   -1    0    0  501    0  0.00000000000E+00  0.00000000000E+00  0.15699670428E+03  0.15699670428E+03  0.00000000000E+00 0. -1.
         -1   -1    0    0    0  501 -0.00000000000E+00 -0.00000000000E+00 -0.11566785656E+03  0.11566785656E+03  0.00000000000E+00 0.  1.
         25    2    1    2    0    0  0.30671341132E+02  0.73532266134E+02  0.29956332398E+02  0.15130469388E+03  0.12509197900E+03 0.  0.
          5    1    3    3  502    0 -0.43799135408E+02  0.50176684044E+02  0.29946227587E+02  0.73145832628E+02  0.41800000000E+01 0.  1.
         -5    1    3    3    0  502  0.74470476539E+02  0.23355582090E+02  0.10104811090E-01  0.78158861256E+02  0.41800000000E+01 0.  1.
        -11    1    1    2    0    0 -0.47910388907E+02 -0.58563040893E+02 -0.23894887823E+02  0.79347342665E+02  0.00000000000E+00 0.  1.
         11    1    1    2    0    0  0.17239047776E+02 -0.14969225242E+02  0.35267403143E+02  0.42012524287E+02  0.00000000000E+00 0. -1.
</event>
<event>
 7    1  0.2794945E-009  0.1323723E+03  0.7561462E-02  0.1223978E+00
          2   -1    0    0  501    0  0.00000000000E+00  0.00000000000E+00  0.45563279176E+03  0.45563279176E+03  0.00000000000E+00 0. -1.
         -2   -1    0    0    0  501 -0.00000000000E+00 -0.00000000000E+00 -0.51363493883E+02  0.51363493883E+02  0.00000000000E+00 0.  1.
         25    2    1    2    0    0  0.64625582751E+02  0.82749212253E+02  0.26242567780E+03  0.30909682195E+03  0.12509880455E+03 0.  0.
          5    1    3    3  502    0  0.78611615894E+02  0.33275852618E+01  0.16271230651E+03  0.18078613351E+03  0.41800000000E+01 0.  1.
         -5    1    3    3    0  502 -0.13986033143E+02  0.79421626991E+02  0.99713371284E+02  0.12831068845E+03  0.41800000000E+01 0.  1.
        -11    1    1    2    0    0 -0.50532838137E+02 -0.68865304904E+02  0.40299136868E+02  0.94445848940E+02  0.00000000000E+00 0.  1.
         11    1    1    2    0    0 -0.14092744614E+02 -0.13883907349E+02  0.10154448321E+03  0.10345361475E+03  0.00000000000E+00 0. -1.
</event>
<event>
 7    1  0.2794945E-009  0.1074862E+03  0.7561462E-02  0.1265297E+00
         -1   -1    0    0    0  501 -0.00000000000E+00  0.00000000000E+00  0.16215012285E+03  0.16215012285E+03  0.00000000000E+00 0.  1.
          1   -1    0    0  501    0  0.00000000000E+00 -0.00000000000E+00 -0.99941745496E+02  0.99941745496E+02  0.00000000000E+00 0. -1.
         25    2    1    2    0    0 -0.56174344858E+02 -0.26902702517E+02  0.60499037909E+02  0.15227448235E+03  0.12509225381E+03 0.  0.
          5    1    3    3  502    0  0.39058470049E+02 -0.15522944681E+02  0.29011290274E+02  0.51241128574E+02  0.41800000000E+01 0. -1.
         -5    1    3    3    0  502 -0.95232814908E+02 -0.11379757835E+02  0.31487747636E+02  0.10103335377E+03  0.41800000000E+01 0. -1.
        -11    1    1    2    0    0  0.49741407890E+02  0.38882950327E+02 -0.33927706527E+02  0.71674128911E+02  0.00000000000E+00 0. -1.
         11    1    1    2    0    0  0.64329369687E+01 -0.11980247810E+02  0.35637045972E+02  0.38143257087E+02  0.00000000000E+00 0.  1.
</event>
<event>
 7    1  0.2794945E-009  0.1314703E+03  0.7561462E-02  0.1225290E+00
         -1   -1    0    0    0  501 -0.00000000000E+00  0.00000000000E+00  0.60790162267E+02  0.60790162267E+02  0.00000000000E+00 0.  1.
          1   -1    0    0  501    0  0.00000000000E+00 -0.00000000000E+00 -0.29114305077E+03  0.29114305077E+03  0.00000000000E+00 0. -1.
         25    2    1    2    0    0 -0.42635316296E+02 -0.60622765819E+02 -0.14236260635E+03  0.20348852454E+03  0.12509027941E+03 0.  0.
          5    1    3    3  502    0 -0.26125924515E+02  0.36838871514E+02 -0.33517201747E+02  0.56396290651E+02  0.41800000000E+01 0. -1.
         -5    1    3    3    0  502 -0.16509391781E+02 -0.97461637333E+02 -0.10884540460E+03  0.14709223389E+03  0.41800000000E+01 0. -1.
        -11    1    1    2    0    0 -0.28613287733E+02  0.28854990718E+02 -0.21669112817E+02  0.46053025682E+02  0.00000000000E+00 0. -1.
         11    1    1    2    0    0  0.71248604029E+02  0.31767775101E+02 -0.66321169338E+02  0.10239166281E+03  0.00000000000E+00 0.  1.
</event>
<event>
 7    1  0.2794945E-009  0.1327380E+03  0.7561462E-02  0.1223449E+00
         -2   -1    0    0    0  501 -0.00000000000E+00  0.00000000000E+00  0.12706903723E+03  0.12706903723E+03  0.00000000000E+00 0.  1.
          2   -1    0    0  501    0  0.00000000000E+00 -0.00000000000E+00 -0.21213339701E+03  0.21213339701E+03  0.00000000000E+00 0. -1.
         25    2    1    2    0    0  0.38200388468E+02  0.86616256462E+02  0.31485338009E+02  0.16000155267E+03  0.12509006669E+03 0.  0.
          5    1    3    3  502    0  0.28492249106E+02  0.10680461280E+03 -0.11636173419E+02  0.11122907222E+03  0.41800000000E+01 0.  1.
         -5    1    3    3    0  502  0.97081393622E+01 -0.20188356341E+02  0.43121511428E+02  0.48772480452E+02  0.41800000000E+01 0.  1.
        -11    1    1    2    0    0 -0.56491403750E+02 -0.96093796501E+02 -0.79861306847E+02  0.13712448634E+03  0.00000000000E+00 0. -1.
         11    1    1    2    0    0  0.18291015282E+02  0.94775400382E+01 -0.36688390945E+02  0.42076395228E+02  0.00000000000E+00 0.  1.
</event>
<event>
 7    1  0.2794945E-009  0.1214121E+03  0.7561462E-02  0.1240786E+00
         -1   -1    0    0    0  501 -0.00000000000E+00  0.00000000000E+00  0.15334465900E+02  0.15334465900E+02  0.00000000000E+00 0.  1.
          1   -1    0    0  501    0  0.00000000000E+00 -0.00000000000E+00 -0.10992551049E+04  0.10992551049E+04  0.00000000000E+00 0. -1.
         25    2    1    2    0    0 -0.47448642277E+02  0.47121324478E+02 -0.49075697729E+03  0.51084403525E+03  0.12508966669E+03 0.  0.
          5    1    3    3  502    0 -0.77593473937E+02  0.62440635203E+02 -0.27704894375E+03  0.29443703869E+03  0.41800000000E+01 0.  1.
         -5    1    3    3    0  502  0.30144831660E+02 -0.15319310724E+02 -0.21370803354E+03  0.21640699655E+03  0.41800000000E+01 0.  1.
        -11    1    1    2    0    0 -0.20404965745E+02  0.77265224983E+01 -0.68925186783E+02  0.72296218090E+02  0.00000000000E+00 0.  1.
         11    1    1    2    0    0  0.67853608022E+02 -0.54847846977E+02 -0.52423847489E+03  0.53144931743E+03  0.00000000000E+00 0. -1.
</event>
<event>
 7    1  0.2794945E-009  0.6885776E+02  0.7561462E-02  0.1364021E+00
          1   -1    0    0  501    0  0.00000000000E+00  0.00000000000E+00  0.25069427870E+03  0.25069427870E+03  0.00000000000E+00 0. -1.
         -1   -1    0    0    0  501 -0.00000000000E+00 -0.00000000000E+00 -0.57891216913E+02  0.57891216913E+02  0.00000000000E+00 0.  1.
         25    2    1    2    0    0 -0.46605806040E+02  0.19279873504E+02  0.81420342849E+02  0.15754663655E+03  0.12509138971E+03 0.  0.
          5    1    3    3  502    0 -0.20134008878E+02  0.41214686573E+01 -0.32975516288E+02  0.39079686435E+02  0.41800000000E+01 0. -1.
         -5    1    3    3    0  502 -0.26471797162E+02  0.15158404847E+02  0.11439585914E+03  0.11846695012E+03  0.41800000000E+01 0. -1.
        -11    1    1    2    0    0  0.33547045675E+02 -0.45577225768E+02  0.10741445475E+03  0.12141067857E+03  0.00000000000E+00 0.  1.
         11    1    1    2    0    0  0.13058760366E+02  0.26297352264E+02  0.39682641902E+01  0.29628180488E+02  0.00000000000E+00 0. -1.
</event>
<event>
 7    1  0.2794945E-009  0.9715068E+02  0.7561462E-02  0.1286404E+00
         -2   -1    0    0    0  501 -0.00000000000E+00  0.00000000000E+00  0.75267979658E+02  0.75267979658E+02  0.00000000000E+00 0.  1.
          2   -1    0    0  501    0  0.00000000000E+00 -0.00000000000E+00 -0.17462819063E+03  0.17462819063E+03  0.00000000000E+00 0. -1.
         25    2    1    2    0    0  0.39535219094E+02  0.10994711143E+02 -0.47072178576E+02  0.13981215496E+03  0.12509089278E+03 0.  0.
          5    1    3    3  502    0  0.89817361428E+01  0.66682228478E+02 -0.30754762765E+02  0.74098036489E+02  0.41800000000E+01 0.  1.
         -5    1    3    3    0  502  0.30553482951E+02 -0.55687517334E+02 -0.16317415812E+02  0.65714118468E+02  0.41800000000E+01 0.  1.
        -11    1    1    2    0    0  0.10791864730E+02  0.25993465781E+01  0.18858442896E+02  0.21882911494E+02  0.00000000000E+00 0.  1.
         11    1    1    2    0    0 -0.50327083824E+02 -0.13594057721E+02 -0.71146475287E+02  0.88201103833E+02  0.00000000000E+00 0. -1.
</event>
<event>
 7    1  0.2794945E-009  0.1131071E+03  0.7561462E-02  0.1254922E+00
          1   -1    0    0  501    0  0.00000000000E+00  0.00000000000E+00  0.58023430108E+02  0.58023430108E+02  0.00000000000E+00 0. -1.
         -1   -1    0    0    0  501 -0.00000000000E+00 -0.00000000000E+00 -0.36640478755E+03  0.36640478755E+03  0.00000000000E+00 0.  1.
         25    2    1    2    0    0 -0.66545157408E+02  0.59760259426E+02 -0.22163034851E+03  0.26975380629E+03  0.12509019964E+03 0.  0.
          5    1    3    3  502    0 -0.62106620724E+02 -0.54064666515E+01 -0.18385894591E+03  0.19418559836E+03  0.41800000000E+01 0. -1.
         -5    1    3    3    0  502 -0.44385366839E+01  0.65166726078E+02 -0.37771402605E+02  0.75568207934E+02  0.41800000000E+01 0. -1.
        -11    1    1    2    0    0  0.71478175734E+01 -0.31870389759E+02  0.13100403859E+02  0.35191385604E+02  0.00000000000E+00 0. -1.
         11    1    1    2    0    0  0.59397339835E+02 -0.27889869667E+02 -0.99851412788E+02  0.11948302576E+03  0.00000000000E+00 0.  1.
</event>
<event>
 7    1  0.2794945E-009  0.1469177E+03  0.7561462E-02  0.1204312E+00
          1   -1    0    0  501    0  0.00000000000E+00  0.00000000000E+00  0.19532255289E+03  0.19532255289E+03  0.00000000000E+00 0. -1.
         -1   -1    0    0    0  501 -0.00000000000E+00 -0.00000000000E+00 -0.15006880025E+03  0.15006880025E+03  0.00000000000E+00 0.  1.
         25    2    1    2    0    0 -0.74321750652E+02 -0.88990666489E+02 -0.35573041919E+02  0.17423100058E+03  0.12509172199E+03 0.  0.
          5    1    3    3  502    0 -0.96297068931E+02 -0.30617364245E+02  0.22645538109E+01  0.10115902867E+03  0.41800000000E+01 0.  1.
         -5    1    3    3    0  502  0.21975318279E+02 -0.58373302244E+02 -0.37837595730E+02  0.73071971911E+02  0.41800000000E+01 0.  1.
        -11    1    1    2    0    0  0.83998139265E+02  0.71985720687E+02  0.95945079960E+02  0.14643459206E+03  0.00000000000E+00 0. -1.
         11    1    1    2    0    0 -0.96763886130E+01  0.17004945802E+02 -0.15118285401E+02  0.24725760489E+02  0.00000000000E+00 0.  1.
</event>
<event>
 7    1  0.2794945E-009  0.1178092E+03  0.7561462E-02  0.1246756E+00
          1   -1    0    0  501    0  0.00000000000E+00  0.00000000000E+00  0.16429977104E+03  0.16429977104E+03  0.00000000000E+00 0. -1.
         -1   -1    0    0    0  501 -0.00000000000E+00 -0.00000000000E+00 -0.18063304841E+03  0.18063304841E+03  0.00000000000E+00 0.  1.
         25    2    1    2    0    0  0.67324271530E+02 -0.14136732010E+02  0.10592053392E+03  0.17776038668E+03  0.12508873187E+03 0.  0.
          5    1    3    3  502    0 -0.25820974222E+02 -0.11016509806E+02  0.73840846435E+02  0.79107706326E+02  0.41800000000E+01 0. -1.
         -5    1    3    3    0  502  0.93145245751E+02 -0.31202222042E+01  0.32079687482E+02  0.98652680357E+02  0.41800000000E+01 0. -1.
        -11    1    1    2    0    0 -0.28714817646E+02  0.52295674747E+02 -0.67042718032E+02  0.89744662185E+02  0.00000000000E+00 0. -1.
         11    1    1    2    0    0 -0.38609453883E+02 -0.38158942737E+02 -0.55211093251E+02  0.77427770586E+02  0.00000000000E+00 0.  1.
</event>
<event>
 7    1  0.2794945E-009  0.1406379E+03  0.7561462E-02  0.1212473E+00
          1   -1    0    0  501    0  0.00000000000E+00  0.00000000000E+00  0.49209467601E+03  0.49209467601E+03  0.00000000000E+00 0. -1.
         -1   -1    0    0    0  501 -0.00000000000E+00 -0.00000000000E+00 -0.51824430719E+02  0.51824430719E+02  0.00000000000E+00 0.  1.
         25    2    1    2    0    0  0.10147952212E+03  0.56787264621E+02  0.25856869057E+03  0.30988386912E+03  0.12508939910E+03 0.  0.
          5    1    3    3  502    0  0.45443077675E+02  0.85019984602E+02  0.20762594845E+03  0.22895300382E+03  0.41800000000E+01 0.  1.
         -5    1    3    3    0  502  0.56036444441E+02 -0.28232719981E+02  0.50942742120E+02  0.80930865298E+02  0.41800000000E+01 0.  1.
        -11    1    1    2    0    0 -0.64980300073E+02 -0.15527644486E+02  0.16249972413E+03  0.17569777313E+03  0.00000000000E+00 0. -1.
         11    1    1    2    0    0 -0.36499222043E+02 -0.41259620136E+02  0.19201830592E+02  0.58337464477E+02  0.00000000000E+00 0.  1.
</event>
<event>
 7    1  0.2794945E-009  0.1552334E+03  0.7561462E-02  0.1194186E+00
         -1   -1    0    0    0  501 -0.00000000000E+00  0.00000000000E+00  0.94598225030E+02  0.94598225030E+02  0.00000000000E+00 0.  1.
          1   -1    0    0  501    0  0.00000000000E+00 -0.00000000000E+00 -0.31065485031E+03  0.31065485031E+03  0.00000000000E+00 0. -1.
         25    2    1    2    0    0  0.17777179723E+02  0.13125646724E+03 -0.11598162727E+03  0.21597193475E+03  0.12509136831E+03 0.  0.
          5    1    3    3  502    0  0.56754604929E+02  0.11545492605E+03 -0.11663472388E+03  0.17370105453E+03  0.41800000000E+01 0. -1.
         -5    1    3    3    0  502 -0.38977425205E+02  0.15801541189E+02  0.65309660934E+00  0.42270880222E+02  0.41800000000E+01 0. -1.
        -11    1    1    2    0    0 -0.32434483752E+02 -0.86067665847E+02 -0.10719298843E+03  0.14124438258E+03  0.00000000000E+00 0. -1.
         11    1    1    2    0    0  0.14657304029E+02 -0.45188801392E+02  0.71179904210E+01  0.48036758012E+02  0.00000000000E+00 0.  1.
</event>
<event>
 7    1  0.2794945E-009  0.1902633E+03  0.7561462E-02  0.1158224E+00
         -3   -1    0    0    0  501 -0.00000000000E+00  0.00000000000E+00  0.19311232681E+03  0.19311232681E+03  0.00000000000E+00 0.  1.
          3   -1    0    0  501    0  0.00000000000E+00 -0.00000000000E+00 -0.22720571469E+03  0.22720571469E+03  0.00000000000E+00 0. -1.
         25    2    1    2    0    0  0.16154626719E+03 -0.41878116523E+02 -0.82074766504E+02  0.22413030169E+03  0.12508857564E+03 0.  0.
          5    1    3    3  502    0  0.23832010915E+02 -0.50473491621E+02  0.11782407575E+02  0.57199961791E+02  0.41800000000E+01 0. -1.
         -5    1    3    3    0  502  0.13771425627E+03  0.85953750977E+01 -0.93857174080E+02  0.16693033990E+03  0.41800000000E+01 0. -1.
        -11    1    1    2    0    0  0.96868025935E+01  0.64794845149E+01  0.13733016455E+02  0.18011485364E+02  0.00000000000E+00 0.  1.
         11    1    1    2    0    0 -0.17123306978E+03  0.35398632008E+02  0.34248362175E+02  0.17817625444E+03  0.00000000000E+00 0. -1.
</event>
<event>
 7    1  0.2794945E-009  0.1814681E+03  0.7561462E-02  0.1166390E+00
          1   -1    0    0  501    0  0.00000000000E+00  0.00000000000E+00  0.31809408934E+03  0.31809408934E+03  0.00000000000E+00 0. -1.
         -1   -1    0    0    0  501 -0.00000000000E+00 -0.00000000000E+00 -0.14759152917E+03  0.14759152917E+03  0.00000000000E+00 0.  1.
         25    2    1    2    0    0  0.15219124205E+03  0.58818817665E+02 -0.99092505021E+01  0.20583082041E+03  0.12508519463E+03 0.  0.
          5    1    3    3  502    0  0.13787877386E+03  0.89510103229E+02  0.12652497879E+02  0.16492474940E+03  0.41800000000E+01 0. -1.
         -5    1    3    3    0  502  0.14312468194E+02 -0.30691285565E+02 -0.22561748381E+02  0.40906071010E+02  0.41800000000E+01 0. -1.
        -11    1    1    2    0    0 -0.79131206420E+02 -0.19893426396E+02  0.15167019762E+03  0.17222469362E+03  0.00000000000E+00 0.  1.
         11    1    1    2    0    0 -0.73060035635E+02 -0.38925391269E+02  0.28741613045E+02  0.87630104490E+02  0.00000000000E+00 0. -1.
</event>
<event>
 7    1  0.2794945E-009  0.1101820E+03  0.7561462E-02  0.1260233E+00
          2   -1    0    0  501    0  0.00000000000E+00  0.00000000000E+00  0.11823485190E+03  0.11823485190E+03  0.00000000000E+00 0.  1.
         -2   -1    0    0    0  501 -0.00000000000E+00 -0.00000000000E+00 -0.16662737689E+03  0.16662737689E+03  0.00000000000E+00 0. -1.
         25    2    1    2    0    0  0.14279439638E+02 -0.80128606451E+02 -0.56366329340E+02  0.15952652299E+03  0.12508817884E+03 0.  0.
          5    1    3    3  502    0  0.25332589169E+02 -0.79399932882E+02  0.17041317519E+02  0.85170231411E+02  0.41800000000E+01 0.  1.
         -5    1    3    3    0  502 -0.11053149531E+02 -0.72867356823E+00 -0.73407646859E+02  0.74356291577E+02  0.41800000000E+01 0.  1.
        -11    1    1    2    0    0  0.39500761436E+02  0.48993593566E+02  0.45879633635E+01  0.63100964908E+02  0.00000000000E+00 0.  1.
         11    1    1    2    0    0 -0.53780201073E+02  0.31135012885E+02  0.33858409795E+01  0.62234740893E+02  0.00000000000E+00 0. -1.
</event>
<event>
 7    1  0.2794945E-009  0.7444439E+02  0.7561462E-02  0.1345600E+00
          1   -1    0    0  501    0  0.00000000000E+00  0.00000000000E+00  0.72982156456E+03  0.72982156456E+03  0.00000000000E+00 0. -1.
         -1   -1    0    0    0  501 -0.00000000000E+00 -0.00000000000E+00 -0.21815952325E+02  0.21815952325E+02  0.00000000000E+00 0.  1.
         25    2    1    2    0    0  0.26896760423E+02  0.13784571565E+02  0.57491693675E+03  0.58914388555E+03  0.12509030173E+03 0.  0.
          5    1    3    3  502    0  0.11997262450E+00 -0.27223558799E+02  0.49186870943E+03  0.49263925571E+03  0.41800000000E+01 0. -1.
         -5    1    3    3    0  502  0.26776787798E+02  0.41008130364E+02  0.83048227319E+02  0.96504629845E+02  0.41800000000E+01 0. -1.
        -11    1    1    2    0    0  0.21962548237E+02 -0.31335412672E+01  0.21000267997E+01  0.22284136028E+02  0.00000000000E+00 0.  1.
         11    1    1    2    0    0 -0.48859308660E+02 -0.10651030298E+02  0.13098864868E+03  0.14020949530E+03  0.00000000000E+00 0. -1.
</event>
<event>
 7    1  0.2794945E-009  0.1062223E+03  0.7561462E-02  0.1267730E+00
          1   -1    0    0  501    0  0.00000000000E+00  0.00000000000E+00  0.23426900413E+03  0.23426900413E+03  0.00000000000E+00 0. -1.
         -1   -1    0    0    0  501 -0.00000000000E+00 -0.00000000000E+00 -0.64516302550E+02  0.64516302550E+02  0.00000000000E+00 0.  1.
         25    2    1    2    0    0 -0.26037995761E+02  0.49554871937E+02  0.11252330218E+03  0.17732209637E+03  0.12509184535E+03 0.  0.
          5    1    3    3  502    0  0.13731140761E+02 -0.22640344621E+02 -0.10825474398E+02  0.28910080025E+02  0.41800000000E+01 0. -1.
         -5    1    3    3    0  502 -0.39769136522E+02  0.72195216558E+02  0.12334877658E+03  0.14841201635E+03  0.41800000000E+01 0. -1.
        -11    1    1    2    0    0  0.55371462344E+02 -0.14189888194E+02  0.15091271124E+02  0.59119355826E+02  0.00000000000E+00 0. -1.
         11    1    1    2    0    0 -0.29333466583E+02 -0.35364983743E+02  0.42138128281E+02  0.62343854484E+02  0.00000000000E+00 0.  1.
</event>
<event>
 7    1  0.2794945E-009  0.1837425E+03  0.7561462E-02  0.1164229E+00
          1   -1    0    0  501    0  0.00000000000E+00  0.00000000000E+00  0.26764969289E+03  0.26764969289E+03  0.00000000000E+00 0. -1.
         -1   -1    0    0    0  501 -0.00000000000E+00 -0.00000000000E+00 -0.15531377951E+03  0.15531377951E+03  0.00000000000E+00 0.  1.
         25    2    1    2    0    0 -0.14046641003E+03  0.98846730975E+02  0.49369137702E+02  0.21815179151E+03  0.12510557065E+03 0.  0.
          5    1    3    3  502    0 -0.68691718666E+01  0.47130329517E+02  0.57283640263E+02  0.74614618703E+02  0.41800000000E+01 0. -1.
         -5    1    3    3    0  502 -0.13359723817E+03  0.51716401459E+02 -0.79145025607E+01  0.14353717280E+03  0.41800000000E+01 0. -1.
        -11    1    1    2    0    0  0.12746663710E+02 -0.26893725859E+02 -0.20484172291E+02  0.36129644902E+02  0.00000000000E+00 0.  1.
         11    1    1    2    0    0  0.12771974633E+03 -0.71953005116E+02  0.83450947971E+02  0.16868203598E+03  0.00000000000E+00 0. -1.
</event>
<event>
 7    1  0.2794945E-009  0.8264088E+02  0.7561462E-02  0.1321720E+00
          1   -1    0    0  501    0  0.00000000000E+00  0.00000000000E+00  0.13521943067E+03  0.13521943067E+03  0.00000000000E+00 0. -1.
         -1   -1    0    0    0  501 -0.00000000000E+00 -0.00000000000E+00 -0.12897002573E+03  0.12897002573E+03  0.00000000000E+00 0.  1.
         25    2    1    2    0    0 -0.48936925638E+02 -0.50616305427E+02  0.27612821698E+02  0.14617555209E+03  0.12509193036E+03 0.  0.
          5    1    3    3  502    0 -0.17036707038E+02 -0.56151898049E+02 -0.39969263077E+02  0.71121722646E+02  0.41800000000E+01 0.  1.
         -5    1    3    3    0  502 -0.31900218600E+02  0.55355926218E+01  0.67582084775E+02  0.75053829449E+02  0.41800000000E+01 0.  1.
        -11    1    1    2    0    0  0.27723243087E+02  0.43209236877E+02 -0.56478863732E+02  0.76324821698E+02  0.00000000000E+00 0.  1.
         11    1    1    2    0    0  0.21213682552E+02  0.74070685501E+01  0.35115446976E+02  0.41689082602E+02  0.00000000000E+00 0. -1.
</event>
<event>
 7    1  0.2794945E-009  0.6939191E+02  0.7561462E-02  0.1362173E+00
          1   -1    0    0  501    0  0.00000000000E+00  0.00000000000E+00  0.21432632745E+03  0.21432632745E+03  0.00000000000E+00 0. -1.
         -1   -1    0    0    0  501 -0.00000000000E+00 -0.00000000000E+00 -0.62599859451E+02  0.62599859451E+02  0.00000000000E+00 0.  1.
         25    2    1    2    0    0  0.40550590450E+01 -0.17362498276E+02  0.13397033427E+03  0.18415326618E+03  0.12508587103E+03 0.  0.
          5    1    3    3  502    0 -0.32818540978E+02 -0.60231220130E+01 -0.99699895381E+01  0.35074317130E+02  0.41800000000E+01 0. -1.
         -5    1    3    3    0  502  0.36873600023E+02 -0.11339376263E+02  0.14394032381E+03  0.14907894905E+03  0.41800000000E+01 0. -1.
        -11    1    1    2    0    0 -0.33331779793E+02  0.16182231048E+02  0.41081045791E+02  0.55322007096E+02  0.00000000000E+00 0. -1.
         11    1    1    2    0    0  0.29276720748E+02  0.11802672274E+01 -0.23324912061E+02  0.37450913622E+02  0.00000000000E+00 0.  1.
</event>
<event>
 7    1  0.2794945E-009  0.9468032E+02  0.7561462E-02  0.1291898E+00
         -2   -1    0    0    0  501 -0.00000000000E+00  0.00000000000E+00  0.45072630204E+02  0.45072630204E+02  0.00000000000E+00 0.  1.
          2   -1    0    0  501    0  0.00000000000E+00 -0.00000000000E+00 -0.33824515767E+03  0.33824515767E+03  0.00000000000E+00 0. -1.
         25    2    1    2    0    0  0.25503091809E+02 -0.30709501036E+02 -0.22800080943E+03  0.26310922632E+03  0.12509442324E+03 0.  0.
          5    1    3    3  502    0  0.72750245361E+02 -0.35659971711E+02 -0.11781236564E+03  0.14304355169E+03  0.41800000000E+01 0.  1.
         -5    1    3    3    0  502 -0.47247153552E+02  0.49504706741E+01 -0.11018844378E+03  0.12006567462E+03  0.41800000000E+01 0.  1.
        -11    1    1    2    0    0 -0.53548020285E+01 -0.12098758340E+02  0.19293891510E+02  0.23394617067E+02  0.00000000000E+00 0.  1.
         11    1    1    2    0    0 -0.20148289780E+02  0.42808259376E+02 -0.84465609547E+02  0.96813944492E+02  0.00000000000E+00 0. -1.
</event>
<event>
 6    1  0.2794945E-009  0.1143071E+03  0.7561462E-02  0.1252796E+00
          1   -1    0    0  501    0  0.00000000000E+00  0.00000000000E+00  0.39128535533E+03  0.39128535533E+03  0.00000000000E+00 0. -1.
         -1   -1    0    0    0  501 -0.00000000000E+00 -0.00000000000E+00 -0.43344467175E+02  0.43344467175E+02  0.00000000000E+00 0.  1.
          5    1    1    2  502    0  0.11707802513E+02  0.54399303510E+02  0.48954234024E+02  0.74231706777E+02  0.41800000000E+01 0.  1.
         -5    1    1    2    0  502 -0.53336555116E+02 -0.52477951032E+02  0.43755210776E+02  0.86779688442E+02  0.41800000000E+01 0.  1.
        -11    1    1    2    0    0  0.42517974697E+02  0.38548604927E+02  0.13286802991E+03  0.14473315614E+03  0.00000000000E+00 0.  1.
         11    1    1    2    0    0 -0.88922209424E+00 -0.40469957406E+02  0.12236341344E+03  0.12888527114E+03  0.00000000000E+00 0. -1.
</event>
<event>
 7    1  0.2794945E-009  0.1125003E+03  0.7561462E-02  0.1256009E+00
         -1   -1    0    0    0  501 -0.00000000000E+00  0.00000000000E+00  0.34139713505E+02  0.34139713505E+02  0.00000000000E+00 0.  1.
          1   -1    0    0  501    0  0.00000000000E+00 -0.00000000000E+00 -0.40343837433E+03  0.40343837433E+03  0.00000000000E+00 0. -1.
         25    2    1    2    0    0  0.40353986808E+02  0.15965559008E+01 -0.16985747156E+03  0.21477965765E+03  0.12509095672E+03 0.  0.
          5    1    3    3  502    0  0.32011425174E+02 -0.60480021670E+02 -0.93203326727E+02  0.11570175831E+03  0.41800000000E+01 0. -1.
         -5    1    3    3    0  502  0.83425616333E+01  0.62076577571E+02 -0.76654144833E+02  0.99077899340E+02  0.41800000000E+01 0. -1.
        -11    1    1    2    0    0 -0.26836111683E+02  0.40987676784E+02 -0.14077667647E+03  0.14905783836E+03  0.00000000000E+00 0. -1.
         11    1    1    2    0    0 -0.13517875124E+02 -0.42584232685E+02 -0.58664512790E+02  0.73740591821E+02  0.00000000000E+00 0.  1.
</event>
<event>
 7    1  0.2794945E-009  0.7790088E+02  0.7561462E-02  0.1335116E+00
          1   -1    0    0  501    0  0.00000000000E+00  0.00000000000E+00  0.49460705066E+03  0.49460705066E+03  0.00000000000E+00 0. -1.
         -1   -1    0    0    0  501 -0.00000000000E+00 -0.00000000000E+00 -0.28704121054E+02  0.28704121054E+02  0.00000000000E+00 0.  1.
         25    2    1    2    0    0 -0.13917257295E+02 -0.14741371313E+01  0.35785757410E+03  0.37934924702E+03  0.12509174530E+03 0.  0.
          5    1    3    3  502    0 -0.10802476608E+02  0.51013544001E+02  0.73942550046E+02  0.90576201509E+02  0.41800000000E+01 0. -1.
         -5    1    3    3    0  502 -0.31147806872E+01 -0.52487681132E+02  0.28391502405E+03  0.28877304551E+03  0.41800000000E+01 0. -1.
        -11    1    1    2    0    0 -0.13949024160E+02  0.14380073685E+02 -0.97134705868E+01  0.22264620029E+02  0.00000000000E+00 0.  1.
         11    1    1    2    0    0  0.27866281455E+02 -0.12905936554E+02  0.11775882609E+03  0.12169730467E+03  0.00000000000E+00 0. -1.
</event>
<event>
 7    1  0.2794945E-009  0.3349800E+03  0.7561462E-02  0.1068954E+00
          2   -1    0    0  501    0  0.00000000000E+00  0.00000000000E+00  0.77978642282E+03  0.77978642282E+03  0.00000000000E+00 0. -1.
         -2   -1    0    0    0  501 -0.00000000000E+00 -0.00000000000E+00 -0.16900160976E+03  0.16900160976E+03  0.00000000000E+00 0.  1.
         25    2    1    2    0    0 -0.32395414316E+03  0.46452812471E+02  0.45613501545E+03  0.57516206570E+03  0.12509236123E+03 0.  0.
          5    1    3    3  502    0 -0.21612145511E+03 -0.99484538931E+01  0.21506994961E+03  0.30509016817E+03  0.41800000000E+01 0.  1.
         -5    1    3    3    0  502 -0.10783268805E+03  0.56401266364E+02  0.24106506585E+03  0.27007189752E+03  0.41800000000E+01 0.  1.
        -11    1    1    2    0    0  0.17013575320E+03  0.32176633658E+01  0.12025080660E+03  0.20836694642E+03  0.00000000000E+00 0. -1.
         11    1    1    2    0    0  0.15381838996E+03 -0.49670475837E+02  0.34398991004E+02  0.16525902045E+03  0.00000000000E+00 0.  1.
</event>
<event>
 7    1  0.2794945E-009  0.1423226E+03  0.7561462E-02  0.1210237E+00
         -2   -1    0    0    0  501 -0.00000000000E+00  0.00000000000E+00  0.21782525432E+03  0.21782525432E+03  0.00000000000E+00 0.  1.
          2   -1    0    0  501    0  0.00000000000E+00 -0.00000000000E+00 -0.11602607707E+03  0.11602607707E+03  0.00000000000E+00 0. -1.
         25    2    1    2    0    0  0.95849517341E+02  0.21896182688E+02  0.11116935929E+03  0.19409482218E+03  0.12509037038E+03 0.  0.
          5    1    3    3  502    0  0.12126649219E+03  0.22059024635E+02  0.11429656289E+03  0.16814677929E+03  0.41800000000E+01 0.  1.
         -5    1    3    3    0  502 -0.25416974850E+02 -0.16284194689E+00 -0.31272035932E+01  0.25948042900E+02  0.41800000000E+01 0.  1.
        -11    1    1    2    0    0 -0.97295083188E+01 -0.45285861561E+02  0.12297554210E+02  0.47923923347E+02  0.00000000000E+00 0.  1.
         11    1    1    2    0    0 -0.86120009022E+02  0.23389678873E+02 -0.21667736250E+02  0.91832585861E+02  0.00000000000E+00 0. -1.
</event>
<event>
 7    1  0.2794945E-009  0.2414477E+03  0.7561462E-02  0.1118832E+00
         -1   -1    0    0    0  501 -0.00000000000E+00  0.00000000000E+00  0.26112502386E+02  0.26112502386E+02  0.00000000000E+00 0.  1.
          1   -1    0    0  501    0  0.00000000000E+00 -0.00000000000E+00 -0.22636564736E+04  0.22636564736E+04  0.00000000000E+00 0. -1.
         25    2    1    2    0    0  0.21075282043E+03 -0.53613066086E+02 -0.11564886519E+04  0.11833866009E+04  0.12508690190E+03 0.  0.
          5    1    3    3  502    0  0.11554039444E+03  0.34905674002E+02 -0.56639331311E+03  0.57912593307E+03  0.41800000000E+01 0. -1.
         -5    1    3    3    0  502  0.95212425985E+02 -0.88518740088E+02 -0.59009533882E+03  0.60426066785E+03  0.41800000000E+01 0. -1.
        -11    1    1    2    0    0 -0.15520408771E+03  0.75194671228E+02 -0.87731967773E+03  0.89410981672E+03  0.00000000000E+00 0. -1.
         11    1    1    2    0    0 -0.55548732716E+02 -0.21581605143E+02 -0.20373564160E+03  0.21227255838E+03  0.00000000000E+00 0.  1.
</event>
<event>
 7    1  0.2794945E-009  0.1005436E+03  0.7561462E-02  0.1279157E+00
         -1   -1    0    0    0  501 -0.00000000000E+00  0.00000000000E+00  0.26406680534E+02  0.26406680534E+02  0.00000000000E+00 0.  1.
          1   -1    0    0  501    0  0.00000000000E+00 -0.00000000000E+00 -0.52651054884E+03  0.52651054884E+03  0.00000000000E+00 0. -1.
         25    2    1    2    0    0  0.32050732955E+02  0.34213536678E+02 -0.31571902542E+03  0.34281487452E+03  0.12508285097E+03 0.  0.
          5    1    3    3  502    0  0.38414307664E+02 -0.36135995016E+02 -0.20254629416E+03  0.20934168923E+03  0.41800000000E+01 0.  1.
         -5    1    3    3    0  502 -0.63635747096E+01  0.70349531694E+02 -0.11317273126E+03  0.13347318530E+03  0.41800000000E+01 0.  1.
        -11    1    1    2    0    0 -0.50717493498E+02 -0.23478476771E+02 -0.17953057804E+03  0.18802853897E+03  0.00000000000E+00 0. -1.
         11    1    1    2    0    0  0.18666760543E+02 -0.10735059907E+02 -0.48542648533E+01  0.22073815883E+02  0.00000000000E+00 0.  1.
</event>
<event>
 7    1  0.2794945E-009  0.1129894E+03  0.7561462E-02  0.1255132E+00
         -1   -1    0    0    0  501 -0.00000000000E+00  0.00000000000E+00  0.54284857191E+02  0.54284857191E+02  0.00000000000E+00 0.  1.
          1   -1    0    0  501    0  0.00000000000E+00 -0.00000000000E+00 -0.42192315588E+03  0.42192315588E+03  0.00000000000E+00 0. -1.
         25    2    1    2    0    0  0.80272551421E+02  0.42290246551E+02 -0.11457444324E+03  0.19237016708E+03  0.12508729222E+03 0.  0.
          5    1    3    3  502    0  0.28518836271E+02 -0.19474790293E+02 -0.10560108828E+03  0.11118297408E+03  0.41800000000E+01 0.  1.
         -5    1    3    3    0  502  0.51753715150E+02  0.61765036843E+02 -0.89733549584E+01  0.81187193001E+02  0.41800000000E+01 0.  1.
        -11    1    1    2    0    0  0.46925988861E+00 -0.28606091179E+02 -0.14741674798E+03  0.15016732748E+03  0.00000000000E+00 0. -1.
         11    1    1    2    0    0 -0.80741811310E+02 -0.13684155371E+02 -0.10564710747E+03  0.13367051851E+03  0.00000000000E+00 0.  1.
</event>
<event>
 7    1  0.2794945E-009  0.1550744E+03  0.7561462E-02  0.1194373E+00
         -2   -1    0    0    0  501 -0.00000000000E+00  0.00000000000E+00  0.32743264696E+02  0.32743264696E+02  0.00000000000E+00 0.  1.
          2   -1    0    0  501    0  0.00000000000E+00 -0.00000000000E+00 -0.88627218073E+03  0.88627218073E+03  0.00000000000E+00 0. -1.
         25    2    1    2    0    0  0.80910679373E+02 -0.10303545231E+03 -0.42574578793E+03  0.46267628981E+03  0.12508809192E+03 0.  0.
          5    1    3    3  502    0  0.53923960164E+02 -0.34020286336E+01 -0.27265905305E+03  0.27799244394E+03  0.41800000000E+01 0. -1.
         -5    1    3    3    0  502  0.26986719209E+02 -0.99633423679E+02 -0.15308673489E+03  0.18468384587E+03  0.41800000000E+01 0. -1.
        -11    1    1    2    0    0 -0.82950023148E+02  0.44605669148E+02 -0.32180136481E+03  0.33530059716E+03  0.00000000000E+00 0. -1.
         11    1    1    2    0    0  0.20393437748E+01  0.58429783165E+02 -0.10598176329E+03  0.12103855846E+03  0.00000000000E+00 0.  1.
</event>
<event>
 7    1  0.2794945E-009  0.9497951E+02  0.7561462E-02  0.1291222E+00
         -3   -1    0    0    0  501 -0.00000000000E+00  0.00000000000E+00  0.54415739534E+02  0.54415739534E+02  0.00000000000E+00 0.  1.
          3   -1    0    0  501    0  0.00000000000E+00 -0.00000000000E+00 -0.27356879663E+03  0.27356879663E+03  0.00000000000E+00 0. -1.
         25    2    1    2    0    0 -0.40631249879E+02 -0.18272710824E+02 -0.83574088555E+02  0.15688864044E+03  0.12507848254E+03 0.  0.
          5    1    3    3  502    0 -0.91100124067E+01 -0.70583199906E+02 -0.49919421728E+02  0.87031037571E+02  0.41800000000E+01 0.  1.
         -5    1    3    3    0  502 -0.31521237473E+02  0.52310489082E+02 -0.33654666827E+02  0.69857602872E+02  0.41800000000E+01 0.  1.
        -11    1    1    2    0    0 -0.57333953999E+01  0.81992159421E+01  0.12263302111E+02  0.15826798272E+02  0.00000000000E+00 0.  1.
         11    1    1    2    0    0  0.46364645279E+02  0.10073494882E+02 -0.14784227065E+03  0.15526909745E+03  0.00000000000E+00 0. -1.
</event>
<event>
 7    1  0.2794945E-009  0.8428465E+02  0.7561462E-02  0.1317314E+00
         -1   -1    0    0    0  501 -0.00000000000E+00  0.00000000000E+00  0.20184357683E+03  0.20184357683E+03  0.00000000000E+00 0. -1.
          1   -1    0    0  501    0  0.00000000000E+00 -0.00000000000E+00 -0.82088233436E+02  0.82088233436E+02  0.00000000000E+00 0.  1.
         25    2    1    2    0    0  0.49375259174E+02  0.27450376492E+02  0.10887403240E+03  0.17519675828E+03  0.12509560261E+03 0.  0.
          5    1    3    3  502    0  0.47865559741E+02  0.44879701760E+02  0.91970972106E+00  0.65754221958E+02  0.41800000000E+01 0.  1.
         -5    1    3    3    0  502  0.15096994331E+01 -0.17429325268E+02  0.10795432268E+03  0.10944253632E+03  0.41800000000E+01 0.  1.
        -11    1    1    2    0    0  0.15356566459E+02 -0.30497814196E+01 -0.25992212429E+02  0.30343375011E+02  0.00000000000E+00 0.  1.
         11    1    1    2    0    0 -0.64731825633E+02 -0.24400595073E+02  0.36873523431E+02  0.78391676981E+02  0.00000000000E+00 0. -1.
</event>
<event>
 7    1  0.2794945E-009  0.1440856E+03  0.7561462E-02  0.1207935E+00
         -2   -1    0    0    0  501 -0.00000000000E+00  0.00000000000E+00  0.25026941365E+03  0.25026941365E+03  0.00000000000E+00 0.  1.
          2   -1    0    0  501    0  0.00000000000E+00 -0.00000000000E+00 -0.12594767418E+03  0.12594767418E+03  0.00000000000E+00 0. -1.
         25    2    1    2    0    0  0.12136445077E+03 -0.43761248461E+02  0.91831663573E+01  0.17993134810E+03  0.12508630104E+03 0.  0.
          5    1    3    3  502    0  0.36546848245E+02 -0.55197430425E+02  0.51865963747E+02  0.84202013263E+02  0.41800000000E+01 0.  1.
         -5    1    3    3    0  502  0.84817602522E+02  0.11436181965E+02 -0.42682797390E+02  0.95729334838E+02  0.41800000000E+01 0.  1.
        -11    1    1    2    0    0 -0.20316768575E+02 -0.89288800048E+01 -0.12261252078E+02  0.25354176894E+02  0.00000000000E+00 0. -1.
         11    1    1    2    0    0 -0.10104768219E+03  0.52690128465E+02  0.12739982520E+03  0.17093156284E+03  0.00000000000E+00 0.  1.
</event>
<event>
 7    1  0.2794945E-009  0.1360186E+03  0.7561462E-02  0.1218789E+00
         -2   -1    0    0    0  501 -0.00000000000E+00  0.00000000000E+00  0.37565133662E+02  0.37565133662E+02  0.00000000000E+00 0.  1.
          2   -1    0    0  501    0  0.00000000000E+00 -0.00000000000E+00 -0.54026883710E+03  0.54026883710E+03  0.00000000000E+00 0. -1.
         25    2    1    2    0    0 -0.94502478705E+02 -0.13090870420E+02 -0.26227714629E+03  0.30584095893E+03  0.12508917347E+03 0.  0.
          5    1    3    3  502    0 -0.10219971237E+02  0.42511801349E+02 -0.14256072294E+03  0.14917350030E+03  0.41800000000E+01 0.  1.
         -5    1    3    3    0  502 -0.84282507468E+02 -0.55602671769E+02 -0.11971642335E+03  0.15666745863E+03  0.41800000000E+01 0.  1.
        -11    1    1    2    0    0  0.76073148378E+02  0.46315703308E+02 -0.16291770300E+03  0.18567295503E+03  0.00000000000E+00 0.  1.
         11    1    1    2    0    0  0.18429330326E+02 -0.33224832888E+02 -0.77508854143E+02  0.86320056807E+02  0.00000000000E+00 0. -1.
</event>
<event>
 7    1  0.2794945E-009  0.8746760E+02  0.7561462E-02  0.1309103E+00
          2   -1    0    0  501    0  0.00000000000E+00  0.00000000000E+00  0.63590162925E+02  0.63590162925E+02  0.00000000000E+00 0. -1.
         -2   -1    0    0    0  501 -0.00000000000E+00 -0.00000000000E+00 -0.32039649603E+03  0.32039649603E+03  0.00000000000E+00 0.  1.
         25    2    1    2    0    0  0.53886493783E+02 -0.19487749787E+01 -0.23673329250E+03  0.27312272176E+03  0.12508324200E+03 0.  0.
          5    1    3    3  502    0  0.56596150518E+02  0.39574591033E+02 -0.60222222476E+02  0.91724920217E+02  0.41800000000E+01 0.  1.
         -5    1    3    3    0  502 -0.27096567352E+01 -0.41523366012E+02 -0.17651107002E+03  0.18139780155E+03  0.41800000000E+01 0.  1.
        -11    1    1    2    0    0 -0.40026288153E+02 -0.14360623643E+02 -0.55230038927E+02  0.69704292942E+02  0.00000000000E+00 0.  1.
         11    1    1    2    0    0 -0.13860205630E+02  0.16309398622E+02  0.35156998324E+02  0.41159644248E+02  0.00000000000E+00 0. -1.
</event>
<event>
 7    1  0.2794945E-009  0.1978120E+03  0.7561462E-02  0.1151598E+00
          3   -1    0    0  501    0  0.00000000000E+00  0.00000000000E+00  0.26977136974E+03  0.26977136974E+03  0.00000000000E+00 0. -1.
         -3   -1    0    0    0  501 -0.00000000000E+00 -0.00000000000E+00 -0.19945336725E+03  0.19945336725E+03  0.00000000000E+00 0.  1.
         25    2    1    2    0    0  0.15667405994E+03 -0.56895031646E+02 -0.84049288115E+02  0.22471696411E+03  0.12509846300E+03 0.  0.
          5    1    3    3  502    0  0.15069190188E+03 -0.89234324012E+02 -0.72840104438E+02  0.18972076082E+03  0.41800000000E+01 0. -1.
         -5    1    3    3    0  502  0.59821580578E+01  0.32339292367E+02 -0.11209183677E+02  0.34996203287E+02  0.41800000000E+01 0. -1.
        -11    1    1    2    0    0 -0.25926327102E+02  0.50047134901E+02  0.29650659533E+02  0.63687139672E+02  0.00000000000E+00 0. -1.
         11    1    1    2    0    0 -0.13074773283E+03  0.68478967452E+01  0.12471663107E+03  0.18082063322E+03  0.00000000000E+00 0.  1.
</event>
<event>
 7    1  0.2794945E-009  0.1094498E+03  0.7561462E-02  0.1261592E+00
          1   -1    0    0  501    0  0.00000000000E+00  0.00000000000E+00  0.12058739006E+03  0.12058739006E+03  0.00000000000E+00 0. -1.
         -1   -1    0    0    0  501 -0.00000000000E+00 -0.00000000000E+00 -0.11598102684E+03  0.11598102684E+03  0.00000000000E+00 0.  1.
         25    2    1    2    0    0  0.14128141228E+02  0.16942787066E+02  0.44836668750E+02  0.13470272838E+03  0.12509130969E+03 0.  0.
          5    1    3    3  502    0 -0.15548495411E+02 -0.50000460983E+02  0.27687181506E+02  0.59378903896E+02  0.41800000000E+01 0. -1.
         -5    1    3    3    0  502  0.29676636639E+02  0.66943248050E+02  0.17149487243E+02  0.75323824481E+02  0.41800000000E+01 0. -1.
        -11    1    1    2    0    0 -0.52636739627E+02 -0.59105744984E+01 -0.17364689969E+02  0.55741310598E+02  0.00000000000E+00 0. -1.
         11    1    1    2    0    0  0.38508598398E+02 -0.11032212568E+02 -0.22865615560E+02  0.46124377933E+02  0.00000000000E+00 0.  1.
</event>
<event>
 7    1  0.2794945E-009  0.1888333E+03  0.7561462E-02  0.1159518E+00
          1   -1    0    0  501    0  0.00000000000E+00  0.00000000000E+00  0.12374778217E+04  0.12374778217E+04  0.00000000000E+00 0. -1.
         -1   -1    0    0    0  501 -0.00000000000E+00 -0.00000000000E+00 -0.44628876608E+02  0.44628876608E+02  0.00000000000E+00 0.  1.
         25    2    1    2    0    0 -0.14640494816E+03  0.10936331857E+03  0.32910672277E+03  0.39669157395E+03  0.12513283175E+03 0.  0.
          5    1    3    3  502    0 -0.25851075649E+02  0.86018409355E+01  0.17294881302E+03  0.17513147663E+03  0.41800000000E+01 0.  1.
         -5    1    3    3    0  502 -0.12055387251E+03  0.10076147763E+03  0.15615790974E+03  0.22156009733E+03  0.41800000000E+01 0.  1.
        -11    1    1    2    0    0  0.37893704377E+02 -0.65939013935E+02  0.28384507655E+03  0.29385696158E+03  0.00000000000E+00 0.  1.
         11    1    1    2    0    0  0.10851124378E+03 -0.43424304630E+02  0.57989714574E+03  0.59155816273E+03  0.00000000000E+00 0. -1.
</event>
<event>
 7    1  0.2794945E-009  0.2252465E+03  0.7561462E-02  0.1130031E+00
          1   -1    0    0  501    0  0.00000000000E+00  0.00000000000E+00  0.13923811768E+04  0.13923811768E+04  0.00000000000E+00 0. -1.
         -1   -1    0    0    0  501 -0.00000000000E+00 -0.00000000000E+00 -0.39139591925E+02  0.39139591925E+02  0.00000000000E+00 0.  1.
         25    2    1    2    0    0  0.14056265480E+03  0.14762858634E+03  0.64705120668E+03  0.68983528935E+03  0.12508158510E+03 0.  0.
          5    1    3    3  502    0  0.20371268064E+02 -0.16797203765E+02  0.30783593313E+02  0.40770536348E+02  0.41800000000E+01 0. -1.
         -5    1    3    3    0  502  0.12019138673E+03  0.16442579011E+03  0.61626761337E+03  0.64906475300E+03  0.41800000000E+01 0. -1.
        -11    1    1    2    0    0 -0.11266921853E+03 -0.59101333973E+02  0.49326328813E+03  0.50940749101E+03  0.00000000000E+00 0. -1.
         11    1    1    2    0    0 -0.27893436268E+02 -0.88527252367E+02  0.21292709008E+03  0.23227798839E+03  0.00000000000E+00 0.  1.
</event>
<event>
 7    1  0.2794945E-009  0.1238443E+03  0.7561462E-02  0.1236887E+00
         -4   -1    0    0    0  501 -0.00000000000E+00  0.00000000000E+00  0.74717768553E+02  0.74717768553E+02  0.00000000000E+00 0.  1.
          4   -1    0    0  501    0  0.00000000000E+00 -0.00000000000E+00 -0.25842125287E+03  0.25842125287E+03  0.00000000000E+00 0. -1.
         25    2    1    2    0    0 -0.78682595816E+02 -0.41504721440E+02 -0.10595298980E+03  0.18651245098E+03  0.12508903045E+03 0.  0.
          5    1    3    3  502    0 -0.32887627960E+02 -0.83997467679E+02 -0.54529454879E+02  0.10548983126E+03  0.41800000000E+01 0.  1.
         -5    1    3    3    0  502 -0.45794967856E+02  0.42492746239E+02 -0.51423534918E+02  0.81022619726E+02  0.41800000000E+01 0.  1.
        -11    1    1    2    0    0  0.65621917610E+02  0.18267404990E+02 -0.93487769824E+02  0.11567150584E+03  0.00000000000E+00 0. -1.
         11    1    1    2    0    0  0.13060678205E+02  0.23237316450E+02  0.15737275299E+02  0.30955064607E+02  0.00000000000E+00 0.  1.
</event>
<event>
 7    1  0.2794945E-009  0.1239388E+03  0.7561462E-02  0.1236737E+00
          1   -1    0    0  501    0  0.00000000000E+00  0.00000000000E+00  0.19405351583E+03  0.19405351583E+03  0.00000000000E+00 0. -1.
         -1   -1    0    0    0  501 -0.00000000000E+00 -0.00000000000E+00 -0.93422080424E+02  0.93422080424E+02  0.00000000000E+00 0.  1.
         25    2    1    2    0    0 -0.77208102787E+02  0.94509375125E+01  0.32941977923E+02  0.15093693061E+03  0.12508545782E+03 0.  0.
          5    1    3    3  502    0 -0.89634520509E+02  0.51325059728E+02  0.24850442079E+02  0.10631851153E+03  0.41800000000E+01 0. -1.
         -5    1    3    3    0  502  0.12426417723E+02 -0.41874122215E+02  0.80915358442E+01  0.44618419078E+02  0.41800000000E+01 0. -1.
        -11    1    1    2    0    0  0.87427814738E+02 -0.15439204700E+02  0.79962373399E+02  0.11948210323E+03  0.00000000000E+00 0. -1.
         11    1    1    2    0    0 -0.10219711951E+02  0.59882671870E+01 -0.12272915919E+02  0.17056562415E+02  0.00000000000E+00 0.  1.
</event>
<event>
 7    1  0.2794945E-009  0.9505183E+02  0.7561462E-02  0.1291059E+00
          1   -1    0    0  501    0  0.00000000000E+00  0.00000000000E+00  0.13535414850E+03  0.13535414850E+03  0.00000000000E+00 0. -1.
         -1   -1    0    0    0  501 -0.00000000000E+00 -0.00000000000E+00 -0.15428319295E+03  0.15428319295E+03  0.00000000000E+00 0.  1.
         25    2    1    2    0    0 -0.25896948236E+02  0.18892121616E+02 -0.99814184286E+02  0.16321196344E+03  0.12509080478E+03 0.  0.
          5    1    3    3  502    0 -0.39783983892E+02  0.49387031977E+02 -0.63942807780E+01  0.63876470852E+02  0.41800000000E+01 0. -1.
         -5    1    3    3    0  502  0.13887035656E+02 -0.30494910361E+02 -0.93419903508E+02  0.99335492593E+02  0.41800000000E+01 0. -1.
        -11    1    1    2    0    0  0.22175656666E+02  0.33544455956E+02  0.54153350918E+02  0.67450542545E+02  0.00000000000E+00 0. -1.
         11    1    1    2    0    0  0.37212915699E+01 -0.52436577572E+02  0.26731788927E+02  0.58974835461E+02  0.00000000000E+00 0.  1.
</event>
<event>
 7    1  0.2794945E-009  0.1135058E+03  0.7561462E-02  0.1254212E+00
          1   -1    0    0  501    0  0.00000000000E+00  0.00000000000E+00  0.15078940096E+04  0.15078940096E+04  0.00000000000E+00 0. -1.
         -1   -1    0    0    0  501 -0.00000000000E+00 -0.00000000000E+00 -0.11715626190E+02  0.11715626190E+02  0.00000000000E+00 0.  1.
         25    2    1    2    0    0 -0.85675542529E+01  0.65223068850E+02  0.10548477095E+04  0.10642735972E+04  0.12508855988E+03 0.  0.
          5    1    3    3  502    0  0.43396250692E+02  0.16981620558E+02  0.16244364139E+03  0.16904738696E+03  0.41800000000E+01 0. -1.
         -5    1    3    3    0  502 -0.51963804945E+02  0.48241448292E+02  0.89240406809E+03  0.89522621024E+03  0.41800000000E+01 0. -1.
        -11    1    1    2    0    0  0.18844400979E+02  0.17571819700E+02  0.66148009446E+02  0.70989009358E+02  0.00000000000E+00 0.  1.
         11    1    1    2    0    0 -0.10276846727E+02 -0.82794888550E+02  0.37518266448E+03  0.38434702922E+03  0.00000000000E+00 0. -1.
</event>
<event>
 7    1  0.2794945E-009  0.9362317E+02  0.7561462E-02  0.1294307E+00
          1   -1    0    0  501    0  0.00000000000E+00  0.00000000000E+00  0.23052644875E+02  0.23052644875E+02  0.00000000000E+00 0. -1.
         -1   -1    0    0    0  501 -0.00000000000E+00 -0.00000000000E+00 -0.74835231278E+03  0.74835231278E+03  0.00000000000E+00 0.  1.
         25    2    1    2    0    0 -0.38571509587E+02  0.34544340945E+02 -0.55855927991E+03  0.57473276993E+03  0.12509282477E+03 0.  0.
          5    1    3    3  502    0 -0.49188550898E+02 -0.44288781373E+01 -0.77703388130E+02  0.92165163852E+02  0.41800000000E+01 0.  1.
         -5    1    3    3    0  502  0.10617041311E+02  0.38973219082E+02 -0.48085589178E+03  0.48256760608E+03  0.41800000000E+01 0.  1.
        -11    1    1    2    0    0  0.16686265206E+02 -0.60710003370E+02 -0.70279998598E+02  0.94357904590E+02  0.00000000000E+00 0.  1.
         11    1    1    2    0    0  0.21885244381E+02  0.26165662425E+02 -0.96460389393E+02  0.10231428314E+03  0.00000000000E+00 0. -1.
</event>
<event>
 7    1  0.2794945E-009  0.1436520E+03  0.7561462E-02  0.1208498E+00
         -2   -1    0    0    0  501 -0.00000000000E+00  0.00000000000E+00  0.50596127579E+02  0.50596127579E+02  0.00000000000E+00 0.  1.
          2   -1    0    0  501    0  0.00000000000E+00 -0.00000000000E+00 -0.45879912871E+03  0.45879912871E+03  0.00000000000E+00 0. -1.
         25    2    1    2    0    0 -0.25143645844E+02 -0.10012619199E+03 -0.17168827789E+03  0.23617651611E+03  0.12508007335E+03 0.  0.
          5    1    3    3  502    0  0.29200213328E+01  0.27813126266E+02 -0.15335613869E+02  0.32167529747E+02  0.41800000000E+01 0. -1.
         -5    1    3    3    0  502 -0.28063667177E+02 -0.12793931826E+03 -0.15635266402E+03  0.20400898636E+03  0.41800000000E+01 0. -1.
        -11    1    1    2    0    0  0.36466109919E+02  0.10931756251E+02 -0.12093884804E+03  0.12678913767E+03  0.00000000000E+00 0. -1.
         11    1    1    2    0    0 -0.11322464075E+02  0.89194435740E+02 -0.11557587520E+03  0.14642960250E+03  0.00000000000E+00 0.  1.
</event>
<event>
 7    1  0.2794945E-009  0.1490751E+03  0.7561462E-02  0.1201614E+00
          4   -1    0    0  501    0  0.00000000000E+00  0.00000000000E+00  0.23080556588E+03  0.23080556588E+03  0.00000000000E+00 0.  1.
         -4   -1    0    0    0  501 -0.00000000000E+00 -0.00000000000E+00 -0.11671926318E+03  0.11671926318E+03  0.00000000000E+00 0. -1.
         25    2    1    2    0    0  0.12006688946E+02  0.10630882034E+03  0.12487032829E+03  0.20659951651E+03  0.12508011622E+03 0.  0.
          5    1    3    3  502    0  0.58922543644E+02  0.92046558867E+02  0.58678571975E+02  0.12411721217E+03  0.41800000000E+01 0.  1.
         -5    1    3    3    0  502 -0.46915854697E+02  0.14262261471E+02  0.66191756316E+02  0.82482304335E+02  0.41800000000E+01 0.  1.
        -11    1    1    2    0    0  0.39155872255E+02 -0.49498881775E+02 -0.13009728988E+02  0.64440473907E+02  0.00000000000E+00 0. -1.
         11    1    1    2    0    0 -0.51162561201E+02 -0.56809938563E+02  0.22257033978E+01  0.76484838654E+02  0.00000000000E+00 0.  1.
</event>
<event>
 7    1  0.2794945E-009  0.1529371E+03  0.7561462E-02  0.1196910E+00
          1   -1    0    0  501    0  0.00000000000E+00  0.00000000000E+00  0.62888441532E+03  0.62888441532E+03  0.00000000000E+00 0. -1.
         -1   -1    0    0    0  501 -0.00000000000E+00 -0.00000000000E+00 -0.63481084460E+02  0.63481084460E+02  0.00000000000E+00 0.  1.
         25    2    1    2    0    0 -0.15193455655E+03  0.12014554388E+02  0.41497953644E+03  0.45943961537E+03  0.12509310740E+03 0.  0.
          5    1    3    3  502    0 -0.81165073712E+02  0.69513019115E+01  0.70836670146E+02  0.10803423544E+03  0.41800000000E+01 0. -1.
         -5    1    3    3    0  502 -0.70769482833E+02  0.50632524767E+01  0.34414286629E+03  0.35140537993E+03  0.41800000000E+01 0. -1.
        -11    1    1    2    0    0  0.10629713093E+03 -0.10815917595E+01  0.15256642361E+03  0.18594828179E+03  0.00000000000E+00 0. -1.
         11    1    1    2    0    0  0.45637425615E+02 -0.10932962629E+02 -0.21426291905E+01  0.46977602625E+02  0.00000000000E+00 0.  1.
</event>
<event>
 7    1  0.2794945E-009  0.2688519E+03  0.7561462E-02  0.1101938E+00
         -3   -1    0    0    0  501 -0.00000000000E+00  0.00000000000E+00  0.11921089854E+04  0.11921089854E+04  0.00000000000E+00 0.  1.
          3   -1    0    0  501    0  0.00000000000E+00 -0.00000000000E+00 -0.63698747563E+02  0.63698747563E+02  0.00000000000E+00 0. -1.
         25    2    1    2    0    0 -0.17915617496E+03  0.17141631006E+03  0.47396512515E+03  0.54933712680E+03  0.12509137712E+03 0.  0.
          5    1    3    3  502    0 -0.50800964221E+01 -0.15269106134E+02  0.66160631614E+02  0.68217699736E+02  0.41800000000E+01 0.  1.
         -5    1    3    3    0  502 -0.17407607854E+03  0.18668541620E+03  0.40780449354E+03  0.48111942706E+03  0.41800000000E+01 0.  1.
        -11    1    1    2    0    0  0.19096891853E+03 -0.16483139505E+03  0.62784813463E+03  0.67663268972E+03  0.00000000000E+00 0.  1.
         11    1    1    2    0    0 -0.11812743564E+02 -0.65849150179E+01  0.26596978015E+02  0.29837916413E+02  0.00000000000E+00 0. -1.
</event>
<event>
 7    1  0.2794945E-009  0.1168568E+03  0.7561462E-02  0.1248374E+00
          2   -1    0    0  501    0  0.00000000000E+00  0.00000000000E+00  0.12469343268E+04  0.12469343268E+04  0.00000000000E+00 0. -1.
         -2   -1    0    0    0  501 -0.00000000000E+00 -0.00000000000E+00 -0.12292198802E+02  0.12292198802E+02  0.00000000000E+00 0.  1.
         25    2    1    2    0    0 -0.12426223747E+02  0.54275027425E+02  0.79852572697E+03  0.81017970343E+03  0.12509046956E+03 0.  0.
          5    1    3    3  502    0  0.38583247495E+02 -0.20469262699E+02  0.33733532085E+03  0.34017679050E+03  0.41800000000E+01 0.  1.
         -5    1    3    3    0  502 -0.51009471242E+02  0.74744290124E+02  0.46119040612E+03  0.47000291293E+03  0.41800000000E+01 0.  1.
        -11    1    1    2    0    0  0.92645882411E+01 -0.76369801359E+02  0.39339405861E+03  0.40084543718E+03  0.00000000000E+00 0. -1.
         11    1    1    2    0    0  0.31616355058E+01  0.22094773934E+02  0.42722342436E+02  0.48201385016E+02  0.00000000000E+00 0.  1.
</event>
<event>
 7    1  0.2794945E-009  0.9129346E+02  0.7561462E-02  0.1299749E+00
          2   -1    0    0  501    0  0.00000000000E+00  0.00000000000E+00  0.11788576937E+04  0.11788576937E+04  0.00000000000E+00 0. -1.
         -2   -1    0    0    0  501 -0.00000000000E+00 -0.00000000000E+00 -0.11667486628E+02  0.11667486628E+02  0.00000000000E+00 0.  1.
         25    2    1    2    0    0  0.19479258585E+02  0.24575300170E+02  0.85786225690E+03  0.86750117297E+03  0.12508895392E+03 0.  0.
          5    1    3    3  502    0  0.60933470646E+01  0.57933808159E+02  0.19271466601E+03  0.20136998262E+03  0.41800000000E+01 0. -1.
         -5    1    3    3    0  502  0.13385911520E+02 -0.33358507989E+02  0.66514759090E+03  0.66613119035E+03  0.41800000000E+01 0. -1.
        -11    1    1    2    0    0  0.31264175532E+02 -0.19852636266E+02  0.80809137248E+02  0.88891464726E+02  0.00000000000E+00 0.  1.
         11    1    1    2    0    0 -0.50743434117E+02 -0.47226639037E+01  0.22851881291E+03  0.23413254262E+03  0.00000000000E+00 0. -1.
</event>
<event>
 7    1  0.2794945E-009  0.9274238E+02  0.7561462E-02  0.1296343E+00
          1   -1    0    0  501    0  0.00000000000E+00  0.00000000000E+00  0.94428328638E+03  0.94428328638E+03  0.00000000000E+00 0. -1.
         -1   -1    0    0    0  501 -0.00000000000E+00 -0.00000000000E+00 -0.15267924452E+02  0.15267924452E+02  0.00000000000E+00 0.  1.
         25    2    1    2    0    0  0.12331862377E+02 -0.45977451197E+02  0.62340448446E+03  0.63761083608E+03  0.12509366970E+03 0.  0.
          5    1    3    3  502    0 -0.16966720456E+02  0.23364229030E+02  0.41436718710E+03  0.41539306078E+03  0.41800000000E+01 0.  1.
         -5    1    3    3    0  502  0.29298582833E+02 -0.69341680227E+02  0.20903729736E+03  0.22221777531E+03  0.41800000000E+01 0.  1.
        -11    1    1    2    0    0  0.60322848488E+01 -0.15564288145E+02  0.10054242709E+02  0.19486490767E+02  0.00000000000E+00 0.  1.
         11    1    1    2    0    0 -0.18364147225E+02  0.61541739342E+02  0.29555663476E+03  0.30245388398E+03  0.00000000000E+00 0. -1.
</event>
<event>
 7    1  0.2794945E-009  0.1030516E+03  0.7561462E-02  0.1274007E+00
         -2   -1    0    0    0  501 -0.00000000000E+00  0.00000000000E+00  0.83089270960E+01  0.83089270960E+01  0.00000000000E+00 0.  1.
          2   -1    0    0  501    0  0.00000000000E+00 -0.00000000000E+00 -0.20132627628E+04  0.20132627628E+04  0.00000000000E+00 0. -1.
         25    2    1    2    0    0 -0.60405557569E+02  0.12158089371E+02 -0.14070374358E+04  0.14139302412E+04  0.12509088975E+03 0.  0.
          5    1    3    3  502    0 -0.24764245867E+02  0.43791666016E+02 -0.21169443842E+03  0.21763038745E+03  0.41800000000E+01 0. -1.
         -5    1    3    3    0  502 -0.35641311702E+02 -0.31633576644E+02 -0.11953429974E+04  0.11962998538E+04  0.41800000000E+01 0. -1.
        -11    1    1    2    0    0 -0.20263097568E+02  0.12031450092E+02 -0.10823150338E+03  0.11076735638E+03  0.00000000000E+00 0.  1.
         11    1    1    2    0    0  0.80668655137E+02 -0.24189539464E+02 -0.48968489645E+03  0.49687409225E+03  0.00000000000E+00 0. -1.
</event>
<event>
 7    1  0.2794945E-009  0.8856828E+02  0.7561462E-02  0.1306356E+00
          1   -1    0    0  501    0  0.00000000000E+00  0.00000000000E+00  0.37412888571E+03  0.37412888571E+03  0.00000000000E+00 0. -1.
         -1   -1    0    0    0  501 -0.00000000000E+00 -0.00000000000E+00 -0.37212024441E+02  0.37212024441E+02  0.00000000000E+00 0.  1.
         25    2    1    2    0    0  0.15803752257E+01 -0.47543924045E+02  0.20453491107E+03  0.24442719472E+03  0.12508877397E+03 0.  0.
          5    1    3    3  502    0  0.37167123162E+02 -0.26679595413E+02  0.19699831852E+03  0.20228446741E+03  0.41800000000E+01 0. -1.
         -5    1    3    3    0  502 -0.35586747936E+02 -0.20864328632E+02  0.75365925465E+01  0.42142727310E+02  0.41800000000E+01 0. -1.
        -11    1    1    2    0    0  0.27782632742E+02  0.53023562093E+02  0.45943427974E+02  0.75459733588E+02  0.00000000000E+00 0.  1.
         11    1    1    2    0    0 -0.29363007968E+02 -0.54796380478E+01  0.86438522221E+02  0.91453981837E+02  0.00000000000E+00 0. -1.
</event>
<event>
 7    1  0.2794945E-009  0.3046606E+03  0.7561462E-02  0.1082934E+00
          1   -1    0    0  501    0  0.00000000000E+00  0.00000000000E+00  0.71691780579E+03  0.71691780579E+03  0.00000000000E+00 0.  1.
         -1   -1    0    0    0  501 -0.00000000000E+00 -0.00000000000E+00 -0.17950700692E+03  0.17950700692E+03  0.00000000000E+00 0. -1.
         25    2    1    2    0    0  0.18467472649E+03 -0.23282758585E+03  0.48342602409E+03  0.58108662898E+03  0.12509000872E+03 0.  0.
          5    1    3    3  502    0  0.73476768179E+02 -0.59531606651E+02  0.65313653601E+02  0.11500518858E+03  0.41800000000E+01 0. -1.
         -5    1    3    3    0  502  0.11119795831E+03 -0.17329597920E+03  0.41811237049E+03  0.46608144041E+03  0.41800000000E+01 0. -1.
        -11    1    1    2    0    0 -0.23769608691E+02  0.91565102781E+02  0.33025674064E+02  0.10019908928E+03  0.00000000000E+00 0.  1.
         11    1    1    2    0    0 -0.16090511779E+03  0.14126248307E+03  0.20959100726E+02  0.21513909445E+03  0.00000000000E+00 0. -1.
</event>
<event>
 7    1  0.2794945E-009  0.1419824E+03  0.7561462E-02  0.1210686E+00
         -3   -1    0    0    0  501 -0.00000000000E+00  0.00000000000E+00  0.30422061313E+03  0.30422061313E+03  0.00000000000E+00 0.  1.
          3   -1    0    0  501    0  0.00000000000E+00 -0.00000000000E+00 -0.97258969193E+02  0.97258969193E+02  0.00000000000E+00 0. -1.
         25    2    1    2    0    0  0.11378400488E+03 -0.35369859874E+02  0.18426565504E+03  0.25258418039E+03  0.12508840795E+03 0.  0.
          5    1    3    3  502    0  0.63538003490E+02 -0.70455370574E+02  0.16095822545E+03  0.18688515155E+03  0.41800000000E+01 0. -1.
         -5    1    3    3    0  502  0.50246001387E+02  0.35085510700E+02  0.23307429588E+02  0.65699028840E+02  0.41800000000E+01 0. -1.
        -11    1    1    2    0    0 -0.40427092246E+02  0.36119742724E+02 -0.26723907371E+02  0.60441317218E+02  0.00000000000E+00 0. -1.
         11    1    1    2    0    0 -0.73356912632E+02 -0.74988284996E+00  0.49419896272E+02  0.88454084714E+02  0.00000000000E+00 0.  1.
</event>
<event>
 7    1  0.2794945E-009  0.1197782E+03  0.7561462E-02  0.1243463E+00
         -1   -1    0    0    0  501 -0.00000000000E+00  0.00000000000E+00  0.10869038405E+04  0.10869038405E+04  0.00000000000E+00 0.  1.
          1   -1    0    0  501    0  0.00000000000E+00 -0.00000000000E+00 -0.14804324279E+02  0.14804324279E+02  0.00000000000E+00 0. -1.
         25    2    1    2    0    0  0.55656053065E+02  0.29968354955E+02  0.68083912298E+03  0.69511523869E+03  0.12509030794E+03 0.  0.
          5    1    3    3  502    0  0.82304056978E+02  0.50283333154E+02  0.59659415588E+03  0.60435455704E+03  0.41800000000E+01 0.  1.
         -5    1    3    3    0  502 -0.26648003913E+02 -0.20314978199E+02  0.84244967104E+02  0.90760681654E+02  0.41800000000E+01 0.  1.
        -11    1    1    2    0    0 -0.54765816646E+02 -0.58828687488E+02  0.25753598403E+03  0.26978675323E+03  0.00000000000E+00 0. -1.
         11    1    1    2    0    0 -0.89023641878E+00  0.28860332533E+02  0.13372440922E+03  0.13680617287E+03  0.00000000000E+00 0.  1.
</event>
<event>
 7    1  0.2794945E-009  0.1521692E+03  0.7561462E-02  0.1197833E+00
         -1   -1    0    0    0  501 -0.00000000000E+00  0.00000000000E+00  0.47444287508E+02  0.47444287508E+02  0.00000000000E+00 0.  1.
          1   -1    0    0  501    0  0.00000000000E+00 -0.00000000000E+00 -0.51514897861E+03  0.51514897861E+03  0.00000000000E+00 0. -1.
         25    2    1    2    0    0  0.10459231405E+03 -0.37601541892E+02 -0.22981493931E+03  0.28428400537E+03  0.12509620805E+03 0.  0.
          5    1    3    3  502    0  0.18156043016E+02  0.39869798402E+02 -0.10466932545E+03  0.11354462917E+03  0.41800000000E+01 0.  1.
         -5    1    3    3    0  502  0.86436271035E+02 -0.77471340293E+02 -0.12514561386E+03  0.17073937620E+03  0.41800000000E+01 0.  1.
        -11    1    1    2    0    0 -0.26441027909E+02  0.57715093387E+02 -0.11314347226E+03  0.12973667669E+03  0.00000000000E+00 0.  1.
         11    1    1    2    0    0 -0.78151286142E+02 -0.20113551495E+02 -0.12474627954E+03  0.14857258407E+03  0.00000000000E+00 0. -1.
</event>
<event>
 7    1  0.2794945E-009  0.1147623E+03  0.7561462E-02  0.1251997E+00
         -1   -1    0    0    0  501 -0.00000000000E+00  0.00000000000E+00  0.44761744904E+02  0.44761744904E+02  0.00000000000E+00 0.  1.
          1   -1    0    0  501    0  0.00000000000E+00 -0.00000000000E+00 -0.35102315191E+03  0.35102315191E+03  0.00000000000E+00 0. -1.
         25    2    1    2    0    0  0.50307753029E+02 -0.58365709768E+02 -0.12513238181E+03  0.19298546052E+03  0.12509136221E+03 0.  0.
          5    1    3    3  502    0  0.19750080081E+02  0.38131096028E+02 -0.54388017263E+02  0.69423158739E+02  0.41800000000E+01 0. -1.
         -5    1    3    3    0  502  0.30557672948E+02 -0.96496805795E+02 -0.70744364550E+02  0.12356230178E+03  0.41800000000E+01 0. -1.
        -11    1    1    2    0    0 -0.18305273044E+02  0.48098724385E+02 -0.71232667638E+02  0.87878684830E+02  0.00000000000E+00 0.  1.
         11    1    1    2    0    0 -0.32002479985E+02  0.10266985382E+02 -0.10989635755E+03  0.11492075146E+03  0.00000000000E+00 0. -1.
</event>
<event>
 7    1  0.2794945E-009  0.1124168E+03  0.7561462E-02  0.1256159E+00
          1   -1    0    0  501    0  0.00000000000E+00  0.00000000000E+00  0.48419411450E+03  0.48419411450E+03  0.00000000000E+00 0. -1.
         -1   -1    0    0    0  501 -0.00000000000E+00 -0.00000000000E+00 -0.29512236019E+02  0.29512236019E+02  0.00000000000E+00 0.  1.
         25    2    1    2    0    0 -0.41089958381E+02  0.25929232012E+02  0.30455669121E+03  0.33280993772E+03  0.12508783607E+03 0.  0.
          5    1    3    3  502    0 -0.85697474159E+02  0.12959806381E+02  0.18048232699E+03  0.20025822433E+03  0.41800000000E+01 0.  1.
         -5    1    3    3    0  502  0.44607515777E+02  0.12969425630E+02  0.12407436422E+03  0.13255171338E+03  0.41800000000E+01 0.  1.
        -11    1    1    2    0    0 -0.20532818991E+02  0.68177266119E+01  0.89451771685E+01  0.23411412739E+02  0.00000000000E+00 0.  1.
         11    1    1    2    0    0  0.61622777373E+02 -0.32746958624E+02  0.14118001011E+03  0.15748500006E+03  0.00000000000E+00 0. -1.
</event>
<event>
 7    1  0.2794945E-009  0.1682050E+03  0.7561462E-02  0.1179733E+00
          1   -1    0    0  501    0  0.00000000000E+00  0.00000000000E+00  0.32035981846E+03  0.32035981846E+03  0.00000000000E+00 0. -1.
         -1   -1    0    0    0  501 -0.00000000000E+00 -0.00000000000E+00 -0.11322391522E+03  0.11322391522E+03  0.00000000000E+00 0.  1.
         25    2    1    2    0    0 -0.22112491074E+01  0.86467348514E+02  0.17194734235E+03  0.22955586393E+03  0.12509402120E+03 0.  0.
          5    1    3    3  502    0 -0.50379798178E+02  0.69196352652E+02  0.54978938332E+02  0.10181559480E+03  0.41800000000E+01 0. -1.
         -5    1    3    3    0  502  0.48168549071E+02  0.17270995862E+02  0.11696840402E+03  0.12774026912E+03  0.41800000000E+01 0. -1.
        -11    1    1    2    0    0  0.56931647669E+02  0.34524674909E+02  0.23965086350E+02  0.70763627999E+02  0.00000000000E+00 0. -1.
         11    1    1    2    0    0 -0.54720398561E+02 -0.12099202342E+03  0.11223474536E+02  0.13326424176E+03  0.00000000000E+00 0.  1.
</event>
<event>
 7    1  0.2794945E-009  0.1726392E+03  0.7561462E-02  0.1175123E+00
          1   -1    0    0  501    0  0.00000000000E+00  0.00000000000E+00  0.45447481694E+02  0.45447481694E+02  0.00000000000E+00 0. -1.
         -1   -1    0    0    0  501 -0.00000000000E+00 -0.00000000000E+00 -0.79611544093E+03  0.79611544093E+03  0.00000000000E+00 0.  1.
         25    2    1    2    0    0  0.70800171503E+02 -0.13828110799E+03 -0.36512461179E+03  0.41605011220E+03  0.12508950642E+03 0.  0.
          5    1    3    3  502    0  0.10008127738E+03 -0.10731731587E+03 -0.21800056224E+03  0.26282120521E+03  0.41800000000E+01 0.  1.
         -5    1    3    3    0  502 -0.29281105877E+02 -0.30963792116E+02 -0.14712404954E+03  0.15322890699E+03  0.41800000000E+01 0.  1.
        -11    1    1    2    0    0 -0.21514498293E+02  0.32769934151E+02 -0.21785197379E+03  0.22135090853E+03  0.00000000000E+00 0.  1.
         11    1    1    2    0    0 -0.49285673210E+02  0.10551117384E+03 -0.16769137366E+03  0.20416190190E+03  0.00000000000E+00 0. -1.
</event>
<event>
 7    1  0.2794945E-009  0.1488480E+03  0.7561462E-02  0.1201896E+00
         -1   -1    0    0    0  501 -0.00000000000E+00  0.00000000000E+00  0.20688523086E+02  0.20688523086E+02  0.00000000000E+00 0.  1.
          1   -1    0    0  501    0  0.00000000000E+00 -0.00000000000E+00 -0.17931766222E+04  0.17931766222E+04  0.00000000000E+00 0. -1.
         25    2    1    2    0    0  0.72717795711E+02 -0.10686607800E+03 -0.13596053308E+04  0.13714525501E+04  0.12508878929E+03 0.  0.
          5    1    3    3  502    0  0.77524661382E+02 -0.21390535669E+02 -0.92346693265E+03  0.92697156172E+03  0.41800000000E+01 0.  1.
         -5    1    3    3    0  502 -0.48068656708E+01 -0.85475542332E+02 -0.43613839815E+03  0.44448098839E+03  0.41800000000E+01 0.  1.
        -11    1    1    2    0    0 -0.14286690913E+02  0.40934008754E+02 -0.39081356750E+02  0.58369984199E+02  0.00000000000E+00 0.  1.
         11    1    1    2    0    0 -0.58431104798E+02  0.65932069247E+02 -0.37380141154E+03  0.38404261096E+03  0.00000000000E+00 0. -1.
</event>
<event>
 7    1  0.2794945E-009  0.1078675E+03  0.7561462E-02  0.1264571E+00
          2   -1    0    0  501    0  0.00000000000E+00  0.00000000000E+00  0.32982308565E+02  0.32982308565E+02  0.00000000000E+00 0. -1.
         -2   -1    0    0    0  501 -0.00000000000E+00 -0.00000000000E+00 -0.40819248399E+03  0.40819248399E+03  0.00000000000E+00 0.  1.
         25    2    1    2    0    0 -0.35910816746E+02  0.18134121968E+02 -0.24978632808E+03  0.28223624565E+03  0.12508259482E+03 0.  0.
          5    1    3    3  502    0  0.37451548539E+02  0.24660032234E+02 -0.15900833441E+03  0.16526299795E+03  0.41800000000E+01 0.  1.
         -5    1    3    3    0  502 -0.73362365285E+02 -0.65259102661E+01 -0.90777993670E+02  0.11697324771E+03  0.41800000000E+01 0.  1.
        -11    1    1    2    0    0  0.59734523164E+01 -0.51647077821E+02 -0.57772434237E+02  0.77722306564E+02  0.00000000000E+00 0.  1.
         11    1    1    2    0    0  0.29937364430E+02  0.33512955853E+02 -0.67651413112E+02  0.81216240340E+02  0.00000000000E+00 0. -1.
</event>
<event>
 7    1  0.2794945E-009  0.7619804E+02  0.7561462E-02  0.1340201E+00
         -2   -1    0    0    0  501 -0.00000000000E+00  0.00000000000E+00  0.30853094551E+02  0.30853094551E+02  0.00000000000E+00 0.  1.
          2   -1    0    0  501    0  0.00000000000E+00 -0.00000000000E+00 -0.95642471644E+03  0.95642471644E+03  0.00000000000E+00 0. -1.
         25    2    1    2    0    0  0.35531264607E+01  0.57544606562E+02 -0.83384045940E+03  0.84514103201E+03  0.12509774500E+03 0.  0.
          5    1    3    3  502    0 -0.21084136893E+02  0.46360956675E+02 -0.11574348696E+03  0.12652235496E+03  0.41800000000E+01 0.  1.
         -5    1    3    3    0  502  0.24637263354E+02  0.11183649887E+02 -0.71809697245E+03  0.71861867705E+03  0.41800000000E+01 0.  1.
        -11    1    1    2    0    0 -0.16877350085E+02 -0.58179057075E+02 -0.10632137706E+03  0.12236781786E+03  0.00000000000E+00 0. -1.
         11    1    1    2    0    0  0.13324223624E+02  0.63445051308E+00  0.14590214569E+02  0.19768961122E+02  0.00000000000E+00 0.  1.
</event>
<event>
 7    1  0.2794945E-009  0.8311032E+02  0.7561462E-02  0.1320450E+00
         -2   -1    0    0    0  501 -0.00000000000E+00  0.00000000000E+00  0.40365608509E+03  0.40365608509E+03  0.00000000000E+00 0.  1.
          2   -1    0    0  501    0  0.00000000000E+00 -0.00000000000E+00 -0.33762096348E+02  0.33762096348E+02  0.00000000000E+00 0. -1.
         25    2    1    2    0    0  0.32149875948E+02 -0.28987674353E+02  0.21948191298E+03  0.25630963602E+03  0.12509364333E+03 0.  0.
          5    1    3    3  502    0  0.60569226931E+02 -0.46121393191E+02  0.20702423296E+03  0.22061804004E+03  0.41800000000E+01 0. -1.
         -5    1    3    3    0  502 -0.28419350984E+02  0.17133718838E+02  0.12457680020E+02  0.35691595972E+02  0.41800000000E+01 0. -1.
        -11    1    1    2    0    0 -0.24224741031E+02  0.37661423668E+02  0.15987165821E+03  0.16602460062E+03  0.00000000000E+00 0.  1.
         11    1    1    2    0    0 -0.79251349166E+01 -0.86737493155E+01 -0.94595824512E+01  0.15083944802E+02  0.00000000000E+00 0. -1.
</event>
<event>
 7    1  0.2794945E-009  0.1527619E+03  0.7561462E-02  0.1197120E+00
         -2   -1    0    0    0  501 -0.00000000000E+00  0.00000000000E+00  0.56781054953E+02  0.56781054953E+02  0.00000000000E+00 0.  1.
          2   -1    0    0  501    0  0.00000000000E+00 -0.00000000000E+00 -0.51051053549E+03  0.51051053549E+03  0.00000000000E+00 0. -1.
         25    2    1    2    0    0 -0.11542256947E+02 -0.12584375794E+03 -0.29393794253E+03  0.34354221789E+03  0.12510741908E+03 0.  0.
          5    1    3    3  502    0 -0.47223574034E+02 -0.21204805158E+02 -0.16832531537E+03  0.17615502803E+03  0.41800000000E+01 0. -1.
         -5    1    3    3    0  502  0.35681317087E+02 -0.10463895278E+03 -0.12561262716E+03  0.16738718986E+03  0.41800000000E+01 0. -1.
        -11    1    1    2    0    0  0.29440310058E+02  0.19958522618E+02 -0.87073170041E+02  0.94057489986E+02  0.00000000000E+00 0. -1.
         11    1    1    2    0    0 -0.17898053112E+02  0.10588523532E+03 -0.72718367970E+02  0.12969188257E+03  0.00000000000E+00 0.  1.
</event>
<event>
 7    1  0.2794945E-009  0.9764473E+02  0.7561462E-02  0.1285328E+00
          2   -1    0    0  501    0  0.00000000000E+00  0.00000000000E+00  0.27131830827E+03  0.27131830827E+03  0.00000000000E+00 0. -1.
         -2   -1    0    0    0  501 -0.00000000000E+00 -0.00000000000E+00 -0.72413565646E+02  0.72413565646E+02  0.00000000000E+00 0.  1.
         25    2    1    2    0    0  0.13351076551E+01 -0.75800319907E+02  0.53452784572E+02  0.15572638391E+03  0.12508411353E+03 0.  0.
          5    1    3    3  502    0  0.18408194604E+01 -0.58410549058E+02  0.94364395003E+02  0.11107336450E+03  0.41800000000E+01 0. -1.
         -5    1    3    3    0  502 -0.50571180528E+00 -0.17389770849E+02 -0.40911610431E+02  0.44653019412E+02  0.41800000000E+01 0. -1.
        -11    1    1    2    0    0  0.35226279481E+02  0.64552044722E+00  0.37068979311E+02  0.51141144784E+02  0.00000000000E+00 0.  1.
         11    1    1    2    0    0 -0.36561387136E+02  0.75154799459E+02  0.10838297874E+03  0.13686434522E+03  0.00000000000E+00 0. -1.
</event>
<event>
 7    1  0.2794945E-009  0.1546410E+03  0.7561462E-02  0.1194883E+00
         -1   -1    0    0    0  501 -0.00000000000E+00  0.00000000000E+00  0.26959088815E+03  0.26959088815E+03  0.00000000000E+00 0.  1.
          1   -1    0    0  501    0  0.00000000000E+00 -0.00000000000E+00 -0.11947420577E+03  0.11947420577E+03  0.00000000000E+00 0. -1.
         25    2    1    2    0    0  0.11090852799E+03 -0.88363064301E+02  0.74854707887E+02  0.20337061539E+03  0.12509055599E+03 0.  0.
          5    1    3    3  502    0  0.96225499928E+02 -0.48898185703E+02  0.10560413428E+03  0.15106318208E+03  0.41800000000E+01 0.  1.
         -5    1    3    3    0  502  0.14683028060E+02 -0.39464878598E+02 -0.30749426397E+02  0.52307433311E+02  0.41800000000E+01 0.  1.
        -11    1    1    2    0    0 -0.10562542475E+03  0.44247867062E+02  0.81871945313E+02  0.14077506712E+03  0.00000000000E+00 0.  1.
         11    1    1    2    0    0 -0.52831032389E+01  0.44115197239E+02 -0.66099708157E+01  0.44919411410E+02  0.00000000000E+00 0. -1.
</event>
<event>
 7    1  0.2794945E-009  0.1005080E+03  0.7561462E-02  0.1279231E+00
          1   -1    0    0  501    0  0.00000000000E+00  0.00000000000E+00  0.15875156396E+03  0.15875156396E+03  0.00000000000E+00 0. -1.
         -1   -1    0    0    0  501 -0.00000000000E+00 -0.00000000000E+00 -0.10737879902E+03  0.10737879902E+03  0.00000000000E+00 0.  1.
         25    2    1    2    0    0  0.16914497855E+02  0.15196251339E+02  0.99371324468E+02  0.16136526995E+03  0.12508822458E+03 0.  0.
          5    1    3    3  502    0 -0.46282055112E+02  0.35284112361E+02  0.31182492846E+02  0.66157520136E+02  0.41800000000E+01 0. -1.
         -5    1    3    3    0  502  0.63196552967E+02 -0.20087861022E+02  0.68188831622E+02  0.95207749818E+02  0.41800000000E+01 0. -1.
        -11    1    1    2    0    0  0.41882178226E+01 -0.41944946945E+02  0.42736083615E+01  0.42369605512E+02  0.00000000000E+00 0. -1.
         11    1    1    2    0    0 -0.21102715678E+02  0.26748695606E+02 -0.52272167891E+02  0.62395487510E+02  0.00000000000E+00 0.  1.
</event>
<event>
 7    1  0.2794945E-009  0.1622059E+03  0.7561462E-02  0.1186229E+00
          1   -1    0    0  501    0  0.00000000000E+00  0.00000000000E+00  0.51813620529E+03  0.51813620529E+03  0.00000000000E+00 0. -1.
         -1   -1    0    0    0  501 -0.00000000000E+00 -0.00000000000E+00 -0.53652898342E+02  0.53652898342E+02  0.00000000000E+00 0.  1.
         25    2    1    2    0    0 -0.11811904801E+03  0.42714617115E+02  0.23251930017E+03  0.29238102365E+03  0.12507913504E+03 0.  0.
          5    1    3    3  502    0 -0.28260905182E+02 -0.38825376288E+02  0.31634182955E+02  0.57656591443E+02  0.41800000000E+01 0. -1.
         -5    1    3    3    0  502 -0.89858142825E+02  0.81539993403E+02  0.20088511721E+03  0.23472443220E+03  0.41800000000E+01 0. -1.
        -11    1    1    2    0    0 -0.11340161576E+02  0.99009285179E+01  0.33013440624E+02  0.36283810603E+02  0.00000000000E+00 0.  1.
         11    1    1    2    0    0  0.12945920958E+03 -0.52615545633E+02  0.19895056616E+03  0.24312426938E+03  0.00000000000E+00 0. -1.
</event>
<event>
 7    1  0.2794945E-009  0.9306181E+02  0.7561462E-02  0.1295602E+00
          3   -1    0    0  501    0  0.00000000000E+00  0.00000000000E+00  0.48256942604E+03  0.48256942604E+03  0.00000000000E+00 0. -1.
         -3   -1    0    0    0  501 -0.00000000000E+00 -0.00000000000E+00 -0.26958324927E+02  0.26958324927E+02  0.00000000000E+00 0.  1.
         25    2    1    2    0    0  0.16174438323E+02  0.29535672395E+02  0.22901596230E+03  0.26311472934E+03  0.12508829446E+03 0.  0.
          5    1    3    3  502    0 -0.12592488013E+02  0.51806160139E+02  0.31150587736E+02  0.61889259965E+02  0.41800000000E+01 0. -1.
         -5    1    3    3    0  502  0.28766926336E+02 -0.22270487744E+02  0.19786537456E+03  0.20122546938E+03  0.41800000000E+01 0. -1.
        -11    1    1    2    0    0 -0.46975509644E+02 -0.41792874829E+02  0.16277879295E+03  0.17450008116E+03  0.00000000000E+00 0. -1.
         11    1    1    2    0    0  0.30801071321E+02  0.12257202434E+02  0.63816345863E+02  0.71912940458E+02  0.00000000000E+00 0.  1.
</event>
<event>
 7    1  0.2794945E-009  0.1495687E+03  0.7561462E-02  0.1201004E+00
          1   -1    0    0  501    0  0.00000000000E+00  0.00000000000E+00  0.82765887418E+03  0.82765887418E+03  0.00000000000E+00 0. -1.
         -1   -1    0    0    0  501 -0.00000000000E+00 -0.00000000000E+00 -0.39183238782E+02  0.39183238782E+02  0.00000000000E+00 0.  1.
         25    2    1    2    0    0  0.91627677357E+02 -0.89853307139E+02  0.57378924182E+03  0.60112408368E+03  0.12508725709E+03 0.  0.
          5    1    3    3  502    0  0.10853125630E+03 -0.98633110851E+02  0.39663758550E+03  0.42290231825E+03  0.41800000000E+01 0.  1.
         -5    1    3    3    0  502 -0.16903578948E+02  0.87798037122E+01  0.17715165632E+03  0.17822176542E+03  0.41800000000E+01 0.  1.
        -11    1    1    2    0    0 -0.63145142354E+02  0.37823161293E+02  0.45737905192E+02  0.86659428249E+02  0.00000000000E+00 0.  1.
         11    1    1    2    0    0 -0.28482535003E+02  0.52030145846E+02  0.16894848839E+03  0.17905860103E+03  0.00000000000E+00 0. -1.
</event>
<event>
 7    1  0.2794945E-009  0.9827266E+02  0.7561462E-02  0.1283971E+00
          2   -1    0    0  501    0  0.00000000000E+00  0.00000000000E+00  0.12130706782E+03  0.12130706782E+03  0.00000000000E+00 0.  1.
         -2   -1    0    0    0  501 -0.00000000000E+00 -0.00000000000E+00 -0.15243292217E+03  0.15243292217E+03  0.00000000000E+00 0. -1.
         25    2    1    2    0    0 -0.70781721665E+02  0.29076702172E+02  0.10290327378E+02  0.14699906320E+03  0.12508927617E+03 0.  0.
          5    1    3    3  502    0  0.86661405108E+01  0.25977912425E+02 -0.43029697596E+02  0.51175982653E+02  0.41800000000E+01 0. -1.
         -5    1    3    3    0  502 -0.79447862175E+02  0.30987897474E+01  0.53320024974E+02  0.95823080546E+02  0.41800000000E+01 0. -1.
        -11    1    1    2    0    0  0.17173029721E+02  0.12618265147E+02  0.24242236211E+02  0.32277230080E+02  0.00000000000E+00 0.  1.
         11    1    1    2    0    0  0.53608691944E+02 -0.41694967320E+02 -0.65658417936E+02  0.94463696718E+02  0.00000000000E+00 0. -1.
</event>
<event>
 7    1  0.2794945E-009  0.5689032E+02  0.7561462E-02  0.1411365E+00
          2   -1    0    0  501    0  0.00000000000E+00  0.00000000000E+00  0.16616052384E+03  0.16616052384E+03  0.00000000000E+00 0. -1.
         -2   -1    0    0    0  501 -0.00000000000E+00 -0.00000000000E+00 -0.74913450638E+02  0.74913450638E+02  0.00000000000E+00 0.  1.
         25    2    1    2    0    0 -0.22950054938E+02 -0.10501438710E+01  0.34258002518E+02  0.13171611243E+03  0.12509082985E+03 0.  0.
          5    1    3    3  502    0 -0.10379567682E+02 -0.25074006315E+02  0.76538732858E+02  0.81314766466E+02  0.41800000000E+01 0.  1.
         -5    1    3    3    0  502 -0.12570487257E+02  0.24023862444E+02 -0.42280730340E+02  0.50401345961E+02  0.41800000000E+01 0.  1.
        -11    1    1    2    0    0 -0.16912654625E+02  0.75120020759E+01 -0.16959222546E+02  0.25101459938E+02  0.00000000000E+00 0.  1.
         11    1    1    2    0    0  0.39862709563E+02 -0.64618582049E+01  0.73948293227E+02  0.84256402109E+02  0.00000000000E+00 0. -1.
</event>
<event>
 7    1  0.2794945E-009  0.1000098E+03  0.7561462E-02  0.1280275E+00
         -2   -1    0    0    0  501 -0.00000000000E+00  0.00000000000E+00  0.36721268234E+02  0.36721268234E+02  0.00000000000E+00 0.  1.
          2   -1    0    0  501    0  0.00000000000E+00 -0.00000000000E+00 -0.41224803784E+03  0.41224803784E+03  0.00000000000E+00 0. -1.
         25    2    1    2    0    0 -0.27460289033E+02 -0.47413073304E+02 -0.21174786436E+03  0.25196621716E+03  0.12509096504E+03 0.  0.
          5    1    3    3  502    0 -0.68569939831E+02 -0.61620610026E+02 -0.13250434565E+03  0.16147386862E+03  0.41800000000E+01 0.  1.
         -5    1    3    3    0  502  0.41109650798E+02  0.14207536723E+02 -0.79243518703E+02  0.90492348544E+02  0.41800000000E+01 0.  1.
        -11    1    1    2    0    0  0.24370565457E+02  0.97479680922E+01  0.26091863452E+01  0.26377171873E+02  0.00000000000E+00 0.  1.
         11    1    1    2    0    0  0.30897235757E+01  0.37665105211E+02 -0.16638809160E+03  0.17062591705E+03  0.00000000000E+00 0. -1.
</event>
<event>
 7    1  0.2794945E-009  0.1064927E+03  0.7561462E-02  0.1267206E+00
         -2   -1    0    0    0  501 -0.00000000000E+00  0.00000000000E+00  0.14710404578E+03  0.14710404578E+03  0.00000000000E+00 0. -1.
          2   -1    0    0  501    0  0.00000000000E+00 -0.00000000000E+00 -0.13164973629E+03  0.13164973629E+03  0.00000000000E+00 0.  1.
         25    2    1    2    0    0  0.11927113948E+02  0.41646645875E+02 -0.64181938209E+02  0.14712325234E+03  0.12509688656E+03 0.  0.
          5    1    3    3  502    0 -0.44336673587E+02 -0.19417949370E+02 -0.16649677291E+02  0.51356416701E+02  0.41800000000E+01 0. -1.
         -5    1    3    3    0  502  0.56263787534E+02  0.61064595246E+02 -0.47532260918E+02  0.95766835639E+02  0.41800000000E+01 0. -1.
        -11    1    1    2    0    0 -0.38646325940E+02 -0.38173097542E+02  0.88002550146E+02  0.10341746814E+03  0.00000000000E+00 0. -1.
         11    1    1    2    0    0  0.26719211992E+02 -0.34735483335E+01 -0.83663024549E+01  0.28213061590E+02  0.00000000000E+00 0.  1.
</event>
<event>
 7    1  0.2794945E-009  0.1161175E+03  0.7561462E-02  0.1249643E+00
         -2   -1    0    0    0  501 -0.00000000000E+00  0.00000000000E+00  0.26486716617E+02  0.26486716617E+02  0.00000000000E+00 0.  1.
          2   -1    0    0  501    0  0.00000000000E+00 -0.00000000000E+00 -0.10680557198E+04  0.10680557198E+04  0.00000000000E+00 0. -1.
         25    2    1    2    0    0 -0.86132541920E+01  0.51205526690E+02 -0.93384069281E+03  0.94361196594E+03  0.12509559791E+03 0.  0.
          5    1    3    3  502    0  0.53375773388E+02  0.49276200203E+02 -0.46214318501E+03  0.46783641686E+03  0.41800000000E+01 0. -1.
         -5    1    3    3    0  502 -0.61989027580E+02  0.19293264873E+01 -0.47169750780E+03  0.47577554908E+03  0.41800000000E+01 0. -1.
        -11    1    1    2    0    0  0.13111125432E+02  0.21113168629E+02 -0.57854434222E+02  0.62966682133E+02  0.00000000000E+00 0. -1.
         11    1    1    2    0    0 -0.44978712404E+01 -0.72318695320E+02 -0.49873876174E+02  0.87963788362E+02  0.00000000000E+00 0.  1.
</event>
<event>
 7    1  0.2794945E-009  0.1755441E+03  0.7561462E-02  0.1172187E+00
          2   -1    0    0  501    0  0.00000000000E+00  0.00000000000E+00  0.10192496896E+04  0.10192496896E+04  0.00000000000E+00 0. -1.
         -2   -1    0    0    0  501 -0.00000000000E+00 -0.00000000000E+00 -0.37163120611E+02  0.37163120611E+02  0.00000000000E+00 0.  1.
         25    2    1    2    0    0 -0.95159077031E+02 -0.12846084427E+03  0.46022115287E+03  0.50299846435E+03  0.12508599898E+03 0.  0.
          5    1    3    3  502    0 -0.26193506490E+02 -0.92378281686E+02  0.11888538461E+03  0.15287594246E+03  0.41800000000E+01 0.  1.
         -5    1    3    3    0  502 -0.68965570541E+02 -0.36082562587E+02  0.34133576826E+03  0.35012252189E+03  0.41800000000E+01 0.  1.
        -11    1    1    2    0    0  0.30138839945E+02  0.10280480018E+03  0.23683772230E+03  0.25994092274E+03  0.00000000000E+00 0.  1.
         11    1    1    2    0    0  0.65020237086E+02  0.25656044093E+02  0.28502769378E+03  0.29347342307E+03  0.00000000000E+00 0. -1.
</event>
<event>
 7    1  0.2794945E-009  0.1131125E+03  0.7561462E-02  0.1254912E+00
         -1   -1    0    0    0  501 -0.00000000000E+00  0.00000000000E+00  0.82328212464E+02  0.82328212464E+02  0.00000000000E+00 0.  1.
          1   -1    0    0  501    0  0.00000000000E+00 -0.00000000000E+00 -0.46220989601E+03  0.46220989601E+03  0.00000000000E+00 0. -1.
         25    2    1    2    0    0 -0.89790087526E+02 -0.36564762379E+02 -0.37739333853E+03  0.40923568986E+03  0.12509546843E+03 0.  0.
          5    1    3    3  502    0 -0.49808070881E+02  0.24846172815E+02 -0.54165165086E+02  0.77778620052E+02  0.41800000000E+01 0.  1.
         -5    1    3    3    0  502 -0.39982016645E+02 -0.61410935193E+02 -0.32322817345E+03  0.33145706981E+03  0.41800000000E+01 0.  1.
        -11    1    1    2    0    0  0.37351446949E+02  0.17013785346E+02  0.45717612654E+02  0.61438583868E+02  0.00000000000E+00 0.  1.
         11    1    1    2    0    0  0.52438640578E+02  0.19550977032E+02 -0.48205957665E+02  0.73863834743E+02  0.00000000000E+00 0. -1.
</event>
<event>
 7    1  0.2794945E-009  0.1194157E+03  0.7561462E-02  0.1244064E+00
         -2   -1    0    0    0  501 -0.00000000000E+00  0.00000000000E+00  0.14847020672E+03  0.14847020672E+03  0.00000000000E+00 0. -1.
          2   -1    0    0  501    0  0.00000000000E+00 -0.00000000000E+00 -0.13553472119E+03  0.13553472119E+03  0.00000000000E+00 0.  1.
         25    2    1    2    0    0 -0.57396516350E+02 -0.39689258482E+02  0.69088624256E+02  0.15902883748E+03  0.12508931137E+03 0.  0.
          5    1    3    3  502    0 -0.60991837389E+01  0.44197018857E+02  0.20762306091E+02  0.49387470803E+02  0.41800000000E+01 0.  1.
         -5    1    3    3    0  502 -0.51297332611E+02 -0.83886277339E+02  0.48326318165E+02  0.10964136667E+03  0.41800000000E+01 0.  1.
        -11    1    1    2    0    0  0.42210634557E+02  0.58051546267E+02 -0.67549371931E+02  0.98562859851E+02  0.00000000000E+00 0.  1.
         11    1    1    2    0    0  0.15185881794E+02 -0.18362287785E+02  0.11396233208E+02  0.26413230584E+02  0.00000000000E+00 0. -1.
</event>
<event>
 7    1  0.2794945E-009  0.1168886E+03  0.7561462E-02  0.1248320E+00
         -1   -1    0    0    0  501 -0.00000000000E+00  0.00000000000E+00  0.83523709479E+02  0.83523709479E+02  0.00000000000E+00 0.  1.
          1   -1    0    0  501    0  0.00000000000E+00 -0.00000000000E+00 -0.19780866164E+03  0.19780866164E+03  0.00000000000E+00 0. -1.
         25    2    1    2    0    0  0.88621444184E+01  0.65051406061E+02 -0.88053630756E+02  0.16646541415E+03  0.12508824560E+03 0.  0.
          5    1    3    3  502    0  0.44246797374E+02  0.73085723308E+02 -0.17926542575E+02  0.87396426460E+02  0.41800000000E+01 0. -1.
         -5    1    3    3    0  502 -0.35384652955E+02 -0.80343172468E+01 -0.70127088181E+02  0.79068987695E+02  0.41800000000E+01 0. -1.
        -11    1    1    2    0    0  0.35058682545E+02 -0.23201193116E+01 -0.10709661520E+02  0.36731335741E+02  0.00000000000E+00 0. -1.
         11    1    1    2    0    0 -0.43920826964E+02 -0.62731286750E+02 -0.15521659887E+02  0.78135621224E+02  0.00000000000E+00 0.  1.
</event>
<event>
 7    1  0.2794945E-009  0.8949293E+02  0.7561462E-02  0.1304084E+00
         -2   -1    0    0    0  501 -0.00000000000E+00  0.00000000000E+00  0.31638461923E+03  0.31638461923E+03  0.00000000000E+00 0.  1.
          2   -1    0    0  501    0  0.00000000000E+00 -0.00000000000E+00 -0.43228805564E+02  0.43228805564E+02  0.00000000000E+00 0. -1.
         25    2    1    2    0    0 -0.30769557623E+02 -0.29614545620E+02  0.14860823314E+03  0.19888627188E+03  0.12509018825E+03 0.  0.
          5    1    3    3  502    0  0.40886513948E+02  0.56749605301E+01  0.91922918029E+02  0.10085240433E+03  0.41800000000E+01 0. -1.
         -5    1    3    3    0  502 -0.71656071572E+02 -0.35289506150E+02  0.56685315115E+02  0.98033867551E+02  0.41800000000E+01 0. -1.
        -11    1    1    2    0    0  0.11194894255E+02 -0.89048874963E+01 -0.11264560654E+02  0.18207498604E+02  0.00000000000E+00 0. -1.
         11    1    1    2    0    0  0.19574663368E+02  0.38519433116E+02  0.13581214117E+03  0.14251965430E+03  0.00000000000E+00 0.  1.
</event>
<event>
 7    1  0.2794945E-009  0.1022568E+03  0.7561462E-02  0.1275621E+00
         -2   -1    0    0    0  501 -0.00000000000E+00  0.00000000000E+00  0.15884507211E+03  0.15884507211E+03  0.00000000000E+00 0.  1.
          2   -1    0    0  501    0  0.00000000000E+00 -0.00000000000E+00 -0.77601023226E+02  0.77601023226E+02  0.00000000000E+00 0. -1.
         25    2    1    2    0    0  0.14380986394E+02 -0.14219718476E+02  0.26588092053E+02  0.12947417550E+03  0.12509045655E+03 0.  0.
          5    1    3    3  502    0  0.13838651746E+02  0.51686259429E+02 -0.90558772793E+01  0.54428476088E+02  0.41800000000E+01 0. -1.
         -5    1    3    3    0  502  0.54233464813E+00 -0.65905977905E+02  0.35643969333E+02  0.75045699412E+02  0.41800000000E+01 0. -1.
        -11    1    1    2    0    0 -0.12001477366E+02  0.48742571533E+02  0.11220661130E+02  0.51437116703E+02  0.00000000000E+00 0. -1.
         11    1    1    2    0    0 -0.23795090283E+01 -0.34522853057E+02  0.43435295706E+02  0.55534803137E+02  0.00000000000E+00 0.  1.
</event>
<event>
 7    1  0.2794945E-009  0.1656426E+03  0.7561462E-02  0.1182470E+00
         -2   -1    0    0    0  501 -0.00000000000E+00  0.00000000000E+00  0.11003442276E+03  0.11003442276E+03  0.00000000000E+00 0.  1.
          2   -1    0    0  501    0  0.00000000000E+00 -0.00000000000E+00 -0.32192694048E+03  0.32192694048E+03  0.00000000000E+00 0. -1.
         25    2    1    2    0    0  0.10787148444E+03  0.10654746940E+03 -0.86496619263E+02  0.21474991080E+03  0.12508892298E+03 0.  0.
          5    1    3    3  502    0 -0.92558852846E+01  0.44310365926E+02 -0.66495419790E+02  0.80549321499E+02  0.41800000000E+01 0.  1.
         -5    1    3    3    0  502  0.11712736972E+03  0.62237103479E+02 -0.20001199473E+02  0.13420058930E+03  0.41800000000E+01 0.  1.
        -11    1    1    2    0    0 -0.57415646847E+02 -0.41705731987E+02 -0.45873692964E+01  0.71112365595E+02  0.00000000000E+00 0.  1.
         11    1    1    2    0    0 -0.50455837590E+02 -0.64841737418E+02 -0.12080852916E+03  0.14609908684E+03  0.00000000000E+00 0. -1.
</event>
<event>
 7    1  0.2794945E-009  0.2383774E+03  0.7561462E-02  0.1120879E+00
          2   -1    0    0  501    0  0.00000000000E+00  0.00000000000E+00  0.10994891033E+04  0.10994891033E+04  0.00000000000E+00 0. -1.
         -2   -1    0    0    0  501 -0.00000000000E+00 -0.00000000000E+00 -0.60053942290E+02  0.60053942290E+02  0.00000000000E+00 0.  1.
         25    2    1    2    0    0  0.10965049689E+03  0.19458036335E+03  0.38971441421E+03  0.46627546551E+03  0.12510290094E+03 0.  0.
          5    1    3    3  502    0 -0.38067467854E+01  0.55443023370E+02  0.18855924847E+03  0.19662269133E+03  0.41800000000E+01 0.  1.
         -5    1    3    3    0  502  0.11345724368E+03  0.13913733998E+03  0.20115516573E+03  0.26965277418E+03  0.41800000000E+01 0.  1.
        -11    1    1    2    0    0 -0.81892688791E+02 -0.19723368926E+03  0.56129312330E+03  0.60054767581E+03  0.00000000000E+00 0.  1.
         11    1    1    2    0    0 -0.27757808102E+02  0.26533259101E+01  0.88427623472E+02  0.92719904237E+02  0.00000000000E+00 0. -1.
</event>
<event>
 7    1  0.2794945E-009  0.1160866E+03  0.7561462E-02  0.1249696E+00
          2   -1    0    0  501    0  0.00000000000E+00  0.00000000000E+00  0.86179410914E+03  0.86179410914E+03  0.00000000000E+00 0.  1.
         -2   -1    0    0    0  501 -0.00000000000E+00 -0.00000000000E+00 -0.17540074743E+02  0.17540074743E+02  0.00000000000E+00 0. -1.
         25    2    1    2    0    0  0.44772959821E+02  0.35587182934E+02  0.43676100008E+03  0.45790764889E+03  0.12509267844E+03 0.  0.
          5    1    3    3  502    0 -0.19791261000E+02 -0.31162450640E+02  0.66694426093E+02  0.76344031946E+02  0.41800000000E+01 0. -1.
         -5    1    3    3    0  502  0.64564220821E+02  0.66749633575E+02  0.37006657398E+03  0.38156361694E+03  0.41800000000E+01 0. -1.
        -11    1    1    2    0    0 -0.38685741859E+02  0.21764393080E+02  0.24532195633E+03  0.24930531019E+03  0.00000000000E+00 0.  1.
         11    1    1    2    0    0 -0.60872179616E+01 -0.57351576015E+02  0.16217107799E+03  0.17212122481E+03  0.00000000000E+00 0. -1.
</event>
<event>
 7    1  0.2794945E-009  0.1772895E+03  0.7561462E-02  0.1170452E+00
          1   -1    0    0  501    0  0.00000000000E+00  0.00000000000E+00  0.63175666855E+02  0.63175666855E+02  0.00000000000E+00 0. -1.
         -1   -1    0    0    0  501 -0.00000000000E+00 -0.00000000000E+00 -0.72395845748E+03  0.72395845748E+03  0.00000000000E+00 0.  1.
         25    2    1    2    0    0  0.79991717722E+02  0.14206193111E+03 -0.18815083499E+03  0.27861831902E+03  0.12508862382E+03 0.  0.
          5    1    3    3  502    0  0.31146756197E+02  0.16221636549E+02  0.11842727872E+02  0.37295904834E+02  0.41800000000E+01 0. -1.
         -5    1    3    3    0  502  0.48844961524E+02  0.12584029456E+03 -0.19999356286E+03  0.24132241418E+03  0.41800000000E+01 0. -1.
        -11    1    1    2    0    0 -0.21768430262E+02  0.80062904368E+01 -0.99078718152E+02  0.10175734683E+03  0.00000000000E+00 0.  1.
         11    1    1    2    0    0 -0.58223287459E+02 -0.15006822154E+03 -0.37355323749E+03  0.40675845849E+03  0.00000000000E+00 0. -1.
</event>
<event>
 7    1  0.2794945E-009  0.8893419E+02  0.7561462E-02  0.1305453E+00
          1   -1    0    0  501    0  0.00000000000E+00  0.00000000000E+00  0.79398654804E+02  0.79398654804E+02  0.00000000000E+00 0. -1.
         -1   -1    0    0    0  501 -0.00000000000E+00 -0.00000000000E+00 -0.33696990101E+03  0.33696990101E+03  0.00000000000E+00 0.  1.
         25    2    1    2    0    0 -0.25033951507E+02 -0.16950065556E+02 -0.28740088984E+03  0.31489801870E+03  0.12508991667E+03 0.  0.
          5    1    3    3  502    0 -0.10516586111E+02 -0.50629549662E+02 -0.26842725629E+03  0.27339461260E+03  0.41800000000E+01 0.  1.
         -5    1    3    3    0  502 -0.14517365395E+02  0.33679484107E+02 -0.18973633552E+02  0.41503406100E+02  0.41800000000E+01 0.  1.
        -11    1    1    2    0    0  0.56231220603E+02  0.99673990113E+01  0.37848066114E+02  0.68511132833E+02  0.00000000000E+00 0. -1.
         11    1    1    2    0    0 -0.31197269096E+02  0.69826665442E+01 -0.80184224772E+01  0.32959404275E+02  0.00000000000E+00 0.  1.
</event>
<event>
 7    1  0.2794945E-009  0.1337912E+03  0.7561462E-02  0.1221936E+00
         -1   -1    0    0    0  501 -0.00000000000E+00  0.00000000000E+00  0.67668101100E+03  0.67668101100E+03  0.00000000000E+00 0.  1.
          1   -1    0    0  501    0  0.00000000000E+00 -0.00000000000E+00 -0.40537201807E+02  0.40537201807E+02  0.00000000000E+00 0. -1.
         25    2    1    2    0    0 -0.89363821238E+02  0.58121796334E+01  0.52348799057E+03  0.54562653925E+03  0.12509584358E+03 0.  0.
          5    1    3    3  502    0 -0.36607104942E+02  0.64306490890E+02  0.22504458314E+03  0.23693446710E+03  0.41800000000E+01 0.  1.
         -5    1    3    3    0  502 -0.52756716296E+02 -0.58494311257E+02  0.29844340744E+03  0.30869207215E+03  0.41800000000E+01 0.  1.
        -11    1    1    2    0    0  0.64045545371E+02  0.30004056618E+02  0.27652037047E+02  0.75938859934E+02  0.00000000000E+00 0. -1.
         11    1    1    2    0    0  0.25318275867E+02 -0.35816236251E+02  0.85003781577E+02  0.95652813625E+02  0.00000000000E+00 0.  1.
</event>
<event>
 7    1  0.2794945E-009  0.1093352E+03  0.7561462E-02  0.1261806E+00
         -2   -1    0    0    0  501 -0.00000000000E+00  0.00000000000E+00  0.20843231285E+02  0.20843231285E+02  0.00000000000E+00 0.  1.
          2   -1    0    0  501    0  0.00000000000E+00 -0.00000000000E+00 -0.95953110567E+03  0.95953110567E+03  0.00000000000E+00 0. -1.
         25    2    1    2    0    0  0.49333644846E+02  0.43115353273E+02 -0.72243903808E+03  0.73611120789E+03  0.12509518150E+03 0.  0.
          5    1    3    3  502    0 -0.33809449564E+02  0.36580281457E+01 -0.78993156400E+02  0.86103723542E+02  0.41800000000E+01 0.  1.
         -5    1    3    3    0  502  0.83143094410E+02  0.39457325127E+02 -0.64344588168E+03  0.65000748435E+03  0.41800000000E+01 0.  1.
        -11    1    1    2    0    0 -0.85477001469E+01 -0.50167914889E+02 -0.44518108051E+02  0.67614678928E+02  0.00000000000E+00 0.  1.
         11    1    1    2    0    0 -0.40785944699E+02  0.70525616162E+01 -0.17173072826E+03  0.17664845014E+03  0.00000000000E+00 0. -1.
</event>
<event>
 7    1  0.2794945E-009  0.6459367E+02  0.7561462E-02  0.1379507E+00
         -2   -1    0    0    0  501 -0.00000000000E+00  0.00000000000E+00  0.50182346149E+02  0.50182346149E+02  0.00000000000E+00 0.  1.
          2   -1    0    0  501    0  0.00000000000E+00 -0.00000000000E+00 -0.26848593061E+03  0.26848593061E+03  0.00000000000E+00 0. -1.
         25    2    1    2    0    0  0.13566890818E+02  0.14998572404E+02 -0.72864202065E+02  0.14616980152E+03  0.12508957284E+03 0.  0.
          5    1    3    3  502    0  0.37770545525E+01 -0.15449762876E+02 -0.10162931937E+03  0.10295121305E+03  0.41800000000E+01 0. -1.
         -5    1    3    3    0  502  0.97898362657E+01  0.30448335280E+02  0.28765117302E+02  0.43218588464E+02  0.41800000000E+01 0. -1.
        -11    1    1    2    0    0  0.31545491494E+02 -0.15983904542E+02 -0.10870710650E+03  0.11431464579E+03  0.00000000000E+00 0. -1.
         11    1    1    2    0    0 -0.45112382312E+02  0.98533213872E+00 -0.36732275892E+02  0.58183829450E+02  0.00000000000E+00 0.  1.
</event>
<event>
 7    1  0.2794945E-009  0.1626955E+03  0.7561462E-02  0.1185687E+00
         -1   -1    0    0    0  501 -0.00000000000E+00  0.00000000000E+00  0.16303415368E+03  0.16303415368E+03  0.00000000000E+00 0.  1.
          1   -1    0    0  501    0  0.00000000000E+00 -0.00000000000E+00 -0.23940037123E+03  0.23940037123E+03  0.00000000000E+00 0. -1.
         25    2    1    2    0    0  0.11710913745E+03 -0.29883757741E+02  0.73666051392E+02  0.18889669461E+03  0.12509070731E+03 0.  0.
          5    1    3    3  502    0  0.10917596225E+03 -0.72018631710E+02  0.56037496176E+02  0.14235079004E+03  0.41800000000E+01 0. -1.
         -5    1    3    3    0  502  0.79331751994E+01  0.42134873968E+02  0.17628555216E+02  0.46545904568E+02  0.41800000000E+01 0. -1.
        -11    1    1    2    0    0 -0.12897828108E+03  0.40853301107E+02 -0.13897952178E+03  0.19395797657E+03  0.00000000000E+00 0.  1.
         11    1    1    2    0    0  0.11869143632E+02 -0.10969543366E+02 -0.11052747160E+02  0.19579853728E+02  0.00000000000E+00 0. -1.
</event>
<event>
 7    1  0.2794945E-009  0.8414861E+02  0.7561462E-02  0.1317674E+00
          1   -1    0    0  501    0  0.00000000000E+00  0.00000000000E+00  0.19677449835E+03  0.19677449835E+03  0.00000000000E+00 0. -1.
         -1   -1    0    0    0  501 -0.00000000000E+00 -0.00000000000E+00 -0.62603158043E+02  0.62603158043E+02  0.00000000000E+00 0.  1.
         25    2    1    2    0    0  0.15944592168E+02 -0.97056032534E+01  0.94911343680E+02  0.15812454375E+03  0.12508708735E+03 0.  0.
          5    1    3    3  502    0 -0.24197194545E+02  0.49019492297E+02  0.47459629908E+02  0.72514162203E+02  0.41800000000E+01 0.  1.
         -5    1    3    3    0  502  0.40141786713E+02 -0.58725095551E+02  0.47451713772E+02  0.85610381542E+02  0.41800000000E+01 0.  1.
        -11    1    1    2    0    0 -0.23724443503E+02 -0.61889839804E+01  0.65310074616E+02  0.69760723824E+02  0.00000000000E+00 0. -1.
         11    1    1    2    0    0  0.77798513352E+01  0.15894587234E+02 -0.26050077993E+02  0.31492388820E+02  0.00000000000E+00 0.  1.
</event>
<event>
 7    1  0.2794945E-009  0.9601772E+02  0.7561462E-02  0.1288900E+00
          2   -1    0    0  501    0  0.00000000000E+00  0.00000000000E+00  0.36105727827E+03  0.36105727827E+03  0.00000000000E+00 0. -1.
         -2   -1    0    0    0  501 -0.00000000000E+00 -0.00000000000E+00 -0.43273256727E+02  0.43273256727E+02  0.00000000000E+00 0.  1.
         25    2    1    2    0    0  0.32576353615E+02 -0.53836149578E+02  0.16094182405E+03  0.21332368690E+03  0.12508067336E+03 0.  0.
          5    1    3    3  502    0  0.61359122117E+02 -0.44430121168E+02  0.16583475931E+03  0.18236671114E+03  0.41800000000E+01 0.  1.
         -5    1    3    3    0  502 -0.28782768502E+02 -0.94060284101E+01 -0.48929352607E+01  0.30956975766E+02  0.41800000000E+01 0.  1.
        -11    1    1    2    0    0 -0.44245744433E+02  0.17755327870E+02  0.25026155033E+02  0.53844646938E+02  0.00000000000E+00 0.  1.
         11    1    1    2    0    0  0.11669390818E+02  0.36080821708E+02  0.13181604246E+03  0.13716220116E+03  0.00000000000E+00 0. -1.
</event>
<event>
 7    1  0.2794945E-009  0.9302706E+02  0.7561462E-02  0.1295682E+00
          2   -1    0    0  501    0  0.00000000000E+00  0.00000000000E+00  0.21757193363E+03  0.21757193363E+03  0.00000000000E+00 0. -1.
         -2   -1    0    0    0  501 -0.00000000000E+00 -0.00000000000E+00 -0.64401301136E+02  0.64401301136E+02  0.00000000000E+00 0.  1.
         25    2    1    2    0    0  0.61571284007E+01 -0.20412618492E+00  0.32931602139E+02  0.12950084314E+03  0.12509207032E+03 0.  0.
          5    1    3    3  502    0 -0.15893375047E+02 -0.56366292161E+02  0.36124302380E+02  0.68936172543E+02  0.41800000000E+01 0.  1.
         -5    1    3    3    0  502  0.22050503448E+02  0.56162165976E+02 -0.31927002410E+01  0.60564670595E+02  0.41800000000E+01 0.  1.
        -11    1    1    2    0    0 -0.32154419369E+02 -0.16317225038E+02  0.11588284485E+03  0.12136305965E+03  0.00000000000E+00 0. -1.
         11    1    1    2    0    0  0.25997290968E+02  0.16521351223E+02  0.43561855070E+01  0.31109331977E+02  0.00000000000E+00 0.  1.
</event>
<event>
 6    1  0.2794945E-009  0.1538159E+03  0.7561462E-02  0.1195861E+00
         -2   -1    0    0    0  501 -0.00000000000E+00  0.00000000000E+00  0.41316716282E+02  0.41316716282E+02  0.00000000000E+00 0.  1.
          2   -1    0    0  501    0  0.00000000000E+00 -0.00000000000E+00 -0.65803914783E+03  0.65803914783E+03  0.00000000000E+00 0. -1.
          5    1    1    2  502    0  0.23866817261E+02  0.39389785859E+02 -0.33799682548E+02  0.57280634917E+02  0.41800000000E+01 0.  1.
         -5    1    1    2    0  502  0.95503642311E+02 -0.66703129635E+02 -0.25732991637E+03  0.28250028577E+03  0.41800000000E+01 0.  1.
        -11    1    1    2    0    0 -0.12602952726E+03  0.38519336654E+02 -0.31860582331E+03  0.34478522544E+03  0.00000000000E+00 0. -1.
         11    1    1    2    0    0  0.66590676890E+01 -0.11205992878E+02 -0.69870093207E+01  0.14789717986E+02  0.00000000000E+00 0.  1.
</event>
<event>
 7    1  0.2794945E-009  0.1103225E+03  0.7561462E-02  0.1259974E+00
         -4   -1    0    0    0  501 -0.00000000000E+00  0.00000000000E+00  0.45437604812E+02  0.45437604812E+02  0.00000000000E+00 0. -1.
          4   -1    0    0  501    0  0.00000000000E+00 -0.00000000000E+00 -0.30282001052E+03  0.30282001052E+03  0.00000000000E+00 0.  1.
         25    2    1    2    0    0  0.25364653375E+01  0.21910888283E+02 -0.88128522875E+02  0.15460988310E+03  0.12510419148E+03 0.  0.
          5    1    3    3  502    0  0.62970340057E+02  0.33406545550E+01 -0.37323402706E+02  0.73395725280E+02  0.41800000000E+01 0.  1.
         -5    1    3    3    0  502 -0.60433874720E+02  0.18570233728E+02 -0.50805120168E+02  0.81214157816E+02  0.41800000000E+01 0.  1.
        -11    1    1    2    0    0  0.42623748104E+02 -0.23929868940E+02 -0.88388702778E+02  0.10100487765E+03  0.00000000000E+00 0. -1.
         11    1    1    2    0    0 -0.45160213441E+02  0.20189806563E+01 -0.80865180056E+02  0.92642854589E+02  0.00000000000E+00 0.  1.
</event>
<event>
 7    1  0.2794945E-009  0.1023252E+03  0.7561462E-02  0.1275481E+00
         -2   -1    0    0    0  501 -0.00000000000E+00  0.00000000000E+00  0.44824493637E+02  0.44824493637E+02  0.00000000000E+00 0.  1.
          2   -1    0    0  501    0  0.00000000000E+00 -0.00000000000E+00 -0.55865792059E+03  0.55865792059E+03  0.00000000000E+00 0. -1.
         25    2    1    2    0    0  0.47491603894E+02 -0.46220561580E+01 -0.47192704057E+03  0.49055080879E+03  0.12509255988E+03 0.  0.
          5    1    3    3  502    0  0.34444962303E+02  0.52067002618E+02 -0.13736901080E+03  0.15094749325E+03  0.41800000000E+01 0.  1.
         -5    1    3    3    0  502  0.13046641590E+02 -0.56689058776E+02 -0.33455802977E+03  0.33960331554E+03  0.41800000000E+01 0.  1.
        -11    1    1    2    0    0 -0.32495535859E+01 -0.28379822688E+02 -0.49565648329E+02  0.57207756717E+02  0.00000000000E+00 0.  1.
         11    1    1    2    0    0 -0.44242050308E+02  0.33001878846E+02  0.76592619474E+01  0.55723848722E+02  0.00000000000E+00 0. -1.
</event>
<event>
 7    1  0.2794945E-009  0.1012592E+03  0.7561462E-02  0.1277670E+00
         -1   -1    0    0    0  501 -0.00000000000E+00  0.00000000000E+00  0.31581329674E+02  0.31581329674E+02  0.00000000000E+00 0.  1.
          1   -1    0    0  501    0  0.00000000000E+00 -0.00000000000E+00 -0.39068449072E+03  0.39068449072E+03  0.00000000000E+00 0. -1.
         25    2    1    2    0    0 -0.35645228622E+01  0.17159735119E+02 -0.17682492440E+03  0.21730633702E+03  0.12509127822E+03 0.  0.
          5    1    3    3  502    0  0.14184868453E+02 -0.43275503781E+02 -0.13250601383E+03  0.14017594595E+03  0.41800000000E+01 0. -1.
         -5    1    3    3    0  502 -0.17749391315E+02  0.60435238900E+02 -0.44318910566E+02  0.77130391071E+02  0.41800000000E+01 0. -1.
        -11    1    1    2    0    0 -0.21046119195E+02  0.32221298360E+02 -0.71369258830E+02  0.81084661355E+02  0.00000000000E+00 0.  1.
         11    1    1    2    0    0  0.24610642058E+02 -0.49381033479E+02 -0.11090897782E+03  0.12387482202E+03  0.00000000000E+00 0. -1.
</event>
<event>
 7    1  0.2794945E-009  0.1124372E+03  0.7561462E-02  0.1256122E+00
         -2   -1    0    0    0  501 -0.00000000000E+00  0.00000000000E+00  0.21078691169E+03  0.21078691169E+03  0.00000000000E+00 0.  1.
          2   -1    0    0  501    0  0.00000000000E+00 -0.00000000000E+00 -0.64651637941E+02  0.64651637941E+02  0.00000000000E+00 0. -1.
         25    2    1    2    0    0  0.37281279606E+02 -0.13803908383E+02  0.93425084116E+02  0.16110863882E+03  0.12508919003E+03 0.  0.
          5    1    3    3  502    0  0.53175015715E+02 -0.56717912387E+02  0.31485467160E+02  0.83983992070E+02  0.41800000000E+01 0.  1.
         -5    1    3    3    0  502 -0.15893736108E+02  0.42914004004E+02  0.61939616956E+02  0.77124646746E+02  0.41800000000E+01 0.  1.
        -11    1    1    2    0    0 -0.11195716974E+02  0.52895159586E+02  0.33191037180E+02  0.63441996621E+02  0.00000000000E+00 0. -1.
         11    1    1    2    0    0 -0.26085562632E+02 -0.39091251203E+02  0.19519152451E+02  0.50887914192E+02  0.00000000000E+00 0.  1.
</event>
<event>
 7    1  0.2794945E-009  0.1663071E+03  0.7561462E-02  0.1181755E+00
         -2   -1    0    0    0  501 -0.00000000000E+00  0.00000000000E+00  0.69589733488E+02  0.69589733488E+02  0.00000000000E+00 0. -1.
          2   -1    0    0  501    0  0.00000000000E+00 -0.00000000000E+00 -0.46913395116E+03  0.46913395116E+03  0.00000000000E+00 0.  1.
         25    2    1    2    0    0  0.94248673762E+02 -0.10534801609E+03 -0.17533528794E+03  0.25762646649E+03  0.12509163058E+03 0.  0.
          5    1    3    3  502    0  0.63309984212E+02  0.14224190650E+02 -0.55565062466E+02  0.85530288597E+02  0.41800000000E+01 0. -1.
         -5    1    3    3    0  502  0.30938689550E+02 -0.11957220674E+03 -0.11977022547E+03  0.17209617790E+03  0.41800000000E+01 0. -1.
        -11    1    1    2    0    0 -0.19637507650E+02  0.41096127000E+02 -0.15285708977E+03  0.15949863088E+03  0.00000000000E+00 0.  1.
         11    1    1    2    0    0 -0.74611166112E+02  0.64251889094E+02 -0.71351839966E+02  0.12159858727E+03  0.00000000000E+00 0. -1.
</event>
<event>
 7    1  0.2794945E-009  0.9550277E+02  0.7561462E-02  0.1290048E+00
          2   -1    0    0  501    0  0.00000000000E+00  0.00000000000E+00  0.22372072301E+02  0.22372072301E+02  0.00000000000E+00 0. -1.
         -2   -1    0    0    0  501 -0.00000000000E+00 -0.00000000000E+00 -0.63609047148E+03  0.63609047148E+03  0.00000000000E+00 0.  1.
         25    2    1    2    0    0 -0.27917856742E+02 -0.11537000975E+02 -0.45816177828E+03  0.47589289423E+03  0.12509725254E+03 0.  0.
          5    1    3    3  502    0  0.49757588696E+01  0.42483415696E+02 -0.33131663225E+03  0.33409247521E+03  0.41800000000E+01 0.  1.
         -5    1    3    3    0  502 -0.32893615611E+02 -0.54020416670E+02 -0.12684514603E+03  0.14180041903E+03  0.41800000000E+01 0.  1.
        -11    1    1    2    0    0  0.27308039226E+02  0.44210134564E+02 -0.13319418444E+03  0.14297187056E+03  0.00000000000E+00 0.  1.
         11    1    1    2    0    0  0.60981751521E+00 -0.32673133590E+02 -0.22362436471E+02  0.39597778990E+02  0.00000000000E+00 0. -1.
</event>
<event>
 7    1  0.2794945E-009  0.1048806E+03  0.7561462E-02  0.1270355E+00
         -3   -1    0    0    0  501 -0.00000000000E+00  0.00000000000E+00  0.25211011200E+03  0.25211011200E+03  0.00000000000E+00 0.  1.
          3   -1    0    0  501    0  0.00000000000E+00 -0.00000000000E+00 -0.64911805018E+02  0.64911805018E+02  0.00000000000E+00 0. -1.
         25    2    1    2    0    0 -0.26797861114E+02 -0.60235437050E+02  0.92797010583E+02  0.16913152210E+03  0.12509098033E+03 0.  0.
          5    1    3    3  502    0  0.14862613533E+02 -0.71868903796E+02  0.10099022262E+03  0.12491010399E+03  0.41800000000E+01 0.  1.
         -5    1    3    3    0  502 -0.41660474647E+02  0.11633466746E+02 -0.81932120386E+01  0.44221418112E+02  0.41800000000E+01 0.  1.
        -11    1    1    2    0    0 -0.16986721439E+02 -0.15641396333E+01 -0.93365975884E+01  0.19446523920E+02  0.00000000000E+00 0. -1.
         11    1    1    2    0    0  0.43784582553E+02  0.61799576683E+02  0.10373789399E+03  0.12844387100E+03  0.00000000000E+00 0.  1.
</event>
<event>
 7    1  0.2794945E-009  0.1207154E+03  0.7561462E-02  0.1241922E+00
          1   -1    0    0  501    0  0.00000000000E+00  0.00000000000E+00  0.10191196501E+04  0.10191196501E+04  0.00000000000E+00 0. -1.
         -1   -1    0    0    0  501 -0.00000000000E+00 -0.00000000000E+00 -0.22555690236E+02  0.22555690236E+02  0.00000000000E+00 0.  1.
         25    2    1    2    0    0  0.25282939187E+02 -0.98031934870E+02  0.65108567234E+03  0.67067847146E+03  0.12509025578E+03 0.  0.
          5    1    3    3  502    0  0.60790971544E+00 -0.73059499305E+02  0.13650163705E+03  0.15488133945E+03  0.41800000000E+01 0. -1.
         -5    1    3    3    0  502  0.24675029472E+02 -0.24972435566E+02  0.51458403528E+03  0.51579713201E+03  0.41800000000E+01 0. -1.
        -11    1    1    2    0    0  0.25133397918E+02  0.71779900373E+02  0.23073988642E+03  0.24295048255E+03  0.00000000000E+00 0.  1.
         11    1    1    2    0    0 -0.50416337105E+02  0.26252034497E+02  0.11473840115E+03  0.12804638636E+03  0.00000000000E+00 0. -1.
</event>
<event>
 7    1  0.2794945E-009  0.1236287E+03  0.7561462E-02  0.1237228E+00
         -2   -1    0    0    0  501 -0.00000000000E+00  0.00000000000E+00  0.32323411017E+02  0.32323411017E+02  0.00000000000E+00 0.  1.
          2   -1    0    0  501    0  0.00000000000E+00 -0.00000000000E+00 -0.52631873325E+03  0.52631873325E+03  0.00000000000E+00 0. -1.
         25    2    1    2    0    0  0.57352947973E+02  0.39283511243E+02 -0.23944583311E+03  0.27895218551E+03  0.12508980737E+03 0.  0.
          5    1    3    3  502    0  0.81443277461E+02  0.59096719217E+02 -0.12644831190E+03  0.16165419156E+03  0.41800000000E+01 0.  1.
         -5    1    3    3    0  502 -0.24090329487E+02 -0.19813207974E+02 -0.11299752121E+03  0.11729799395E+03  0.41800000000E+01 0.  1.
        -11    1    1    2    0    0  0.16831944577E+02  0.15478770757E+02 -0.38377199848E+02  0.44673439207E+02  0.00000000000E+00 0.  1.
         11    1    1    2    0    0 -0.74184892551E+02 -0.54762282000E+02 -0.21617228928E+03  0.23501651955E+03  0.00000000000E+00 0. -1.
</event>
<event>
 7    1  0.2794945E-009  0.1782612E+03  0.7561462E-02  0.1169497E+00
          1   -1    0    0  501    0  0.00000000000E+00  0.00000000000E+00  0.94332370681E+02  0.94332370681E+02  0.00000000000E+00 0. -1.
         -1   -1    0    0    0  501 -0.00000000000E+00 -0.00000000000E+00 -0.43819504256E+03  0.43819504256E+03  0.00000000000E+00 0.  1.
         25    2    1    2    0    0 -0.12257326495E+03 -0.11577751974E+03 -0.21949134556E+03  0.30372909508E+03  0.12508506331E+03 0.  0.
          5    1    3    3  502    0 -0.35503670652E+02 -0.20435310694E+02  0.81593977207E+01  0.41978098148E+02  0.41800000000E+01 0. -1.
         -5    1    3    3    0  502 -0.87069594302E+02 -0.95342209050E+02 -0.22765074328E+03  0.26175099693E+03  0.41800000000E+01 0. -1.
        -11    1    1    2    0    0  0.13368438852E+03  0.11207418068E+03 -0.98348274216E+02  0.20026113141E+03  0.00000000000E+00 0. -1.
         11    1    1    2    0    0 -0.11111123571E+02  0.37033390634E+01 -0.26023052098E+02  0.28537186752E+02  0.00000000000E+00 0.  1.
</event>
<event>
 7    1  0.2794945E-009  0.9246018E+02  0.7561462E-02  0.1297001E+00
         -2   -1    0    0    0  501 -0.00000000000E+00  0.00000000000E+00  0.10910392070E+03  0.10910392070E+03  0.00000000000E+00 0.  1.
          2   -1    0    0  501    0  0.00000000000E+00 -0.00000000000E+00 -0.13308231663E+03  0.13308231663E+03  0.00000000000E+00 0. -1.
         25    2    1    2    0    0 -0.47368193787E+02  0.24465403356E+02 -0.29380746736E+02  0.13911634067E+03  0.12509127156E+03 0.  0.
          5    1    3    3  502    0 -0.45221055259E+01 -0.32218729754E+02  0.31481645888E+02  0.45464958080E+02  0.41800000000E+01 0.  1.
         -5    1    3    3    0  502 -0.42846088261E+02  0.56684133111E+02 -0.60862392624E+02  0.93651382594E+02  0.41800000000E+01 0.  1.
        -11    1    1    2    0    0  0.15883667852E+02 -0.41999271600E+02  0.34601564556E+02  0.56687723443E+02  0.00000000000E+00 0.  1.
         11    1    1    2    0    0  0.31484525935E+02  0.17533868244E+02 -0.29199213746E+02  0.46382173217E+02  0.00000000000E+00 0. -1.
</event>
<event>
 7    1  0.2794945E-009  0.1219255E+03  0.7561462E-02  0.1239954E+00
         -4   -1    0    0    0  501 -0.00000000000E+00  0.00000000000E+00  0.42068304384E+03  0.42068304384E+03  0.00000000000E+00 0.  1.
          4   -1    0    0  501    0  0.00000000000E+00 -0.00000000000E+00 -0.43780468413E+02  0.43780468413E+02  0.00000000000E+00 0. -1.
         25    2    1    2    0    0 -0.31443145191E+02 -0.64565752549E+02  0.21614727976E+03  0.25985472537E+03  0.12508966372E+03 0.  0.
          5    1    3    3  502    0  0.10633108500E+02  0.26206911714E+02  0.93348523374E+01  0.30074525534E+02  0.41800000000E+01 0.  1.
         -5    1    3    3    0  502 -0.42076253692E+02 -0.90772664263E+02  0.20681242742E+03  0.22978019984E+03  0.41800000000E+01 0.  1.
        -11    1    1    2    0    0  0.44605822903E+02 -0.44844554230E+01  0.10733152619E+03  0.11631786747E+03  0.00000000000E+00 0.  1.
         11    1    1    2    0    0 -0.13162677711E+02  0.69050207972E+02  0.53423769470E+02  0.88290919408E+02  0.00000000000E+00 0. -1.
</event>
<event>
 7    1  0.2794945E-009  0.1232092E+03  0.7561462E-02  0.1237895E+00
         -1   -1    0    0    0  501 -0.00000000000E+00  0.00000000000E+00  0.84778601316E+03  0.84778601316E+03  0.00000000000E+00 0.  1.
          1   -1    0    0  501    0  0.00000000000E+00 -0.00000000000E+00 -0.22811653668E+02  0.22811653668E+02  0.00000000000E+00 0. -1.
         25    2    1    2    0    0 -0.50484364871E+02 -0.54051348220E+02  0.58242742426E+03  0.60028286462E+03  0.12509034210E+03 0.  0.
          5    1    3    3  502    0 -0.85882144586E+02 -0.54515351816E+02  0.50334017741E+03  0.51353332213E+03  0.41800000000E+01 0.  1.
         -5    1    3    3    0  502  0.35397779715E+02  0.46400359649E+00  0.79087246842E+02  0.86749542484E+02  0.41800000000E+01 0.  1.
        -11    1    1    2    0    0  0.53652199825E+02 -0.11556112584E+01  0.64646467462E+02  0.84018210757E+02  0.00000000000E+00 0. -1.
         11    1    1    2    0    0 -0.31678349537E+01  0.55206959478E+02  0.17790046778E+03  0.18629659146E+03  0.00000000000E+00 0.  1.
</event>
<event>
 7    1  0.2794945E-009  0.1046475E+03  0.7561462E-02  0.1270816E+00
          1   -1    0    0  501    0  0.00000000000E+00  0.00000000000E+00  0.41578739315E+02  0.41578739315E+02  0.00000000000E+00 0. -1.
         -1   -1    0    0    0  501 -0.00000000000E+00 -0.00000000000E+00 -0.33495906680E+03  0.33495906680E+03  0.00000000000E+00 0.  1.
         25    2    1    2    0    0  0.34230685363E+02  0.25793835025E+02 -0.19905512781E+03  0.23897027636E+03  0.12508711895E+03 0.  0.
          5    1    3    3  502    0  0.52171244297E+02 -0.34603785489E+02 -0.62689016787E+02  0.88694114390E+02  0.41800000000E+01 0.  1.
         -5    1    3    3    0  502 -0.17940558934E+02  0.60397620514E+02 -0.13636611103E+03  0.15027616197E+03  0.41800000000E+01 0.  1.
        -11    1    1    2    0    0 -0.10841848643E+02 -0.49163077578E+02 -0.91434731836E+02  0.10437846552E+03  0.00000000000E+00 0.  1.
         11    1    1    2    0    0 -0.23388836720E+02  0.23369242552E+02 -0.28904678340E+01  0.33189064237E+02  0.00000000000E+00 0. -1.
</event>
<event>
 7    1  0.2794945E-009  0.1204706E+03  0.7561462E-02  0.1242323E+00
         -1   -1    0    0    0  501 -0.00000000000E+00  0.00000000000E+00  0.45624675709E+02  0.45624675709E+02  0.00000000000E+00 0.  1.
          1   -1    0    0  501    0  0.00000000000E+00 -0.00000000000E+00 -0.37050526067E+03  0.37050526067E+03  0.00000000000E+00 0. -1.
         25    2    1    2    0    0 -0.27071483159E+02  0.61540932691E+02 -0.21620685505E+03  0.25867868644E+03  0.12509639104E+03 0.  0.
          5    1    3    3  502    0  0.23441354530E+02  0.83464425217E+02 -0.13240729275E+03  0.15831920588E+03  0.41800000000E+01 0. -1.
         -5    1    3    3    0  502 -0.50512837689E+02 -0.21923492526E+02 -0.83799562297E+02  0.10035948055E+03  0.41800000000E+01 0. -1.
        -11    1    1    2    0    0  0.39486915747E+02 -0.35818765687E+01 -0.77363119357E+01  0.40396743400E+02  0.00000000000E+00 0. -1.
         11    1    1    2    0    0 -0.12415432588E+02 -0.57959056122E+02 -0.10093741798E+03  0.11705450654E+03  0.00000000000E+00 0.  1.
</event>
<event>
 6    1  0.2794945E-009  0.1097656E+03  0.7561462E-02  0.1261005E+00
          2   -1    0    0  501    0  0.00000000000E+00  0.00000000000E+00  0.16592045304E+04  0.16592045304E+04  0.00000000000E+00 0. -1.
         -2   -1    0    0    0  501 -0.00000000000E+00 -0.00000000000E+00 -0.12644953593E+02  0.12644953593E+02  0.00000000000E+00 0.  1.
          5    1    1    2  502    0  0.72231361698E+02 -0.29633943413E+02  0.10712779252E+04  0.10741272762E+04  0.41800000000E+01 0.  1.
         -5    1    1    2    0  502  0.77589045795E+01 -0.12876151994E+02  0.10900589173E+02  0.19033946904E+02  0.41800000000E+01 0.  1.
        -11    1    1    2    0    0  0.23669459149E+01 -0.21378542699E+02  0.62497023955E+02  0.66094799525E+02  0.00000000000E+00 0. -1.
         11    1    1    2    0    0 -0.82357212192E+02  0.63888638106E+02  0.50188403852E+03  0.51259346134E+03  0.00000000000E+00 0.  1.
</event>
<event>
 7    1  0.2794945E-009  0.7611581E+02  0.7561462E-02  0.1340450E+00
          2   -1    0    0  501    0  0.00000000000E+00  0.00000000000E+00  0.69288328633E+03  0.69288328633E+03  0.00000000000E+00 0. -1.
         -2   -1    0    0    0  501 -0.00000000000E+00 -0.00000000000E+00 -0.25494862216E+02  0.25494862216E+02  0.00000000000E+00 0.  1.
         25    2    1    2    0    0  0.52535359591E+02 -0.26859052358E+02  0.50454260833E+03  0.52315568477E+03  0.12508898507E+03 0.  0.
          5    1    3    3  502    0  0.50193111543E+02  0.12901094753E+02  0.46128596421E+03  0.46420685031E+03  0.41800000000E+01 0.  1.
         -5    1    3    3    0  502  0.23422480473E+01 -0.39760147111E+02  0.43256644114E+02  0.58948834460E+02  0.41800000000E+01 0.  1.
        -11    1    1    2    0    0 -0.10024262616E+02  0.22744335619E+00 -0.10645659221E+02  0.14624213884E+02  0.00000000000E+00 0.  1.
         11    1    1    2    0    0 -0.42511096974E+02  0.26631609002E+02  0.17349147501E+03  0.18059824990E+03  0.00000000000E+00 0. -1.
</event>
<event>
 7    1  0.2794945E-009  0.2039994E+03  0.7561462E-02  0.1146408E+00
          1   -1    0    0  501    0  0.00000000000E+00  0.00000000000E+00  0.15876846239E+04  0.15876846239E+04  0.00000000000E+00 0. -1.
         -1   -1    0    0    0  501 -0.00000000000E+00 -0.00000000000E+00 -0.34870958141E+02  0.34870958141E+02  0.00000000000E+00 0.  1.
         25    2    1    2    0    0  0.10393898392E+03 -0.16845977351E+03  0.10283208396E+04  0.10546440233E+04  0.12509300202E+03 0.  0.
          5    1    3    3  502    0  0.30184465254E+02 -0.91120053932E+02  0.75588422879E+03  0.76196614486E+03  0.41800000000E+01 0.  1.
         -5    1    3    3    0  502  0.73754518670E+02 -0.77339719578E+02  0.27243661081E+03  0.29267787849E+03  0.41800000000E+01 0.  1.
        -11    1    1    2    0    0 -0.54150448587E+02  0.40375228214E+02  0.92149924791E+02  0.11425427246E+03  0.00000000000E+00 0.  1.
         11    1    1    2    0    0 -0.49788535338E+02  0.12808454530E+03  0.43234290140E+03  0.45365728627E+03  0.00000000000E+00 0. -1.
</event>
<event>
 7    1  0.2794945E-009  0.1258309E+03  0.7561462E-02  0.1233776E+00
          2   -1    0    0  501    0  0.00000000000E+00  0.00000000000E+00  0.65980888695E+03  0.65980888695E+03  0.00000000000E+00 0. -1.
         -2   -1    0    0    0  501 -0.00000000000E+00 -0.00000000000E+00 -0.28977140756E+02  0.28977140756E+02  0.00000000000E+00 0.  1.
         25    2    1    2    0    0 -0.53850913024E+02 -0.49615222264E+02  0.45377151934E+03  0.47635883257E+03  0.12509018544E+03 0.  0.
          5    1    3    3  502    0 -0.32915179894E+02  0.34540025426E+02  0.25491674488E+03  0.25937702606E+03  0.41800000000E+01 0. -1.
         -5    1    3    3    0  502 -0.20935733130E+02 -0.84155247690E+02  0.19885477445E+03  0.21698180651E+03  0.41800000000E+01 0. -1.
        -11    1    1    2    0    0  0.49417096732E+02  0.75746667317E+02  0.12904883574E+03  0.15758556109E+03  0.00000000000E+00 0.  1.
         11    1    1    2    0    0  0.44338162917E+01 -0.26131445053E+02  0.48011391118E+02  0.54841634043E+02  0.00000000000E+00 0. -1.
</event>
<event>
 7    1  0.2794945E-009  0.1263045E+03  0.7561462E-02  0.1233045E+00
         -2   -1    0    0    0  501 -0.00000000000E+00  0.00000000000E+00  0.43119115254E+02  0.43119115254E+02  0.00000000000E+00 0.  1.
          2   -1    0    0  501    0  0.00000000000E+00 -0.00000000000E+00 -0.40860167535E+03  0.40860167535E+03  0.00000000000E+00 0. -1.
         25    2    1    2    0    0  0.63630661212E+02 -0.38971345437E+01 -0.15170445466E+03  0.20670304238E+03  0.12509139643E+03 0.  0.
          5    1    3    3  502    0  0.11353639089E+02  0.57080639317E+02 -0.48589874639E+02  0.75931237464E+02  0.41800000000E+01 0. -1.
         -5    1    3    3    0  502  0.52277022123E+02 -0.60977773861E+02 -0.10311458002E+03  0.13077180491E+03  0.41800000000E+01 0. -1.
        -11    1    1    2    0    0 -0.63551792281E+02  0.41711697735E+02 -0.17527973001E+03  0.19105412789E+03  0.00000000000E+00 0.  1.
         11    1    1    2    0    0 -0.78868931557E-01 -0.37814563192E+02 -0.38498375416E+02  0.53963620332E+02  0.00000000000E+00 0. -1.
</event>
<event>
 7    1  0.2794945E-009  0.9878047E+02  0.7561462E-02  0.1282882E+00
          2   -1    0    0  501    0  0.00000000000E+00  0.00000000000E+00  0.68114080165E+02  0.68114080165E+02  0.00000000000E+00 0. -1.
         -2   -1    0    0    0  501 -0.00000000000E+00 -0.00000000000E+00 -0.18385715512E+03  0.18385715512E+03  0.00000000000E+00 0.  1.
         25    2    1    2    0    0  0.26915887336E+02 -0.40667132653E+01 -0.57324078352E+02  0.14026584475E+03  0.12508978415E+03 0.  0.
          5    1    3    3  502    0 -0.46841681208E+02 -0.21371028689E+02 -0.29254957624E+02  0.59364879442E+02  0.41800000000E+01 0.  1.
         -5    1    3    3    0  502  0.73757568544E+02  0.17304315424E+02 -0.28069120728E+02  0.80900965311E+02  0.41800000000E+01 0.  1.
        -11    1    1    2    0    0 -0.45025504548E+02 -0.11138751016E+02 -0.71085897663E+02  0.84879754244E+02  0.00000000000E+00 0.  1.
         11    1    1    2    0    0  0.18109617212E+02  0.15205464281E+02  0.12666901063E+02  0.26825636286E+02  0.00000000000E+00 0. -1.
</event>
<event>
 7    1  0.2794945E-009  0.4509613E+02  0.7561462E-02  0.1473742E+00
          2   -1    0    0  501    0  0.00000000000E+00  0.00000000000E+00  0.10247893264E+03  0.10247893264E+03  0.00000000000E+00 0. -1.
         -2   -1    0    0    0  501 -0.00000000000E+00 -0.00000000000E+00 -0.14569776956E+03  0.14569776956E+03  0.00000000000E+00 0.  1.
         25    2    1    2    0    0 -0.73643461264E+01 -0.13291505763E+01  0.31428395236E+02  0.12919311197E+03  0.12508843239E+03 0.  0.
          5    1    3    3  502    0 -0.41819086011E+01  0.14349878259E+02  0.78126810593E+02  0.79653488932E+02  0.41800000000E+01 0.  1.
         -5    1    3    3    0  502 -0.31824375253E+01 -0.15679028836E+02 -0.46698415357E+02  0.49539623037E+02  0.41800000000E+01 0.  1.
        -11    1    1    2    0    0 -0.24978929823E+02  0.53454665125E+01  0.10647084397E+02  0.27674561487E+02  0.00000000000E+00 0. -1.
         11    1    1    2    0    0  0.32343275950E+02 -0.40163159362E+01 -0.85294316556E+02  0.91309028741E+02  0.00000000000E+00 0.  1.
</event>
<event>
 7    1  0.2794945E-009  0.8571962E+02  0.7561462E-02  0.1313561E+00
          1   -1    0    0  501    0  0.00000000000E+00  0.00000000000E+00  0.94176740415E+03  0.94176740415E+03  0.00000000000E+00 0. -1.
         -1   -1    0    0    0  501 -0.00000000000E+00 -0.00000000000E+00 -0.13676132840E+02  0.13676132840E+02  0.00000000000E+00 0.  1.
         25    2    1    2    0    0  0.10458796852E+02 -0.45307440495E+02  0.66427881631E+03  0.67755143034E+03  0.12508974523E+03 0.  0.
          5    1    3    3  502    0 -0.13222928215E+02  0.17580740989E+02  0.49308892715E+03  0.49359709355E+03  0.41800000000E+01 0.  1.
         -5    1    3    3    0  502  0.23681725067E+02 -0.62888181484E+02  0.17118988916E+03  0.18395433679E+03  0.41800000000E+01 0.  1.
        -11    1    1    2    0    0  0.18295906688E+02 -0.89078902011E+01  0.30660830181E+02  0.36799146957E+02  0.00000000000E+00 0.  1.
         11    1    1    2    0    0 -0.28754703540E+02  0.54215330696E+02  0.23315162481E+03  0.24109295969E+03  0.00000000000E+00 0. -1.
</event>
<event>
 7    1  0.2794945E-009  0.2666581E+03  0.7561462E-02  0.1103208E+00
         -2   -1    0    0    0  501 -0.00000000000E+00  0.00000000000E+00  0.17719585639E+04  0.17719585639E+04  0.00000000000E+00 0. -1.
          2   -1    0    0  501    0  0.00000000000E+00 -0.00000000000E+00 -0.44246931743E+02  0.44246931743E+02  0.00000000000E+00 0.  1.
         25    2    1    2    0    0 -0.50258963100E+02 -0.25072201114E+03  0.10143400280E+04  0.10535276823E+04  0.12508954664E+03 0.  0.
          5    1    3    3  502    0 -0.70481277026E+02 -0.18055314318E+03  0.54352797185E+03  0.57706773997E+03  0.41800000000E+01 0.  1.
         -5    1    3    3    0  502  0.20222313926E+02 -0.70168867957E+02  0.47081205619E+03  0.47645994235E+03  0.41800000000E+01 0.  1.
        -11    1    1    2    0    0 -0.15462363381E+02  0.10893042376E+03  0.23624553777E+03  0.26060866451E+03  0.00000000000E+00 0.  1.
         11    1    1    2    0    0  0.65721326480E+02  0.14179158738E+03  0.47712606636E+03  0.50206914883E+03  0.00000000000E+00 0. -1.
</event>
<event>
 7    1  0.2794945E-009  0.1080882E+03  0.7561462E-02  0.1264152E+00
         -2   -1    0    0    0  501 -0.00000000000E+00  0.00000000000E+00  0.20592098482E+03  0.20592098482E+03  0.00000000000E+00 0.  1.
          2   -1    0    0  501    0  0.00000000000E+00 -0.00000000000E+00 -0.12083730374E+03  0.12083730374E+03  0.00000000000E+00 0. -1.
         25    2    1    2    0    0  0.64337814648E+02  0.80966442192E+02 -0.13574611447E+02  0.16287888649E+03  0.12510132866E+03 0.  0.
          5    1    3    3  502    0  0.50542447924E+02  0.42175243413E+02  0.52915427370E+02  0.84562432870E+02  0.41800000000E+01 0. -1.
         -5    1    3    3    0  502  0.13795366724E+02  0.38791198779E+02 -0.66490038817E+02  0.78316453621E+02  0.41800000000E+01 0. -1.
        -11    1    1    2    0    0 -0.10709376500E+02 -0.39830303309E+02  0.85631867583E+02  0.95047149102E+02  0.00000000000E+00 0.  1.
         11    1    1    2    0    0 -0.53628438149E+02 -0.41136138883E+02  0.13026424944E+02  0.68832252958E+02  0.00000000000E+00 0. -1.
</event>
<event>
 7    1  0.2794945E-009  0.1041299E+03  0.7561462E-02  0.1271844E+00
          1   -1    0    0  501    0  0.00000000000E+00  0.00000000000E+00  0.24103753048E+03  0.24103753048E+03  0.00000000000E+00 0. -1.
         -1   -1    0    0    0  501 -0.00000000000E+00 -0.00000000000E+00 -0.57320677862E+02  0.57320677862E+02  0.00000000000E+00 0.  1.
         25    2    1    2    0    0  0.34384704152E+02  0.25362518413E+02  0.86563126424E+02  0.15800278156E+03  0.12508452703E+03 0.  0.
          5    1    3    3  502    0  0.71423077472E+01 -0.48787262993E+02  0.51667609019E+02  0.71541762712E+02  0.41800000000E+01 0. -1.
         -5    1    3    3    0  502  0.27242396405E+02  0.74149781406E+02  0.34895517405E+02  0.86461018843E+02  0.41800000000E+01 0. -1.
        -11    1    1    2    0    0  0.18919649962E+02 -0.17530002230E+02 -0.36574906203E+01  0.26050554131E+02  0.00000000000E+00 0.  1.
         11    1    1    2    0    0 -0.53304354115E+02 -0.78325161830E+01  0.10081121681E+03  0.11430487265E+03  0.00000000000E+00 0. -1.
</event>
<event>
 7    1  0.2794945E-009  0.1416758E+03  0.7561462E-02  0.1211092E+00
         -1   -1    0    0    0  501 -0.00000000000E+00  0.00000000000E+00  0.27870496151E+03  0.27870496151E+03  0.00000000000E+00 0.  1.
          1   -1    0    0  501    0  0.00000000000E+00 -0.00000000000E+00 -0.11452814510E+03  0.11452814510E+03  0.00000000000E+00 0. -1.
         25    2    1    2    0    0  0.13639523490E+02  0.89358355574E+02 -0.32580565492E+02  0.15772815744E+03  0.12508287689E+03 0.  0.
          5    1    3    3  502    0  0.35214095965E+02  0.11490169250E+03 -0.29992508459E+02  0.12393326614E+03  0.41800000000E+01 0.  1.
         -5    1    3    3    0  502 -0.21574572475E+02 -0.25543336924E+02 -0.25880570332E+01  0.33794891299E+02  0.41800000000E+01 0.  1.
        -11    1    1    2    0    0  0.18092067354E+02 -0.95403867757E+02  0.14901253514E+03  0.17785937285E+03  0.00000000000E+00 0. -1.
         11    1    1    2    0    0 -0.31731590845E+02  0.60455121832E+01  0.47744846773E+02  0.57645576313E+02  0.00000000000E+00 0.  1.
</event>
<event>
 7    1  0.2794945E-009  0.8742444E+02  0.7561462E-02  0.1309211E+00
         -2   -1    0    0    0  501 -0.00000000000E+00  0.00000000000E+00  0.28949513926E+02  0.28949513926E+02  0.00000000000E+00 0.  1.
          2   -1    0    0  501    0  0.00000000000E+00 -0.00000000000E+00 -0.66980100594E+03  0.66980100594E+03  0.00000000000E+00 0. -1.
         25    2    1    2    0    0 -0.72923913910E+02  0.77323989575E+01 -0.23490910908E+03  0.27605344696E+03  0.12508208839E+03 0.  0.
          5    1    3    3  502    0 -0.25437228302E+01 -0.11759437239E+01  0.15217187401E+02  0.16027743505E+02  0.41800000000E+01 0.  1.
         -5    1    3    3    0  502 -0.70380191080E+02  0.89083426814E+01 -0.25012629648E+03  0.26002570346E+03  0.41800000000E+01 0.  1.
        -11    1    1    2    0    0 -0.55197618633E+01  0.15895605411E+02 -0.12887081135E+02  0.21194690434E+02  0.00000000000E+00 0.  1.
         11    1    1    2    0    0  0.78443675774E+02 -0.23628004369E+02 -0.39305530179E+03  0.40150238247E+03  0.00000000000E+00 0. -1.
</event>
<event>
 7    1  0.2794945E-009  0.1406439E+03  0.7561462E-02  0.1212465E+00
         -1   -1    0    0    0  501 -0.00000000000E+00  0.00000000000E+00  0.10246485482E+03  0.10246485482E+03  0.00000000000E+00 0.  1.
          1   -1    0    0  501    0  0.00000000000E+00 -0.00000000000E+00 -0.23996940141E+03  0.23996940141E+03  0.00000000000E+00 0. -1.
         25    2    1    2    0    0  0.21200335211E+01  0.10812669245E+03 -0.35923146255E+02  0.16921922166E+03  0.12509514930E+03 0.  0.
          5    1    3    3  502    0  0.55021510249E+02  0.60129545039E+02  0.12861303493E+02  0.82618486456E+02  0.41800000000E+01 0.  1.
         -5    1    3    3    0  502 -0.52901476728E+02  0.47997147416E+02 -0.48784449747E+02  0.86600735200E+02  0.41800000000E+01 0.  1.
        -11    1    1    2    0    0 -0.28859128305E+02 -0.17763983827E+02  0.10211792143E+01  0.33903557555E+02  0.00000000000E+00 0. -1.
         11    1    1    2    0    0  0.26739094784E+02 -0.90362708628E+02 -0.10260257954E+03  0.13931147702E+03  0.00000000000E+00 0.  1.
</event>
<event>
 7    1  0.2794945E-009  0.1012951E+03  0.7561462E-02  0.1277596E+00
          2   -1    0    0  501    0  0.00000000000E+00  0.00000000000E+00  0.24924151932E+02  0.24924151932E+02  0.00000000000E+00 0. -1.
         -2   -1    0    0    0  501 -0.00000000000E+00 -0.00000000000E+00 -0.60667680431E+03  0.60667680431E+03  0.00000000000E+00 0.  1.
         25    2    1    2    0    0 -0.60212807591E+01 -0.55920288457E+02 -0.35865071026E+03  0.38397961911E+03  0.12508669570E+03 0.  0.
          5    1    3    3  502    0  0.41713915166E+02  0.76164749962E+01 -0.52291796269E+02  0.67453434063E+02  0.41800000000E+01 0.  1.
         -5    1    3    3    0  502 -0.47735195925E+02 -0.63536763453E+02 -0.30635891399E+03  0.31652618505E+03  0.41800000000E+01 0.  1.
        -11    1    1    2    0    0 -0.16691095909E+02  0.55209203513E+02 -0.21636431956E+03  0.22392000271E+03  0.00000000000E+00 0.  1.
         11    1    1    2    0    0  0.22712376668E+02  0.71108494353E+00 -0.67376225638E+01  0.23701334425E+02  0.00000000000E+00 0. -1.
</event>
<event>
 7    1  0.2794945E-009  0.8637300E+02  0.7561462E-02  0.1311881E+00
          2   -1    0    0  501    0  0.00000000000E+00  0.00000000000E+00  0.38717107780E+03  0.38717107780E+03  0.00000000000E+00 0. -1.
         -2   -1    0    0    0  501 -0.00000000000E+00 -0.00000000000E+00 -0.42110667449E+02  0.42110667449E+02  0.00000000000E+00 0.  1.
         25    2    1    2    0    0  0.52413452831E+02 -0.33100298494E+02  0.14728834324E+03  0.20293672595E+03  0.12508660556E+03 0.  0.
          5    1    3    3  502    0  0.16373873368E+02 -0.95854432909E+01 -0.21336974333E+02  0.28856945886E+02  0.41800000000E+01 0.  1.
         -5    1    3    3    0  502  0.36039579463E+02 -0.23514855203E+02  0.16862531757E+03  0.17407978007E+03  0.41800000000E+01 0.  1.
        -11    1    1    2    0    0  0.26284752117E+02  0.78027949170E+01  0.49001703144E+02  0.56151034838E+02  0.00000000000E+00 0.  1.
         11    1    1    2    0    0 -0.78698204948E+02  0.25297503577E+02  0.14877036397E+03  0.17019398446E+03  0.00000000000E+00 0. -1.
</event>
<event>
 7    1  0.2794945E-009  0.1056780E+03  0.7561462E-02  0.1268789E+00
         -2   -1    0    0    0  501 -0.00000000000E+00  0.00000000000E+00  0.26582248562E+02  0.26582248562E+02  0.00000000000E+00 0.  1.
          2   -1    0    0  501    0  0.00000000000E+00 -0.00000000000E+00 -0.52481966177E+03  0.52481966177E+03  0.00000000000E+00 0. -1.
         25    2    1    2    0    0  0.25925500636E+02  0.21296337811E+02 -0.23794523800E+03  0.27090677350E+03  0.12508748160E+03 0.  0.
          5    1    3    3  502    0  0.63437871009E+02  0.13341036984E+00 -0.20995786930E+03  0.21937219641E+03  0.41800000000E+01 0. -1.
         -5    1    3    3    0  502 -0.37512370373E+02  0.21162927441E+02 -0.27987368696E+02  0.51534577086E+02  0.41800000000E+01 0. -1.
        -11    1    1    2    0    0 -0.40411657692E+02 -0.54752034674E+02 -0.17190574804E+03  0.18488502802E+03  0.00000000000E+00 0.  1.
         11    1    1    2    0    0  0.14486157056E+02  0.33455696863E+02 -0.88386427175E+02  0.95610108815E+02  0.00000000000E+00 0. -1.
</event>
<event>
 7    1  0.2794945E-009  0.9898785E+02  0.7561462E-02  0.1282439E+00
         -2   -1    0    0    0  501 -0.00000000000E+00  0.00000000000E+00  0.32844482751E+02  0.32844482751E+02  0.00000000000E+00 0.  1.
          2   -1    0    0  501    0  0.00000000000E+00 -0.00000000000E+00 -0.36062278738E+03  0.36062278738E+03  0.00000000000E+00 0. -1.
         25    2    1    2    0    0  0.78932510858E+01  0.26346435859E+01 -0.21574977599E+03  0.24952889185E+03  0.12508979683E+03 0.  0.
          5    1    3    3  502    0  0.61070793862E+02  0.14469693669E+02 -0.15783934900E+03  0.16991099549E+03  0.41800000000E+01 0.  1.
         -5    1    3    3    0  502 -0.53177542776E+02 -0.11835050084E+02 -0.57910426991E+02  0.79617896358E+02  0.41800000000E+01 0.  1.
        -11    1    1    2    0    0  0.30590949457E+02 -0.21682887201E+02 -0.85764291113E+02  0.93602710517E+02  0.00000000000E+00 0.  1.
         11    1    1    2    0    0 -0.38484200542E+02  0.19048243615E+02 -0.26264237530E+02  0.50335667764E+02  0.00000000000E+00 0. -1.
</event>
<event>
 7    1  0.2794945E-009  0.7944569E+02  0.7561462E-02  0.1330632E+00
          1   -1    0    0  501    0  0.00000000000E+00  0.00000000000E+00  0.68390315435E+03  0.68390315435E+03  0.00000000000E+00 0. -1.
         -1   -1    0    0    0  501 -0.00000000000E+00 -0.00000000000E+00 -0.21240631482E+02  0.21240631482E+02  0.00000000000E+00 0.  1.
         25    2    1    2    0    0 -0.13909629641E+02  0.12646599252E+02  0.49481847294E+03  0.51073111590E+03  0.12509011678E+03 0.  0.
          5    1    3    3  502    0 -0.23673379552E+02  0.36561888182E+02  0.55691888321E+02  0.70825556063E+02  0.41800000000E+01 0. -1.
         -5    1    3    3    0  502  0.97637499109E+01 -0.23915288930E+02  0.43912658462E+03  0.43990555983E+03  0.41800000000E+01 0. -1.
        -11    1    1    2    0    0 -0.21252658233E+02 -0.39411715861E+02  0.43409850431E+02  0.62364845414E+02  0.00000000000E+00 0.  1.
         11    1    1    2    0    0  0.35162287873E+02  0.26765116609E+02  0.12443419950E+03  0.13204782452E+03  0.00000000000E+00 0. -1.
</event>
<event>
 7    1  0.2794945E-009  0.1070823E+03  0.7561462E-02  0.1266070E+00
         -2   -1    0    0    0  501 -0.00000000000E+00  0.00000000000E+00  0.19872886618E+02  0.19872886618E+02  0.00000000000E+00 0.  1.
          2   -1    0    0  501    0  0.00000000000E+00 -0.00000000000E+00 -0.11634594282E+04  0.11634594282E+04  0.00000000000E+00 0. -1.
         25    2    1    2    0    0 -0.54737859233E+02 -0.65201721690E+02 -0.86894727461E+03  0.88202518979E+03  0.12510624135E+03 0.  0.
          5    1    3    3  502    0  0.80562207378E+01  0.82170065564E+01 -0.59235181758E+01  0.13600821920E+02  0.41800000000E+01 0.  1.
         -5    1    3    3    0  502 -0.62794079971E+02 -0.73418728246E+02 -0.86302375644E+03  0.86842436787E+03  0.41800000000E+01 0.  1.
        -11    1    1    2    0    0  0.40801980389E+02  0.23786331452E+01 -0.19338949148E+03  0.19766121247E+03  0.00000000000E+00 0. -1.
         11    1    1    2    0    0  0.13935878844E+02  0.62823088545E+02 -0.81249775490E+02  0.10364591256E+03  0.00000000000E+00 0.  1.
</event>
<event>
 7    1  0.2794945E-009  0.1095225E+03  0.7561462E-02  0.1261457E+00
          1   -1    0    0  501    0  0.00000000000E+00  0.00000000000E+00  0.87401813479E+02  0.87401813479E+02  0.00000000000E+00 0. -1.
         -1   -1    0    0    0  501 -0.00000000000E+00 -0.00000000000E+00 -0.17582914186E+03  0.17582914186E+03  0.00000000000E+00 0.  1.
         25    2    1    2    0    0 -0.57736627070E+02  0.20103661834E+02 -0.57951175864E+02  0.15080967652E+03  0.12509014519E+03 0.  0.
          5    1    3    3  502    0  0.30284567926E+02 -0.13696400929E+02 -0.44157707645E+02  0.55426726381E+02  0.41800000000E+01 0. -1.
         -5    1    3    3    0  502 -0.88021194995E+02  0.33800062764E+02 -0.13793468219E+02  0.95382950137E+02  0.41800000000E+01 0. -1.
        -11    1    1    2    0    0  0.43781339713E+02  0.20417489907E+02  0.14359823437E+02  0.50397263123E+02  0.00000000000E+00 0.  1.
         11    1    1    2    0    0  0.13955287356E+02 -0.40521151741E+02 -0.44835975954E+02  0.62024015698E+02  0.00000000000E+00 0. -1.
</event>
<event>
 7    1  0.2794945E-009  0.1211040E+03  0.7561462E-02  0.1241287E+00
         -1   -1    0    0    0  501 -0.00000000000E+00  0.00000000000E+00  0.24737318525E+03  0.24737318525E+03  0.00000000000E+00 0.  1.
          1   -1    0    0  501    0  0.00000000000E+00 -0.00000000000E+00 -0.73644779049E+02  0.73644779049E+02  0.00000000000E+00 0. -1.
         25    2    1    2    0    0 -0.45789801573E+02 -0.38087997231E+02  0.30797229504E+02  0.14192912400E+03  0.12509198789E+03 0.  0.
          5    1    3    3  502    0  0.11817290958E+02 -0.68288814738E+02  0.32653263605E+02  0.76724954272E+02  0.41800000000E+01 0. -1.
         -5    1    3    3    0  502 -0.57607092531E+02  0.30200817507E+02 -0.18560341018E+01  0.65204169733E+02  0.41800000000E+01 0. -1.
        -11    1    1    2    0    0  0.34340340631E+01 -0.28487415561E+02  0.44253059011E+02  0.52741432168E+02  0.00000000000E+00 0.  1.
         11    1    1    2    0    0  0.42355767510E+02  0.66575412792E+02  0.98678117683E+02  0.12634740812E+03  0.00000000000E+00 0. -1.
</event>
<event>
 7    1  0.2794945E-009  0.2786644E+03  0.7561462E-02  0.1096421E+00
         -2   -1    0    0    0  501 -0.00000000000E+00  0.00000000000E+00  0.14075948886E+04  0.14075948886E+04  0.00000000000E+00 0.  1.
          2   -1    0    0  501    0  0.00000000000E+00 -0.00000000000E+00 -0.59240654143E+02  0.59240654143E+02  0.00000000000E+00 0. -1.
         25    2    1    2    0    0  0.26083433201E+03  0.54464037078E+02  0.74421020846E+03  0.80031112393E+03  0.12509268812E+03 0.  0.
          5    1    3    3  502    0  0.10484922132E+02  0.20594890971E+02  0.18728249208E+03  0.18874927117E+03  0.41800000000E+01 0.  1.
         -5    1    3    3    0  502  0.25034940988E+03  0.33869146107E+02  0.55692771638E+03  0.61156185276E+03  0.41800000000E+01 0.  1.
        -11    1    1    2    0    0 -0.18538994861E+03  0.44712518976E+01  0.38220742322E+03  0.42481989066E+03  0.00000000000E+00 0. -1.
         11    1    1    2    0    0 -0.75444383407E+02 -0.58935288976E+02  0.22193660275E+03  0.24170452812E+03  0.00000000000E+00 0.  1.
</event>
<event>
 7    1  0.2794945E-009  0.6545418E+02  0.7561462E-02  0.1376271E+00
          1   -1    0    0  501    0  0.00000000000E+00  0.00000000000E+00  0.12354518234E+04  0.12354518234E+04  0.00000000000E+00 0.  1.
         -1   -1    0    0    0  501 -0.00000000000E+00 -0.00000000000E+00 -0.10369464028E+02  0.10369464028E+02  0.00000000000E+00 0. -1.
         25    2    1    2    0    0 -0.27212883531E+01 -0.28778406199E+02  0.78866342384E+03  0.79904521391E+03  0.12509058995E+03 0.  0.
          5    1    3    3  502    0  0.97010417690E+00  0.25090756803E+01 -0.36044918628E+01  0.61401404278E+01  0.41800000000E+01 0.  1.
         -5    1    3    3    0  502 -0.36913925300E+01 -0.31287481879E+02  0.79226791570E+03  0.79290507348E+03  0.41800000000E+01 0.  1.
        -11    1    1    2    0    0  0.40912838683E+02  0.36918590390E+02  0.29293230432E+03  0.29807075938E+03  0.00000000000E+00 0. -1.
         11    1    1    2    0    0 -0.38191550329E+02 -0.81401841918E+01  0.14348663120E+03  0.14870531412E+03  0.00000000000E+00 0.  1.
</event>
<event>
 7    1  0.2794945E-009  0.1695879E+03  0.7561462E-02  0.1178278E+00
          1   -1    0    0  501    0  0.00000000000E+00  0.00000000000E+00  0.17708775593E+03  0.17708775593E+03  0.00000000000E+00 0. -1.
         -1   -1    0    0    0  501 -0.00000000000E+00 -0.00000000000E+00 -0.16838188611E+03  0.16838188611E+03  0.00000000000E+00 0.  1.
         25    2    1    2    0    0  0.44652855644E+02 -0.54048402147E+02  0.92374337359E+01  0.14369189105E+03  0.12508765759E+03 0.  0.
          5    1    3    3  502    0  0.67846940625E+02  0.15667293589E+02  0.63016424262E+01  0.70041805644E+02  0.41800000000E+01 0. -1.
         -5    1    3    3    0  502 -0.23194084982E+02 -0.69715695736E+02  0.29357913097E+01  0.73650085409E+02  0.41800000000E+01 0. -1.
        -11    1    1    2    0    0 -0.45204573676E+02 -0.63681826891E+02 -0.24061873764E+02  0.81717821351E+02  0.00000000000E+00 0.  1.
         11    1    1    2    0    0  0.55171803237E+00  0.11773022904E+03  0.23530309851E+02  0.12005992963E+03  0.00000000000E+00 0. -1.
</event>
<event>
 7    1  0.2794945E-009  0.1670209E+03  0.7561462E-02  0.1180991E+00
          1   -1    0    0  501    0  0.00000000000E+00  0.00000000000E+00  0.13638112575E+03  0.13638112575E+03  0.00000000000E+00 0. -1.
         -1   -1    0    0    0  501 -0.00000000000E+00 -0.00000000000E+00 -0.21687541865E+03  0.21687541865E+03  0.00000000000E+00 0.  1.
         25    2    1    2    0    0 -0.90360089429E+02  0.97045278693E+02 -0.40133391824E+02  0.18665646995E+03  0.12508883546E+03 0.  0.
          5    1    3    3  502    0 -0.10749881726E+03  0.37309327460E+02 -0.48587407591E+02  0.12379899113E+03  0.41800000000E+01 0.  1.
         -5    1    3    3    0  502  0.17138727831E+02  0.59735951233E+02  0.84540157675E+01  0.62857478822E+02  0.41800000000E+01 0.  1.
        -11    1    1    2    0    0  0.23862633324E+02  0.14575625533E+02 -0.21582804388E+02  0.35322677900E+02  0.00000000000E+00 0. -1.
         11    1    1    2    0    0  0.66497456105E+02 -0.11162090423E+03 -0.18778096686E+02  0.13127739655E+03  0.00000000000E+00 0.  1.
</event>
<event>
 7    1  0.2794945E-009  0.2288504E+03  0.7561462E-02  0.1127451E+00
          2   -1    0    0  501    0  0.00000000000E+00  0.00000000000E+00  0.68243028890E+03  0.68243028890E+03  0.00000000000E+00 0. -1.
         -2   -1    0    0    0  501 -0.00000000000E+00 -0.00000000000E+00 -0.10166883376E+03  0.10166883376E+03  0.00000000000E+00 0.  1.
         25    2    1    2    0    0 -0.23840192203E+01  0.22312707679E+03  0.42895516486E+03  0.49943987804E+03  0.12508510051E+03 0.  0.
          5    1    3    3  502    0  0.20849545424E+02  0.11544339946E+03  0.10590874701E+03  0.15810128752E+03  0.41800000000E+01 0.  1.
         -5    1    3    3    0  502 -0.23233564645E+02  0.10768367733E+03  0.32304641785E+03  0.34133859052E+03  0.41800000000E+01 0.  1.
        -11    1    1    2    0    0 -0.18027203221E+02 -0.19204778397E+03  0.15484237053E+03  0.24735296865E+03  0.00000000000E+00 0. -1.
         11    1    1    2    0    0  0.20411222441E+02 -0.31079292816E+02 -0.30360802595E+01  0.37306275971E+02  0.00000000000E+00 0.  1.
</event>
<event>
 7    1  0.2794945E-009  0.1849900E+03  0.7561462E-02  0.1163059E+00
          2   -1    0    0  501    0  0.00000000000E+00  0.00000000000E+00  0.73736524053E+03  0.73736524053E+03  0.00000000000E+00 0. -1.
         -2   -1    0    0    0  501 -0.00000000000E+00 -0.00000000000E+00 -0.54678577846E+02  0.54678577846E+02  0.00000000000E+00 0.  1.
         25    2    1    2    0    0 -0.77119431833E+02  0.13959627944E+03  0.46594052076E+03  0.50811671891E+03  0.12508998022E+03 0.  0.
          5    1    3    3  502    0 -0.44613448738E+02 -0.11357049876E+02  0.79741301801E+02  0.92170982435E+02  0.41800000000E+01 0.  1.
         -5    1    3    3    0  502 -0.32505983095E+02  0.15095332931E+03  0.38619921896E+03  0.41594573648E+03  0.41800000000E+01 0.  1.
        -11    1    1    2    0    0 -0.55165663758E+01 -0.37652796457E+02  0.10459640242E+03  0.11130396662E+03  0.00000000000E+00 0. -1.
         11    1    1    2    0    0  0.82635998209E+02 -0.10194348298E+03  0.11214973950E+03  0.17262313284E+03  0.00000000000E+00 0.  1.
</event>
<event>
 7    1  0.2794945E-009  0.9113551E+02  0.7561462E-02  0.1300125E+00
          2   -1    0    0  501    0  0.00000000000E+00  0.00000000000E+00  0.81386071691E+02  0.81386071691E+02  0.00000000000E+00 0. -1.
         -2   -1    0    0    0  501 -0.00000000000E+00 -0.00000000000E+00 -0.16226360412E+03  0.16226360412E+03  0.00000000000E+00 0.  1.
         25    2    1    2    0    0 -0.19081009827E+01 -0.35660633227E+02 -0.32955103560E+02  0.13418722412E+03  0.12507937742E+03 0.  0.
          5    1    3    3  502    0  0.60036956277E+02 -0.26060402817E+02 -0.61040083334E+01  0.65865863934E+02  0.41800000000E+01 0. -1.
         -5    1    3    3    0  502 -0.61945057260E+02 -0.96002304094E+01 -0.26851095227E+02  0.68321360186E+02  0.41800000000E+01 0. -1.
        -11    1    1    2    0    0 -0.76810308732E+01  0.41786118394E+02 -0.71563790876E+02  0.83225321209E+02  0.00000000000E+00 0.  1.
         11    1    1    2    0    0  0.95891318559E+01 -0.61254851673E+01  0.23641362009E+02  0.26237130482E+02  0.00000000000E+00 0. -1.
</event>
<event>
 7    1  0.2794945E-009  0.7386853E+02  0.7561462E-02  0.1347411E+00
          3   -1    0    0  501    0  0.00000000000E+00  0.00000000000E+00  0.22475262087E+03  0.22475262087E+03  0.00000000000E+00 0. -1.
         -3   -1    0    0    0  501 -0.00000000000E+00 -0.00000000000E+00 -0.57995697979E+02  0.57995697979E+02  0.00000000000E+00 0.  1.
         25    2    1    2    0    0 -0.45721217107E+01 -0.31553657441E+02  0.11627032723E+03  0.17373448432E+03  0.12509334296E+03 0.  0.
          5    1    3    3  502    0 -0.22187147497E+02 -0.46041023237E+02  0.13469019838E+03  0.14412136300E+03  0.41800000000E+01 0.  1.
         -5    1    3    3    0  502  0.17615025786E+02  0.14487365796E+02 -0.18419871145E+02  0.29613121317E+02  0.41800000000E+01 0.  1.
        -11    1    1    2    0    0 -0.30340323720E+02  0.20629608363E+02  0.60794535218E+02  0.71007686183E+02  0.00000000000E+00 0. -1.
         11    1    1    2    0    0  0.34912445430E+02  0.10924049078E+02 -0.10307939560E+02  0.38006148347E+02  0.00000000000E+00 0.  1.
</event>
<event>
 7    1  0.2794945E-009  0.2066669E+03  0.7561462E-02  0.1144233E+00
          1   -1    0    0  501    0  0.00000000000E+00  0.00000000000E+00  0.84854492679E+03  0.84854492679E+03  0.00000000000E+00 0. -1.
         -1   -1    0    0    0  501 -0.00000000000E+00 -0.00000000000E+00 -0.91768189090E+02  0.91768189090E+02  0.00000000000E+00 0.  1.
         25    2    1    2    0    0  0.37130198345E+02 -0.17463533048E+03  0.76407611753E+02  0.23100177935E+03  0.12509016208E+03 0.  0.
          5    1    3    3  502    0 -0.41268862681E+02 -0.96627750844E+02  0.53493530381E+02  0.11797911448E+03  0.41800000000E+01 0. -1.
         -5    1    3    3    0  502  0.78399061025E+02 -0.78007579636E+02  0.22914081371E+02  0.11302266487E+03  0.41800000000E+01 0. -1.
        -11    1    1    2    0    0  0.19119243360E+01  0.15271831732E+03  0.46862445360E+03  0.49288479223E+03  0.00000000000E+00 0.  1.
         11    1    1    2    0    0 -0.39042122681E+02  0.21917013162E+02  0.21174467235E+03  0.21642654430E+03  0.00000000000E+00 0. -1.
</event>
<event>
 7    1  0.2794945E-009  0.1074213E+03  0.7561462E-02  0.1265421E+00
         -2   -1    0    0    0  501 -0.00000000000E+00  0.00000000000E+00  0.71019575969E+02  0.71019575969E+02  0.00000000000E+00 0.  1.
          2   -1    0    0  501    0  0.00000000000E+00 -0.00000000000E+00 -0.25228282570E+03  0.25228282570E+03  0.00000000000E+00 0. -1.
         25    2    1    2    0    0  0.49759873189E+02  0.52983527317E+02 -0.65667696590E+02  0.15888417090E+03  0.12509450124E+03 0.  0.
          5    1    3    3  502    0  0.68820477316E+02  0.71580081524E+02 -0.13678280915E+02  0.10032215078E+03  0.41800000000E+01 0. -1.
         -5    1    3    3    0  502 -0.19060604127E+02 -0.18596554207E+02 -0.51989415675E+02  0.58562020118E+02  0.41800000000E+01 0. -1.
        -11    1    1    2    0    0 -0.59814015485E+02 -0.50149679931E+02 -0.12692657432E+03  0.14900691969E+03  0.00000000000E+00 0. -1.
         11    1    1    2    0    0  0.10054142296E+02 -0.28338473867E+01  0.11331021179E+02  0.15411311082E+02  0.00000000000E+00 0.  1.
</event>
<event>
 7    1  0.2794945E-009  0.1168332E+03  0.7561462E-02  0.1248415E+00
          1   -1    0    0  501    0  0.00000000000E+00  0.00000000000E+00  0.34689810086E+03  0.34689810086E+03  0.00000000000E+00 0. -1.
         -1   -1    0    0    0  501 -0.00000000000E+00 -0.00000000000E+00 -0.52322992640E+02  0.52322992640E+02  0.00000000000E+00 0.  1.
         25    2    1    2    0    0 -0.58289685435E+02  0.31450209937E+02  0.22370997053E+03  0.26472762077E+03  0.12509100347E+03 0.  0.
          5    1    3    3  502    0 -0.96215359544E+02  0.12191912210E+02  0.13522499844E+03  0.16646113882E+03  0.41800000000E+01 0.  1.
         -5    1    3    3    0  502  0.37925674109E+02  0.19258297727E+02  0.88484972087E+02  0.98266481942E+02  0.41800000000E+01 0.  1.
        -11    1    1    2    0    0  0.29579263195E+02  0.19458057540E+02  0.67170953975E+02  0.75930796600E+02  0.00000000000E+00 0. -1.
         11    1    1    2    0    0  0.28710422239E+02 -0.50908267477E+02  0.36941837182E+01  0.58562676134E+02  0.00000000000E+00 0.  1.
</event>
<event>
 7    1  0.2794945E-009  0.1413065E+03  0.7561462E-02  0.1211582E+00
          1   -1    0    0  501    0  0.00000000000E+00  0.00000000000E+00  0.34362876274E+03  0.34362876274E+03  0.00000000000E+00 0. -1.
         -1   -1    0    0    0  501 -0.00000000000E+00 -0.00000000000E+00 -0.74855603160E+02  0.74855603160E+02  0.00000000000E+00 0.  1.
         25    2    1    2    0    0 -0.28604426229E+02 -0.11305783830E+03  0.17156083514E+03  0.24223963717E+03  0.12508650472E+03 0.  0.
          5    1    3    3  502    0 -0.31933810449E+02 -0.13717509182E+03  0.12004776999E+03  0.18511000390E+03  0.41800000000E+01 0.  1.
         -5    1    3    3    0  502  0.33293842200E+01  0.24117253520E+02  0.51513065151E+02  0.57129633273E+02  0.41800000000E+01 0.  1.
        -11    1    1    2    0    0  0.97277368570E+01  0.22688367543E+02 -0.16561733904E+02  0.29726787852E+02  0.00000000000E+00 0.  1.
         11    1    1    2    0    0  0.18876689372E+02  0.90369470755E+02  0.11377405834E+03  0.14651794087E+03  0.00000000000E+00 0. -1.
</event>
<event>
 7    1  0.2794945E-009  0.2941142E+03  0.7561462E-02  0.1088220E+00
          2   -1    0    0  501    0  0.00000000000E+00  0.00000000000E+00  0.33131197419E+03  0.33131197419E+03  0.00000000000E+00 0. -1.
         -2   -1    0    0    0  501 -0.00000000000E+00 -0.00000000000E+00 -0.28673403188E+03  0.28673403188E+03  0.00000000000E+00 0.  1.
         25    2    1    2    0    0  0.12449339266E+03  0.25630800618E+03 -0.21818144360E+02  0.31195512498E+03  0.12509024635E+03 0.  0.
          5    1    3    3  502    0  0.32786445316E+02  0.14117139793E+03 -0.64427779032E+02  0.15865914944E+03  0.41800000000E+01 0. -1.
         -5    1    3    3    0  502  0.91706947342E+02  0.11513660825E+03  0.42609634673E+02  0.15329597554E+03  0.41800000000E+01 0. -1.
        -11    1    1    2    0    0 -0.75020714771E+02 -0.67887255162E+02  0.29783429826E+01  0.10122083573E+03  0.00000000000E+00 0. -1.
         11    1    1    2    0    0 -0.49472677887E+02 -0.18842075102E+03  0.63417743684E+02  0.20487004536E+03  0.00000000000E+00 0.  1.
</event>
<event>
 7    1  0.2794945E-009  0.1107919E+03  0.7561462E-02  0.1259110E+00
         -2   -1    0    0    0  501 -0.00000000000E+00  0.00000000000E+00  0.21280391650E+02  0.21280391650E+02  0.00000000000E+00 0. -1.
          2   -1    0    0  501    0  0.00000000000E+00 -0.00000000000E+00 -0.10416380726E+04  0.10416380726E+04  0.00000000000E+00 0.  1.
         25    2    1    2    0    0  0.12966656272E+02  0.72712834970E+02 -0.80542214688E+03  0.81841762701E+03  0.12508911616E+03 0.  0.
          5    1    3    3  502    0  0.34512026873E+02  0.62568863346E+01 -0.59320529167E+02  0.69040757572E+02  0.41800000000E+01 0. -1.
         -5    1    3    3    0  502 -0.21545370600E+02  0.66455948635E+02 -0.74610161771E+03  0.74937686944E+03  0.41800000000E+01 0. -1.
        -11    1    1    2    0    0 -0.49238342071E+02 -0.60495749744E+02 -0.15187383437E+03  0.17073315915E+03  0.00000000000E+00 0.  1.
         11    1    1    2    0    0  0.36271685798E+02 -0.12217085226E+02 -0.63061699748E+02  0.73767678133E+02  0.00000000000E+00 0. -1.
</event>
<event>
 7    1  0.2794945E-009  0.1173496E+03  0.7561462E-02  0.1247535E+00
          2   -1    0    0  501    0  0.00000000000E+00  0.00000000000E+00  0.45266113843E+03  0.45266113843E+03  0.00000000000E+00 0. -1.
         -2   -1    0    0    0  501 -0.00000000000E+00 -0.00000000000E+00 -0.62368613104E+02  0.62368613104E+02  0.00000000000E+00 0.  1.
         25    2    1    2    0    0 -0.23989198231E+02 -0.58076228455E+02  0.36460468258E+02  0.14465356102E+03  0.12508779728E+03 0.  0.
          5    1    3    3  502    0 -0.38791255667E+02  0.28915878656E+02 -0.13000724839E+01  0.48580367878E+02  0.41800000000E+01 0. -1.
         -5    1    3    3    0  502  0.14802057436E+02 -0.86992107111E+02  0.37760540742E+02  0.96073193145E+02  0.41800000000E+01 0. -1.
        -11    1    1    2    0    0  0.42435825975E+02  0.63884645199E+01  0.76948478721E+02  0.88106073472E+02  0.00000000000E+00 0.  1.
         11    1    1    2    0    0 -0.18446627744E+02  0.51687763935E+02  0.27688357835E+03  0.28227011704E+03  0.00000000000E+00 0. -1.
</event>
<event>
 7    1  0.2794945E-009  0.1743677E+03  0.7561462E-02  0.1173368E+00
         -1   -1    0    0    0  501 -0.00000000000E+00  0.00000000000E+00  0.84808392971E+02  0.84808392971E+02  0.00000000000E+00 0.  1.
          1   -1    0    0  501    0  0.00000000000E+00 -0.00000000000E+00 -0.40804607369E+03  0.40804607369E+03  0.00000000000E+00 0. -1.
         25    2    1    2    0    0 -0.13484318881E+03 -0.23403743792E+01 -0.16682435975E+03  0.24832734876E+03  0.12509173520E+03 0.  0.
          5    1    3    3  502    0  0.30360625571E-01  0.28171738415E+02  0.37244079204E+01  0.28722663203E+02  0.41800000000E+01 0. -1.
         -5    1    3    3    0  502 -0.13487354944E+03 -0.30512112794E+02 -0.17054876767E+03  0.21960468555E+03  0.41800000000E+01 0. -1.
        -11    1    1    2    0    0  0.18656101400E+02  0.52232271906E+02 -0.78110314545E+02  0.95799173202E+02  0.00000000000E+00 0.  1.
         11    1    1    2    0    0  0.11618708741E+03 -0.49891897526E+02 -0.78303006431E+02  0.14872794471E+03  0.00000000000E+00 0. -1.
</event>
<event>
 7    1  0.2794945E-009  0.1529274E+03  0.7561462E-02  0.1196921E+00
         -3   -1    0    0    0  501 -0.00000000000E+00  0.00000000000E+00  0.15254780452E+03  0.15254780452E+03  0.00000000000E+00 0.  1.
          3   -1    0    0  501    0  0.00000000000E+00 -0.00000000000E+00 -0.17703913753E+03  0.17703913753E+03  0.00000000000E+00 0. -1.
         25    2    1    2    0    0  0.12283043146E+03  0.12623771401E+02 -0.17575044657E+02  0.17664388488E+03  0.12508998911E+03 0.  0.
          5    1    3    3  502    0  0.61967634288E+02 -0.55533568621E+02 -0.17684910304E+02  0.85171552736E+02  0.41800000000E+01 0. -1.
         -5    1    3    3    0  502  0.60862797169E+02  0.68157340022E+02  0.10986564779E+00  0.91472332148E+02  0.41800000000E+01 0. -1.
        -11    1    1    2    0    0 -0.88511532577E+02  0.11304017366E+02  0.32982403699E+02  0.95131021026E+02  0.00000000000E+00 0.  1.
         11    1    1    2    0    0 -0.34318898880E+02 -0.23927788767E+02 -0.39898692047E+02  0.57812036140E+02  0.00000000000E+00 0. -1.
</event>
<event>
 7    1  0.2794945E-009  0.8917512E+02  0.7561462E-02  0.1304862E+00
          3   -1    0    0  501    0  0.00000000000E+00  0.00000000000E+00  0.10870624356E+04  0.10870624356E+04  0.00000000000E+00 0. -1.
         -3   -1    0    0    0  501 -0.00000000000E+00 -0.00000000000E+00 -0.11068368474E+02  0.11068368474E+02  0.00000000000E+00 0.  1.
         25    2    1    2    0    0  0.90904471492E+01  0.55657825246E+00  0.69250857759E+03  0.70377390023E+03  0.12508647651E+03 0.  0.
          5    1    3    3  502    0 -0.19693068353E+02  0.39314106550E+02  0.10040418694E+03  0.10968996796E+03  0.41800000000E+01 0. -1.
         -5    1    3    3    0  502  0.28783515503E+02 -0.38757528297E+02  0.59210439064E+03  0.59408393227E+03  0.41800000000E+01 0. -1.
        -11    1    1    2    0    0  0.37315024695E+02  0.89073326603E+01  0.10323448780E+03  0.11013224375E+03  0.00000000000E+00 0.  1.
         11    1    1    2    0    0 -0.46405471845E+02 -0.94639109127E+01  0.28025100177E+03  0.28422466012E+03  0.00000000000E+00 0. -1.
</event>
<event>
 7    1  0.2794945E-009  0.1170727E+03  0.7561462E-02  0.1248006E+00
          2   -1    0    0  501    0  0.00000000000E+00  0.00000000000E+00  0.14589704437E+04  0.14589704437E+04  0.00000000000E+00 0. -1.
         -2   -1    0    0    0  501 -0.00000000000E+00 -0.00000000000E+00 -0.11020111741E+02  0.11020111741E+02  0.00000000000E+00 0.  1.
         25    2    1    2    0    0  0.16714970319E+02 -0.51885031664E+02  0.10066483248E+04  0.10158537834E+04  0.12508642108E+03 0.  0.
          5    1    3    3  502    0 -0.18707184357E+02  0.31417920258E+02  0.15100307110E+03  0.15542343563E+03  0.41800000000E+01 0. -1.
         -5    1    3    3    0  502  0.35422154676E+02 -0.83302951922E+02  0.85564525366E+03  0.86043034776E+03  0.41800000000E+01 0. -1.
        -11    1    1    2    0    0 -0.35501856406E+02 -0.14037687265E+02  0.13782847203E+03  0.14301792256E+03  0.00000000000E+00 0.  1.
         11    1    1    2    0    0  0.18786886087E+02  0.65922718929E+02  0.30347353515E+03  0.31111884947E+03  0.00000000000E+00 0. -1.
</event>
<event>
 7    1  0.2794945E-009  0.1522143E+03  0.7561462E-02  0.1197778E+00
         -3   -1    0    0    0  501 -0.00000000000E+00  0.00000000000E+00  0.94241049025E+02  0.94241049025E+02  0.00000000000E+00 0.  1.
          3   -1    0    0  501    0  0.00000000000E+00 -0.00000000000E+00 -0.38681904773E+03  0.38681904773E+03  0.00000000000E+00 0. -1.
         25    2    1    2    0    0 -0.14916872078E+03  0.22457964430E+02 -0.21664921360E+03  0.29213041564E+03  0.12509048950E+03 0.  0.
          5    1    3    3  502    0 -0.39263622567E+02 -0.58634604609E+01  0.77164415692E+01  0.40657448224E+02  0.41800000000E+01 0. -1.
         -5    1    3    3    0  502 -0.10990509821E+03  0.28321424891E+02 -0.22436565517E+03  0.25147296741E+03  0.41800000000E+01 0. -1.
        -11    1    1    2    0    0  0.76897754334E+02 -0.14179495376E+02  0.71312611182E+01  0.78518644893E+02  0.00000000000E+00 0.  1.
         11    1    1    2    0    0  0.72270966446E+02 -0.82784690540E+01 -0.83060046227E+02  0.11041103622E+03  0.00000000000E+00 0. -1.
</event>
<event>
 7    1  0.2794945E-009  0.8047287E+02  0.7561462E-02  0.1327715E+00
         -2   -1    0    0    0  501 -0.00000000000E+00  0.00000000000E+00  0.50967757052E+02  0.50967757052E+02  0.00000000000E+00 0.  1.
          2   -1    0    0  501    0  0.00000000000E+00 -0.00000000000E+00 -0.29764157937E+03  0.29764157937E+03  0.00000000000E+00 0. -1.
         25    2    1    2    0    0 -0.29498853050E+01 -0.47749626193E+02 -0.18762728394E+03  0.23052153593E+03  0.12508977667E+03 0.  0.
          5    1    3    3  502    0 -0.20020799104E+02  0.96087872428E+01  0.94665949640E+01  0.24500000189E+02  0.41800000000E+01 0.  1.
         -5    1    3    3    0  502  0.17070913799E+02 -0.57358413436E+02 -0.19709387890E+03  0.20602153574E+03  0.41800000000E+01 0.  1.
        -11    1    1    2    0    0  0.26055831503E+02  0.84340162568E+00  0.12948604675E+02  0.29108143957E+02  0.00000000000E+00 0.  1.
         11    1    1    2    0    0 -0.23105946198E+02  0.46906224568E+02 -0.71995143054E+02  0.88979656531E+02  0.00000000000E+00 0. -1.
</event>
<event>
 7    1  0.2794945E-009  0.1708773E+03  0.7561462E-02  0.1176936E+00
          3   -1    0    0  501    0  0.00000000000E+00  0.00000000000E+00  0.10161459952E+03  0.10161459952E+03  0.00000000000E+00 0. -1.
         -3   -1    0    0    0  501 -0.00000000000E+00 -0.00000000000E+00 -0.38422061679E+03  0.38422061679E+03  0.00000000000E+00 0.  1.
         25    2    1    2    0    0 -0.14605531189E+03 -0.51721441371E+02 -0.20478415520E+03  0.28565746657E+03  0.12512544248E+03 0.  0.
          5    1    3    3  502    0 -0.97086530678E+02 -0.80712929419E+02 -0.18741129451E+03  0.22601070135E+03  0.41800000000E+01 0. -1.
         -5    1    3    3    0  502 -0.48968781213E+02  0.28991488049E+02 -0.17372860696E+02  0.59646765223E+02  0.41800000000E+01 0. -1.
        -11    1    1    2    0    0  0.10089366212E+03  0.51343275358E+02 -0.35616577221E+01  0.11326229905E+03  0.00000000000E+00 0. -1.
         11    1    1    2    0    0  0.45161649768E+02  0.37816601244E+00 -0.74260204341E+02  0.86915450687E+02  0.00000000000E+00 0.  1.
</event>
<event>
 7    1  0.2794945E-009  0.1900709E+03  0.7561462E-02  0.1158397E+00
         -2   -1    0    0    0  501 -0.00000000000E+00  0.00000000000E+00  0.53110987873E+02  0.53110987873E+02  0.00000000000E+00 0.  1.
          2   -1    0    0  501    0  0.00000000000E+00 -0.00000000000E+00 -0.72335300562E+03  0.72335300562E+03  0.00000000000E+00 0. -1.
         25    2    1    2    0    0 -0.12820476419E+03  0.16188319347E+02 -0.23691172345E+03  0.29744114814E+03  0.12508216760E+03 0.  0.
          5    1    3    3  502    0 -0.12270886258E+03  0.56685637303E+02 -0.15427443914E+03  0.20515555416E+03  0.41800000000E+01 0.  1.
         -5    1    3    3    0  502 -0.54959016073E+01 -0.40497317956E+02 -0.82637284315E+02  0.92285593974E+02  0.41800000000E+01 0.  1.
        -11    1    1    2    0    0  0.14532071106E+03 -0.59672097103E+02 -0.32179292171E+03  0.35809154235E+03  0.00000000000E+00 0. -1.
         11    1    1    2    0    0 -0.17115946877E+02  0.43483777756E+02 -0.11153737259E+03  0.12093130301E+03  0.00000000000E+00 0.  1.
</event>
<event>
 7    1  0.2794945E-009  0.2185578E+03  0.7561462E-02  0.1134963E+00
         -1   -1    0    0    0  501 -0.00000000000E+00  0.00000000000E+00  0.70543281618E+02  0.70543281618E+02  0.00000000000E+00 0.  1.
          1   -1    0    0  501    0  0.00000000000E+00 -0.00000000000E+00 -0.80279626161E+03  0.80279626161E+03  0.00000000000E+00 0. -1.
         25    2    1    2    0    0 -0.17306699618E+03  0.96101907576E+02 -0.50144782265E+03  0.55342831070E+03  0.12508083161E+03 0.  0.
          5    1    3    3  502    0 -0.13534400152E+03  0.68466629035E+01 -0.25997987646E+03  0.29320962485E+03  0.41800000000E+01 0. -1.
         -5    1    3    3    0  502 -0.37722994660E+02  0.89255244672E+02 -0.24146794620E+03  0.26021868585E+03  0.41800000000E+01 0. -1.
        -11    1    1    2    0    0  0.13068915913E+03 -0.96011932282E+02 -0.12136377964E+03  0.20255151064E+03  0.00000000000E+00 0.  1.
         11    1    1    2    0    0  0.42377837048E+02 -0.89975294159E-01 -0.10944137769E+03  0.11735972188E+03  0.00000000000E+00 0. -1.
</event>
<event>
 7    1  0.2794945E-009  0.1062160E+03  0.7561462E-02  0.1267742E+00
          2   -1    0    0  501    0  0.00000000000E+00  0.00000000000E+00  0.53933861218E+03  0.53933861218E+03  0.00000000000E+00 0.  1.
         -2   -1    0    0    0  501 -0.00000000000E+00 -0.00000000000E+00 -0.40204647753E+02  0.40204647753E+02  0.00000000000E+00 0. -1.
         25    2    1    2    0    0 -0.87116776435E+02  0.28705399667E+02  0.19879646141E+03  0.25215213409E+03  0.12508929990E+03 0.  0.
          5    1    3    3  502    0 -0.60392770291E+02 -0.16167583003E+02  0.18865007556E+03  0.19878380430E+03  0.41800000000E+01 0.  1.
         -5    1    3    3    0  502 -0.26724006144E+02  0.44872982670E+02  0.10146385846E+02  0.53368329783E+02  0.41800000000E+01 0.  1.
        -11    1    1    2    0    0  0.97993661876E+01  0.71705057152E+01 -0.28312507598E+01  0.12468348357E+02  0.00000000000E+00 0. -1.
         11    1    1    2    0    0  0.77317410248E+02 -0.35875905383E+02  0.30316875378E+03  0.31492277749E+03  0.00000000000E+00 0.  1.
</event>
<event>
 7    1  0.2794945E-009  0.1333922E+03  0.7561462E-02  0.1222507E+00
          1   -1    0    0  501    0  0.00000000000E+00  0.00000000000E+00  0.61662164737E+03  0.61662164737E+03  0.00000000000E+00 0. -1.
         -1   -1    0    0    0  501 -0.00000000000E+00 -0.00000000000E+00 -0.32224499475E+02  0.32224499475E+02  0.00000000000E+00 0.  1.
         25    2    1    2    0    0  0.17405770519E+02  0.82355435388E+02  0.24301216192E+03  0.28598607830E+03  0.12509095713E+03 0.  0.
          5    1    3    3  502    0  0.66790519450E+02  0.60819723618E+02  0.18932279514E+03  0.20981088015E+03  0.41800000000E+01 0.  1.
         -5    1    3    3    0  502 -0.49384748931E+02  0.21535711770E+02  0.53689366779E+02  0.76175198153E+02  0.41800000000E+01 0.  1.
        -11    1    1    2    0    0  0.36290407025E+02 -0.39280308057E+02  0.13084030384E+03  0.14134751979E+03  0.00000000000E+00 0.  1.
         11    1    1    2    0    0 -0.53696177544E+02 -0.43075127331E+02  0.21054468214E+03  0.22151254875E+03  0.00000000000E+00 0. -1.
</event>
<event>
 7    1  0.2794945E-009  0.9645744E+02  0.7561462E-02  0.1287927E+00
         -1   -1    0    0    0  501 -0.00000000000E+00  0.00000000000E+00  0.51556523276E+03  0.51556523276E+03  0.00000000000E+00 0.  1.
          1   -1    0    0  501    0  0.00000000000E+00 -0.00000000000E+00 -0.32372624318E+02  0.32372624318E+02  0.00000000000E+00 0. -1.
         25    2    1    2    0    0 -0.65083023968E+02  0.18986962996E+02  0.25374693015E+03  0.29089989881E+03  0.12505575474E+03 0.  0.
          5    1    3    3  502    0 -0.62497462537E+02 -0.52933302195E+00  0.26182487463E+03  0.26921357765E+03  0.41800000000E+01 0.  1.
         -5    1    3    3    0  502 -0.25855614318E+01  0.19516296018E+02 -0.80779444837E+01  0.21686321155E+02  0.41800000000E+01 0.  1.
        -11    1    1    2    0    0 -0.21684219497E+02 -0.24686936908E+01  0.19490792244E+02  0.29260738303E+02  0.00000000000E+00 0. -1.
         11    1    1    2    0    0  0.86767243466E+02 -0.16518269305E+02  0.20995488605E+03  0.22777721996E+03  0.00000000000E+00 0.  1.
</event>
<event>
 7    1  0.2794945E-009  0.1103742E+03  0.7561462E-02  0.1259879E+00
         -1   -1    0    0    0  501 -0.00000000000E+00  0.00000000000E+00  0.50522760823E+02  0.50522760823E+02  0.00000000000E+00 0.  1.
          1   -1    0    0  501    0  0.00000000000E+00 -0.00000000000E+00 -0.32836599971E+03  0.32836599971E+03  0.00000000000E+00 0. -1.
         25    2    1    2    0    0 -0.64662298523E+02  0.17738473253E+01 -0.11569489451E+03  0.18225624829E+03  0.12509065530E+03 0.  0.
          5    1    3    3  502    0  0.19610439164E+01 -0.33703699663E+02  0.10106877713E+02  0.35488116903E+02  0.41800000000E+01 0.  1.
         -5    1    3    3    0  502 -0.66623342440E+02  0.35477546988E+02 -0.12580177222E+03  0.14676813139E+03  0.41800000000E+01 0.  1.
        -11    1    1    2    0    0  0.69188847021E+02 -0.35043547035E+02 -0.10933162683E+03  0.13404682527E+03  0.00000000000E+00 0.  1.
         11    1    1    2    0    0 -0.45265484981E+01  0.33269699709E+02 -0.52816717551E+02  0.62585686966E+02  0.00000000000E+00 0. -1.
</event>
<event>
 7    1  0.2794945E-009  0.1129124E+03  0.7561462E-02  0.1255270E+00
          2   -1    0    0  501    0  0.00000000000E+00  0.00000000000E+00  0.57836897452E+02  0.57836897452E+02  0.00000000000E+00 0. -1.
         -2   -1    0    0    0  501 -0.00000000000E+00 -0.00000000000E+00 -0.23781363687E+03  0.23781363687E+03  0.00000000000E+00 0.  1.
         25    2    1    2    0    0  0.31134645406E+02  0.29307033506E+02 -0.10284272238E+03  0.16748894878E+03  0.12509058342E+03 0.  0.
          5    1    3    3  502    0 -0.43781726725E+02 -0.12262783441E+01 -0.63963152211E+02  0.77634403420E+02  0.41800000000E+01 0. -1.
         -5    1    3    3    0  502  0.74916372132E+02  0.30533311850E+02 -0.38879570166E+02  0.89854545362E+02  0.41800000000E+01 0. -1.
        -11    1    1    2    0    0 -0.10072809384E+02 -0.61516063778E+02 -0.58160513455E+02  0.85254518455E+02  0.00000000000E+00 0.  1.
         11    1    1    2    0    0 -0.21061836023E+02  0.32209030272E+02 -0.18973503590E+02  0.42907067089E+02  0.00000000000E+00 0. -1.
</event>
<event>
 7    1  0.2794945E-009  0.1033099E+03  0.7561462E-02  0.1273486E+00
          2   -1    0    0  501    0  0.00000000000E+00  0.00000000000E+00  0.17886588892E+03  0.17886588892E+03  0.00000000000E+00 0. -1.
         -2   -1    0    0    0  501 -0.00000000000E+00 -0.00000000000E+00 -0.93302660076E+02  0.93302660076E+02  0.00000000000E+00 0.  1.
         25    2    1    2    0    0  0.68808500108E+01  0.46964177510E+01 -0.26525093143E+02  0.12814284247E+03  0.12509038762E+03 0.  0.
          5    1    3    3  502    0  0.61331400436E+02  0.59093780784E+01 -0.37744892739E+02  0.72378247813E+02  0.41800000000E+01 0.  1.
         -5    1    3    3    0  502 -0.54450550425E+02 -0.12129603274E+01  0.11219799596E+02  0.55764594657E+02  0.41800000000E+01 0.  1.
        -11    1    1    2    0    0  0.15930871045E+02  0.38346646692E+02  0.56402672091E+02  0.70039413074E+02  0.00000000000E+00 0. -1.
         11    1    1    2    0    0 -0.22811721056E+02 -0.43043064443E+02  0.55685649894E+02  0.73986293449E+02  0.00000000000E+00 0.  1.
</event>
<event>
 7    1  0.2794945E-009  0.1415519E+03  0.7561462E-02  0.1211256E+00
         -2   -1    0    0    0  501 -0.00000000000E+00  0.00000000000E+00  0.54987437497E+02  0.54987437497E+02  0.00000000000E+00 0.  1.
          2   -1    0    0  501    0  0.00000000000E+00 -0.00000000000E+00 -0.37046967295E+03  0.37046967295E+03  0.00000000000E+00 0. -1.
         25    2    1    2    0    0  0.22014348518E+02 -0.87838733568E+02 -0.15079866918E+03  0.21584180109E+03  0.12508864783E+03 0.  0.
          5    1    3    3  502    0  0.57965258385E+02  0.45826129286E+00 -0.68461415971E+02  0.89803224106E+02  0.41800000000E+01 0. -1.
         -5    1    3    3    0  502 -0.35950909867E+02 -0.88296994861E+02 -0.82337253209E+02  0.12603857698E+03  0.41800000000E+01 0. -1.
        -11    1    1    2    0    0 -0.52622039180E+02  0.83425371998E+02 -0.12920991049E+03  0.16255482973E+03  0.00000000000E+00 0.  1.
         11    1    1    2    0    0  0.30607690662E+02  0.44133615705E+01 -0.35473655787E+02  0.47060479629E+02  0.00000000000E+00 0. -1.
</event>
<event>
 7    1  0.2794945E-009  0.1145005E+03  0.7561462E-02  0.1252456E+00
         -2   -1    0    0    0  501 -0.00000000000E+00  0.00000000000E+00  0.14554626898E+02  0.14554626898E+02  0.00000000000E+00 0.  1.
          2   -1    0    0  501    0  0.00000000000E+00 -0.00000000000E+00 -0.15537802301E+04  0.15537802301E+04  0.00000000000E+00 0. -1.
         25    2    1    2    0    0 -0.90007350732E+02  0.20758046992E+01 -0.11198129771E+04  0.11303687955E+04  0.12508748219E+03 0.  0.
          5    1    3    3  502    0 -0.65414531634E+02  0.42130448633E+02 -0.32710589805E+03  0.33625849668E+03  0.41800000000E+01 0. -1.
         -5    1    3    3    0  502 -0.24592819099E+02 -0.40054643934E+02 -0.79270707901E+03  0.79411029887E+03  0.41800000000E+01 0. -1.
        -11    1    1    2    0    0  0.76979561165E+02  0.18840810346E+02 -0.39641592355E+03  0.40426032877E+03  0.00000000000E+00 0. -1.
         11    1    1    2    0    0  0.13027789567E+02 -0.20916615045E+02 -0.22996702609E+02  0.33705732700E+02  0.00000000000E+00 0.  1.
</event>
<event>
 7    1  0.2794945E-009  0.1094676E+03  0.7561462E-02  0.1261559E+00
          2   -1    0    0  501    0  0.00000000000E+00  0.00000000000E+00  0.49930927065E+03  0.49930927065E+03  0.00000000000E+00 0. -1.
         -2   -1    0    0    0  501 -0.00000000000E+00 -0.00000000000E+00 -0.26504622877E+02  0.26504622877E+02  0.00000000000E+00 0.  1.
         25    2    1    2    0    0  0.15953694216E+02 -0.34201378695E+02  0.28018282491E+03  0.30915203336E+03  0.12509320400E+03 0.  0.
          5    1    3    3  502    0 -0.13121777328E+02  0.38861004104E+02  0.16180498431E+03  0.16697510002E+03  0.41800000000E+01 0. -1.
         -5    1    3    3    0  502  0.29075471544E+02 -0.73062382799E+02  0.11837784061E+03  0.14217693333E+03  0.41800000000E+01 0. -1.
        -11    1    1    2    0    0  0.34189345005E+02 -0.59741920529E+01  0.74770773166E+02  0.82433432553E+02  0.00000000000E+00 0.  1.
         11    1    1    2    0    0 -0.50143039221E+02  0.40175570748E+02  0.11785104969E+03  0.13422842762E+03  0.00000000000E+00 0. -1.
</event>
<event>
 7    1  0.2794945E-009  0.1221189E+03  0.7561462E-02  0.1239642E+00
         -1   -1    0    0    0  501 -0.00000000000E+00  0.00000000000E+00  0.48353508990E+03  0.48353508990E+03  0.00000000000E+00 0.  1.
          1   -1    0    0  501    0  0.00000000000E+00 -0.00000000000E+00 -0.80289394395E+02  0.80289394395E+02  0.00000000000E+00 0. -1.
         25    2    1    2    0    0 -0.39741777370E+02  0.63580917284E+02  0.41762439999E+03  0.44235741911E+03  0.12509198560E+03 0.  0.
          5    1    3    3  502    0  0.33502296943E+02  0.63471362005E+02  0.22653181746E+03  0.23766605651E+03  0.41800000000E+01 0. -1.
         -5    1    3    3    0  502 -0.73244074312E+02  0.10955527925E+00  0.19109258253E+03  0.20469136260E+03  0.41800000000E+01 0. -1.
        -11    1    1    2    0    0  0.99544006174E+00 -0.60068741256E+02 -0.42390397564E+02  0.73526800438E+02  0.00000000000E+00 0. -1.
         11    1    1    2    0    0  0.38746337308E+02 -0.35121760284E+01  0.28011693082E+02  0.47940264753E+02  0.00000000000E+00 0.  1.
</event>
<event>
 7    1  0.2794945E-009  0.1192328E+03  0.7561462E-02  0.1244368E+00
          1   -1    0    0  501    0  0.00000000000E+00  0.00000000000E+00  0.13550790424E+04  0.13550790424E+04  0.00000000000E+00 0. -1.
         -1   -1    0    0    0  501 -0.00000000000E+00 -0.00000000000E+00 -0.21768215019E+02  0.21768215019E+02  0.00000000000E+00 0.  1.
         25    2    1    2    0    0  0.10100827940E+03  0.17284301190E+02  0.10489404538E+04  0.10613315823E+04  0.12508889760E+03 0.  0.
          5    1    3    3  502    0  0.25429800062E+02  0.19971600818E+02  0.81038799538E+03  0.81104359626E+03  0.41800000000E+01 0. -1.
         -5    1    3    3    0  502  0.75578479339E+02 -0.26872996286E+01  0.23855245841E+03  0.25028798599E+03  0.41800000000E+01 0. -1.
        -11    1    1    2    0    0 -0.83107632020E+02 -0.46964535005E+02  0.24566210695E+03  0.26355723636E+03  0.00000000000E+00 0.  1.
         11    1    1    2    0    0 -0.17900647381E+02  0.29680233815E+02  0.38708266600E+02  0.51958438767E+02  0.00000000000E+00 0. -1.
</event>
<event>
 7    1  0.2794945E-009  0.8333407E+02  0.7561462E-02  0.1319848E+00
          2   -1    0    0  501    0  0.00000000000E+00  0.00000000000E+00  0.11170906853E+03  0.11170906853E+03  0.00000000000E+00 0. -1.
         -2   -1    0    0    0  501 -0.00000000000E+00 -0.00000000000E+00 -0.12135937661E+03  0.12135937661E+03  0.00000000000E+00 0.  1.
         25    2    1    2    0    0  0.30012460230E+02 -0.20248143715E+01 -0.36449224573E+02  0.13371995922E+03  0.12509050275E+03 0.  0.
          5    1    3    3  502    0 -0.28986930681E+01  0.36872040733E+02  0.31448209948E+02  0.48727939811E+02  0.41800000000E+01 0.  1.
         -5    1    3    3    0  502  0.32911153298E+02 -0.38896855105E+02 -0.67897434521E+02  0.84992019407E+02  0.41800000000E+01 0.  1.
        -11    1    1    2    0    0 -0.49461312106E+02  0.18526866844E+02 -0.10804139338E+02  0.53910997182E+02  0.00000000000E+00 0.  1.
         11    1    1    2    0    0  0.19448851876E+02 -0.16502052473E+02  0.37603055834E+02  0.45437488741E+02  0.00000000000E+00 0. -1.
</event>
<event>
 7    1  0.2794945E-009  0.5812570E+02  0.7561462E-02  0.1405870E+00
         -2   -1    0    0    0  501 -0.00000000000E+00  0.00000000000E+00  0.38171523456E+02  0.38171523456E+02  0.00000000000E+00 0.  1.
          2   -1    0    0  501    0  0.00000000000E+00 -0.00000000000E+00 -0.52829251049E+03  0.52829251049E+03  0.00000000000E+00 0. -1.
         25    2    1    2    0    0 -0.45035242553E+02 -0.27992296613E+01 -0.43272007334E+03  0.45269200865E+03  0.12508950424E+03 0.  0.
          5    1    3    3  502    0 -0.16486843132E+02 -0.16200040489E+02 -0.52868775633E+01  0.24076560857E+02  0.41800000000E+01 0. -1.
         -5    1    3    3    0  502 -0.28548399422E+02  0.13400810828E+02 -0.42743319577E+03  0.42861544779E+03  0.41800000000E+01 0. -1.
        -11    1    1    2    0    0  0.12278974004E+02 -0.18262288301E+02  0.18313330499E+02  0.28629747651E+02  0.00000000000E+00 0.  1.
         11    1    1    2    0    0  0.32756268549E+02  0.21061517962E+02 -0.75714244201E+02  0.85142277648E+02  0.00000000000E+00 0. -1.
</event>
<event>
 7    1  0.2794945E-009  0.1040658E+03  0.7561462E-02  0.1271971E+00
          1   -1    0    0  501    0  0.00000000000E+00  0.00000000000E+00  0.59981271495E+02  0.59981271495E+02  0.00000000000E+00 0. -1.
         -1   -1    0    0    0  501 -0.00000000000E+00 -0.00000000000E+00 -0.32816568374E+03  0.32816568374E+03  0.00000000000E+00 0.  1.
         25    2    1    2    0    0  0.13229486536E+02 -0.23817837715E+02 -0.26311013525E+03  0.29260326749E+03  0.12508964853E+03 0.  0.
          5    1    3    3  502    0  0.53835975207E+02 -0.44638264878E+02 -0.93041308917E+02  0.11646907093E+03  0.41800000000E+01 0. -1.
         -5    1    3    3    0  502 -0.40606488671E+02  0.20820427162E+02 -0.17006882633E+03  0.17613419656E+03  0.41800000000E+01 0. -1.
        -11    1    1    2    0    0 -0.27530789525E+02  0.53014400712E+02 -0.14925236220E+02  0.61572995144E+02  0.00000000000E+00 0.  1.
         11    1    1    2    0    0  0.14301302989E+02 -0.29196562997E+02  0.98509592243E+01  0.33970692599E+02  0.00000000000E+00 0. -1.
</event>
<event>
 7    1  0.2794945E-009  0.2798101E+03  0.7561462E-02  0.1095793E+00
          1   -1    0    0  501    0  0.00000000000E+00  0.00000000000E+00  0.65371807696E+03  0.65371807696E+03  0.00000000000E+00 0. -1.
         -1   -1    0    0    0  501 -0.00000000000E+00 -0.00000000000E+00 -0.13996332019E+03  0.13996332019E+03  0.00000000000E+00 0.  1.
         25    2    1    2    0    0 -0.73729160570E+02 -0.26233913537E+03  0.16564211806E+03  0.34255351593E+03  0.12509112253E+03 0.  0.
          5    1    3    3  502    0 -0.35775155085E+02 -0.14658495485E+03  0.16083004517E+03  0.22056923299E+03  0.41800000000E+01 0.  1.
         -5    1    3    3    0  502 -0.37954005485E+02 -0.11575418052E+03  0.48120728889E+01  0.12198428294E+03  0.41800000000E+01 0.  1.
        -11    1    1    2    0    0  0.93626893508E+02  0.19084714859E+03  0.25148283147E+03  0.32929051586E+03  0.00000000000E+00 0. -1.
         11    1    1    2    0    0 -0.19897732938E+02  0.71491986777E+02  0.96629807243E+02  0.12183736536E+03  0.00000000000E+00 0.  1.
</event>
<event>
 7    1  0.2794945E-009  0.1269875E+03  0.7561462E-02  0.1231995E+00
         -1   -1    0    0    0  501 -0.00000000000E+00  0.00000000000E+00  0.21464150887E+02  0.21464150887E+02  0.00000000000E+00 0.  1.
          1   -1    0    0  501    0  0.00000000000E+00 -0.00000000000E+00 -0.17878735256E+04  0.17878735256E+04  0.00000000000E+00 0. -1.
         25    2    1    2    0    0  0.69417534394E+02 -0.42926354370E+02 -0.15759031930E+04  0.15829654906E+04  0.12508958670E+03 0.  0.
          5    1    3    3  502    0 -0.15046812103E+02 -0.54641103395E+02 -0.40696202756E+03  0.41091072146E+03  0.41800000000E+01 0. -1.
         -5    1    3    3    0  502  0.84464346497E+02  0.11714749025E+02 -0.11689411655E+04  0.11720547692E+04  0.41800000000E+01 0. -1.
        -11    1    1    2    0    0 -0.52695283740E+02 -0.12263280768E+02 -0.13859765092E+03  0.14878336542E+03  0.00000000000E+00 0. -1.
         11    1    1    2    0    0 -0.16722250653E+02  0.55189635138E+02 -0.51908530760E+02  0.77588820452E+02  0.00000000000E+00 0.  1.
</event>
<event>
 7    1  0.2794945E-009  0.8995968E+02  0.7561462E-02  0.1302949E+00
          1   -1    0    0  501    0  0.00000000000E+00  0.00000000000E+00  0.85060567305E+02  0.85060567305E+02  0.00000000000E+00 0. -1.
         -1   -1    0    0    0  501 -0.00000000000E+00 -0.00000000000E+00 -0.18367788124E+03  0.18367788124E+03  0.00000000000E+00 0.  1.
         25    2    1    2    0    0  0.10139693081E+02 -0.47790098173E+02 -0.39669496988E+02  0.14003575594E+03  0.12509850955E+03 0.  0.
          5    1    3    3  502    0  0.47480289222E+02  0.46625470594E-01 -0.59333741393E+02  0.76107458940E+02  0.41800000000E+01 0. -1.
         -5    1    3    3    0  502 -0.37340596140E+02 -0.47836723643E+02  0.19664244406E+02  0.63928296998E+02  0.41800000000E+01 0. -1.
        -11    1    1    2    0    0 -0.23293630744E+02  0.15424255227E+01  0.23585488970E+02  0.33185050847E+02  0.00000000000E+00 0. -1.
         11    1    1    2    0    0  0.13153937663E+02  0.46247672650E+02 -0.82533305914E+02  0.95517641756E+02  0.00000000000E+00 0.  1.
</event>
<event>
 7    1  0.2794945E-009  0.1119214E+03  0.7561462E-02  0.1257053E+00
          2   -1    0    0  501    0  0.00000000000E+00  0.00000000000E+00  0.20293331456E+03  0.20293331456E+03  0.00000000000E+00 0. -1.
         -2   -1    0    0    0  501 -0.00000000000E+00 -0.00000000000E+00 -0.66159417229E+02  0.66159417229E+02  0.00000000000E+00 0.  1.
         25    2    1    2    0    0 -0.27053466939E+02  0.30354223132E+02  0.80025834388E+02  0.15396412638E+03  0.12509016391E+03 0.  0.
          5    1    3    3  502    0  0.10177277224E+02  0.69022644970E+02  0.70523310166E+02  0.99291047769E+02  0.41800000000E+01 0. -1.
         -5    1    3    3    0  502 -0.37230744163E+02 -0.38668421837E+02  0.95025242220E+01  0.54673078612E+02  0.41800000000E+01 0. -1.
        -11    1    1    2    0    0  0.57465551529E+02 -0.46592381883E+00  0.30548277467E+02  0.65082286021E+02  0.00000000000E+00 0.  1.
         11    1    1    2    0    0 -0.30412084590E+02 -0.29888299313E+02  0.26199785472E+02  0.50046319382E+02  0.00000000000E+00 0. -1.
</event>
<event>
 7    1  0.2794945E-009  0.1552643E+03  0.7561462E-02  0.1194149E+00
          3   -1    0    0  501    0  0.00000000000E+00  0.00000000000E+00  0.59611178180E+02  0.59611178180E+02  0.00000000000E+00 0. -1.
         -3   -1    0    0    0  501 -0.00000000000E+00 -0.00000000000E+00 -0.53485383111E+03  0.53485383111E+03  0.00000000000E+00 0.  1.
         25    2    1    2    0    0  0.15343077906E+02  0.12617321005E+03 -0.35735021407E+03  0.39937622788E+03  0.12508839645E+03 0.  0.
          5    1    3    3  502    0 -0.41574202136E+02  0.10955663980E+03 -0.26160621141E+03  0.28668162455E+03  0.41800000000E+01 0.  1.
         -5    1    3    3    0  502  0.56917280041E+02  0.16616570250E+02 -0.95744002653E+02  0.11269460332E+03  0.41800000000E+01 0.  1.
        -11    1    1    2    0    0  0.13563758781E+02 -0.61759217949E+02 -0.69853942249E+01  0.63615817894E+02  0.00000000000E+00 0. -1.
         11    1    1    2    0    0 -0.28906836686E+02 -0.64413992101E+02 -0.11090704464E+03  0.13147296352E+03  0.00000000000E+00 0.  1.
</event>
<event>
 7    1  0.2794945E-009  0.1650498E+03  0.7561462E-02  0.1183111E+00
          1   -1    0    0  501    0  0.00000000000E+00  0.00000000000E+00  0.13294771537E+03  0.13294771537E+03  0.00000000000E+00 0. -1.
         -1   -1    0    0    0  501 -0.00000000000E+00 -0.00000000000E+00 -0.22821076708E+03  0.22821076708E+03  0.00000000000E+00 0.  1.
         25    2    1    2    0    0 -0.12323039528E+03  0.56602990096E+02 -0.60579889914E+02  0.19417422656E+03  0.12507629028E+03 0.  0.
          5    1    3    3  502    0  0.18822776074E+02  0.13388984983E+02  0.14649778448E+02  0.27670385371E+02  0.41800000000E+01 0. -1.
         -5    1    3    3    0  502 -0.14205317136E+03  0.43214005113E+02 -0.75229668362E+02  0.16650384119E+03  0.41800000000E+01 0. -1.
        -11    1    1    2    0    0  0.46547347663E+02  0.19115374138E+02  0.82300731727E+01  0.50988108489E+02  0.00000000000E+00 0.  1.
         11    1    1    2    0    0  0.76683047620E+02 -0.75718364234E+02 -0.42913234970E+02  0.11599614739E+03  0.00000000000E+00 0. -1.
</event>
<event>
 7    1  0.2794945E-009  0.1249870E+03  0.7561462E-02  0.1235090E+00
         -1   -1    0    0    0  501 -0.00000000000E+00  0.00000000000E+00  0.79095176531E+02  0.79095176531E+02  0.00000000000E+00 0.  1.
          1   -1    0    0  501    0  0.00000000000E+00 -0.00000000000E+00 -0.33302888489E+03  0.33302888489E+03  0.00000000000E+00 0. -1.
         25    2    1    2    0    0 -0.64854377331E+02  0.31062002502E+02 -0.12633063883E+02  0.14483924195E+03  0.12509146033E+03 0.  0.
          5    1    3    3  502    0 -0.90990855098E+02  0.48740272321E+02 -0.31293616889E+02  0.10794309943E+03  0.41800000000E+01 0. -1.
         -5    1    3    3    0  502  0.26136477767E+02 -0.17678269819E+02  0.18660553007E+02  0.36896142513E+02  0.41800000000E+01 0. -1.
        -11    1    1    2    0    0  0.60671421267E+02  0.19786936728E+02 -0.14013464382E+03  0.15398137102E+03  0.00000000000E+00 0.  1.
         11    1    1    2    0    0  0.41829560647E+01 -0.50848939230E+02 -0.10116600066E+03  0.11330344846E+03  0.00000000000E+00 0. -1.
</event>
<event>
 7    1  0.2794945E-009  0.8078792E+02  0.7561462E-02  0.1326830E+00
         -2   -1    0    0    0  501 -0.00000000000E+00  0.00000000000E+00  0.42989059347E+02  0.42989059347E+02  0.00000000000E+00 0. -1.
          2   -1    0    0  501    0  0.00000000000E+00 -0.00000000000E+00 -0.38201613430E+03  0.38201613430E+03  0.00000000000E+00 0.  1.
         25    2    1    2    0    0 -0.41130708087E+02 -0.44754979180E+02 -0.23898436994E+03  0.27650445206E+03  0.12508572909E+03 0.  0.
          5    1    3    3  502    0 -0.10381455370E+02 -0.56273128401E+02 -0.23644475896E+03  0.24330646525E+03  0.41800000000E+01 0. -1.
         -5    1    3    3    0  502 -0.30749252716E+02  0.11518149220E+02 -0.25396109875E+01  0.33197986807E+02  0.41800000000E+01 0. -1.
        -11    1    1    2    0    0  0.33426589197E+02  0.91294111899E+01  0.70625949061E+01  0.35363303873E+02  0.00000000000E+00 0. -1.
         11    1    1    2    0    0  0.77041188894E+01  0.35625567990E+02 -0.10710529992E+03  0.11313743772E+03  0.00000000000E+00 0.  1.
</event>
<event>
 7    1  0.2794945E-009  0.1261474E+03  0.7561462E-02  0.1233287E+00
          2   -1    0    0  501    0  0.00000000000E+00  0.00000000000E+00  0.76795376313E+02  0.76795376313E+02  0.00000000000E+00 0. -1.
         -2   -1    0    0    0  501 -0.00000000000E+00 -0.00000000000E+00 -0.24294965677E+03  0.24294965677E+03  0.00000000000E+00 0.  1.
         25    2    1    2    0    0  0.27739124245E+02  0.94442063298E+02 -0.60952119951E+02  0.17044798212E+03  0.12509432980E+03 0.  0.
          5    1    3    3  502    0  0.63385411172E+02  0.12967084830E+02 -0.47581711773E+02  0.80419819284E+02  0.41800000000E+01 0. -1.
         -5    1    3    3    0  502 -0.35646286927E+02  0.81474978468E+02 -0.13370408178E+02  0.90028162832E+02  0.41800000000E+01 0. -1.
        -11    1    1    2    0    0 -0.17696212718E+02 -0.60741517285E+02 -0.38962475529E+02  0.74301832857E+02  0.00000000000E+00 0. -1.
         11    1    1    2    0    0 -0.10042911526E+02 -0.33700546014E+02 -0.66239684977E+02  0.74995218110E+02  0.00000000000E+00 0.  1.
</event>
<event>
 7    1  0.2794945E-009  0.1030788E+03  0.7561462E-02  0.1273952E+00
         -1   -1    0    0    0  501 -0.00000000000E+00  0.00000000000E+00  0.33358810808E+02  0.33358810808E+02  0.00000000000E+00 0. -1.
          1   -1    0    0  501    0  0.00000000000E+00 -0.00000000000E+00 -0.37816098489E+03  0.37816098489E+03  0.00000000000E+00 0.  1.
         25    2    1    2    0    0 -0.66124294708E+01 -0.26647322035E+02 -0.18001586051E+03  0.22092702462E+03  0.12509690715E+03 0.  0.
          5    1    3    3  502    0  0.52867177904E+02 -0.34712408279E+02 -0.12127242896E+03  0.13683699870E+03  0.41800000000E+01 0. -1.
         -5    1    3    3    0  502 -0.59479607375E+02  0.80650862440E+01 -0.58743431550E+02  0.84090025923E+02  0.41800000000E+01 0. -1.
        -11    1    1    2    0    0 -0.24593557247E+01 -0.27547398689E+02 -0.15926092338E+02  0.31914699156E+02  0.00000000000E+00 0. -1.
         11    1    1    2    0    0  0.90717851955E+01  0.54194720724E+02 -0.14886022124E+03  0.15867807192E+03  0.00000000000E+00 0.  1.
</event>
<event>
 7    1  0.2794945E-009  0.1397204E+03  0.7561462E-02  0.1213706E+00
         -1   -1    0    0    0  501 -0.00000000000E+00  0.00000000000E+00  0.84485210253E+02  0.84485210253E+02  0.00000000000E+00 0.  1.
          1   -1    0    0  501    0  0.00000000000E+00 -0.00000000000E+00 -0.27173793334E+03  0.27173793334E+03  0.00000000000E+00 0. -1.
         25    2    1    2    0    0 -0.69049585543E+02 -0.72512368273E+02 -0.14057039034E+03  0.21315045780E+03  0.12508874531E+03 0.  0.
          5    1    3    3  502    0 -0.70207789362E+02  0.15414177369E+02 -0.58053327536E+02  0.92489955071E+02  0.41800000000E+01 0. -1.
         -5    1    3    3    0  502  0.11582038188E+01 -0.87926545642E+02 -0.82517062800E+02  0.12066050272E+03  0.41800000000E+01 0. -1.
        -11    1    1    2    0    0  0.44524267028E+02  0.17993554326E+01  0.14010959354E+02  0.46711401353E+02  0.00000000000E+00 0.  1.
         11    1    1    2    0    0  0.24525318516E+02  0.70713012840E+02 -0.60693292105E+02  0.96361284445E+02  0.00000000000E+00 0. -1.
</event>
<event>
 7    1  0.2794945E-009  0.1247550E+03  0.7561462E-02  0.1235453E+00
         -4   -1    0    0    0  501 -0.00000000000E+00  0.00000000000E+00  0.20528096057E+03  0.20528096057E+03  0.00000000000E+00 0.  1.
          4   -1    0    0  501    0  0.00000000000E+00 -0.00000000000E+00 -0.13453451200E+03  0.13453451200E+03  0.00000000000E+00 0. -1.
         25    2    1    2    0    0 -0.11269909363E+03  0.48800961605E+02  0.58202808827E+02  0.18471115830E+03  0.12509206803E+03 0.  0.
          5    1    3    3  502    0 -0.50051226628E+02  0.30305535762E+02  0.93475769521E+02  0.11035734082E+03  0.41800000000E+01 0. -1.
         -5    1    3    3    0  502 -0.62647867005E+02  0.18495425844E+02 -0.35272960695E+02  0.74353817478E+02  0.41800000000E+01 0. -1.
        -11    1    1    2    0    0  0.70413344250E+02 -0.43529726958E+02  0.51395082094E+02  0.97438855910E+02  0.00000000000E+00 0.  1.
         11    1    1    2    0    0  0.42285749383E+02 -0.52712346471E+01 -0.38851442352E+02  0.57665458365E+02  0.00000000000E+00 0. -1.
</event>
<event>
 7    1  0.2794945E-009  0.1059912E+03  0.7561462E-02  0.1268179E+00
         -1   -1    0    0    0  501 -0.00000000000E+00  0.00000000000E+00  0.37890884146E+03  0.37890884146E+03  0.00000000000E+00 0.  1.
          1   -1    0    0  501    0  0.00000000000E+00 -0.00000000000E+00 -0.49777669019E+02  0.49777669019E+02  0.00000000000E+00 0. -1.
         25    2    1    2    0    0  0.67866844181E+02  0.31465991085E+02  0.23703805003E+03  0.27826304183E+03  0.12508903290E+03 0.  0.
          5    1    3    3  502    0  0.86771566288E+02 -0.66387263054E+01  0.90516430330E+02  0.12563468455E+03  0.41800000000E+01 0. -1.
         -5    1    3    3    0  502 -0.18904722107E+02  0.38104717390E+02  0.14652161970E+03  0.15262835728E+03  0.41800000000E+01 0. -1.
        -11    1    1    2    0    0 -0.20553456666E+02  0.63875186161E+01  0.86993857196E+02  0.89616829696E+02  0.00000000000E+00 0.  1.
         11    1    1    2    0    0 -0.47313387515E+02 -0.37853509701E+02  0.50992652128E+01  0.60806638951E+02  0.00000000000E+00 0. -1.
</event>
<event>
 7    1  0.2794945E-009  0.1336979E+03  0.7561462E-02  0.1222070E+00
         -3   -1    0    0    0  501 -0.00000000000E+00  0.00000000000E+00  0.61926304345E+03  0.61926304345E+03  0.00000000000E+00 0.  1.
          3   -1    0    0  501    0  0.00000000000E+00 -0.00000000000E+00 -0.38632537144E+02  0.38632537144E+02  0.00000000000E+00 0. -1.
         25    2    1    2    0    0 -0.60807712060E+02  0.57928786577E+02  0.46642379417E+03  0.49015541880E+03  0.12509139319E+03 0.  0.
          5    1    3    3  502    0 -0.19946721815E+02 -0.39756689865E+02  0.13438922880E+03  0.14162063168E+03  0.41800000000E+01 0. -1.
         -5    1    3    3    0  502 -0.40860990245E+02  0.97685476442E+02  0.33203456536E+03  0.34853478711E+03  0.41800000000E+01 0. -1.
        -11    1    1    2    0    0  0.71595969797E+02 -0.70297267669E+02  0.75103992680E+02  0.12533275090E+03  0.00000000000E+00 0. -1.
         11    1    1    2    0    0 -0.10788257737E+02  0.12368481092E+02  0.39102719464E+02  0.42407410897E+02  0.00000000000E+00 0.  1.
</event>
<event>
 7    1  0.2794945E-009  0.1119140E+03  0.7561462E-02  0.1257066E+00
         -2   -1    0    0    0  501 -0.00000000000E+00  0.00000000000E+00  0.18766096317E+02  0.18766096317E+02  0.00000000000E+00 0.  1.
          2   -1    0    0  501    0  0.00000000000E+00 -0.00000000000E+00 -0.84711118254E+03  0.84711118254E+03  0.00000000000E+00 0. -1.
         25    2    1    2    0    0  0.55135394996E+02  0.19339778019E+02 -0.54688564841E+03  0.56404414280E+03  0.12509174152E+03 0.  0.
          5    1    3    3  502    0 -0.32988553175E+02  0.10338260062E+02 -0.61946575880E+02  0.71063175590E+02  0.41800000000E+01 0.  1.
         -5    1    3    3    0  502  0.88123948172E+02  0.90015179572E+01 -0.48493907253E+03  0.49298096721E+03  0.41800000000E+01 0.  1.
        -11    1    1    2    0    0  0.83197409531E+00 -0.40486747280E+02 -0.59655038108E+02  0.72101265300E+02  0.00000000000E+00 0.  1.
         11    1    1    2    0    0 -0.55967369092E+02  0.21146969261E+02 -0.22180439970E+03  0.22973187075E+03  0.00000000000E+00 0. -1.
</event>
<event>
 7    1  0.2843830E-009  0.1200339E+03  0.7561462E-02  0.1243041E+00
         -1   -1    0    0    0  501 -0.00000000000E+00  0.00000000000E+00  0.19234941243E+02  0.19234941243E+02  0.00000000000E+00 0.  1.
          1   -1    0    0  501    0  0.00000000000E+00 -0.00000000000E+00 -0.10287637973E+04  0.10287637973E+04  0.00000000000E+00 0. -1.
         25    2    1    2    0    0 -0.87361747230E+02 -0.17094919268E+02 -0.53769597776E+03  0.55918644901E+03  0.12509280201E+03 0.  0.
          5    1    3    3  502    0 -0.80269105614E+02  0.34055551911E+02 -0.21001389390E+03  0.22743398595E+03  0.41800000000E+01 0. -1.
         -5    1    3    3    0  502 -0.70926416159E+01 -0.51150471179E+02 -0.32768208386E+03  0.33175246307E+03  0.41800000000E+01 0. -1.
        -11    1    1    2    0    0  0.66730247992E+02  0.33442347565E+02 -0.44502654696E+03  0.45124266654E+03  0.00000000000E+00 0. -1.
         11    1    1    2    0    0  0.20631499238E+02 -0.16347428297E+02 -0.26806331372E+02  0.37569623027E+02  0.00000000000E+00 0.  1.
</event>
<event>
 7    1  0.2794945E-009  0.1356294E+03  0.7561462E-02  0.1219334E+00
          2   -1    0    0  501    0  0.00000000000E+00  0.00000000000E+00  0.77310784276E+03  0.77310784276E+03  0.00000000000E+00 0. -1.
         -2   -1    0    0    0  501 -0.00000000000E+00 -0.00000000000E+00 -0.31819446683E+02  0.31819446683E+02  0.00000000000E+00 0.  1.
         25    2    1    2    0    0 -0.62481554517E+00  0.97156502344E+02  0.25113443245E+03  0.29691281331E+03  0.12509572018E+03 0.  0.
          5    1    3    3  502    0 -0.48824720785E+02  0.60590498764E+02  0.66070715247E+02  0.10216591268E+03  0.41800000000E+01 0. -1.
         -5    1    3    3    0  502  0.48199905240E+02  0.36566003580E+02  0.18506371720E+03  0.19474690063E+03  0.41800000000E+01 0. -1.
        -11    1    1    2    0    0  0.24988491860E+02 -0.10433725852E+03  0.37206784870E+03  0.38722754587E+03  0.00000000000E+00 0.  1.
         11    1    1    2    0    0 -0.24363676314E+02  0.71807561806E+01  0.11808611493E+03  0.12078693026E+03  0.00000000000E+00 0. -1.
</event>
<event>
 7    1  0.2794945E-009  0.1051830E+03  0.7561462E-02  0.1269760E+00
         -2   -1    0    0    0  501 -0.00000000000E+00  0.00000000000E+00  0.13718034812E+03  0.13718034812E+03  0.00000000000E+00 0.  1.
          2   -1    0    0  501    0  0.00000000000E+00 -0.00000000000E+00 -0.12821443406E+03  0.12821443406E+03  0.00000000000E+00 0. -1.
         25    2    1    2    0    0  0.45834541985E+02 -0.57324193698E+02 -0.12803761037E+02  0.14559552841E+03  0.12508898103E+03 0.  0.
          5    1    3    3  502    0  0.32100909560E+02 -0.78282929630E+02 -0.51623370722E+02  0.99202471092E+02  0.41800000000E+01 0. -1.
         -5    1    3    3    0  502  0.13733632425E+02  0.20958735932E+02  0.38819609685E+02  0.46393057320E+02  0.41800000000E+01 0. -1.
        -11    1    1    2    0    0 -0.36275529260E+02 -0.55110230776E+01 -0.21857374216E+02  0.42708666639E+02  0.00000000000E+00 0. -1.
         11    1    1    2    0    0 -0.95590127256E+01  0.62835216776E+02  0.43627049319E+02  0.77090587129E+02  0.00000000000E+00 0.  1.
</event>
<event>
 7    1  0.2794945E-009  0.1474105E+03  0.7561462E-02  0.1203691E+00
          1   -1    0    0  501    0  0.00000000000E+00  0.00000000000E+00  0.66459469698E+03  0.66459469698E+03  0.00000000000E+00 0. -1.
         -1   -1    0    0    0  501 -0.00000000000E+00 -0.00000000000E+00 -0.37279977005E+02  0.37279977005E+02  0.00000000000E+00 0.  1.
         25    2    1    2    0    0  0.11736613120E+02  0.10754110423E+03  0.26425818827E+03  0.31173825638E+03  0.12508202603E+03 0.  0.
          5    1    3    3  502    0 -0.38346795093E+02  0.28752842407E+01  0.12271303324E+03  0.12866508804E+03  0.41800000000E+01 0. -1.
         -5    1    3    3    0  502  0.50083408213E+02  0.10466581999E+03  0.14154515502E+03  0.18307316833E+03  0.41800000000E+01 0. -1.
        -11    1    1    2    0    0  0.22783087521E+02 -0.10267514861E+03  0.23580544875E+03  0.25819656248E+03  0.00000000000E+00 0.  1.
         11    1    1    2    0    0 -0.34519700641E+02 -0.48659556260E+01  0.12725108297E+03  0.13193985513E+03  0.00000000000E+00 0. -1.
</event>
<event>
 7    1  0.2794945E-009  0.1396080E+03  0.7561462E-02  0.1213857E+00
         -2   -1    0    0    0  501 -0.00000000000E+00  0.00000000000E+00  0.29961639147E+03  0.29961639147E+03  0.00000000000E+00 0.  1.
          2   -1    0    0  501    0  0.00000000000E+00 -0.00000000000E+00 -0.79711667111E+02  0.79711667111E+02  0.00000000000E+00 0. -1.
         25    2    1    2    0    0  0.26539083718E+02  0.84436253834E+02  0.41210363194E+02  0.15868162691E+03  0.12509100990E+03 0.  0.
          5    1    3    3  502    0  0.69293617252E+02  0.83445061576E+02  0.40042413848E+02  0.11569594202E+03  0.41800000000E+01 0.  1.
         -5    1    3    3    0  502 -0.42754533534E+02  0.99119225836E+00  0.11679493459E+01  0.42985684890E+02  0.41800000000E+01 0.  1.
        -11    1    1    2    0    0 -0.59266609555E+02 -0.70573158064E+02  0.14408714012E+03  0.17103860849E+03  0.00000000000E+00 0.  1.
         11    1    1    2    0    0  0.32727525837E+02 -0.13863095770E+02  0.34607221042E+02  0.49607823173E+02  0.00000000000E+00 0. -1.
</event>
<event>
 7    1  0.2794945E-009  0.1033588E+03  0.7561462E-02  0.1273387E+00
         -2   -1    0    0    0  501 -0.00000000000E+00  0.00000000000E+00  0.51970905838E+02  0.51970905838E+02  0.00000000000E+00 0.  1.
          2   -1    0    0  501    0  0.00000000000E+00 -0.00000000000E+00 -0.26849005570E+03  0.26849005570E+03  0.00000000000E+00 0. -1.
         25    2    1    2    0    0 -0.67104271914E+01 -0.29394895261E+02 -0.73149822092E+02  0.14801445809E+03  0.12509313982E+03 0.  0.
          5    1    3    3  502    0 -0.38388467608E+02 -0.63605138839E+02 -0.68211247275E+02  0.10094322556E+03  0.41800000000E+01 0. -1.
         -5    1    3    3    0  502  0.31678040416E+02  0.34210243578E+02 -0.49385748175E+01  0.47071232526E+02  0.41800000000E+01 0. -1.
        -11    1    1    2    0    0 -0.16358769589E+02 -0.23013797997E+02 -0.15198332450E+02  0.32066080989E+02  0.00000000000E+00 0.  1.
         11    1    1    2    0    0  0.23069196780E+02  0.52408693258E+02 -0.12817099532E+03  0.14038042247E+03  0.00000000000E+00 0. -1.
</event>
<event>
 7    1  0.2794945E-009  0.1043600E+03  0.7561462E-02  0.1271386E+00
          2   -1    0    0  501    0  0.00000000000E+00  0.00000000000E+00  0.83421121734E+02  0.83421121734E+02  0.00000000000E+00 0.  1.
         -2   -1    0    0    0  501 -0.00000000000E+00 -0.00000000000E+00 -0.16543839890E+03  0.16543839890E+03  0.00000000000E+00 0. -1.
         25    2    1    2    0    0  0.16691733740E+02  0.39813235055E+02 -0.54147907836E+02  0.14298396699E+03  0.12509480897E+03 0.  0.
          5    1    3    3  502    0 -0.30527526056E+02  0.61224469291E+02 -0.59407915221E+02  0.90703573678E+02  0.41800000000E+01 0. -1.
         -5    1    3    3    0  502  0.47219259796E+02 -0.21411234236E+02  0.52600073846E+01  0.52280393312E+02  0.41800000000E+01 0. -1.
        -11    1    1    2    0    0  0.30521813518E+02 -0.22327180829E+02 -0.38987564253E+02  0.54314954391E+02  0.00000000000E+00 0. -1.
         11    1    1    2    0    0 -0.47213547258E+02 -0.17486054227E+02  0.11118194923E+02  0.51560599254E+02  0.00000000000E+00 0.  1.
</event>
<event>
 7    1  0.2794945E-009  0.1261026E+03  0.7561462E-02  0.1233356E+00
         -2   -1    0    0    0  501 -0.00000000000E+00  0.00000000000E+00  0.84190943414E+03  0.84190943414E+03  0.00000000000E+00 0.  1.
          2   -1    0    0  501    0  0.00000000000E+00 -0.00000000000E+00 -0.31491933557E+02  0.31491933557E+02  0.00000000000E+00 0. -1.
         25    2    1    2    0    0 -0.48740094561E+02 -0.83983288708E+02  0.63313395442E+03  0.65263698034E+03  0.12509050433E+03 0.  0.
          5    1    3    3  502    0 -0.31913617681E+02  0.25324559527E+02  0.98626133593E+02  0.10679138044E+03  0.41800000000E+01 0.  1.
         -5    1    3    3    0  502 -0.16826476880E+02 -0.10930784823E+03  0.53450782082E+03  0.54584559990E+03  0.41800000000E+01 0.  1.
        -11    1    1    2    0    0  0.38959887051E+02  0.41258416712E+02  0.16610604498E+03  0.17553161518E+03  0.00000000000E+00 0.  1.
         11    1    1    2    0    0  0.97802075096E+01  0.42724871996E+02  0.11177501185E+02  0.45232772176E+02  0.00000000000E+00 0. -1.
</event>
<event>
 7    1  0.2794945E-009  0.1209804E+03  0.7561462E-02  0.1241488E+00
         -2   -1    0    0    0  501 -0.00000000000E+00  0.00000000000E+00  0.20937067570E+03  0.20937067570E+03  0.00000000000E+00 0. -1.
          2   -1    0    0  501    0  0.00000000000E+00 -0.00000000000E+00 -0.88129073679E+02  0.88129073679E+02  0.00000000000E+00 0.  1.
         25    2    1    2    0    0  0.71246592512E+02 -0.23914133531E+02  0.33551069441E+02  0.14974489183E+03  0.12509954293E+03 0.  0.
          5    1    3    3  502    0  0.68814967258E+02 -0.57196776126E+02  0.59264658019E+02  0.10740923148E+03  0.41800000000E+01 0. -1.
         -5    1    3    3    0  502  0.24316252534E+01  0.33282642596E+02 -0.25713588578E+02  0.42335660348E+02  0.41800000000E+01 0. -1.
        -11    1    1    2    0    0  0.22270166715E+02  0.19291669212E+00  0.13436977560E+02  0.26010573010E+02  0.00000000000E+00 0. -1.
         11    1    1    2    0    0 -0.93516759226E+02  0.23721216838E+02  0.74253555024E+02  0.12174428454E+03  0.00000000000E+00 0.  1.
</event>
<event>
 7    1  0.2794945E-009  0.1474514E+03  0.7561462E-02  0.1203640E+00
          2   -1    0    0  501    0  0.00000000000E+00  0.00000000000E+00  0.22313142914E+03  0.22313142914E+03  0.00000000000E+00 0. -1.
         -2   -1    0    0    0  501 -0.00000000000E+00 -0.00000000000E+00 -0.10735300904E+03  0.10735300904E+03  0.00000000000E+00 0.  1.
         25    2    1    2    0    0 -0.99309234566E+02 -0.41949257799E+02  0.76219014015E+02  0.18187750807E+03  0.12509206827E+03 0.  0.
          5    1    3    3  502    0 -0.62348168012E+02  0.34077775836E+02  0.65198998693E+02  0.96524456440E+02  0.41800000000E+01 0. -1.
         -5    1    3    3    0  502 -0.36961066555E+02 -0.76027033635E+02  0.11020015321E+02  0.85353051626E+02  0.41800000000E+01 0. -1.
        -11    1    1    2    0    0  0.20627359259E+02  0.55534595818E+02  0.34602902676E+02  0.68607143624E+02  0.00000000000E+00 0. -1.
         11    1    1    2    0    0  0.78681875308E+02 -0.13585338019E+02  0.49565034106E+01  0.79999786482E+02  0.00000000000E+00 0.  1.
</event>
<event>
 7    1  0.2794945E-009  0.1406161E+03  0.7561462E-02  0.1212502E+00
         -2   -1    0    0    0  501 -0.00000000000E+00  0.00000000000E+00  0.72254016349E+03  0.72254016349E+03  0.00000000000E+00 0.  1.
          2   -1    0    0  501    0  0.00000000000E+00 -0.00000000000E+00 -0.35103013783E+02  0.35103013783E+02  0.00000000000E+00 0. -1.
         25    2    1    2    0    0 -0.11328541731E+03  0.18047627279E+02  0.41171616865E+03  0.44532874092E+03  0.12509269097E+03 0.  0.
          5    1    3    3  502    0 -0.35470831604E+02 -0.40071137771E+02  0.60375517341E+02  0.80787074901E+02  0.41800000000E+01 0.  1.
         -5    1    3    3    0  502 -0.77814585702E+02  0.58118765049E+02  0.35134065131E+03  0.36454166601E+03  0.41800000000E+01 0.  1.
        -11    1    1    2    0    0  0.85628091634E+02  0.15334310888E+02  0.10590117739E+03  0.13704878890E+03  0.00000000000E+00 0. -1.
         11    1    1    2    0    0  0.27657325672E+02 -0.33381938167E+02  0.16981980367E+03  0.17526564745E+03  0.00000000000E+00 0.  1.
</event>
<event>
 7    1  0.2794945E-009  0.1217569E+03  0.7561462E-02  0.1240227E+00
         -2   -1    0    0    0  501 -0.00000000000E+00  0.00000000000E+00  0.11610426081E+03  0.11610426081E+03  0.00000000000E+00 0.  1.
          2   -1    0    0  501    0  0.00000000000E+00 -0.00000000000E+00 -0.23784846173E+03  0.23784846173E+03  0.00000000000E+00 0. -1.
         25    2    1    2    0    0  0.46672442601E+02  0.10625513618E+03 -0.78064327436E+01  0.17081326103E+03  0.12509100244E+03 0.  0.
          5    1    3    3  502    0  0.32280121011E+02  0.21496836279E+02  0.52725515822E+02  0.65586375118E+02  0.41800000000E+01 0.  1.
         -5    1    3    3    0  502  0.14392321590E+02  0.84758299897E+02 -0.60531948565E+02  0.10522688591E+03  0.41800000000E+01 0.  1.
        -11    1    1    2    0    0  0.26160032907E+00 -0.21889736860E+02 -0.76537009631E+02  0.79606173490E+02  0.00000000000E+00 0. -1.
         11    1    1    2    0    0 -0.46934042930E+02 -0.84365399316E+02 -0.37400758542E+02  0.10353328801E+03  0.00000000000E+00 0.  1.
</event>
<event>
 7    1  0.2794945E-009  0.9901287E+02  0.7561462E-02  0.1282386E+00
          1   -1    0    0  501    0  0.00000000000E+00  0.00000000000E+00  0.51084096895E+03  0.51084096895E+03  0.00000000000E+00 0. -1.
         -1   -1    0    0    0  501 -0.00000000000E+00 -0.00000000000E+00 -0.35371807944E+02  0.35371807944E+02  0.00000000000E+00 0.  1.
         25    2    1    2    0    0 -0.39157479378E+02  0.68322204065E+02  0.23795226800E+03  0.28012407805E+03  0.12508791107E+03 0.  0.
          5    1    3    3  502    0 -0.30440363889E+02 -0.82549071297E+01  0.18208094444E+03  0.18483966559E+03  0.41800000000E+01 0. -1.
         -5    1    3    3    0  502 -0.87171154884E+01  0.76577111195E+02  0.55871323559E+02  0.95284412459E+02  0.41800000000E+01 0. -1.
        -11    1    1    2    0    0  0.42627491018E+02 -0.33994958860E+02  0.22138732978E+03  0.22800243421E+03  0.00000000000E+00 0. -1.
         11    1    1    2    0    0 -0.34700116405E+01 -0.34327245205E+02  0.16129563223E+02  0.38086264636E+02  0.00000000000E+00 0.  1.
</event>
<event>
 7    1  0.2794945E-009  0.1378006E+03  0.7561462E-02  0.1216319E+00
          2   -1    0    0  501    0  0.00000000000E+00  0.00000000000E+00  0.20046265821E+04  0.20046265821E+04  0.00000000000E+00 0. -1.
         -2   -1    0    0    0  501 -0.00000000000E+00 -0.00000000000E+00 -0.13786459108E+02  0.13786459108E+02  0.00000000000E+00 0.  1.
         25    2    1    2    0    0  0.97809752722E+02  0.55133574449E+02  0.14096406899E+04  0.14196268931E+04  0.12508869732E+03 0.  0.
          5    1    3    3  502    0 -0.10178310058E+01 -0.12138280534E+02  0.14605360271E+02  0.19472102684E+02  0.41800000000E+01 0.  1.
         -5    1    3    3    0  502  0.98827583728E+02  0.67271854983E+02  0.13950353296E+04  0.14001547904E+04  0.41800000000E+01 0.  1.
        -11    1    1    2    0    0 -0.93991012284E+02 -0.63917949254E+01  0.41410534266E+03  0.42468623742E+03  0.00000000000E+00 0. -1.
         11    1    1    2    0    0 -0.38187404379E+01 -0.48741779523E+02  0.16709409048E+03  0.17409991075E+03  0.00000000000E+00 0.  1.
</event>
<event>
 7    1  0.2794945E-009  0.1445553E+03  0.7561462E-02  0.1207328E+00
         -3   -1    0    0    0  501 -0.00000000000E+00  0.00000000000E+00  0.11200281744E+04  0.11200281744E+04  0.00000000000E+00 0.  1.
          3   -1    0    0  501    0  0.00000000000E+00 -0.00000000000E+00 -0.26002445242E+02  0.26002445242E+02  0.00000000000E+00 0. -1.
         25    2    1    2    0    0 -0.87415384649E+02  0.99711867501E+02  0.62586774342E+03  0.65187593261E+03  0.12509153953E+03 0.  0.
          5    1    3    3  502    0 -0.13890718858E+02  0.62611118974E+02  0.48024664745E+03  0.48452803745E+03  0.41800000000E+01 0. -1.
         -5    1    3    3    0  502 -0.73524665791E+02  0.37100748528E+02  0.14562109598E+03  0.16734789516E+03  0.41800000000E+01 0. -1.
        -11    1    1    2    0    0  0.34380151641E+02 -0.77684735572E+02  0.16478604140E+03  0.18539512510E+03  0.00000000000E+00 0. -1.
         11    1    1    2    0    0  0.53035233008E+02 -0.22027131929E+02  0.30337194436E+03  0.30875956196E+03  0.00000000000E+00 0.  1.
</event>
<event>
 7    1  0.2794945E-009  0.9522292E+02  0.7561462E-02  0.1290675E+00
         -3   -1    0    0    0  501 -0.00000000000E+00  0.00000000000E+00  0.44484224190E+02  0.44484224190E+02  0.00000000000E+00 0.  1.
          3   -1    0    0  501    0  0.00000000000E+00 -0.00000000000E+00 -0.27625340127E+03  0.27625340127E+03  0.00000000000E+00 0. -1.
         25    2    1    2    0    0  0.13621188550E+02 -0.23342624455E+02 -0.10270481390E+03  0.16409144247E+03  0.12508919937E+03 0.  0.
          5    1    3    3  502    0  0.48519143417E+02 -0.57245456917E+02 -0.81465190228E+02  0.11083861797E+03  0.41800000000E+01 0.  1.
         -5    1    3    3    0  502 -0.34897954867E+02  0.33902832461E+02 -0.21239623674E+02  0.53252824494E+02  0.41800000000E+01 0.  1.
        -11    1    1    2    0    0 -0.36434759475E+02  0.24004564630E+02 -0.25373011662E+02  0.50472770301E+02  0.00000000000E+00 0.  1.
         11    1    1    2    0    0  0.22813570925E+02 -0.66194017433E+00 -0.10369135151E+03  0.10617341269E+03  0.00000000000E+00 0. -1.
</event>
<event>
 7    1  0.2794945E-009  0.2143441E+03  0.7561462E-02  0.1138171E+00
         -2   -1    0    0    0  501 -0.00000000000E+00  0.00000000000E+00  0.68719603314E+02  0.68719603314E+02  0.00000000000E+00 0.  1.
          2   -1    0    0  501    0  0.00000000000E+00 -0.00000000000E+00 -0.80816767965E+03  0.80816767965E+03  0.00000000000E+00 0. -1.
         25    2    1    2    0    0 -0.19980090861E+03 -0.14807292887E+02 -0.44673815963E+03  0.50533375767E+03  0.12509022493E+03 0.  0.
          5    1    3    3  502    0 -0.61467276249E+02 -0.18464795263E+02 -0.28622943557E+03  0.29336655723E+03  0.41800000000E+01 0. -1.
         -5    1    3    3    0  502 -0.13833363236E+03  0.36575023756E+01 -0.16050872406E+03  0.21196720044E+03  0.41800000000E+01 0. -1.
        -11    1    1    2    0    0  0.12260486316E+03  0.59974206860E+02 -0.20503430548E+03  0.24630859583E+03  0.00000000000E+00 0. -1.
         11    1    1    2    0    0  0.77196045448E+02 -0.45166913972E+02 -0.87675611231E+02  0.12524492946E+03  0.00000000000E+00 0.  1.
</event>
<event>
 7    1  0.2794945E-009  0.8073331E+02  0.7561462E-02  0.1326983E+00
          2   -1    0    0  501    0  0.00000000000E+00  0.00000000000E+00  0.24853142503E+03  0.24853142503E+03  0.00000000000E+00 0. -1.
         -2   -1    0    0    0  501 -0.00000000000E+00 -0.00000000000E+00 -0.50376643044E+02  0.50376643044E+02  0.00000000000E+00 0.  1.
         25    2    1    2    0    0  0.80592833407E+01 -0.20000047776E+02  0.91588760053E+02  0.15653348429E+03  0.12509706941E+03 0.  0.
          5    1    3    3  502    0 -0.51770266239E+02  0.15403893344E+02  0.23229136326E+02  0.58944936773E+02  0.41800000000E+01 0.  1.
         -5    1    3    3    0  502  0.59829549580E+02 -0.35403941120E+02  0.68359623727E+02  0.97588547514E+02  0.41800000000E+01 0.  1.
        -11    1    1    2    0    0  0.10993007235E+02  0.13730500813E+02 -0.12533652899E+02  0.21597808121E+02  0.00000000000E+00 0.  1.
         11    1    1    2    0    0 -0.19052290576E+02  0.62695469623E+01  0.11909967484E+03  0.12077677567E+03  0.00000000000E+00 0. -1.
</event>
<event>
 7    1  0.2794945E-009  0.9254401E+02  0.7561462E-02  0.1296805E+00
          2   -1    0    0  501    0  0.00000000000E+00  0.00000000000E+00  0.21194974588E+03  0.21194974588E+03  0.00000000000E+00 0. -1.
         -2   -1    0    0    0  501 -0.00000000000E+00 -0.00000000000E+00 -0.77648096325E+02  0.77648096325E+02  0.00000000000E+00 0.  1.
         25    2    1    2    0    0  0.62814195185E+02  0.32360983645E+02  0.86950249499E+02  0.16792941404E+03  0.12508831214E+03 0.  0.
          5    1    3    3  502    0  0.12189413976E+02 -0.30788129837E+02 -0.15912783993E+02  0.36975395147E+02  0.41800000000E+01 0. -1.
         -5    1    3    3    0  502  0.50624781209E+02  0.63149113482E+02  0.10286303349E+03  0.13095401890E+03  0.41800000000E+01 0. -1.
        -11    1    1    2    0    0 -0.14589093840E+02 -0.80122856530E+01  0.63210685806E+02  0.65365351529E+02  0.00000000000E+00 0. -1.
         11    1    1    2    0    0 -0.48225101344E+02 -0.24348697992E+02 -0.15859285751E+02  0.56303076631E+02  0.00000000000E+00 0.  1.
</event>
<event>
 7    1  0.2794945E-009  0.1801829E+03  0.7561462E-02  0.1167626E+00
          2   -1    0    0  501    0  0.00000000000E+00  0.00000000000E+00  0.50612232136E+03  0.50612232136E+03  0.00000000000E+00 0. -1.
         -2   -1    0    0    0  501 -0.00000000000E+00 -0.00000000000E+00 -0.64570353082E+02  0.64570353082E+02  0.00000000000E+00 0.  1.
         25    2    1    2    0    0  0.59607908915E+02  0.12851698649E+03  0.23389791331E+03  0.30070577827E+03  0.12508402220E+03 0.  0.
          5    1    3    3  502    0  0.44136227434E+02  0.15260895220E+03  0.20883302327E+03  0.26242370867E+03  0.41800000000E+01 0.  1.
         -5    1    3    3    0  502  0.15471681481E+02 -0.24091965712E+02  0.25064890047E+02  0.38282069599E+02  0.41800000000E+01 0.  1.
        -11    1    1    2    0    0 -0.81553059199E+02 -0.12645300494E+03  0.18292094530E+03  0.23685720625E+03  0.00000000000E+00 0. -1.
         11    1    1    2    0    0  0.21945150284E+02 -0.20639815448E+01  0.24733109659E+02  0.33129689920E+02  0.00000000000E+00 0.  1.
</event>
<event>
 7    1  0.2794945E-009  0.1033412E+03  0.7561462E-02  0.1273423E+00
          2   -1    0    0  501    0  0.00000000000E+00  0.00000000000E+00  0.56676527681E+03  0.56676527681E+03  0.00000000000E+00 0. -1.
         -2   -1    0    0    0  501 -0.00000000000E+00 -0.00000000000E+00 -0.43277212237E+02  0.43277212237E+02  0.00000000000E+00 0.  1.
         25    2    1    2    0    0 -0.20270979960E+02 -0.54119142298E+00  0.65969761495E+02  0.14286442280E+03  0.12508808238E+03 0.  0.
          5    1    3    3  502    0  0.45600985067E+02 -0.76312732418E+01 -0.37756098341E+01  0.46576966410E+02  0.41800000000E+01 0. -1.
         -5    1    3    3    0  502 -0.65871965027E+02  0.70900818188E+01  0.69745371329E+02  0.96287456393E+02  0.41800000000E+01 0. -1.
        -11    1    1    2    0    0  0.46004230744E+01  0.45773780594E+02  0.25133329221E+03  0.25550895611E+03  0.00000000000E+00 0. -1.
         11    1    1    2    0    0  0.15670556886E+02 -0.45232589171E+02  0.20618501087E+03  0.21166911013E+03  0.00000000000E+00 0.  1.
</event>
<event>
 7    1  0.2794945E-009  0.1618132E+03  0.7561462E-02  0.1186665E+00
          2   -1    0    0  501    0  0.00000000000E+00  0.00000000000E+00  0.19115264362E+03  0.19115264362E+03  0.00000000000E+00 0. -1.
         -2   -1    0    0    0  501 -0.00000000000E+00 -0.00000000000E+00 -0.16310692736E+03  0.16310692736E+03  0.00000000000E+00 0.  1.
         25    2    1    2    0    0 -0.12919436498E+03 -0.49585632506E+02 -0.12206862376E+01  0.18654719557E+03  0.12509375367E+03 0.  0.
          5    1    3    3  502    0 -0.89689388189E+02 -0.90947340150E+02  0.96968334707E+01  0.12816827226E+03  0.41800000000E+01 0. -1.
         -5    1    3    3    0  502 -0.39504976790E+02  0.41361707644E+02 -0.10917519708E+02  0.58378923311E+02  0.41800000000E+01 0. -1.
        -11    1    1    2    0    0  0.72631972996E+02  0.30571300519E+02  0.61434739931E+02  0.99921144845E+02  0.00000000000E+00 0. -1.
         11    1    1    2    0    0  0.56562391983E+02  0.19014331987E+02 -0.32168337431E+02  0.67791230560E+02  0.00000000000E+00 0.  1.
</event>
<event>
 7    1  0.2794945E-009  0.1174814E+03  0.7561462E-02  0.1247311E+00
         -1   -1    0    0    0  501 -0.00000000000E+00  0.00000000000E+00  0.34122044559E+02  0.34122044559E+02  0.00000000000E+00 0.  1.
          1   -1    0    0  501    0  0.00000000000E+00 -0.00000000000E+00 -0.49313551007E+03  0.49313551007E+03  0.00000000000E+00 0. -1.
         25    2    1    2    0    0 -0.29866812838E+02  0.56783945319E+02 -0.32423108309E+03  0.35339638358E+03  0.12508703264E+03 0.  0.
          5    1    3    3  502    0 -0.57871423672E+02 -0.15763590795E+02 -0.17544055025E+03  0.18545741168E+03  0.41800000000E+01 0. -1.
         -5    1    3    3    0  502  0.28004610834E+02  0.72547536114E+02 -0.14879053283E+03  0.16793897191E+03  0.41800000000E+01 0. -1.
        -11    1    1    2    0    0 -0.14241841156E+02  0.96594110891E+01  0.49837295116E-01  0.17208624171E+02  0.00000000000E+00 0.  1.
         11    1    1    2    0    0  0.44108653994E+02 -0.66443356408E+02 -0.13483221972E+03  0.15665254687E+03  0.00000000000E+00 0. -1.
</event>
<event>
 7    1  0.2794945E-009  0.1409111E+03  0.7561462E-02  0.1212108E+00
         -1   -1    0    0    0  501 -0.00000000000E+00  0.00000000000E+00  0.31284121738E+03  0.31284121738E+03  0.00000000000E+00 0.  1.
          1   -1    0    0  501    0  0.00000000000E+00 -0.00000000000E+00 -0.78268371166E+02  0.78268371166E+02  0.00000000000E+00 0. -1.
         25    2    1    2    0    0 -0.10058484234E+03  0.34343111377E+02  0.17068970914E+03  0.23680889551E+03  0.12508683536E+03 0.  0.
          5    1    3    3  502    0  0.27179714122E+02 -0.76490622413E+01  0.20378885238E+02  0.35071589306E+02  0.41800000000E+01 0. -1.
         -5    1    3    3    0  502 -0.12776455646E+03  0.41992173618E+02  0.15031082390E+03  0.20173730621E+03  0.41800000000E+01 0. -1.
        -11    1    1    2    0    0  0.11851540261E+02  0.13460880409E+02  0.49299127040E+02  0.52460063237E+02  0.00000000000E+00 0.  1.
         11    1    1    2    0    0  0.88733302078E+02 -0.47803991786E+02  0.14584010032E+02  0.10184062979E+03  0.00000000000E+00 0. -1.
</event>
<event>
 7    1  0.2794945E-009  0.4171983E+03  0.7561462E-02  0.1037982E+00
         -2   -1    0    0    0  501 -0.00000000000E+00  0.00000000000E+00  0.18500621683E+03  0.18500621683E+03  0.00000000000E+00 0.  1.
          2   -1    0    0  501    0  0.00000000000E+00 -0.00000000000E+00 -0.99802654490E+03  0.99802654490E+03  0.00000000000E+00 0. -1.
         25    2    1    2    0    0  0.21531058021E+03  0.35158935782E+03 -0.47718726995E+03  0.64290666984E+03  0.12509025956E+03 0.  0.
          5    1    3    3  502    0  0.21218394870E+03  0.28928706571E+03 -0.35020812536E+03  0.50137036006E+03  0.41800000000E+01 0. -1.
         -5    1    3    3    0  502  0.31266315090E+01  0.62302292113E+02 -0.12697914459E+03  0.14153630978E+03  0.41800000000E+01 0. -1.
        -11    1    1    2    0    0 -0.23057702955E+02 -0.24192591808E+02 -0.27462726394E+00  0.33421768118E+02  0.00000000000E+00 0. -1.
         11    1    1    2    0    0 -0.19225287725E+03 -0.32739676601E+03 -0.33555843086E+03  0.50670432377E+03  0.00000000000E+00 0.  1.
</event>
<event>
 6    1  0.2794945E-009  0.1368582E+03  0.7561462E-02  0.1217620E+00
         -2   -1    0    0    0  501 -0.00000000000E+00  0.00000000000E+00  0.76404231650E+02  0.76404231650E+02  0.00000000000E+00 0.  1.
          2   -1    0    0  501    0  0.00000000000E+00 -0.00000000000E+00 -0.34563767862E+03  0.34563767862E+03  0.00000000000E+00 0. -1.
          5    1    1    2  502    0  0.62050556908E+02 -0.38020353957E+02 -0.51698563416E+02  0.89364605895E+02  0.41800000000E+01 0.  1.
         -5    1    1    2    0  502 -0.44049743488E+02 -0.70094351777E+02 -0.15695775447E+03  0.17750156940E+03  0.41800000000E+01 0.  1.
        -11    1    1    2    0    0  0.13190372677E+02  0.16326188037E+02  0.20094374838E+02  0.29057086009E+02  0.00000000000E+00 0.  1.
         11    1    1    2    0    0 -0.31191186097E+02  0.91788517697E+02 -0.80671503924E+02  0.12611864896E+03  0.00000000000E+00 0. -1.
</event>
<event>
 7    1  0.2794945E-009  0.3068205E+03  0.7561462E-02  0.1081880E+00
         -2   -1    0    0    0  501 -0.00000000000E+00  0.00000000000E+00  0.11657595441E+03  0.11657595441E+03  0.00000000000E+00 0.  1.
          2   -1    0    0  501    0  0.00000000000E+00 -0.00000000000E+00 -0.91466447931E+03  0.91466447931E+03  0.00000000000E+00 0. -1.
         25    2    1    2    0    0 -0.28659460116E+03 -0.90230751539E+02 -0.51213686240E+03  0.60680067376E+03  0.12507932643E+03 0.  0.
          5    1    3    3  502    0 -0.20854696541E+03 -0.25728172950E+02 -0.25520958567E+03  0.33061031546E+03  0.41800000000E+01 0.  1.
         -5    1    3    3    0  502 -0.78047635748E+02 -0.64502578589E+02 -0.25692727673E+03  0.27619035830E+03  0.41800000000E+01 0.  1.
        -11    1    1    2    0    0  0.16371215414E+03  0.35013589844E+02 -0.21401888950E+03  0.27171990348E+03  0.00000000000E+00 0. -1.
         11    1    1    2    0    0  0.12288244702E+03  0.55217161695E+02 -0.71932773000E+02  0.15271985648E+03  0.00000000000E+00 0.  1.
</event>
<event>
 7    1  0.2794945E-009  0.7804587E+02  0.7561462E-02  0.1334690E+00
          2   -1    0    0  501    0  0.00000000000E+00  0.00000000000E+00  0.19307213012E+03  0.19307213012E+03  0.00000000000E+00 0.  1.
         -2   -1    0    0    0  501 -0.00000000000E+00 -0.00000000000E+00 -0.11482305253E+03  0.11482305253E+03  0.00000000000E+00 0. -1.
         25    2    1    2    0    0 -0.39671925153E+01 -0.71347623580E+02 -0.32617237664E+02  0.14770825824E+03  0.12509046067E+03 0.  0.
          5    1    3    3  502    0 -0.93342877462E+01 -0.48774271936E+02 -0.80304665794E+02  0.94511217741E+02  0.41800000000E+01 0.  1.
         -5    1    3    3    0  502  0.53670952309E+01 -0.22573351644E+02  0.47687428130E+02  0.53197040494E+02  0.41800000000E+01 0.  1.
        -11    1    1    2    0    0 -0.18720104314E+02  0.37802739061E+02  0.11199346413E+03  0.11967466479E+03  0.00000000000E+00 0.  1.
         11    1    1    2    0    0  0.22687296830E+02  0.33544884520E+02 -0.11271488822E+01  0.40512259620E+02  0.00000000000E+00 0. -1.
</event>
<event>
 7    1  0.2794945E-009  0.7885830E+02  0.7561462E-02  0.1332323E+00
         -1   -1    0    0    0  501 -0.00000000000E+00  0.00000000000E+00  0.29511211605E+03  0.29511211605E+03  0.00000000000E+00 0.  1.
          1   -1    0    0  501    0  0.00000000000E+00 -0.00000000000E+00 -0.77008986821E+02  0.77008986821E+02  0.00000000000E+00 0. -1.
         25    2    1    2    0    0  0.65647795140E+02 -0.19836224371E+01  0.20579804351E+03  0.24962564409E+03  0.12508620910E+03 0.  0.
          5    1    3    3  502    0  0.44344057476E+02 -0.22167561068E+02  0.21331847040E+03  0.21904346238E+03  0.41800000000E+01 0.  1.
         -5    1    3    3    0  502  0.21303737665E+02  0.20183938631E+02 -0.75204268930E+01  0.30582181704E+02  0.41800000000E+01 0.  1.
        -11    1    1    2    0    0 -0.47829633005E+02  0.21022071431E+02  0.52833383776E+02  0.74303214748E+02  0.00000000000E+00 0.  1.
         11    1    1    2    0    0 -0.17818162135E+02 -0.19038448994E+02 -0.40528298056E+02  0.48192244037E+02  0.00000000000E+00 0. -1.
</event>
<event>
 7    1  0.2794945E-009  0.7726338E+02  0.7561462E-02  0.1337002E+00
         -2   -1    0    0    0  501 -0.00000000000E+00  0.00000000000E+00  0.18151958417E+02  0.18151958417E+02  0.00000000000E+00 0.  1.
          2   -1    0    0  501    0  0.00000000000E+00 -0.00000000000E+00 -0.95328411163E+03  0.95328411163E+03  0.00000000000E+00 0. -1.
         25    2    1    2    0    0  0.11904656859E+02 -0.31244447522E+02 -0.75209214890E+03  0.76315682360E+03  0.12509116923E+03 0.  0.
          5    1    3    3  502    0  0.24449845569E+02  0.96898014233E+01 -0.31356852069E+02  0.41138932554E+02  0.41800000000E+01 0. -1.
         -5    1    3    3    0  502 -0.12545188710E+02 -0.40934248945E+02 -0.72073529683E+03  0.72201789105E+03  0.41800000000E+01 0. -1.
        -11    1    1    2    0    0 -0.33057529608E+02 -0.13249184309E+02 -0.13443567871E+03  0.13907297674E+03  0.00000000000E+00 0.  1.
         11    1    1    2    0    0  0.21152872749E+02  0.44493631831E+02 -0.48604325597E+02  0.69206269700E+02  0.00000000000E+00 0. -1.
</event>
<event>
 7    1  0.2794945E-009  0.1603794E+03  0.7561462E-02  0.1188269E+00
         -1   -1    0    0    0  501 -0.00000000000E+00  0.00000000000E+00  0.40555591698E+02  0.40555591698E+02  0.00000000000E+00 0.  1.
          1   -1    0    0  501    0  0.00000000000E+00 -0.00000000000E+00 -0.10709524464E+04  0.10709524464E+04  0.00000000000E+00 0. -1.
         25    2    1    2    0    0 -0.91018314884E+02  0.11837263172E+03 -0.79454547328E+03  0.81807507584E+03  0.12509159452E+03 0.  0.
          5    1    3    3  502    0  0.19482226200E+01  0.51111676058E+02 -0.48868010112E+03  0.49136739069E+03  0.41800000000E+01 0.  1.
         -5    1    3    3    0  502 -0.92966537504E+02  0.67260955666E+02 -0.30586537216E+03  0.32670768516E+03  0.41800000000E+01 0.  1.
        -11    1    1    2    0    0  0.54871370766E+02 -0.38754264656E+02 -0.38140023162E+02  0.77249088833E+02  0.00000000000E+00 0.  1.
         11    1    1    2    0    0  0.36146944119E+02 -0.79618367068E+02 -0.19771135829E+03  0.21618387346E+03  0.00000000000E+00 0. -1.
</event>
<event>
 7    1  0.2794945E-009  0.1220114E+03  0.7561462E-02  0.1239815E+00
         -1   -1    0    0    0  501 -0.00000000000E+00  0.00000000000E+00  0.74181394273E+02  0.74181394273E+02  0.00000000000E+00 0.  1.
          1   -1    0    0  501    0  0.00000000000E+00 -0.00000000000E+00 -0.24693562896E+03  0.24693562896E+03  0.00000000000E+00 0. -1.
         25    2    1    2    0    0 -0.76632203434E+02  0.82290223356E+01 -0.67619589039E+02  0.16173325861E+03  0.12508008118E+03 0.  0.
          5    1    3    3  502    0  0.17041850531E+02  0.41763980854E+02 -0.33955008517E+02  0.56613335617E+02  0.41800000000E+01 0. -1.
         -5    1    3    3    0  502 -0.93674053965E+02 -0.33534958518E+02 -0.33664580523E+02  0.10511992300E+03  0.41800000000E+01 0. -1.
        -11    1    1    2    0    0  0.14035670397E+02 -0.29791683069E+02 -0.83455776885E+02  0.89718510460E+02  0.00000000000E+00 0. -1.
         11    1    1    2    0    0  0.62596533037E+02  0.21562660734E+02 -0.21678868761E+02  0.69665254158E+02  0.00000000000E+00 0.  1.
</event>
<event>
 7    1  0.2794945E-009  0.1229388E+03  0.7561462E-02  0.1238326E+00
          2   -1    0    0  501    0  0.00000000000E+00  0.00000000000E+00  0.56274676593E+03  0.56274676593E+03  0.00000000000E+00 0.  1.
         -2   -1    0    0    0  501 -0.00000000000E+00 -0.00000000000E+00 -0.66403471150E+02  0.66403471150E+02  0.00000000000E+00 0. -1.
         25    2    1    2    0    0 -0.73430512130E+02  0.79593660313E+02  0.45170306132E+03  0.48105099596E+03  0.12508882538E+03 0.  0.
          5    1    3    3  502    0 -0.17425058702E+02  0.19379147651E+02  0.34627273955E+03  0.34727721865E+03  0.41800000000E+01 0. -1.
         -5    1    3    3    0  502 -0.56005453428E+02  0.60214512662E+02  0.10543032177E+03  0.13377377731E+03  0.41800000000E+01 0. -1.
        -11    1    1    2    0    0  0.92173016372E+02 -0.71830661995E+02  0.24270065525E+02  0.11935051332E+03  0.00000000000E+00 0.  1.
         11    1    1    2    0    0 -0.18742504242E+02 -0.77629983189E+01  0.20370167932E+02  0.28748727794E+02  0.00000000000E+00 0. -1.
</event>
<event>
 7    1  0.2794945E-009  0.1152927E+03  0.7561462E-02  0.1251071E+00
          4   -1    0    0  501    0  0.00000000000E+00  0.00000000000E+00  0.51788544876E+03  0.51788544876E+03  0.00000000000E+00 0. -1.
         -4   -1    0    0    0  501 -0.00000000000E+00 -0.00000000000E+00 -0.34196187301E+02  0.34196187301E+02  0.00000000000E+00 0.  1.
         25    2    1    2    0    0  0.30890751767E+02  0.53705491360E+02  0.17234759792E+03  0.22178851655E+03  0.12509169925E+03 0.  0.
          5    1    3    3  502    0 -0.41370894662E+02 -0.10369586543E+02  0.49725837676E+02  0.65644577710E+02  0.41800000000E+01 0. -1.
         -5    1    3    3    0  502  0.72261646429E+02  0.64075077903E+02  0.12262176024E+03  0.15614393884E+03  0.41800000000E+01 0. -1.
        -11    1    1    2    0    0 -0.51971275937E+02 -0.42804730941E+02  0.29204549809E+03  0.29970624196E+03  0.00000000000E+00 0. -1.
         11    1    1    2    0    0  0.21080524170E+02 -0.10900760419E+02  0.19296165447E+02  0.30586877545E+02  0.00000000000E+00 0.  1.
</event>
<event>
 7    1  0.2794945E-009  0.8390719E+02  0.7561462E-02  0.1318315E+00
          1   -1    0    0  501    0  0.00000000000E+00  0.00000000000E+00  0.26951265644E+03  0.26951265644E+03  0.00000000000E+00 0. -1.
         -1   -1    0    0    0  501 -0.00000000000E+00 -0.00000000000E+00 -0.10047185353E+03  0.10047185353E+03  0.00000000000E+00 0.  1.
         25    2    1    2    0    0  0.44640615748E+02 -0.66302633388E+02 -0.18891532422E+02  0.14964065840E+03  0.12508642165E+03 0.  0.
          5    1    3    3  502    0 -0.24159049553E+01  0.13638688596E+01  0.44996202144E+02  0.45275018967E+02  0.41800000000E+01 0. -1.
         -5    1    3    3    0  502  0.47056520703E+02 -0.67666502247E+02 -0.63887734566E+02  0.10436563944E+03  0.41800000000E+01 0. -1.
        -11    1    1    2    0    0 -0.31476843601E+02  0.52386047444E+02  0.19136097626E+03  0.20088333152E+03  0.00000000000E+00 0. -1.
         11    1    1    2    0    0 -0.13163772147E+02  0.13916585943E+02 -0.34286409286E+01  0.19460520036E+02  0.00000000000E+00 0.  1.
</event>
<event>
 7    1  0.2794945E-009  0.7882021E+02  0.7561462E-02  0.1332433E+00
         -1   -1    0    0    0  501 -0.00000000000E+00  0.00000000000E+00  0.20459714201E+02  0.20459714201E+02  0.00000000000E+00 0.  1.
          1   -1    0    0  501    0  0.00000000000E+00 -0.00000000000E+00 -0.71514089908E+03  0.71514089908E+03  0.00000000000E+00 0. -1.
         25    2    1    2    0    0  0.11037916879E+01 -0.27409032314E+02 -0.53682067970E+03  0.55188671388E+03  0.12510007752E+03 0.  0.
          5    1    3    3  502    0 -0.37183103762E+02 -0.12127065896E+02 -0.47975365220E+03  0.48136336393E+03  0.41800000000E+01 0.  1.
         -5    1    3    3    0  502  0.38286895450E+02 -0.15281966418E+02 -0.57067027494E+02  0.70523349947E+02  0.41800000000E+01 0.  1.
        -11    1    1    2    0    0 -0.36371141061E+02  0.11191432402E+02 -0.13123914435E+03  0.13664487210E+03  0.00000000000E+00 0.  1.
         11    1    1    2    0    0  0.35267349373E+02  0.16217599912E+02 -0.26621360830E+02  0.47069027302E+02  0.00000000000E+00 0. -1.
</event>
<event>
 7    1  0.2794945E-009  0.5575409E+02  0.7561462E-02  0.1416566E+00
         -1   -1    0    0    0  501 -0.00000000000E+00  0.00000000000E+00  0.36300101881E+02  0.36300101881E+02  0.00000000000E+00 0.  1.
          1   -1    0    0  501    0  0.00000000000E+00 -0.00000000000E+00 -0.28021703244E+03  0.28021703244E+03  0.00000000000E+00 0. -1.
         25    2    1    2    0    0 -0.26211165287E+02  0.21683139459E+02 -0.15354011971E+03  0.20094640835E+03  0.12509079481E+03 0.  0.
          5    1    3    3  502    0  0.13845777553E+02 -0.39314204136E+01 -0.15246969565E+03  0.15320457602E+03  0.41800000000E+01 0. -1.
         -5    1    3    3    0  502 -0.40056942840E+02  0.25614559872E+02 -0.10704240659E+01  0.47741832336E+02  0.41800000000E+01 0. -1.
        -11    1    1    2    0    0  0.31639256793E+02 -0.60112350074E+01 -0.10326466750E+02  0.33820310943E+02  0.00000000000E+00 0.  1.
         11    1    1    2    0    0 -0.54280915060E+01 -0.15671904451E+02 -0.80050344101E+02  0.81750415028E+02  0.00000000000E+00 0. -1.
</event>
<event>
 7    1  0.2794945E-009  0.1233990E+03  0.7561462E-02  0.1237593E+00
          2   -1    0    0  501    0  0.00000000000E+00  0.00000000000E+00  0.48805736309E+03  0.48805736309E+03  0.00000000000E+00 0. -1.
         -2   -1    0    0    0  501 -0.00000000000E+00 -0.00000000000E+00 -0.36236188722E+02  0.36236188722E+02  0.00000000000E+00 0.  1.
         25    2    1    2    0    0 -0.63242913923E+02  0.25762686747E+02  0.16434409130E+03  0.21752876294E+03  0.12508557139E+03 0.  0.
          5    1    3    3  502    0 -0.97651174764E+01  0.71160056359E+02  0.90084034619E+02  0.11528970827E+03  0.41800000000E+01 0. -1.
         -5    1    3    3    0  502 -0.53477796446E+02 -0.45397369612E+02  0.74260056684E+02  0.10223905467E+03  0.41800000000E+01 0. -1.
        -11    1    1    2    0    0  0.36926022941E+02  0.26913032823E+02  0.93853710265E+02  0.10438563808E+03  0.00000000000E+00 0.  1.
         11    1    1    2    0    0  0.26316890982E+02 -0.52675719570E+02  0.19362337280E+03  0.20237915080E+03  0.00000000000E+00 0. -1.
</event>
<event>
 7    1  0.2794945E-009  0.8456688E+02  0.7561462E-02  0.1316569E+00
          2   -1    0    0  501    0  0.00000000000E+00  0.00000000000E+00  0.79577411779E+02  0.79577411779E+02  0.00000000000E+00 0. -1.
         -2   -1    0    0    0  501 -0.00000000000E+00 -0.00000000000E+00 -0.17138579447E+03  0.17138579447E+03  0.00000000000E+00 0.  1.
         25    2    1    2    0    0  0.25883637857E+02  0.23513976509E+02 -0.75744027846E+02  0.15036227845E+03  0.12509511273E+03 0.  0.
          5    1    3    3  502    0  0.32784657071E+02 -0.35815703837E+02  0.59272276371E+01  0.49093816393E+02  0.41800000000E+01 0. -1.
         -5    1    3    3    0  502 -0.69010192144E+01  0.59329680345E+02 -0.81671255483E+02  0.10126846206E+03  0.41800000000E+01 0. -1.
        -11    1    1    2    0    0 -0.16186105042E+02  0.14230958818E+02 -0.46435323602E+02  0.51193256034E+02  0.00000000000E+00 0.  1.
         11    1    1    2    0    0 -0.96975328152E+01 -0.37744935326E+02  0.30370968757E+02  0.49407671760E+02  0.00000000000E+00 0. -1.
</event>
<event>
 7    1  0.2794945E-009  0.9545200E+02  0.7561462E-02  0.1290161E+00
          1   -1    0    0  501    0  0.00000000000E+00  0.00000000000E+00  0.88065936256E+02  0.88065936256E+02  0.00000000000E+00 0.  1.
         -1   -1    0    0    0  501 -0.00000000000E+00 -0.00000000000E+00 -0.17317540368E+03  0.17317540368E+03  0.00000000000E+00 0. -1.
         25    2    1    2    0    0  0.27179394062E+02  0.42468655531E+02 -0.24231656828E+02  0.13703050828E+03  0.12509148988E+03 0.  0.
          5    1    3    3  502    0  0.16268417714E+02  0.74927844137E+02  0.21505121835E+02  0.79741995881E+02  0.41800000000E+01 0.  1.
         -5    1    3    3    0  502  0.10910976348E+02 -0.32459188606E+02 -0.45736778663E+02  0.57288512394E+02  0.41800000000E+01 0.  1.
        -11    1    1    2    0    0  0.10057171598E+02 -0.41147139112E+02 -0.73532700564E+02  0.84860425464E+02  0.00000000000E+00 0. -1.
         11    1    1    2    0    0 -0.37236565659E+02 -0.13215164186E+01  0.12654889968E+02  0.39350406197E+02  0.00000000000E+00 0.  1.
</event>
<event>
 7    1  0.2794945E-009  0.9553551E+02  0.7561462E-02  0.1289975E+00
         -3   -1    0    0    0  501 -0.00000000000E+00  0.00000000000E+00  0.42385794440E+02  0.42385794440E+02  0.00000000000E+00 0.  1.
          3   -1    0    0  501    0  0.00000000000E+00 -0.00000000000E+00 -0.43461348036E+03  0.43461348036E+03  0.00000000000E+00 0. -1.
         25    2    1    2    0    0 -0.32082790326E+02  0.73285460758E+02 -0.23225131097E+03  0.27566083802E+03  0.12509261359E+03 0.  0.
          5    1    3    3  502    0  0.24476885205E+01  0.72595477325E+02 -0.45756624866E+02  0.85949029234E+02  0.41800000000E+01 0.  1.
         -5    1    3    3    0  502 -0.34530478847E+02  0.68998343279E+00 -0.18649468610E+03  0.18971180878E+03  0.41800000000E+01 0.  1.
        -11    1    1    2    0    0 -0.26354666188E+01 -0.18348641106E+02  0.87726603863E+01  0.20507995636E+02  0.00000000000E+00 0.  1.
         11    1    1    2    0    0  0.34718256945E+02 -0.54936819651E+02 -0.16874903534E+03  0.18083044115E+03  0.00000000000E+00 0. -1.
</event>
<event>
 7    1  0.2794945E-009  0.1796407E+03  0.7561462E-02  0.1168151E+00
          4   -1    0    0  501    0  0.00000000000E+00  0.00000000000E+00  0.20117273392E+03  0.20117273392E+03  0.00000000000E+00 0. -1.
         -4   -1    0    0    0  501 -0.00000000000E+00 -0.00000000000E+00 -0.26855879688E+03  0.26855879688E+03  0.00000000000E+00 0.  1.
         25    2    1    2    0    0 -0.18042882643E+02  0.17132432994E+03  0.78361717613E+02  0.22686157246E+03  0.12509213655E+03 0.  0.
          5    1    3    3  502    0  0.13116587464E+02  0.99754397127E+00  0.49351057840E+02  0.51244895069E+02  0.41800000000E+01 0. -1.
         -5    1    3    3    0  502 -0.31159470107E+02  0.17032678597E+03  0.29010659773E+02  0.17561667739E+03  0.41800000000E+01 0. -1.
        -11    1    1    2    0    0  0.13946257759E+02 -0.12811342377E+03 -0.15171140295E+03  0.19905752244E+03  0.00000000000E+00 0.  1.
         11    1    1    2    0    0  0.40966248836E+01 -0.43210906174E+02  0.59636223712E+01  0.43812435901E+02  0.00000000000E+00 0. -1.
</event>
<event>
 7    1  0.3568084E-009  0.1104835E+03  0.7561462E-02  0.1259677E+00
          2   -1    0    0  501    0  0.00000000000E+00  0.00000000000E+00  0.20083393831E+03  0.20083393831E+03  0.00000000000E+00 0. -1.
         -2   -1    0    0    0  501 -0.00000000000E+00 -0.00000000000E+00 -0.10061639762E+03  0.10061639762E+03  0.00000000000E+00 0.  1.
         25    2    1    2    0    0  0.69178958518E+02  0.59082133445E+02  0.47881587743E+02  0.16191515585E+03  0.12508974560E+03 0.  0.
          5    1    3    3  502    0 -0.11267510080E+02 -0.41880211871E+01 -0.30425646428E+02  0.32980125309E+02  0.41800000000E+01 0.  1.
         -5    1    3    3    0  502  0.80446468598E+02  0.63270154632E+02  0.78307234171E+02  0.12893503054E+03  0.41800000000E+01 0.  1.
        -11    1    1    2    0    0 -0.40993761967E+02 -0.65153576074E+02 -0.31111752516E+01  0.77039966295E+02  0.00000000000E+00 0. -1.
         11    1    1    2    0    0 -0.28185196551E+02  0.60714426282E+01  0.55447128198E+02  0.62495213782E+02  0.00000000000E+00 0.  1.
</event>
<event>
 7    1  0.2794945E-009  0.1454122E+03  0.7561462E-02  0.1206226E+00
         -4   -1    0    0    0  501 -0.00000000000E+00  0.00000000000E+00  0.26043111811E+03  0.26043111811E+03  0.00000000000E+00 0.  1.
          4   -1    0    0  501    0  0.00000000000E+00 -0.00000000000E+00 -0.88324183221E+02  0.88324183221E+02  0.00000000000E+00 0. -1.
         25    2    1    2    0    0 -0.95717421260E+02 -0.19228879928E+02  0.14228615353E+03  0.21312901828E+03  0.12508818645E+03 0.  0.
          5    1    3    3  502    0  0.30632195345E+02 -0.45513952611E+01  0.31951831717E+02  0.44692712387E+02  0.41800000000E+01 0.  1.
         -5    1    3    3    0  502 -0.12634961661E+03 -0.14677484667E+02  0.11033432181E+03  0.16843630589E+03  0.41800000000E+01 0.  1.
        -11    1    1    2    0    0 -0.16833583252E+02 -0.41864733758E+01  0.39197393031E+01  0.17783712791E+02  0.00000000000E+00 0.  1.
         11    1    1    2    0    0  0.11255100451E+03  0.23415353304E+02  0.25901042062E+02  0.11784257027E+03  0.00000000000E+00 0. -1.
</event>
<event>
 7    1  0.2794945E-009  0.1148377E+03  0.7561462E-02  0.1251865E+00
         -2   -1    0    0    0  501 -0.00000000000E+00  0.00000000000E+00  0.35185661802E+03  0.35185661802E+03  0.00000000000E+00 0.  1.
          2   -1    0    0  501    0  0.00000000000E+00 -0.00000000000E+00 -0.45608759945E+02  0.45608759945E+02  0.00000000000E+00 0. -1.
         25    2    1    2    0    0  0.57147028348E+01 -0.62918311019E+02  0.19923473479E+03  0.24358686542E+03  0.12509480313E+03 0.  0.
          5    1    3    3  502    0 -0.20066058603E+02 -0.85181284283E+02  0.77047803824E+02  0.11667190910E+03  0.41800000000E+01 0. -1.
         -5    1    3    3    0  502  0.25780761438E+02  0.22262973264E+02  0.12218693096E+03  0.12691495632E+03  0.41800000000E+01 0. -1.
        -11    1    1    2    0    0  0.40777460313E+02  0.25818284377E+02  0.65425685498E+02  0.81301324716E+02  0.00000000000E+00 0.  1.
         11    1    1    2    0    0 -0.46492163148E+02  0.37100026642E+02  0.41587437793E+02  0.72577187829E+02  0.00000000000E+00 0. -1.
</event>
<event>
 7    1  0.2794945E-009  0.9108120E+02  0.7561462E-02  0.1300254E+00
         -3   -1    0    0    0  501 -0.00000000000E+00  0.00000000000E+00  0.39548996920E+03  0.39548996920E+03  0.00000000000E+00 0.  1.
          3   -1    0    0  501    0  0.00000000000E+00 -0.00000000000E+00 -0.37073291151E+02  0.37073291151E+02  0.00000000000E+00 0. -1.
         25    2    1    2    0    0  0.49839952196E+01  0.17246748427E+02  0.11564081618E+03  0.17129490956E+03  0.12508739799E+03 0.  0.
          5    1    3    3  502    0 -0.66127352411E+01  0.60090358145E+02  0.16828141831E+02  0.62890684261E+02  0.41800000000E+01 0. -1.
         -5    1    3    3    0  502  0.11596730461E+02 -0.42843609718E+02  0.98812674346E+02  0.10840422530E+03  0.41800000000E+01 0. -1.
        -11    1    1    2    0    0  0.27923585249E+02  0.14321543509E+02  0.18510801951E+03  0.18774933318E+03  0.00000000000E+00 0.  1.
         11    1    1    2    0    0 -0.32907580469E+02 -0.31568291936E+02  0.57667842355E+02  0.73519017607E+02  0.00000000000E+00 0. -1.
</event>
<event>
 7    1  0.2819209E-009  0.1031392E+03  0.7561462E-02  0.1273830E+00
         -2   -1    0    0    0  501 -0.00000000000E+00  0.00000000000E+00  0.97263439259E+02  0.97263439259E+02  0.00000000000E+00 0.  1.
          2   -1    0    0  501    0  0.00000000000E+00 -0.00000000000E+00 -0.36523634096E+03  0.36523634096E+03  0.00000000000E+00 0. -1.
         25    2    1    2    0    0  0.77391184154E+02 -0.51680515312E+02  0.88338564391E+01  0.15615722281E+03  0.12508705036E+03 0.  0.
          5    1    3    3  502    0  0.75093551164E+02 -0.29133729564E+02 -0.48673466873E+02  0.94204004173E+02  0.41800000000E+01 0. -1.
         -5    1    3    3    0  502  0.22976329900E+01 -0.22546785747E+02  0.57507323312E+02  0.61953218636E+02  0.41800000000E+01 0. -1.
        -11    1    1    2    0    0 -0.60800615777E+02  0.15456258512E+02 -0.63192501445E+02  0.89044388060E+02  0.00000000000E+00 0.  1.
         11    1    1    2    0    0 -0.16590568377E+02  0.36224256799E+02 -0.21361425670E+03  0.21729816935E+03  0.00000000000E+00 0. -1.
</event>
<event>
 7    1  0.2794945E-009  0.1913172E+03  0.7561462E-02  0.1157279E+00
         -2   -1    0    0    0  501 -0.00000000000E+00  0.00000000000E+00  0.64989422930E+02  0.64989422930E+02  0.00000000000E+00 0.  1.
          2   -1    0    0  501    0  0.00000000000E+00 -0.00000000000E+00 -0.77041561157E+03  0.77041561157E+03  0.00000000000E+00 0. -1.
         25    2    1    2    0    0 -0.14740366128E+03 -0.11880243681E+03 -0.45703649524E+03  0.51026798069E+03  0.12509674568E+03 0.  0.
          5    1    3    3  502    0 -0.64052793956E+02 -0.48836280979E+02 -0.65599812229E+02  0.10396417901E+03  0.41800000000E+01 0. -1.
         -5    1    3    3    0  502 -0.83350867320E+02 -0.69966155831E+02 -0.39143668301E+03  0.40630380167E+03  0.41800000000E+01 0. -1.
        -11    1    1    2    0    0  0.69172530017E+02  0.79972647897E+02 -0.70855725964E+02  0.12728313801E+03  0.00000000000E+00 0.  1.
         11    1    1    2    0    0  0.78231131259E+02  0.38829788913E+02 -0.17753396743E+03  0.19785391580E+03  0.00000000000E+00 0. -1.
</event>
<event>
 7    1  0.2794945E-009  0.1507601E+03  0.7561462E-02  0.1199542E+00
         -1   -1    0    0    0  501 -0.00000000000E+00  0.00000000000E+00  0.66259173586E+02  0.66259173586E+02  0.00000000000E+00 0.  1.
          1   -1    0    0  501    0  0.00000000000E+00 -0.00000000000E+00 -0.41530992350E+03  0.41530992350E+03  0.00000000000E+00 0. -1.
         25    2    1    2    0    0  0.41249394889E+02 -0.10032292419E+03 -0.98611440990E+02  0.19271304739E+03  0.12509156904E+03 0.  0.
          5    1    3    3  502    0 -0.17786816218E+02  0.22460399541E+02 -0.21925501259E+02  0.36318595570E+02  0.41800000000E+01 0.  1.
         -5    1    3    3    0  502  0.59036211106E+02 -0.12278332373E+03 -0.76685939731E+02  0.15639445182E+03  0.41800000000E+01 0.  1.
        -11    1    1    2    0    0  0.22942849533E+02  0.48898209155E+02 -0.14758822569E+03  0.15716136156E+03  0.00000000000E+00 0. -1.
         11    1    1    2    0    0 -0.64192244421E+02  0.51424715039E+02 -0.10285108323E+03  0.13169468813E+03  0.00000000000E+00 0.  1.
</event>
<event>
 7    1  0.2794945E-009  0.1162579E+03  0.7561462E-02  0.1249401E+00
          1   -1    0    0  501    0  0.00000000000E+00  0.00000000000E+00  0.19248690727E+03  0.19248690727E+03  0.00000000000E+00 0. -1.
         -1   -1    0    0    0  501 -0.00000000000E+00 -0.00000000000E+00 -0.75802384341E+02  0.75802384341E+02  0.00000000000E+00 0.  1.
         25    2    1    2    0    0  0.11465722203E+02  0.44852489746E+02  0.39198934593E+02  0.13902204477E+03  0.12508942336E+03 0.  0.
          5    1    3    3  502    0 -0.41238101958E+02 -0.22456024438E+02  0.20540528086E+02  0.51422172073E+02  0.41800000000E+01 0.  1.
         -5    1    3    3    0  502  0.52703824162E+02  0.67308514185E+02  0.18658406508E+02  0.87599872697E+02  0.41800000000E+01 0.  1.
        -11    1    1    2    0    0  0.34575408529E+02 -0.40926327027E+02  0.24350629835E+02  0.58850457027E+02  0.00000000000E+00 0.  1.
         11    1    1    2    0    0 -0.46041130732E+02 -0.39261627192E+01  0.53134958500E+02  0.70416789813E+02  0.00000000000E+00 0. -1.
</event>
<event>
 7    1  0.2794945E-009  0.2359080E+03  0.7561462E-02  0.1122549E+00
          3   -1    0    0  501    0  0.00000000000E+00  0.00000000000E+00  0.11226425003E+04  0.11226425003E+04  0.00000000000E+00 0. -1.
         -3   -1    0    0    0  501 -0.00000000000E+00 -0.00000000000E+00 -0.65520727363E+02  0.65520727363E+02  0.00000000000E+00 0.  1.
         25    2    1    2    0    0 -0.21853871034E+03  0.61113317704E+02  0.77972672944E+03  0.82165382789E+03  0.12508890745E+03 0.  0.
          5    1    3    3  502    0 -0.18708153408E+03  0.14028707943E+02  0.45795329240E+03  0.49490907797E+03  0.41800000000E+01 0.  1.
         -5    1    3    3    0  502 -0.31457176263E+02  0.47084609761E+02  0.32177343704E+03  0.32674474992E+03  0.41800000000E+01 0.  1.
        -11    1    1    2    0    0  0.19283673179E+03 -0.48976618303E+02  0.27290970508E+03  0.33773424670E+03  0.00000000000E+00 0.  1.
         11    1    1    2    0    0  0.25701978551E+02 -0.12136699401E+02  0.44853384191E+01  0.28775153075E+02  0.00000000000E+00 0. -1.
</event>
<event>
 7    1  0.2794945E-009  0.1346110E+03  0.7561462E-02  0.1220770E+00
         -1   -1    0    0    0  501 -0.00000000000E+00  0.00000000000E+00  0.78523585272E+02  0.78523585272E+02  0.00000000000E+00 0.  1.
          1   -1    0    0  501    0  0.00000000000E+00 -0.00000000000E+00 -0.31048200217E+03  0.31048200217E+03  0.00000000000E+00 0. -1.
         25    2    1    2    0    0 -0.69124238489E+01 -0.10376681511E+03 -0.71929527251E+02  0.17786334700E+03  0.12508469048E+03 0.  0.
          5    1    3    3  502    0  0.58877868809E+02 -0.44608876377E+02 -0.29507550864E+02  0.79653771066E+02  0.41800000000E+01 0. -1.
         -5    1    3    3    0  502 -0.65790292658E+02 -0.59157938737E+02 -0.42421976387E+02  0.98209575929E+02  0.41800000000E+01 0. -1.
        -11    1    1    2    0    0 -0.68410429328E+01  0.67955002095E+02 -0.28279870126E+02  0.73921804851E+02  0.00000000000E+00 0.  1.
         11    1    1    2    0    0  0.13753466782E+02  0.35811813018E+02 -0.13174901952E+03  0.13722043560E+03  0.00000000000E+00 0. -1.
</event>
<event>
 7    1  0.2794945E-009  0.1514569E+03  0.7561462E-02  0.1198694E+00
          1   -1    0    0  501    0  0.00000000000E+00  0.00000000000E+00  0.29875711873E+03  0.29875711873E+03  0.00000000000E+00 0. -1.
         -1   -1    0    0    0  501 -0.00000000000E+00 -0.00000000000E+00 -0.92013917816E+02  0.92013917816E+02  0.00000000000E+00 0.  1.
         25    2    1    2    0    0  0.94786020815E+02 -0.74113297616E+02  0.98854685409E+02  0.19974187832E+03  0.12508956192E+03 0.  0.
          5    1    3    3  502    0  0.16050262199E+02 -0.67420545704E+02 -0.44968615737E+01  0.69576109864E+02  0.41800000000E+01 0. -1.
         -5    1    3    3    0  502  0.78735758616E+02 -0.66927519112E+01  0.10335154698E+03  0.13016576845E+03  0.41800000000E+01 0. -1.
        -11    1    1    2    0    0 -0.14385156136E+02  0.72523529697E+02  0.71176678767E+02  0.10262901479E+03  0.00000000000E+00 0. -1.
         11    1    1    2    0    0 -0.80400864680E+02  0.15897679188E+01  0.36711836738E+02  0.88400143439E+02  0.00000000000E+00 0.  1.
</event>
<event>
 7    1  0.2794945E-009  0.6740252E+02  0.7561462E-02  0.1369155E+00
          2   -1    0    0  501    0  0.00000000000E+00  0.00000000000E+00  0.25150128258E+03  0.25150128258E+03  0.00000000000E+00 0.  1.
         -2   -1    0    0    0  501 -0.00000000000E+00 -0.00000000000E+00 -0.66541099681E+02  0.66541099681E+02  0.00000000000E+00 0. -1.
         25    2    1    2    0    0 -0.12331405473E+02 -0.42842508148E+02  0.17006965373E+03  0.21577610464E+03  0.12509235048E+03 0.  0.
          5    1    3    3  502    0 -0.35148702185E+01  0.10099756894E+01  0.17075569536E+03  0.17084599574E+03  0.41800000000E+01 0. -1.
         -5    1    3    3    0  502 -0.88165352547E+01 -0.43852483837E+02 -0.68604163076E+00  0.44930108900E+02  0.41800000000E+01 0. -1.
        -11    1    1    2    0    0 -0.39600159981E+01 -0.19495963487E+02  0.30084144856E+02  0.36067022205E+02  0.00000000000E+00 0.  1.
         11    1    1    2    0    0  0.16291421471E+02  0.62338471635E+02 -0.15193615688E+02  0.66199255411E+02  0.00000000000E+00 0. -1.
</event>
<event>
 7    1  0.2794945E-009  0.1498809E+03  0.7561462E-02  0.1200619E+00
         -1   -1    0    0    0  501 -0.00000000000E+00  0.00000000000E+00  0.32499165253E+02  0.32499165253E+02  0.00000000000E+00 0.  1.
          1   -1    0    0  501    0  0.00000000000E+00 -0.00000000000E+00 -0.94943101677E+03  0.94943101677E+03  0.00000000000E+00 0. -1.
         25    2    1    2    0    0 -0.62800028704E+02  0.10778736712E+03 -0.68499368643E+03  0.70740800973E+03  0.12509109348E+03 0.  0.
          5    1    3    3  502    0  0.24463168417E+02 -0.76684232293E+01 -0.18696471260E+03  0.18876050297E+03  0.41800000000E+01 0.  1.
         -5    1    3    3    0  502 -0.87263197121E+02  0.11545579035E+03 -0.49802897383E+03  0.51864750676E+03  0.41800000000E+01 0.  1.
        -11    1    1    2    0    0  0.34555503118E+02 -0.87929612825E+02 -0.21743509528E+03  0.23707323819E+03  0.00000000000E+00 0. -1.
         11    1    1    2    0    0  0.28244525586E+02 -0.19857754296E+02 -0.14503069807E+02  0.37448934098E+02  0.00000000000E+00 0.  1.
</event>
<event>
 7    1  0.2794945E-009  0.1664085E+03  0.7561462E-02  0.1181646E+00
         -2   -1    0    0    0  501 -0.00000000000E+00  0.00000000000E+00  0.13309345750E+03  0.13309345750E+03  0.00000000000E+00 0. -1.
          2   -1    0    0  501    0  0.00000000000E+00 -0.00000000000E+00 -0.23159465135E+03  0.23159465135E+03  0.00000000000E+00 0.  1.
         25    2    1    2    0    0  0.47806600826E+02  0.12896379551E+03 -0.58626495195E+02  0.19493853462E+03  0.12508730832E+03 0.  0.
          5    1    3    3  502    0  0.24573947390E+02 -0.12713287775E+02  0.16871586528E+02  0.32674598825E+02  0.41800000000E+01 0. -1.
         -5    1    3    3    0  502  0.23232653436E+02  0.14167708329E+03 -0.75498081723E+02  0.16226393579E+03  0.41800000000E+01 0. -1.
        -11    1    1    2    0    0 -0.68245904887E+02 -0.12167062533E+03 -0.46516386470E+02  0.14705447566E+03  0.00000000000E+00 0. -1.
         11    1    1    2    0    0  0.20439304061E+02 -0.72931701837E+01  0.66416878187E+01  0.22695098565E+02  0.00000000000E+00 0.  1.
</event>
<event>
 7    1  0.2794945E-009  0.1001230E+03  0.7561462E-02  0.1280038E+00
         -2   -1    0    0    0  501 -0.00000000000E+00  0.00000000000E+00  0.10075470768E+03  0.10075470768E+03  0.00000000000E+00 0. -1.
          2   -1    0    0  501    0  0.00000000000E+00 -0.00000000000E+00 -0.12595061636E+03  0.12595061636E+03  0.00000000000E+00 0.  1.
         25    2    1    2    0    0 -0.26645153159E+02 -0.10859687244E+01  0.47261509135E+01  0.12798569043E+03  0.12508739720E+03 0.  0.
          5    1    3    3  502    0 -0.43296799054E+02 -0.55525791283E+02 -0.16015055238E+01  0.70553267294E+02  0.41800000000E+01 0.  1.
         -5    1    3    3    0  502  0.16651645895E+02  0.54439822559E+02  0.63276564373E+01  0.57432423136E+02  0.41800000000E+01 0.  1.
        -11    1    1    2    0    0 -0.11750281866E+02  0.24839801845E+02  0.18023240337E+02  0.32862167791E+02  0.00000000000E+00 0. -1.
         11    1    1    2    0    0  0.38395435026E+02 -0.23753833121E+02 -0.47945299927E+02  0.65857465817E+02  0.00000000000E+00 0.  1.
</event>
<event>
 7    1  0.2794945E-009  0.9921454E+02  0.7561462E-02  0.1281956E+00
         -2   -1    0    0    0  501 -0.00000000000E+00  0.00000000000E+00  0.73806543559E+02  0.73806543559E+02  0.00000000000E+00 0.  1.
          2   -1    0    0  501    0  0.00000000000E+00 -0.00000000000E+00 -0.17722575109E+03  0.17722575109E+03  0.00000000000E+00 0. -1.
         25    2    1    2    0    0 -0.24175251963E+02  0.22887525990E+02 -0.42965137959E+02  0.13638975768E+03  0.12509149159E+03 0.  0.
          5    1    3    3  502    0 -0.41607701339E+02  0.65922425277E+02 -0.44282535935E+02  0.89751781899E+02  0.41800000000E+01 0.  1.
         -5    1    3    3    0  502  0.17432449376E+02 -0.43034899287E+02  0.13173979764E+01  0.46637975785E+02  0.41800000000E+01 0.  1.
        -11    1    1    2    0    0 -0.79586199495E+01 -0.37577028962E+02  0.64819916953E+01  0.38953677021E+02  0.00000000000E+00 0.  1.
         11    1    1    2    0    0  0.32133871913E+02  0.14689502972E+02 -0.66936061269E+02  0.75688859946E+02  0.00000000000E+00 0. -1.
</event>
<event>
 7    1  0.2794945E-009  0.1049268E+03  0.7561462E-02  0.1270264E+00
          3   -1    0    0  501    0  0.00000000000E+00  0.00000000000E+00  0.13963447309E+03  0.13963447309E+03  0.00000000000E+00 0. -1.
         -3   -1    0    0    0  501 -0.00000000000E+00 -0.00000000000E+00 -0.13515786219E+03  0.13515786219E+03  0.00000000000E+00 0.  1.
         25    2    1    2    0    0  0.17361943737E+02  0.81466135037E+02  0.18022046922E+02  0.15136384599E+03  0.12509217182E+03 0.  0.
          5    1    3    3  502    0  0.34794983875E+02 -0.74702962430E+01  0.44235466019E+02  0.56927542391E+02  0.41800000000E+01 0. -1.
         -5    1    3    3    0  502 -0.17433040137E+02  0.88936431279E+02 -0.26213419097E+02  0.94436303601E+02  0.41800000000E+01 0. -1.
        -11    1    1    2    0    0 -0.78702631180E+01 -0.36541908412E+02 -0.51652500938E+02  0.63759179457E+02  0.00000000000E+00 0.  1.
         11    1    1    2    0    0 -0.94916806194E+01 -0.44924226625E+02  0.38107064921E+02  0.59669309831E+02  0.00000000000E+00 0. -1.
</event>
<event>
 7    1  0.2794945E-009  0.2320562E+03  0.7561462E-02  0.1125201E+00
          1   -1    0    0  501    0  0.00000000000E+00  0.00000000000E+00  0.29114589961E+03  0.29114589961E+03  0.00000000000E+00 0. -1.
         -1   -1    0    0    0  501 -0.00000000000E+00 -0.00000000000E+00 -0.22527645549E+03  0.22527645549E+03  0.00000000000E+00 0.  1.
         25    2    1    2    0    0  0.67835198825E+02 -0.21396500356E+03 -0.23263499936E+02  0.25801364730E+03  0.12508882771E+03 0.  0.
          5    1    3    3  502    0  0.64802163756E+02 -0.16342955465E+03 -0.69721080487E+02  0.18917463156E+03  0.41800000000E+01 0.  1.
         -5    1    3    3    0  502  0.30330350690E+01 -0.50535448905E+02  0.46457580551E+02  0.68839015742E+02  0.41800000000E+01 0.  1.
        -11    1    1    2    0    0 -0.70069755544E+02  0.92860406960E+02  0.17368726844E+02  0.11762014494E+03  0.00000000000E+00 0. -1.
         11    1    1    2    0    0  0.22345567186E+01  0.12110459660E+03  0.71764217207E+02  0.14078856286E+03  0.00000000000E+00 0.  1.
</event>
<event>
 7    1  0.2794945E-009  0.1143447E+03  0.7561462E-02  0.1252729E+00
          1   -1    0    0  501    0  0.00000000000E+00  0.00000000000E+00  0.47046243884E+02  0.47046243884E+02  0.00000000000E+00 0. -1.
         -1   -1    0    0    0  501 -0.00000000000E+00 -0.00000000000E+00 -0.41278177748E+03  0.41278177748E+03  0.00000000000E+00 0.  1.
         25    2    1    2    0    0  0.15230594253E+02 -0.60032110313E+02 -0.10794834156E+03  0.17645459931E+03  0.12509019107E+03 0.  0.
          5    1    3    3  502    0  0.15589886414E+02  0.38090304956E+02 -0.31575153699E+02  0.52042085096E+02  0.41800000000E+01 0. -1.
         -5    1    3    3    0  502 -0.35929216114E+00 -0.98122415269E+02 -0.76373187861E+02  0.12441251421E+03  0.41800000000E+01 0. -1.
        -11    1    1    2    0    0 -0.39373333867E+02  0.48154175924E+02 -0.24644578735E+03  0.25417436964E+03  0.00000000000E+00 0.  1.
         11    1    1    2    0    0  0.24142739615E+02  0.11877934389E+02 -0.11341404680E+02  0.29199052408E+02  0.00000000000E+00 0. -1.
</event>
<event>
 7    1  0.2794945E-009  0.4742150E+02  0.7561462E-02  0.1459767E+00
          2   -1    0    0  501    0  0.00000000000E+00  0.00000000000E+00  0.30657545042E+03  0.30657545042E+03  0.00000000000E+00 0. -1.
         -2   -1    0    0    0  501 -0.00000000000E+00 -0.00000000000E+00 -0.41288821603E+02  0.41288821603E+02  0.00000000000E+00 0.  1.
         25    2    1    2    0    0  0.22360174948E+02  0.12798973279E+02  0.18637937738E+03  0.22592142982E+03  0.12505770269E+03 0.  0.
          5    1    3    3  502    0  0.55489704570E+01  0.78554121430E+01  0.20188229328E+03  0.20215447389E+03  0.41800000000E+01 0.  1.
         -5    1    3    3    0  502  0.16811204491E+02  0.49435611362E+01 -0.15502915900E+02  0.23766955938E+02  0.41800000000E+01 0.  1.
        -11    1    1    2    0    0  0.21320565541E+02 -0.58780585306E+01  0.74248746032E+02  0.77472539486E+02  0.00000000000E+00 0. -1.
         11    1    1    2    0    0 -0.43680740489E+02 -0.69209147485E+01  0.46585054056E+01  0.44470302711E+02  0.00000000000E+00 0.  1.
</event>
<event>
 7    1  0.2794945E-009  0.9404982E+02  0.7561462E-02  0.1293331E+00
         -1   -1    0    0    0  501 -0.00000000000E+00  0.00000000000E+00  0.29168813389E+02  0.29168813389E+02  0.00000000000E+00 0.  1.
          1   -1    0    0  501    0  0.00000000000E+00 -0.00000000000E+00 -0.54094279838E+03  0.54094279838E+03  0.00000000000E+00 0. -1.
         25    2    1    2    0    0  0.57870983982E+02  0.17700211044E+02 -0.32682335986E+03  0.35513857291E+03  0.12509016411E+03 0.  0.
          5    1    3    3  502    0  0.73207787200E+01  0.43262411608E+02 -0.30937130489E+02  0.53849870029E+02  0.41800000000E+01 0. -1.
         -5    1    3    3    0  502  0.50550205262E+02 -0.25562200564E+02 -0.29588622937E+03  0.30128870288E+03  0.41800000000E+01 0. -1.
        -11    1    1    2    0    0 -0.69451064377E+02 -0.44023439187E+01 -0.18465972496E+03  0.19733738875E+03  0.00000000000E+00 0. -1.
         11    1    1    2    0    0  0.11580080395E+02 -0.13297867125E+02 -0.29090016723E+00  0.17635650114E+02  0.00000000000E+00 0.  1.
</event>
<event>
 7    1  0.2794945E-009  0.1771488E+03  0.7561462E-02  0.1170591E+00
         -3   -1    0    0    0  501 -0.00000000000E+00  0.00000000000E+00  0.11701907979E+03  0.11701907979E+03  0.00000000000E+00 0.  1.
          3   -1    0    0  501    0  0.00000000000E+00 -0.00000000000E+00 -0.34664952159E+03  0.34664952159E+03  0.00000000000E+00 0. -1.
         25    2    1    2    0    0 -0.14100859867E+03  0.92072820602E+02 -0.15588478960E+03  0.26137078293E+03  0.12511510440E+03 0.  0.
          5    1    3    3  502    0 -0.10405906941E+03  0.81533522945E+02 -0.17410138995E+03  0.21864302339E+03  0.41800000000E+01 0.  1.
         -5    1    3    3    0  502 -0.36949529256E+02  0.10539297657E+02  0.18216600357E+02  0.42727759547E+02  0.41800000000E+01 0.  1.
        -11    1    1    2    0    0  0.27754474291E+02  0.11376383872E+02 -0.30838992722E+02  0.43020651149E+02  0.00000000000E+00 0.  1.
         11    1    1    2    0    0  0.11325412438E+03 -0.10344920447E+03 -0.42906659478E+02  0.15927716730E+03  0.00000000000E+00 0. -1.
</event>
<event>
 7    1  0.2794945E-009  0.1074189E+03  0.7561462E-02  0.1265426E+00
         -2   -1    0    0    0  501 -0.00000000000E+00  0.00000000000E+00  0.12426032335E+03  0.12426032335E+03  0.00000000000E+00 0.  1.
          2   -1    0    0  501    0  0.00000000000E+00 -0.00000000000E+00 -0.17354805406E+03  0.17354805406E+03  0.00000000000E+00 0. -1.
         25    2    1    2    0    0 -0.77619388485E+02 -0.10624294980E+02  0.33342666020E+02  0.15131602554E+03  0.12508861297E+03 0.  0.
          5    1    3    3  502    0 -0.10936328430E+01 -0.32458141219E+02  0.59102212388E+02  0.67566788242E+02  0.41800000000E+01 0. -1.
         -5    1    3    3    0  502 -0.76525755642E+02  0.21833846239E+02 -0.25759546368E+02  0.83749237294E+02  0.41800000000E+01 0. -1.
        -11    1    1    2    0    0 -0.35408802742E+00 -0.18992142832E+02 -0.55690606285E+02  0.58841061310E+02  0.00000000000E+00 0. -1.
         11    1    1    2    0    0  0.77973476512E+02  0.29616437812E+02 -0.26939790439E+02  0.87651290561E+02  0.00000000000E+00 0.  1.
</event>
<event>
 7    1  0.2794945E-009  0.1834744E+03  0.7561462E-02  0.1164482E+00
         -1   -1    0    0    0  501 -0.00000000000E+00  0.00000000000E+00  0.36854475734E+02  0.36854475734E+02  0.00000000000E+00 0.  1.
          1   -1    0    0  501    0  0.00000000000E+00 -0.00000000000E+00 -0.97747398046E+03  0.97747398046E+03  0.00000000000E+00 0. -1.
         25    2    1    2    0    0  0.13929934768E+03  0.63079543489E+02 -0.56897562531E+03  0.60229813922E+03  0.12508576751E+03 0.  0.
          5    1    3    3  502    0 -0.30028177925E+00  0.49285229488E+02 -0.84576467722E+02  0.97978443073E+02  0.41800000000E+01 0. -1.
         -5    1    3    3    0  502  0.13959962946E+03  0.13794314001E+02 -0.48439915759E+03  0.50431969615E+03  0.41800000000E+01 0. -1.
        -11    1    1    2    0    0 -0.17798681384E+01 -0.37160752512E+02 -0.94499346266E+02  0.10155892823E+03  0.00000000000E+00 0. -1.
         11    1    1    2    0    0 -0.13751947954E+03 -0.25918790976E+02 -0.27714453315E+03  0.31047138875E+03  0.00000000000E+00 0.  1.
</event>
<event>
 7    1  0.2794945E-009  0.1713909E+03  0.7561462E-02  0.1176405E+00
          1   -1    0    0  501    0  0.00000000000E+00  0.00000000000E+00  0.29953405898E+03  0.29953405898E+03  0.00000000000E+00 0. -1.
         -1   -1    0    0    0  501 -0.00000000000E+00 -0.00000000000E+00 -0.11197592526E+03  0.11197592526E+03  0.00000000000E+00 0.  1.
         25    2    1    2    0    0  0.14307828362E+03 -0.16915723582E+02  0.60960388197E+02  0.20030278243E+03  0.12508996271E+03 0.  0.
          5    1    3    3  502    0 -0.17023752873E+02 -0.17575970858E+01  0.32449666969E+02  0.36923577776E+02  0.41800000000E+01 0.  1.
         -5    1    3    3    0  502  0.16010203649E+03 -0.15158126496E+02  0.28510721229E+02  0.16337920465E+03  0.41800000000E+01 0.  1.
        -11    1    1    2    0    0 -0.82613188476E+02  0.48785232529E+02  0.48768012775E+02  0.10762554015E+03  0.00000000000E+00 0.  1.
         11    1    1    2    0    0 -0.60465095143E+02 -0.31869508947E+02  0.77829732752E+02  0.10358166166E+03  0.00000000000E+00 0. -1.
</event>
<event>
 7    1  0.2794945E-009  0.2252521E+03  0.7561462E-02  0.1130027E+00
          2   -1    0    0  501    0  0.00000000000E+00  0.00000000000E+00  0.58692446733E+03  0.58692446733E+03  0.00000000000E+00 0. -1.
         -2   -1    0    0    0  501 -0.00000000000E+00 -0.00000000000E+00 -0.10102522193E+03  0.10102522193E+03  0.00000000000E+00 0.  1.
         25    2    1    2    0    0  0.19038726295E+03 -0.10241082643E+03  0.22119751854E+03  0.33363312028E+03  0.12508968574E+03 0.  0.
          5    1    3    3  502    0  0.14315841799E+02 -0.62369776054E+01  0.95473718274E+02  0.96832569403E+02  0.41800000000E+01 0. -1.
         -5    1    3    3    0  502  0.17607142115E+03 -0.96173848825E+02  0.12572380027E+03  0.23680055088E+03  0.41800000000E+01 0. -1.
        -11    1    1    2    0    0 -0.17214379909E+03  0.11879048910E+03  0.24907192709E+03  0.32524066894E+03  0.00000000000E+00 0. -1.
         11    1    1    2    0    0 -0.18243463853E+02 -0.16379662670E+02  0.15629799773E+02  0.29075900046E+02  0.00000000000E+00 0.  1.
</event>
<event>
 7    1  0.2794945E-009  0.9504087E+02  0.7561462E-02  0.1291084E+00
          1   -1    0    0  501    0  0.00000000000E+00  0.00000000000E+00  0.81016643318E+03  0.81016643318E+03  0.00000000000E+00 0. -1.
         -1   -1    0    0    0  501 -0.00000000000E+00 -0.00000000000E+00 -0.23883409694E+02  0.23883409694E+02  0.00000000000E+00 0.  1.
         25    2    1    2    0    0 -0.67526335540E+02  0.91022976869E+01  0.59416350938E+03  0.61099941101E+03  0.12508935432E+03 0.  0.
          5    1    3    3  502    0  0.89980515101E+01  0.14695914723E+02  0.42307828408E+03  0.42344969206E+03  0.41800000000E+01 0. -1.
         -5    1    3    3    0  502 -0.76524387051E+02 -0.55936170365E+01  0.17108522530E+03  0.18754971896E+03  0.41800000000E+01 0. -1.
        -11    1    1    2    0    0 -0.13288362977E+02  0.34382438112E+01 -0.55571595419E+00  0.13737209736E+02  0.00000000000E+00 0.  1.
         11    1    1    2    0    0  0.80814698518E+02 -0.12540541498E+02  0.19267523005E+03  0.20931322212E+03  0.00000000000E+00 0. -1.
</event>
<event>
 7    1  0.2794945E-009  0.1527719E+03  0.7561462E-02  0.1197108E+00
         -1   -1    0    0    0  501 -0.00000000000E+00  0.00000000000E+00  0.12017374685E+04  0.12017374685E+04  0.00000000000E+00 0.  1.
          1   -1    0    0  501    0  0.00000000000E+00 -0.00000000000E+00 -0.24269645341E+02  0.24269645341E+02  0.00000000000E+00 0. -1.
         25    2    1    2    0    0 -0.88527146510E+02  0.87057818905E+02  0.78406818639E+03  0.80362691527E+03  0.12504870462E+03 0.  0.
          5    1    3    3  502    0  0.25534172983E+02  0.39570100068E+02  0.13901803543E+03  0.14683757484E+03  0.41800000000E+01 0. -1.
         -5    1    3    3    0  502 -0.11406131949E+03  0.47487718837E+02  0.64505015096E+03  0.65678934043E+03  0.41800000000E+01 0. -1.
        -11    1    1    2    0    0  0.73539389841E+02 -0.36869325746E+02  0.33021736710E+03  0.34031000363E+03  0.00000000000E+00 0.  1.
         11    1    1    2    0    0  0.14987756669E+02 -0.50188493160E+02  0.63182269626E+02  0.82070194898E+02  0.00000000000E+00 0. -1.
</event>
<event>
 7    1  0.2794945E-009  0.1801574E+03  0.7561462E-02  0.1167651E+00
          1   -1    0    0  501    0  0.00000000000E+00  0.00000000000E+00  0.38781789599E+03  0.38781789599E+03  0.00000000000E+00 0. -1.
         -1   -1    0    0    0  501 -0.00000000000E+00 -0.00000000000E+00 -0.10578814500E+03  0.10578814500E+03  0.00000000000E+00 0.  1.
         25    2    1    2    0    0 -0.33861883041E+02 -0.16575198165E+03  0.16074798312E+03  0.26478023116E+03  0.12509320603E+03 0.  0.
          5    1    3    3  502    0 -0.45714474907E+02 -0.40669761347E+02  0.78990387147E+00  0.61334648056E+02  0.41800000000E+01 0.  1.
         -5    1    3    3    0  502  0.11852591866E+02 -0.12508222030E+03  0.15995807925E+03  0.20344558311E+03  0.41800000000E+01 0.  1.
        -11    1    1    2    0    0  0.41643731005E+02  0.12410959793E+03  0.39527029580E+02  0.13674713415E+03  0.00000000000E+00 0.  1.
         11    1    1    2    0    0 -0.77818479639E+01  0.41642383720E+02  0.81754738294E+02  0.92078675670E+02  0.00000000000E+00 0. -1.
</event>
<event>
 7    1  0.2794945E-009  0.1085944E+03  0.7561462E-02  0.1263195E+00
          3   -1    0    0  501    0  0.00000000000E+00  0.00000000000E+00  0.15504731296E+03  0.15504731296E+03  0.00000000000E+00 0. -1.
         -3   -1    0    0    0  501 -0.00000000000E+00 -0.00000000000E+00 -0.92807122258E+02  0.92807122258E+02  0.00000000000E+00 0.  1.
         25    2    1    2    0    0 -0.13098471685E+02  0.13034972001E+01  0.84106281516E+02  0.15130679637E+03  0.12508641402E+03 0.  0.
          5    1    3    3  502    0  0.53845221815E+02 -0.15491894825E+02  0.44074064479E+02  0.71409399082E+02  0.41800000000E+01 0. -1.
         -5    1    3    3    0  502 -0.66943693500E+02  0.16795392025E+02  0.40032217037E+02  0.79897397289E+02  0.41800000000E+01 0. -1.
        -11    1    1    2    0    0  0.31947276555E+02  0.37172044383E+02 -0.21946247327E+02  0.53703138965E+02  0.00000000000E+00 0.  1.
         11    1    1    2    0    0 -0.18848804870E+02 -0.38475541583E+02  0.80156514482E-01  0.42844499883E+02  0.00000000000E+00 0. -1.
</event>
<event>
 7    1  0.2794945E-009  0.1227516E+03  0.7561462E-02  0.1238626E+00
         -2   -1    0    0    0  501 -0.00000000000E+00  0.00000000000E+00  0.81628656691E+02  0.81628656691E+02  0.00000000000E+00 0.  1.
          2   -1    0    0  501    0  0.00000000000E+00 -0.00000000000E+00 -0.20783370415E+03  0.20783370415E+03  0.00000000000E+00 0. -1.
         25    2    1    2    0    0 -0.60513973545E+02 -0.21626621509E+02 -0.10434703849E+03  0.17512562899E+03  0.12510407561E+03 0.  0.
          5    1    3    3  502    0 -0.69652529442E+02  0.36474349019E+02 -0.41708420894E+02  0.89100604754E+02  0.41800000000E+01 0.  1.
         -5    1    3    3    0  502  0.91385558975E+01 -0.58100970528E+02 -0.62638617595E+02  0.86025024233E+02  0.41800000000E+01 0.  1.
        -11    1    1    2    0    0  0.82190651904E+02  0.24903787624E+02 -0.29971701624E+02  0.90960457324E+02  0.00000000000E+00 0. -1.
         11    1    1    2    0    0 -0.21676678359E+02 -0.32771661154E+01  0.81136926524E+01  0.23376274529E+02  0.00000000000E+00 0.  1.
</event>
<event>
 7    1  0.2794945E-009  0.9600342E+02  0.7561462E-02  0.1288932E+00
         -2   -1    0    0    0  501 -0.00000000000E+00  0.00000000000E+00  0.72574408059E+02  0.72574408059E+02  0.00000000000E+00 0.  1.
          2   -1    0    0  501    0  0.00000000000E+00 -0.00000000000E+00 -0.26909534136E+03  0.26909534136E+03  0.00000000000E+00 0. -1.
         25    2    1    2    0    0  0.63693058460E+02  0.21665681014E+02 -0.32137512200E+02  0.14562406397E+03  0.12508933162E+03 0.  0.
          5    1    3    3  502    0  0.52065975389E+02 -0.19641525747E+02 -0.69109637667E+02  0.88827190349E+02  0.41800000000E+01 0. -1.
         -5    1    3    3    0  502  0.11627083071E+02  0.41307206761E+02  0.36972125467E+02  0.56796873617E+02  0.41800000000E+01 0. -1.
        -11    1    1    2    0    0 -0.51288574745E+02 -0.43975796831E+02 -0.66160823771E+02  0.94560262311E+02  0.00000000000E+00 0.  1.
         11    1    1    2    0    0 -0.12404483716E+02  0.22310115817E+02 -0.98222597332E+02  0.10148542314E+03  0.00000000000E+00 0. -1.
</event>
<event>
 7    1  0.2794945E-009  0.2552471E+03  0.7561462E-02  0.1110033E+00
         -2   -1    0    0    0  501 -0.00000000000E+00  0.00000000000E+00  0.19831719230E+03  0.19831719230E+03  0.00000000000E+00 0. -1.
          2   -1    0    0  501    0  0.00000000000E+00 -0.00000000000E+00 -0.36506848690E+03  0.36506848690E+03  0.00000000000E+00 0.  1.
         25    2    1    2    0    0 -0.17073299880E+03 -0.17562899379E+03 -0.57380136280E+02  0.28095439411E+03  0.12509033213E+03 0.  0.
          5    1    3    3  502    0 -0.71983799397E+01 -0.64458429134E+02  0.20852285611E+02  0.68256838305E+02  0.41800000000E+01 0. -1.
         -5    1    3    3    0  502 -0.16353461886E+03 -0.11117056465E+03 -0.78232421891E+02  0.21269755580E+03  0.41800000000E+01 0. -1.
        -11    1    1    2    0    0  0.11861265733E+03  0.96246703866E+02 -0.23782834220E+02  0.15458982401E+03  0.00000000000E+00 0. -1.
         11    1    1    2    0    0  0.52120341465E+02  0.79382289920E+02 -0.85588324107E+02  0.12784146108E+03  0.00000000000E+00 0.  1.
</event>
<event>
 7    1  0.2794945E-009  0.1061157E+03  0.7561462E-02  0.1267937E+00
         -1   -1    0    0    0  501 -0.00000000000E+00  0.00000000000E+00  0.50353049307E+02  0.50353049307E+02  0.00000000000E+00 0.  1.
          1   -1    0    0  501    0  0.00000000000E+00 -0.00000000000E+00 -0.29447284697E+03  0.29447284697E+03  0.00000000000E+00 0. -1.
         25    2    1    2    0    0 -0.20403928144E+02  0.43042306356E+02 -0.18280277852E+03  0.22656989456E+03  0.12509236933E+03 0.  0.
          5    1    3    3  502    0  0.43879955663E+02  0.45553019316E+01 -0.22779526664E+02  0.49825500697E+02  0.41800000000E+01 0. -1.
         -5    1    3    3    0  502 -0.64283883807E+02  0.38487004424E+02 -0.16002325186E+03  0.17674439386E+03  0.41800000000E+01 0. -1.
        -11    1    1    2    0    0  0.49749514214E+02 -0.39083627323E+02 -0.62077311584E+02  0.88634850385E+02  0.00000000000E+00 0.  1.
         11    1    1    2    0    0 -0.29345586070E+02 -0.39586790332E+01  0.76029244521E+00  0.29621151329E+02  0.00000000000E+00 0. -1.
</event>
<event>
 7    1  0.2794945E-009  0.1176857E+03  0.7561462E-02  0.1246964E+00
         -2   -1    0    0    0  501 -0.00000000000E+00  0.00000000000E+00  0.15651692726E+03  0.15651692726E+03  0.00000000000E+00 0. -1.
          2   -1    0    0  501    0  0.00000000000E+00 -0.00000000000E+00 -0.11525784264E+03  0.11525784264E+03  0.00000000000E+00 0.  1.
         25    2    1    2    0    0 -0.67379267778E+02  0.55240167768E-01 -0.19922102578E+02  0.14347214409E+03  0.12508955664E+03 0.  0.
          5    1    3    3  502    0 -0.82047797996E+02 -0.45311949584E+02 -0.80958486244E+01  0.94170213422E+02  0.41800000000E+01 0. -1.
         -5    1    3    3    0  502  0.14668530218E+02  0.45367189751E+02 -0.11826253953E+02  0.49301930665E+02  0.41800000000E+01 0. -1.
        -11    1    1    2    0    0  0.50797438727E+01 -0.25787278910E+02  0.54576349071E+02  0.60575287282E+02  0.00000000000E+00 0. -1.
         11    1    1    2    0    0  0.62299523906E+02  0.25732038742E+02  0.66048381273E+01  0.67727338523E+02  0.00000000000E+00 0.  1.
</event>
<event>
 7    1  0.2794945E-009  0.9515814E+02  0.7561462E-02  0.1290820E+00
          2   -1    0    0  501    0  0.00000000000E+00  0.00000000000E+00  0.22361123442E+03  0.22361123442E+03  0.00000000000E+00 0. -1.
         -2   -1    0    0    0  501 -0.00000000000E+00 -0.00000000000E+00 -0.63596039847E+02  0.63596039847E+02  0.00000000000E+00 0.  1.
         25    2    1    2    0    0  0.21237394208E+02 -0.11684828469E+02  0.14330290735E+03  0.19175768943E+03  0.12509087126E+03 0.  0.
          5    1    3    3  502    0  0.62028730982E+02  0.10267593544E+02  0.31041844976E+02  0.70242832260E+02  0.41800000000E+01 0. -1.
         -5    1    3    3    0  502 -0.40791336774E+02 -0.21952422012E+02  0.11226106237E+03  0.12151485717E+03  0.41800000000E+01 0. -1.
        -11    1    1    2    0    0  0.11944036046E+02 -0.27181195846E+02  0.30453225864E+02  0.42530887249E+02  0.00000000000E+00 0. -1.
         11    1    1    2    0    0 -0.33181430253E+02  0.38866024315E+02 -0.13740938640E+02  0.52918697588E+02  0.00000000000E+00 0.  1.
</event>
<event>
 7    1  0.2794945E-009  0.1022601E+03  0.7561462E-02  0.1275614E+00
         -1   -1    0    0    0  501 -0.00000000000E+00  0.00000000000E+00  0.23136451417E+02  0.23136451417E+02  0.00000000000E+00 0.  1.
          1   -1    0    0  501    0  0.00000000000E+00 -0.00000000000E+00 -0.67301162653E+03  0.67301162653E+03  0.00000000000E+00 0. -1.
         25    2    1    2    0    0  0.28027060405E+02  0.51432380531E+02 -0.41729948255E+03  0.43956872978E+03  0.12510397348E+03 0.  0.
          5    1    3    3  502    0  0.56931891301E+02  0.66695870210E+02 -0.18305551681E+03  0.20301816171E+03  0.41800000000E+01 0.  1.
         -5    1    3    3    0  502 -0.28904830896E+02 -0.15263489680E+02 -0.23424396574E+03  0.23655056807E+03  0.41800000000E+01 0.  1.
        -11    1    1    2    0    0 -0.41965443221E+02 -0.55197599573E+02 -0.23198877567E+03  0.24212943947E+03  0.00000000000E+00 0. -1.
         11    1    1    2    0    0  0.13938382816E+02  0.37652190423E+01 -0.58691689594E+00  0.14449908699E+02  0.00000000000E+00 0.  1.
</event>
<event>
 7    1  0.2794945E-009  0.1099101E+03  0.7561462E-02  0.1260736E+00
         -1   -1    0    0    0  501 -0.00000000000E+00  0.00000000000E+00  0.25639269331E+02  0.25639269331E+02  0.00000000000E+00 0.  1.
          1   -1    0    0  501    0  0.00000000000E+00 -0.00000000000E+00 -0.58163380683E+03  0.58163380683E+03  0.00000000000E+00 0. -1.
         25    2    1    2    0    0 -0.39247620272E+02  0.31845970863E+02 -0.36345564699E+03  0.38768816505E+03  0.12509022517E+03 0.  0.
          5    1    3    3  502    0  0.13977417667E+02  0.61352592224E+02 -0.10812414927E+03  0.12517113418E+03  0.41800000000E+01 0. -1.
         -5    1    3    3    0  502 -0.53225037939E+02 -0.29506621362E+02 -0.25533149772E+03  0.26251703086E+03  0.41800000000E+01 0. -1.
        -11    1    1    2    0    0 -0.24052754674E+02  0.17076303744E+01 -0.15672234583E+02  0.28758823789E+02  0.00000000000E+00 0.  1.
         11    1    1    2    0    0  0.63300374946E+02 -0.33553601237E+02 -0.17686665593E+03  0.19082608732E+03  0.00000000000E+00 0. -1.
</event>
<event>
 7    1  0.2794945E-009  0.2061034E+03  0.7561462E-02  0.1144689E+00
         -1   -1    0    0    0  501 -0.00000000000E+00  0.00000000000E+00  0.19011725980E+03  0.19011725980E+03  0.00000000000E+00 0.  1.
          1   -1    0    0  501    0  0.00000000000E+00 -0.00000000000E+00 -0.33394983095E+03  0.33394983095E+03  0.00000000000E+00 0. -1.
         25    2    1    2    0    0 -0.17106589438E+03  0.86358295038E+02  0.52637711913E+02  0.23481874057E+03  0.12509123417E+03 0.  0.
          5    1    3    3  502    0  0.11722703023E+01  0.24635311897E+02 -0.25593445551E+02  0.35787842420E+02  0.41800000000E+01 0. -1.
         -5    1    3    3    0  502 -0.17223816469E+03  0.61722983141E+02  0.78231157464E+02  0.19903089815E+03  0.41800000000E+01 0. -1.
        -11    1    1    2    0    0  0.67500410587E+02 -0.73544500857E+02 -0.56652944293E+02  0.11478090056E+03  0.00000000000E+00 0.  1.
         11    1    1    2    0    0  0.10356548380E+03 -0.12813794181E+02 -0.13981733877E+03  0.17446744962E+03  0.00000000000E+00 0. -1.
</event>
<event>
 7    1  0.2794945E-009  0.1354700E+03  0.7561462E-02  0.1219558E+00
          2   -1    0    0  501    0  0.00000000000E+00  0.00000000000E+00  0.62671469318E+03  0.62671469318E+03  0.00000000000E+00 0. -1.
         -2   -1    0    0    0  501 -0.00000000000E+00 -0.00000000000E+00 -0.32984240914E+02  0.32984240914E+02  0.00000000000E+00 0.  1.
         25    2    1    2    0    0  0.64415748421E+02 -0.68268083152E+02  0.33421737724E+03  0.36899778426E+03  0.12509272447E+03 0.  0.
          5    1    3    3  502    0  0.94065906035E+02 -0.33975590990E+02  0.28444712075E+03  0.30154663381E+03  0.41800000000E+01 0. -1.
         -5    1    3    3    0  502 -0.29650157614E+02 -0.34292492162E+02  0.49770256491E+02  0.67451150445E+02  0.41800000000E+01 0. -1.
        -11    1    1    2    0    0 -0.50398958060E+02 -0.50650186638E+01  0.65376813615E+02  0.82703307951E+02  0.00000000000E+00 0.  1.
         11    1    1    2    0    0 -0.14016790361E+02  0.73333101816E+02  0.19413626141E+03  0.20799784188E+03  0.00000000000E+00 0. -1.
</event>
<event>
 7    1  0.2794945E-009  0.8555602E+02  0.7561462E-02  0.1313985E+00
         -2   -1    0    0    0  501 -0.00000000000E+00  0.00000000000E+00  0.19915266531E+02  0.19915266531E+02  0.00000000000E+00 0.  1.
          2   -1    0    0  501    0  0.00000000000E+00 -0.00000000000E+00 -0.79788729926E+03  0.79788729926E+03  0.00000000000E+00 0. -1.
         25    2    1    2    0    0 -0.56105300868E+01  0.64209532098E+02 -0.46090662137E+03  0.48191037661E+03  0.12509338672E+03 0.  0.
          5    1    3    3  502    0  0.76271177807E+01  0.21307964402E+02 -0.42119970221E+03  0.42182800265E+03  0.41800000000E+01 0.  1.
         -5    1    3    3    0  502 -0.13237647868E+02  0.42901567696E+02 -0.39706919153E+02  0.60082373959E+02  0.41800000000E+01 0.  1.
        -11    1    1    2    0    0  0.42871863798E+02 -0.39511738401E+02 -0.23826777999E+03  0.24529718539E+03  0.00000000000E+00 0.  1.
         11    1    1    2    0    0 -0.37261333711E+02 -0.24697793698E+02 -0.78797631378E+02  0.90595003804E+02  0.00000000000E+00 0. -1.
</event>
<event>
 7    1  0.2794945E-009  0.8299506E+02  0.7561462E-02  0.1320761E+00
         -2   -1    0    0    0  501 -0.00000000000E+00  0.00000000000E+00  0.22332649838E+03  0.22332649838E+03  0.00000000000E+00 0.  1.
          2   -1    0    0  501    0  0.00000000000E+00 -0.00000000000E+00 -0.57908530214E+02  0.57908530214E+02  0.00000000000E+00 0. -1.
         25    2    1    2    0    0 -0.16028907396E+02  0.21865272559E+02  0.69454672791E+02  0.14561975672E+03  0.12508455524E+03 0.  0.
          5    1    3    3  502    0  0.45165674211E+02 -0.22491183673E+02  0.39494380958E+02  0.64211136085E+02  0.41800000000E+01 0. -1.
         -5    1    3    3    0  502 -0.61194581607E+02  0.44356456232E+02  0.29960291832E+02  0.81408620639E+02  0.41800000000E+01 0. -1.
        -11    1    1    2    0    0 -0.58881260874E+01 -0.15895243964E+02 -0.14826895484E+02  0.22520338346E+02  0.00000000000E+00 0. -1.
         11    1    1    2    0    0  0.21917033483E+02 -0.59700285947E+01  0.11079019086E+03  0.11309493353E+03  0.00000000000E+00 0.  1.
</event>
<event>
 7    1  0.2794945E-009  0.1145592E+03  0.7561462E-02  0.1252352E+00
         -1   -1    0    0    0  501 -0.00000000000E+00  0.00000000000E+00  0.13079178228E+02  0.13079178228E+02  0.00000000000E+00 0.  1.
          1   -1    0    0  501    0  0.00000000000E+00 -0.00000000000E+00 -0.21516878210E+04  0.21516878210E+04  0.00000000000E+00 0. -1.
         25    2    1    2    0    0  0.99916620742E+02  0.70701497690E+01 -0.16467539515E+04  0.16545326795E+04  0.12508594140E+03 0.  0.
          5    1    3    3  502    0  0.91077503791E+02  0.22228778234E+02 -0.57351247207E+03  0.58113962031E+03  0.41800000000E+01 0. -1.
         -5    1    3    3    0  502  0.88391169505E+01 -0.15158628465E+02 -0.10732414794E+04  0.10733930592E+04  0.41800000000E+01 0. -1.
        -11    1    1    2    0    0 -0.57036540016E+02 -0.34190449415E+02 -0.39824643850E+03  0.40376029957E+03  0.00000000000E+00 0. -1.
         11    1    1    2    0    0 -0.42880080726E+02  0.27120299646E+02 -0.93608252775E+02  0.10647402013E+03  0.00000000000E+00 0.  1.
</event>
<event>
 7    1  0.2794945E-009  0.1714937E+03  0.7561462E-02  0.1176299E+00
         -1   -1    0    0    0  501 -0.00000000000E+00  0.00000000000E+00  0.11266862947E+03  0.11266862947E+03  0.00000000000E+00 0.  1.
          1   -1    0    0  501    0  0.00000000000E+00 -0.00000000000E+00 -0.36017690713E+03  0.36017690713E+03  0.00000000000E+00 0. -1.
         25    2    1    2    0    0 -0.19260999989E+02 -0.15818436359E+03 -0.65596557576E+02  0.21293927389E+03  0.12508775717E+03 0.  0.
          5    1    3    3  502    0  0.62604379076E+01 -0.13635400790E+03  0.28406468164E+01  0.13659117918E+03  0.41800000000E+01 0.  1.
         -5    1    3    3    0  502 -0.25521437897E+02 -0.21830355690E+02 -0.68437204392E+02  0.76348094717E+02  0.41800000000E+01 0.  1.
        -11    1    1    2    0    0 -0.22817396486E+02  0.30150202377E+02 -0.87603182786E+02  0.95414809752E+02  0.00000000000E+00 0. -1.
         11    1    1    2    0    0  0.42078396475E+02  0.12803416122E+03 -0.94308537297E+02  0.16449145296E+03  0.00000000000E+00 0.  1.
</event>
<event>
 7    1  0.2794945E-009  0.1560679E+03  0.7561462E-02  0.1193209E+00
         -1   -1    0    0    0  501 -0.00000000000E+00  0.00000000000E+00  0.54637237252E+02  0.54637237252E+02  0.00000000000E+00 0.  1.
          1   -1    0    0  501    0  0.00000000000E+00 -0.00000000000E+00 -0.71406248954E+03  0.71406248954E+03  0.00000000000E+00 0. -1.
         25    2    1    2    0    0 -0.13237974286E+03 -0.74477180554E+02 -0.22019094171E+03  0.29530113075E+03  0.12508980880E+03 0.  0.
          5    1    3    3  502    0 -0.59752487864E+02 -0.36516411609E+02 -0.19834692745E+03  0.21038722431E+03  0.41800000000E+01 0.  1.
         -5    1    3    3    0  502 -0.72627254999E+02 -0.37960768946E+02 -0.21844014261E+02  0.84913906438E+02  0.41800000000E+01 0.  1.
        -11    1    1    2    0    0  0.54355438270E+02  0.35293325250E+01 -0.66118912135E+02  0.85666098309E+02  0.00000000000E+00 0. -1.
         11    1    1    2    0    0  0.78024304593E+02  0.70947848029E+02 -0.37311539844E+03  0.38773249774E+03  0.00000000000E+00 0.  1.
</event>
<event>
 7    1  0.2794945E-009  0.2664338E+03  0.7561462E-02  0.1103338E+00
         -1   -1    0    0    0  501 -0.00000000000E+00  0.00000000000E+00  0.19486592122E+03  0.19486592122E+03  0.00000000000E+00 0.  1.
          1   -1    0    0  501    0  0.00000000000E+00 -0.00000000000E+00 -0.41276672769E+03  0.41276672769E+03  0.00000000000E+00 0. -1.
         25    2    1    2    0    0  0.14033345878E+03 -0.21141112127E+03 -0.41331205803E+02  0.28591178553E+03  0.12509651747E+03 0.  0.
          5    1    3    3  502    0  0.14000833961E+03 -0.22253544942E+03 -0.22852829500E+02  0.26393954918E+03  0.41800000000E+01 0.  1.
         -5    1    3    3    0  502  0.32511916625E+00  0.11124328147E+02 -0.18478376303E+02  0.21972236345E+02  0.41800000000E+01 0.  1.
        -11    1    1    2    0    0 -0.12155466758E+03  0.20473537525E+03 -0.13048522539E+03  0.27151151934E+03  0.00000000000E+00 0.  1.
         11    1    1    2    0    0 -0.18778791201E+02  0.66757460154E+01 -0.46084375284E+02  0.50209344042E+02  0.00000000000E+00 0. -1.
</event>
<event>
 7    1  0.3186699E-009  0.1707288E+03  0.7561462E-02  0.1177090E+00
         -1   -1    0    0    0  501 -0.00000000000E+00  0.00000000000E+00  0.58988892875E+02  0.58988892875E+02  0.00000000000E+00 0.  1.
          1   -1    0    0  501    0  0.00000000000E+00 -0.00000000000E+00 -0.51544845197E+03  0.51544845197E+03  0.00000000000E+00 0. -1.
         25    2    1    2    0    0 -0.21418856677E+02 -0.13435625244E+03 -0.23586904412E+03  0.29965599966E+03  0.12509653140E+03 0.  0.
          5    1    3    3  502    0 -0.14958791432E+02  0.19661695785E+02 -0.11917697175E+02  0.27746200248E+02  0.41800000000E+01 0.  1.
         -5    1    3    3    0  502 -0.64600652453E+01 -0.15401794822E+03 -0.22395134695E+03  0.27190979941E+03  0.41800000000E+01 0.  1.
        -11    1    1    2    0    0 -0.18039334348E+02  0.11817523126E+03 -0.17872311278E+03  0.21501803159E+03  0.00000000000E+00 0.  1.
         11    1    1    2    0    0  0.39458191025E+02  0.16181021177E+02 -0.41867402193E+02  0.59763313594E+02  0.00000000000E+00 0. -1.
</event>
<event>
 7    1  0.2794945E-009  0.1501356E+03  0.7561462E-02  0.1200307E+00
          2   -1    0    0  501    0  0.00000000000E+00  0.00000000000E+00  0.13293698640E+04  0.13293698640E+04  0.00000000000E+00 0. -1.
         -2   -1    0    0    0  501 -0.00000000000E+00 -0.00000000000E+00 -0.17858717326E+02  0.17858717326E+02  0.00000000000E+00 0.  1.
         25    2    1    2    0    0 -0.94753759336E+02  0.48098476020E+02  0.81444535691E+03  0.83081839318E+03  0.12508487017E+03 0.  0.
          5    1    3    3  502    0  0.38639517353E+01  0.62765532243E+02  0.26558904497E+03  0.27296420163E+03  0.41800000000E+01 0. -1.
         -5    1    3    3    0  502 -0.98617711071E+02 -0.14667056223E+02  0.54885631194E+03  0.55785419155E+03  0.41800000000E+01 0. -1.
        -11    1    1    2    0    0  0.97418001917E+02 -0.85199250418E+01  0.30509699570E+03  0.32038575655E+03  0.00000000000E+00 0. -1.
         11    1    1    2    0    0 -0.26642425814E+01 -0.39578550978E+02  0.19196879403E+03  0.19602443156E+03  0.00000000000E+00 0.  1.
</event>
<event>
 7    1  0.2794945E-009  0.1905052E+03  0.7561462E-02  0.1158006E+00
          2   -1    0    0  501    0  0.00000000000E+00  0.00000000000E+00  0.63657814170E+02  0.63657814170E+02  0.00000000000E+00 0. -1.
         -2   -1    0    0    0  501 -0.00000000000E+00 -0.00000000000E+00 -0.59143614159E+03  0.59143614159E+03  0.00000000000E+00 0.  1.
         25    2    1    2    0    0 -0.17070222477E+02 -0.15540992554E+03 -0.21550907609E+03  0.29416837527E+03  0.12508890311E+03 0.  0.
          5    1    3    3  502    0  0.23443666344E+02  0.12744833658E+02 -0.33762518681E+02  0.43236747614E+02  0.41800000000E+01 0.  1.
         -5    1    3    3    0  502 -0.40513888821E+02 -0.16815475919E+03 -0.18174655741E+03  0.25093162765E+03  0.41800000000E+01 0.  1.
        -11    1    1    2    0    0  0.52718601840E+02  0.11835531809E+03 -0.22351365326E+03  0.25835167020E+03  0.00000000000E+00 0. -1.
         11    1    1    2    0    0 -0.35648379363E+02  0.37054607443E+02 -0.88755598070E+02  0.10257391029E+03  0.00000000000E+00 0.  1.
</event>
<event>
 7    1  0.2794945E-009  0.1633255E+03  0.7561462E-02  0.1184993E+00
          1   -1    0    0  501    0  0.00000000000E+00  0.00000000000E+00  0.39374488764E+03  0.39374488764E+03  0.00000000000E+00 0. -1.
         -1   -1    0    0    0  501 -0.00000000000E+00 -0.00000000000E+00 -0.85858998129E+02  0.85858998129E+02  0.00000000000E+00 0.  1.
         25    2    1    2    0    0  0.12727789680E+03 -0.73043589815E+02  0.19087828191E+03  0.27132620785E+03  0.12509341922E+03 0.  0.
          5    1    3    3  502    0 -0.46343057941E+01 -0.38398869037E+02  0.28528398958E+01  0.39007192016E+02  0.41800000000E+01 0.  1.
         -5    1    3    3    0  502  0.13191220259E+03 -0.34644720779E+02  0.18802544202E+03  0.23231901583E+03  0.41800000000E+01 0.  1.
        -11    1    1    2    0    0 -0.10189229322E+03  0.73945553135E+02  0.47988557060E+02  0.13473264584E+03  0.00000000000E+00 0.  1.
         11    1    1    2    0    0 -0.25385603581E+02 -0.90196331981E+00  0.69019050533E+02  0.73545032079E+02  0.00000000000E+00 0. -1.
</event>
<event>
 7    1  0.2794945E-009  0.1342978E+03  0.7561462E-02  0.1221214E+00
          2   -1    0    0  501    0  0.00000000000E+00  0.00000000000E+00  0.14588271593E+04  0.14588271593E+04  0.00000000000E+00 0. -1.
         -2   -1    0    0    0  501 -0.00000000000E+00 -0.00000000000E+00 -0.16091009493E+02  0.16091009493E+02  0.00000000000E+00 0.  1.
         25    2    1    2    0    0 -0.10001455359E+03 -0.38902182571E+02  0.83083774760E+03  0.84702757531E+03  0.12509220505E+03 0.  0.
          5    1    3    3  502    0 -0.21133159657E+01  0.15526008698E+02  0.11077842012E+02  0.19639603716E+02  0.41800000000E+01 0.  1.
         -5    1    3    3    0  502 -0.97901237626E+02 -0.54428191269E+02  0.81975990559E+03  0.82738797160E+03  0.41800000000E+01 0.  1.
        -11    1    1    2    0    0  0.30566254144E+02 -0.29735337873E+02  0.21173560157E+03  0.21598715513E+03  0.00000000000E+00 0.  1.
         11    1    1    2    0    0  0.69448299448E+02  0.68637520444E+02  0.40016280064E+03  0.41190343835E+03  0.00000000000E+00 0. -1.
</event>
<event>
 7    1  0.2794945E-009  0.1314584E+03  0.7561462E-02  0.1225308E+00
         -1   -1    0    0    0  501 -0.00000000000E+00  0.00000000000E+00  0.31469462732E+03  0.31469462732E+03  0.00000000000E+00 0.  1.
          1   -1    0    0  501    0  0.00000000000E+00 -0.00000000000E+00 -0.60867764557E+02  0.60867764557E+02  0.00000000000E+00 0. -1.
         25    2    1    2    0    0 -0.36267882991E+02  0.55251266859E+02  0.80347972005E+02  0.16270243746E+03  0.12509286440E+03 0.  0.
          5    1    3    3  502    0  0.42125246887E+02  0.45546741851E+02  0.39621249727E+02  0.73731661778E+02  0.41800000000E+01 0.  1.
         -5    1    3    3    0  502 -0.78393129878E+02  0.97045250071E+01  0.40726722278E+02  0.88970775681E+02  0.41800000000E+01 0.  1.
        -11    1    1    2    0    0 -0.35337687146E+02 -0.27738646286E+02  0.81779073495E+02  0.93305956360E+02  0.00000000000E+00 0.  1.
         11    1    1    2    0    0  0.71605570137E+02 -0.27512620573E+02  0.91699817260E+02  0.11955399806E+03  0.00000000000E+00 0. -1.
</event>
<event>
 7    1  0.2794945E-009  0.1012633E+03  0.7561462E-02  0.1277662E+00
          2   -1    0    0  501    0  0.00000000000E+00  0.00000000000E+00  0.29831721756E+02  0.29831721756E+02  0.00000000000E+00 0. -1.
         -2   -1    0    0    0  501 -0.00000000000E+00 -0.00000000000E+00 -0.44225532230E+03  0.44225532230E+03  0.00000000000E+00 0.  1.
         25    2    1    2    0    0 -0.35547934737E+02 -0.93730122563E+01 -0.19183014839E+03  0.23194136704E+03  0.12508590204E+03 0.  0.
          5    1    3    3  502    0 -0.79018432854E+02 -0.18084271870E+02 -0.15144145041E+03  0.17182240518E+03  0.41800000000E+01 0.  1.
         -5    1    3    3    0  502  0.43470498117E+02  0.87112596139E+01 -0.40388697983E+02  0.60118961862E+02  0.41800000000E+01 0.  1.
        -11    1    1    2    0    0 -0.10331901438E+01 -0.25952244475E+02 -0.15493537156E+03  0.15709728144E+03  0.00000000000E+00 0.  1.
         11    1    1    2    0    0  0.36581124881E+02  0.35325256731E+02 -0.65658080600E+02  0.83048395582E+02  0.00000000000E+00 0. -1.
</event>
<event>
 7    1  0.2794945E-009  0.1725564E+03  0.7561462E-02  0.1175208E+00
          2   -1    0    0  501    0  0.00000000000E+00  0.00000000000E+00  0.38144781140E+02  0.38144781140E+02  0.00000000000E+00 0. -1.
         -2   -1    0    0    0  501 -0.00000000000E+00 -0.00000000000E+00 -0.79332055632E+03  0.79332055632E+03  0.00000000000E+00 0.  1.
         25    2    1    2    0    0 -0.11664410684E+03  0.65392542277E+02 -0.36417571774E+03  0.40761965567E+03  0.12509115897E+03 0.  0.
          5    1    3    3  502    0 -0.79810418646E+02  0.10285204953E+03 -0.26680462107E+03  0.29690137292E+03  0.41800000000E+01 0.  1.
         -5    1    3    3    0  502 -0.36833688197E+02 -0.37459507248E+02 -0.97371096670E+02  0.11071828276E+03  0.41800000000E+01 0.  1.
        -11    1    1    2    0    0  0.29122993096E+02 -0.68655808626E+02 -0.20804621373E+03  0.22100904016E+03  0.00000000000E+00 0.  1.
         11    1    1    2    0    0  0.87521113747E+02  0.32632663492E+01 -0.18295384370E+03  0.20283664162E+03  0.00000000000E+00 0. -1.
</event>
<event>
 7    1  0.2794945E-009  0.1914164E+03  0.7561462E-02  0.1157190E+00
          1   -1    0    0  501    0  0.00000000000E+00  0.00000000000E+00  0.59406987789E+02  0.59406987789E+02  0.00000000000E+00 0. -1.
         -1   -1    0    0    0  501 -0.00000000000E+00 -0.00000000000E+00 -0.82394505518E+03  0.82394505518E+03  0.00000000000E+00 0.  1.
         25    2    1    2    0    0 -0.49606138213E+02  0.17974959003E+03 -0.49577938333E+03  0.54425644722E+03  0.12508876584E+03 0.  0.
          5    1    3    3  502    0 -0.58247307864E+02  0.17585786344E+03 -0.33248849691E+03  0.38063737334E+03  0.41800000000E+01 0. -1.
         -5    1    3    3    0  502  0.86411696503E+01  0.38917265890E+01 -0.16329088642E+03  0.16361907388E+03  0.41800000000E+01 0. -1.
        -11    1    1    2    0    0  0.13808053196E+02 -0.27486947665E+02 -0.11767541703E+03  0.12162934842E+03  0.00000000000E+00 0.  1.
         11    1    1    2    0    0  0.35798085017E+02 -0.15226264236E+03 -0.15108326704E+03  0.21746624733E+03  0.00000000000E+00 0. -1.
</event>
<event>
 7    1  0.3148685E-009  0.1440398E+03  0.7561462E-02  0.1207994E+00
         -1   -1    0    0    0  501 -0.00000000000E+00  0.00000000000E+00  0.20455598851E+02  0.20455598851E+02  0.00000000000E+00 0.  1.
          1   -1    0    0  501    0  0.00000000000E+00 -0.00000000000E+00 -0.11154605530E+04  0.11154605530E+04  0.00000000000E+00 0. -1.
         25    2    1    2    0    0 -0.96627980311E+02  0.40823508201E+02 -0.61436032242E+03  0.63568115719E+03  0.12509357474E+03 0.  0.
          5    1    3    3  502    0 -0.11994268064E+03  0.17255116527E+02 -0.54951747668E+03  0.56273520883E+03  0.41800000000E+01 0.  1.
         -5    1    3    3    0  502  0.23314700331E+02  0.23568391675E+02 -0.64842845737E+02  0.72945948352E+02  0.41800000000E+01 0.  1.
        -11    1    1    2    0    0  0.43380270502E+02 -0.62370943360E+02 -0.20395581325E+03  0.21764640177E+03  0.00000000000E+00 0.  1.
         11    1    1    2    0    0  0.53247709809E+02  0.21547435159E+02 -0.27668881846E+03  0.28258859287E+03  0.00000000000E+00 0. -1.
</event>
<event>
 7    1  0.2794945E-009  0.1245730E+03  0.7561462E-02  0.1235738E+00
         -2   -1    0    0    0  501 -0.00000000000E+00  0.00000000000E+00  0.28881624006E+02  0.28881624006E+02  0.00000000000E+00 0. -1.
          2   -1    0    0  501    0  0.00000000000E+00 -0.00000000000E+00 -0.13836991412E+04  0.13836991412E+04  0.00000000000E+00 0.  1.
         25    2    1    2    0    0 -0.62382195969E+02  0.55385463763E+02 -0.12241235007E+04  0.12333230105E+04  0.12509282607E+03 0.  0.
          5    1    3    3  502    0 -0.75357514375E+01 -0.39304085342E+02 -0.38060399885E+03  0.38272506452E+03  0.41800000000E+01 0.  1.
         -5    1    3    3    0  502 -0.54846444532E+02  0.94689549106E+02 -0.84351950189E+03  0.85059794595E+03  0.41800000000E+01 0.  1.
        -11    1    1    2    0    0 -0.36467459365E+01 -0.27475142363E+02 -0.95419825018E+02  0.99363601033E+02  0.00000000000E+00 0.  1.
         11    1    1    2    0    0  0.66028941906E+02 -0.27910321400E+02 -0.35274191395E+02  0.79894153656E+02  0.00000000000E+00 0. -1.
</event>
<event>
 7    1  0.2794945E-009  0.8484826E+02  0.7561462E-02  0.1315830E+00
          1   -1    0    0  501    0  0.00000000000E+00  0.00000000000E+00  0.50736561844E+02  0.50736561844E+02  0.00000000000E+00 0. -1.
         -1   -1    0    0    0  501 -0.00000000000E+00 -0.00000000000E+00 -0.29546463087E+03  0.29546463087E+03  0.00000000000E+00 0.  1.
         25    2    1    2    0    0  0.28901573712E+02  0.33149094922E+02 -0.88214210441E+02  0.15925849852E+03  0.12508940391E+03 0.  0.
          5    1    3    3  502    0  0.68468828474E+02 -0.61013833708E+01 -0.75012345517E+02  0.10183089773E+03  0.41800000000E+01 0. -1.
         -5    1    3    3    0  502 -0.39567254762E+02  0.39250478293E+02 -0.13201864924E+02  0.57427600795E+02  0.41800000000E+01 0. -1.
        -11    1    1    2    0    0 -0.46899383940E+01 -0.11657832629E+02  0.10773228267E+02  0.16551828631E+02  0.00000000000E+00 0. -1.
         11    1    1    2    0    0 -0.24211635318E+02 -0.21491262293E+02 -0.16728708685E+03  0.17039086556E+03  0.00000000000E+00 0.  1.
</event>
<event>
 7    1  0.2794945E-009  0.1493775E+03  0.7561462E-02  0.1201240E+00
         -2   -1    0    0    0  501 -0.00000000000E+00  0.00000000000E+00  0.18379775934E+03  0.18379775934E+03  0.00000000000E+00 0.  1.
          2   -1    0    0  501    0  0.00000000000E+00 -0.00000000000E+00 -0.26844248090E+03  0.26844248090E+03  0.00000000000E+00 0. -1.
         25    2    1    2    0    0  0.11004132536E+03  0.87954735815E+02  0.91003180313E+02  0.20922419825E+03  0.12509219587E+03 0.  0.
          5    1    3    3  502    0  0.14799675072E+02 -0.42242091666E+01 -0.27232365722E+02  0.31558651241E+02  0.41800000000E+01 0. -1.
         -5    1    3    3    0  502  0.95241650287E+02  0.92178944982E+02  0.11823554603E+03  0.17766554701E+03  0.41800000000E+01 0. -1.
        -11    1    1    2    0    0  0.10968821267E+00 -0.21607063347E+02  0.41150791925E+01  0.21995706280E+02  0.00000000000E+00 0.  1.
         11    1    1    2    0    0 -0.11015101357E+03 -0.66347672468E+02 -0.17976298107E+03  0.22102033571E+03  0.00000000000E+00 0. -1.
</event>
<event>
 7    1  0.2794945E-009  0.2818669E+03  0.7561462E-02  0.1094674E+00
          2   -1    0    0  501    0  0.00000000000E+00  0.00000000000E+00  0.46305018983E+03  0.46305018983E+03  0.00000000000E+00 0. -1.
         -2   -1    0    0    0  501 -0.00000000000E+00 -0.00000000000E+00 -0.29681248462E+03  0.29681248462E+03  0.00000000000E+00 0.  1.
         25    2    1    2    0    0  0.18175001396E+03  0.19591621699E+03 -0.15403478186E+03  0.33285129863E+03  0.12508813423E+03 0.  0.
          5    1    3    3  502    0  0.10132326355E+03  0.18549087311E+03 -0.12994612621E+03  0.24814660155E+03  0.41800000000E+01 0.  1.
         -5    1    3    3    0  502  0.80426750416E+02  0.10425343884E+02 -0.24088655643E+02  0.84704697085E+02  0.41800000000E+01 0.  1.
        -11    1    1    2    0    0 -0.51622769102E+02 -0.88210375091E+02  0.18192294339E+03  0.20866705034E+03  0.00000000000E+00 0.  1.
         11    1    1    2    0    0 -0.13012724486E+03 -0.10770584190E+03  0.13834954367E+03  0.21834432548E+03  0.00000000000E+00 0. -1.
</event>
<event>
 7    1  0.2794945E-009  0.1054607E+03  0.7561462E-02  0.1269215E+00
          2   -1    0    0  501    0  0.00000000000E+00  0.00000000000E+00  0.44055970523E+03  0.44055970523E+03  0.00000000000E+00 0. -1.
         -2   -1    0    0    0  501 -0.00000000000E+00 -0.00000000000E+00 -0.55112700555E+02  0.55112700555E+02  0.00000000000E+00 0.  1.
         25    2    1    2    0    0 -0.17466579189E+02  0.76521653577E+02  0.81222584991E+02  0.16855294559E+03  0.12510932139E+03 0.  0.
          5    1    3    3  502    0 -0.37962511168E+02  0.67035992963E+02 -0.69248933282E+01  0.77462269230E+02  0.41800000000E+01 0. -1.
         -5    1    3    3    0  502  0.20495931979E+02  0.94856606137E+01  0.88147478319E+02  0.91090676356E+02  0.41800000000E+01 0. -1.
        -11    1    1    2    0    0 -0.30226392667E+01 -0.87502669809E+02  0.28073686337E+03  0.29407318821E+03  0.00000000000E+00 0. -1.
         11    1    1    2    0    0  0.20489218456E+02  0.10981016232E+02  0.23487556312E+02  0.33046271983E+02  0.00000000000E+00 0.  1.
</event>
<event>
 7    1  0.2794945E-009  0.2247565E+03  0.7561462E-02  0.1130386E+00
         -2   -1    0    0    0  501 -0.00000000000E+00  0.00000000000E+00  0.48839261132E+02  0.48839261132E+02  0.00000000000E+00 0. -1.
          2   -1    0    0  501    0  0.00000000000E+00 -0.00000000000E+00 -0.16413916847E+04  0.16413916847E+04  0.00000000000E+00 0.  1.
         25    2    1    2    0    0  0.32017740382E+01  0.21473696257E+03 -0.37076915341E+03  0.44636239456E+03  0.12508959871E+03 0.  0.
          5    1    3    3  502    0  0.54131593610E+01  0.16394489696E+02  0.74520369223E+01  0.19263614431E+02  0.41800000000E+01 0. -1.
         -5    1    3    3    0  502 -0.22113853228E+01  0.19834247288E+03 -0.37822119034E+03  0.42709878013E+03  0.41800000000E+01 0. -1.
        -11    1    1    2    0    0 -0.17759699377E+02 -0.21775901846E+03 -0.11419635785E+04  0.11626758842E+04  0.00000000000E+00 0.  1.
         11    1    1    2    0    0  0.14557925339E+02  0.30220558901E+01 -0.79819691591E+02  0.81192667019E+02  0.00000000000E+00 0. -1.
</event>
<event>
 7    1  0.2794945E-009  0.1032684E+03  0.7561462E-02  0.1273569E+00
          1   -1    0    0  501    0  0.00000000000E+00  0.00000000000E+00  0.20887533403E+02  0.20887533403E+02  0.00000000000E+00 0. -1.
         -1   -1    0    0    0  501 -0.00000000000E+00 -0.00000000000E+00 -0.56416214943E+03  0.56416214943E+03  0.00000000000E+00 0.  1.
         25    2    1    2    0    0 -0.15789679948E+02  0.16467556670E+02 -0.35760662043E+03  0.37953983562E+03  0.12508995735E+03 0.  0.
          5    1    3    3  502    0 -0.64283329812E+02  0.30399439624E+02 -0.26004010143E+03  0.26961973068E+03  0.41800000000E+01 0. -1.
         -5    1    3    3    0  502  0.48493649864E+02 -0.13931882954E+02 -0.97566519004E+02  0.10992010494E+03  0.41800000000E+01 0. -1.
        -11    1    1    2    0    0  0.78365516301E+01 -0.49798059788E+02 -0.81299712848E+02  0.95660345020E+02  0.00000000000E+00 0. -1.
         11    1    1    2    0    0  0.79531283182E+01  0.33330503119E+02 -0.10436828275E+03  0.10984950219E+03  0.00000000000E+00 0.  1.
</event>
<event>
 7    1  0.2794945E-009  0.9908275E+02  0.7561462E-02  0.1282237E+00
         -4   -1    0    0    0  501 -0.00000000000E+00  0.00000000000E+00  0.86195236853E+02  0.86195236853E+02  0.00000000000E+00 0. -1.
          4   -1    0    0  501    0  0.00000000000E+00 -0.00000000000E+00 -0.14792486089E+03  0.14792486089E+03  0.00000000000E+00 0.  1.
         25    2    1    2    0    0 -0.31037415244E+02 -0.35811151284E+01 -0.21641180732E+02  0.13072910494E+03  0.12508242341E+03 0.  0.
          5    1    3    3  502    0 -0.35069984288E+02  0.49566495230E+02 -0.41534500676E+02  0.73683976506E+02  0.41800000000E+01 0. -1.
         -5    1    3    3    0  502  0.40325690437E+01 -0.53147610358E+02  0.19893319945E+02  0.57045128436E+02  0.41800000000E+01 0. -1.
        -11    1    1    2    0    0 -0.11339514059E+02  0.31240227096E+02 -0.40999940231E+02  0.52778134365E+02  0.00000000000E+00 0.  1.
         11    1    1    2    0    0  0.42376929303E+02 -0.27659111968E+02  0.91149693008E+00  0.50612858432E+02  0.00000000000E+00 0. -1.
</event>
<event>
 7    1  0.2794945E-009  0.9295179E+02  0.7561462E-02  0.1295857E+00
          2   -1    0    0  501    0  0.00000000000E+00  0.00000000000E+00  0.16781880275E+03  0.16781880275E+03  0.00000000000E+00 0. -1.
         -2   -1    0    0    0  501 -0.00000000000E+00 -0.00000000000E+00 -0.88807942401E+02  0.88807942401E+02  0.00000000000E+00 0.  1.
         25    2    1    2    0    0  0.93409128453E+01 -0.37299538419E+02 -0.72261541984E+01  0.13104969014E+03  0.12507316163E+03 0.  0.
          5    1    3    3  502    0  0.50386161622E+02 -0.26609417626E+02 -0.46062137061E+02  0.73389503746E+02  0.41800000000E+01 0. -1.
         -5    1    3    3    0  502 -0.41045248777E+02 -0.10690120792E+02  0.38835982863E+02  0.57660186390E+02  0.41800000000E+01 0. -1.
        -11    1    1    2    0    0  0.10864457066E+02 -0.21438042480E+02  0.72738917636E+01  0.25110467819E+02  0.00000000000E+00 0.  1.
         11    1    1    2    0    0 -0.20205369912E+02  0.58737580899E+02  0.78963122785E+02  0.10046658720E+03  0.00000000000E+00 0. -1.
</event>
<event>
 7    1  0.2794945E-009  0.1923102E+03  0.7561462E-02  0.1156394E+00
          2   -1    0    0  501    0  0.00000000000E+00  0.00000000000E+00  0.41663262175E+03  0.41663262175E+03  0.00000000000E+00 0. -1.
         -2   -1    0    0    0  501 -0.00000000000E+00 -0.00000000000E+00 -0.13271925149E+03  0.13271925149E+03  0.00000000000E+00 0.  1.
         25    2    1    2    0    0 -0.72296141887E+02 -0.15202675951E+03  0.52449767695E+01  0.20979586104E+03  0.12509166955E+03 0.  0.
          5    1    3    3  502    0  0.16649162790E+02 -0.10170934527E+03  0.23778834277E+02  0.10585315724E+03  0.41800000000E+01 0. -1.
         -5    1    3    3    0  502 -0.88945304677E+02 -0.50317414232E+02 -0.18533857508E+02  0.10394270380E+03  0.41800000000E+01 0. -1.
        -11    1    1    2    0    0  0.70210311476E+02  0.77246687447E+02  0.94633026466E+02  0.14089694197E+03  0.00000000000E+00 0.  1.
         11    1    1    2    0    0  0.20858304108E+01  0.74780072060E+02  0.18403536703E+03  0.19865907023E+03  0.00000000000E+00 0. -1.
</event>
<event>
 7    1  0.2794945E-009  0.7250237E+02  0.7561462E-02  0.1351785E+00
         -1   -1    0    0    0  501 -0.00000000000E+00  0.00000000000E+00  0.48888009128E+02  0.48888009128E+02  0.00000000000E+00 0.  1.
          1   -1    0    0  501    0  0.00000000000E+00 -0.00000000000E+00 -0.33747557509E+03  0.33747557509E+03  0.00000000000E+00 0. -1.
         25    2    1    2    0    0  0.14004615003E+02  0.36907203943E+02 -0.22787447979E+03  0.26293028951E+03  0.12508911887E+03 0.  0.
          5    1    3    3  502    0  0.35041541970E+02 -0.61881595400E+01 -0.20764724960E+03  0.21071557998E+03  0.41800000000E+01 0.  1.
         -5    1    3    3    0  502 -0.21036926967E+02  0.43095363483E+02 -0.20227230192E+02  0.52214709529E+02  0.41800000000E+01 0.  1.
        -11    1    1    2    0    0  0.63678800606E+01 -0.39937532061E+02  0.16382247880E+02  0.43634096864E+02  0.00000000000E+00 0.  1.
         11    1    1    2    0    0 -0.20372495063E+02  0.30303281173E+01 -0.77095334052E+02  0.79799197841E+02  0.00000000000E+00 0. -1.
</event>
<event>
 7    1  0.2794945E-009  0.1188638E+03  0.7561462E-02  0.1244983E+00
         -4   -1    0    0    0  501 -0.00000000000E+00  0.00000000000E+00  0.85853616341E+02  0.85853616341E+02  0.00000000000E+00 0.  1.
          4   -1    0    0  501    0  0.00000000000E+00 -0.00000000000E+00 -0.28580265766E+03  0.28580265766E+03  0.00000000000E+00 0. -1.
         25    2    1    2    0    0  0.70629333808E+02  0.13799915734E+02 -0.16791447688E+01  0.14433810837E+03  0.12510687245E+03 0.  0.
          5    1    3    3  502    0  0.57310051421E+02  0.59360172200E+02 -0.31168017672E+02  0.88300564908E+02  0.41800000000E+01 0. -1.
         -5    1    3    3    0  502  0.13319282387E+02 -0.45560256466E+02  0.29488872903E+02  0.56037543466E+02  0.41800000000E+01 0. -1.
        -11    1    1    2    0    0 -0.57299831733E+02 -0.45437496941E+02 -0.15991597797E+03  0.17584355790E+03  0.00000000000E+00 0. -1.
         11    1    1    2    0    0 -0.13329502076E+02  0.31637581208E+02 -0.38353918584E+02  0.51474607730E+02  0.00000000000E+00 0.  1.
</event>
<event>
 7    1  0.2794945E-009  0.9932915E+02  0.7561462E-02  0.1281713E+00
          3   -1    0    0  501    0  0.00000000000E+00  0.00000000000E+00  0.27907438322E+02  0.27907438322E+02  0.00000000000E+00 0. -1.
         -3   -1    0    0    0  501 -0.00000000000E+00 -0.00000000000E+00 -0.56929270940E+03  0.56929270940E+03  0.00000000000E+00 0.  1.
         25    2    1    2    0    0  0.40409760107E+02 -0.42773281343E+02 -0.36460821008E+03  0.38994201195E+03  0.12511244349E+03 0.  0.
          5    1    3    3  502    0  0.61263135108E+02 -0.34658157180E+02 -0.35984110787E+03  0.36668440776E+03  0.41800000000E+01 0.  1.
         -5    1    3    3    0  502 -0.20853375001E+02 -0.81151241632E+01 -0.47671022128E+01  0.23257604189E+02  0.41800000000E+01 0.  1.
        -11    1    1    2    0    0  0.19282989814E+01 -0.25215792543E+02 -0.65010748439E+02  0.69756375645E+02  0.00000000000E+00 0.  1.
         11    1    1    2    0    0 -0.42338059088E+02  0.67989073886E+02 -0.11176631256E+03  0.13750176012E+03  0.00000000000E+00 0. -1.
</event>
<event>
 7    1  0.2794945E-009  0.1126509E+03  0.7561462E-02  0.1255738E+00
          2   -1    0    0  501    0  0.00000000000E+00  0.00000000000E+00  0.71205190859E+03  0.71205190859E+03  0.00000000000E+00 0.  1.
         -2   -1    0    0    0  501 -0.00000000000E+00 -0.00000000000E+00 -0.21372738033E+02  0.21372738033E+02  0.00000000000E+00 0. -1.
         25    2    1    2    0    0  0.27897239264E+02 -0.41502434391E+02  0.29350670047E+03  0.32294490802E+03  0.12508605988E+03 0.  0.
          5    1    3    3  502    0  0.37184607464E+02 -0.81359764552E+02  0.23446423255E+03  0.25098417294E+03  0.41800000000E+01 0. -1.
         -5    1    3    3    0  502 -0.92873681993E+01  0.39857330161E+02  0.59042467914E+02  0.71960735078E+02  0.41800000000E+01 0. -1.
        -11    1    1    2    0    0  0.26331900406E+02  0.13444849643E-01  0.48524560140E+02  0.55208713955E+02  0.00000000000E+00 0. -1.
         11    1    1    2    0    0 -0.54229139671E+02  0.41488989541E+02  0.34864790995E+03  0.35527102465E+03  0.00000000000E+00 0.  1.
</event>
<event>
 7    1  0.2794945E-009  0.9075737E+02  0.7561462E-02  0.1301028E+00
         -1   -1    0    0    0  501 -0.00000000000E+00  0.00000000000E+00  0.12111241387E+02  0.12111241387E+02  0.00000000000E+00 0.  1.
          1   -1    0    0  501    0  0.00000000000E+00 -0.00000000000E+00 -0.96205727635E+03  0.96205727635E+03  0.00000000000E+00 0. -1.
         25    2    1    2    0    0  0.42234395549E+01 -0.10718079634E+02 -0.54987052493E+03  0.56403776121E+03  0.12509311417E+03 0.  0.
          5    1    3    3  502    0  0.44978154663E+02  0.87276879341E+01 -0.46955550196E+03  0.47180403639E+03  0.41800000000E+01 0.  1.
         -5    1    3    3    0  502 -0.40754715108E+02 -0.19445767568E+02 -0.80315022969E+02  0.92233724821E+02  0.41800000000E+01 0.  1.
        -11    1    1    2    0    0 -0.23754854124E+02 -0.33933341532E+02 -0.17414634375E+03  0.17900478710E+03  0.00000000000E+00 0.  1.
         11    1    1    2    0    0  0.19531414569E+02  0.44651421166E+02 -0.22592916629E+03  0.23112596943E+03  0.00000000000E+00 0. -1.
</event>
<event>
 7    1  0.2794945E-009  0.2003757E+03  0.7561462E-02  0.1149422E+00
          2   -1    0    0  501    0  0.00000000000E+00  0.00000000000E+00  0.90027326856E+03  0.90027326856E+03  0.00000000000E+00 0. -1.
         -2   -1    0    0    0  501 -0.00000000000E+00 -0.00000000000E+00 -0.70686019049E+02  0.70686019049E+02  0.00000000000E+00 0.  1.
         25    2    1    2    0    0  0.15561549886E+03 -0.10557619758E+03  0.67306970406E+03  0.70995442040E+03  0.12509970241E+03 0.  0.
          5    1    3    3  502    0 -0.12466995872E+01 -0.21658352496E+02  0.25013666447E+03  0.25111045738E+03  0.41800000000E+01 0.  1.
         -5    1    3    3    0  502  0.15686219845E+03 -0.83917845083E+02  0.42293303959E+03  0.45884396302E+03  0.41800000000E+01 0.  1.
        -11    1    1    2    0    0 -0.85596381556E+02  0.98253783533E+02  0.13442674673E+03  0.18721938134E+03  0.00000000000E+00 0.  1.
         11    1    1    2    0    0 -0.70019117309E+02  0.73224140456E+01  0.22090798725E+02  0.73785485866E+02  0.00000000000E+00 0. -1.
</event>
<event>
 7    1  0.2794945E-009  0.1336674E+03  0.7561462E-02  0.1222113E+00
          2   -1    0    0  501    0  0.00000000000E+00  0.00000000000E+00  0.26759432441E+03  0.26759432441E+03  0.00000000000E+00 0. -1.
         -2   -1    0    0    0  501 -0.00000000000E+00 -0.00000000000E+00 -0.95111892207E+02  0.95111892207E+02  0.00000000000E+00 0.  1.
         25    2    1    2    0    0  0.43036527321E+02  0.97433356949E+02  0.13462658906E+03  0.21238454380E+03  0.12504988698E+03 0.  0.
          5    1    3    3  502    0 -0.77930020415E+01  0.88434973389E+02  0.26903029166E+02  0.92858606372E+02  0.41800000000E+01 0. -1.
         -5    1    3    3    0  502  0.50829529363E+02  0.89983835600E+01  0.10772355989E+03  0.11952593743E+03  0.41800000000E+01 0. -1.
        -11    1    1    2    0    0 -0.46595047310E+02 -0.22661691522E+02  0.52813143763E+02  0.73985666521E+02  0.00000000000E+00 0. -1.
         11    1    1    2    0    0  0.35585199885E+01 -0.74771665427E+02 -0.14957300619E+02  0.76336006295E+02  0.00000000000E+00 0.  1.
</event>
<event>
 7    1  0.2794945E-009  0.9910137E+02  0.7561462E-02  0.1282197E+00
          1   -1    0    0  501    0  0.00000000000E+00  0.00000000000E+00  0.30903092998E+02  0.30903092998E+02  0.00000000000E+00 0. -1.
         -1   -1    0    0    0  501 -0.00000000000E+00 -0.00000000000E+00 -0.54965661860E+03  0.54965661860E+03  0.00000000000E+00 0.  1.
         25    2    1    2    0    0  0.37397044680E+02  0.57418367936E+02 -0.24438855496E+03  0.28296340051E+03  0.12508841795E+03 0.  0.
          5    1    3    3  502    0  0.20687141639E+02  0.73766907542E+02 -0.60937046082E+02  0.97981174022E+02  0.41800000000E+01 0.  1.
         -5    1    3    3    0  502  0.16709903041E+02 -0.16348539606E+02 -0.18345150887E+03  0.18498222648E+03  0.41800000000E+01 0.  1.
        -11    1    1    2    0    0 -0.63628858736E+01  0.16432506867E+02 -0.78283550124E+01  0.19282031552E+02  0.00000000000E+00 0. -1.
         11    1    1    2    0    0 -0.31034158807E+02 -0.73850874803E+02 -0.26653661564E+03  0.27831427954E+03  0.00000000000E+00 0.  1.
</event>
<event>
 7    1  0.2794945E-009  0.7639668E+02  0.7561462E-02  0.1339600E+00
         -2   -1    0    0    0  501 -0.00000000000E+00  0.00000000000E+00  0.20020129007E+02  0.20020129007E+02  0.00000000000E+00 0.  1.
          2   -1    0    0  501    0  0.00000000000E+00 -0.00000000000E+00 -0.93016034685E+03  0.93016034685E+03  0.00000000000E+00 0. -1.
         25    2    1    2    0    0 -0.34399164777E+02 -0.46207723708E+02 -0.70277553254E+03  0.71614162887E+03  0.12508767801E+03 0.  0.
          5    1    3    3  502    0 -0.22317394442E+02 -0.46120070124E+02 -0.93240109811E+02  0.10647214397E+03  0.41800000000E+01 0.  1.
         -5    1    3    3    0  502 -0.12081770335E+02 -0.87653583285E-01 -0.60953542273E+03  0.60966948490E+03  0.41800000000E+01 0.  1.
        -11    1    1    2    0    0 -0.28504386621E-01 -0.16801277486E+02 -0.25379972190E+01  0.16991914770E+02  0.00000000000E+00 0.  1.
         11    1    1    2    0    0  0.34427669163E+02  0.63009001193E+02 -0.20482668809E+03  0.21704693222E+03  0.00000000000E+00 0. -1.
</event>
<event>
 7    1  0.2794945E-009  0.7856029E+02  0.7561462E-02  0.1333187E+00
          1   -1    0    0  501    0  0.00000000000E+00  0.00000000000E+00  0.35254325359E+03  0.35254325359E+03  0.00000000000E+00 0. -1.
         -1   -1    0    0    0  501 -0.00000000000E+00 -0.00000000000E+00 -0.40724373522E+02  0.40724373522E+02  0.00000000000E+00 0.  1.
         25    2    1    2    0    0  0.30785097644E+02 -0.89363991454E+01  0.94519887006E+02  0.16002893893E+03  0.12509065028E+03 0.  0.
          5    1    3    3  502    0  0.39990327974E+02  0.37430890064E+02  0.98103735783E+02  0.11243715239E+03  0.41800000000E+01 0.  1.
         -5    1    3    3    0  502 -0.92052303296E+01 -0.46367289209E+02 -0.35838487769E+01  0.47591786540E+02  0.41800000000E+01 0.  1.
        -11    1    1    2    0    0 -0.34562578969E+01 -0.16822917099E+02  0.53501749667E+01  0.17988347077E+02  0.00000000000E+00 0.  1.
         11    1    1    2    0    0 -0.27328839748E+02  0.25759316244E+02  0.21194881810E+03  0.21525034111E+03  0.00000000000E+00 0. -1.
</event>
<event>
 7    1  0.3227344E-009  0.1194577E+03  0.7561462E-02  0.1243994E+00
         -2   -1    0    0    0  501 -0.00000000000E+00  0.00000000000E+00  0.17311661236E+02  0.17311661236E+02  0.00000000000E+00 0.  1.
          2   -1    0    0  501    0  0.00000000000E+00 -0.00000000000E+00 -0.10241199438E+04  0.10241199438E+04  0.00000000000E+00 0. -1.
         25    2    1    2    0    0 -0.33215374280E+02  0.43856224128E+02 -0.76300381132E+03  0.77514445620E+03  0.12508989729E+03 0.  0.
          5    1    3    3  502    0 -0.73907449649E+02  0.51828381070E+02 -0.60613000585E+03  0.61282913490E+03  0.41800000000E+01 0. -1.
         -5    1    3    3    0  502  0.40692075369E+02 -0.79721569413E+01 -0.15687380547E+03  0.16231532130E+03  0.41800000000E+01 0. -1.
        -11    1    1    2    0    0  0.38439210761E+02  0.19638042475E+02 -0.90270653793E+02  0.10006006482E+03  0.00000000000E+00 0.  1.
         11    1    1    2    0    0 -0.52238364811E+01 -0.63494266604E+02 -0.15353381748E+03  0.16622708404E+03  0.00000000000E+00 0. -1.
</event>
<event>
 7    1  0.2794945E-009  0.1438011E+03  0.7561462E-02  0.1208304E+00
         -3   -1    0    0    0  501 -0.00000000000E+00  0.00000000000E+00  0.70998033649E+02  0.70998033649E+02  0.00000000000E+00 0.  1.
          3   -1    0    0  501    0  0.00000000000E+00 -0.00000000000E+00 -0.29474177865E+03  0.29474177865E+03  0.00000000000E+00 0. -1.
         25    2    1    2    0    0  0.84628144714E+02 -0.45636408931E+02 -0.12393670217E+03  0.20062869100E+03  0.12508781240E+03 0.  0.
          5    1    3    3  502    0  0.67507103317E+02  0.34311642723E+02 -0.62397236038E+02  0.98210922456E+02  0.41800000000E+01 0.  1.
         -5    1    3    3    0  502  0.17121041397E+02 -0.79948051654E+02 -0.61539466131E+02  0.10241776854E+03  0.41800000000E+01 0.  1.
        -11    1    1    2    0    0  0.57884592221E+01  0.38787815292E+02 -0.18672154332E+02  0.43435587053E+02  0.00000000000E+00 0. -1.
         11    1    1    2    0    0 -0.90416603936E+02  0.68485936391E+01 -0.81134888503E+02  0.12167553425E+03  0.00000000000E+00 0.  1.
</event>
<event>
 7    1  0.3618169E-009  0.1197933E+03  0.7561462E-02  0.1243438E+00
         -2   -1    0    0    0  501 -0.00000000000E+00  0.00000000000E+00  0.43996682818E+02  0.43996682818E+02  0.00000000000E+00 0. -1.
          2   -1    0    0  501    0  0.00000000000E+00 -0.00000000000E+00 -0.43121286942E+03  0.43121286942E+03  0.00000000000E+00 0.  1.
         25    2    1    2    0    0  0.68667211802E+02 -0.49239368551E+02 -0.21049922784E+03  0.25903134481E+03  0.12509041244E+03 0.  0.
          5    1    3    3  502    0  0.36310464039E+02  0.36399263122E+02 -0.11819259843E+03  0.12895859365E+03  0.41800000000E+01 0. -1.
         -5    1    3    3    0  502  0.32356747763E+02 -0.85638631673E+02 -0.92306629413E+02  0.13007275116E+03  0.41800000000E+01 0. -1.
        -11    1    1    2    0    0 -0.36312186657E+02  0.52507903129E+02 -0.17181357291E+03  0.18329091256E+03  0.00000000000E+00 0.  1.
         11    1    1    2    0    0 -0.32355025145E+02 -0.32685345775E+01 -0.49033858483E+01  0.32887294860E+02  0.00000000000E+00 0. -1.
</event>
<event>
 7    1  0.2794945E-009  0.1651475E+03  0.7561462E-02  0.1183005E+00
         -1   -1    0    0    0  501 -0.00000000000E+00  0.00000000000E+00  0.53062416059E+02  0.53062416059E+02  0.00000000000E+00 0.  1.
          1   -1    0    0  501    0  0.00000000000E+00 -0.00000000000E+00 -0.68427969231E+03  0.68427969231E+03  0.00000000000E+00 0. -1.
         25    2    1    2    0    0 -0.58720928175E+02  0.12236962170E+03 -0.48970602640E+03  0.52333709133E+03  0.12508895692E+03 0.  0.
          5    1    3    3  502    0 -0.51894530030E+02  0.14647925217E+03 -0.45098685470E+03  0.47702812189E+03  0.41800000000E+01 0.  1.
         -5    1    3    3    0  502 -0.68263981454E+01 -0.24109630468E+02 -0.38719171702E+02  0.46308969436E+02  0.41800000000E+01 0.  1.
        -11    1    1    2    0    0  0.24815660738E+02 -0.11089948839E+03 -0.68495486318E+02  0.13268815014E+03  0.00000000000E+00 0.  1.
         11    1    1    2    0    0  0.33905267437E+02 -0.11470133314E+02 -0.73015763528E+02  0.81316866896E+02  0.00000000000E+00 0. -1.
</event>
<event>
 7    1  0.2794945E-009  0.9295616E+02  0.7561462E-02  0.1295847E+00
          2   -1    0    0  501    0  0.00000000000E+00  0.00000000000E+00  0.35191701853E+03  0.35191701853E+03  0.00000000000E+00 0. -1.
         -2   -1    0    0    0  501 -0.00000000000E+00 -0.00000000000E+00 -0.64928439463E+02  0.64928439463E+02  0.00000000000E+00 0.  1.
         25    2    1    2    0    0  0.31450940349E+02  0.13207818813E+02  0.29399871432E+03  0.32132368295E+03  0.12510018814E+03 0.  0.
          5    1    3    3  502    0 -0.23996842055E+02  0.44373990427E+02  0.58546985750E+02  0.77395874538E+02  0.41800000000E+01 0. -1.
         -5    1    3    3    0  502  0.55447782404E+02 -0.31166171614E+02  0.23545172857E+03  0.24392780841E+03  0.41800000000E+01 0. -1.
        -11    1    1    2    0    0 -0.19644789666E+02  0.24864161643E+02 -0.34696566545E+02  0.46989318203E+02  0.00000000000E+00 0.  1.
         11    1    1    2    0    0 -0.11806150683E+02 -0.38071980456E+02  0.27686431289E+02  0.48532456844E+02  0.00000000000E+00 0. -1.
</event>
<event>
 7    1  0.2794945E-009  0.1113872E+03  0.7561462E-02  0.1258022E+00
         -2   -1    0    0    0  501 -0.00000000000E+00  0.00000000000E+00  0.16169458171E+02  0.16169458171E+02  0.00000000000E+00 0.  1.
          2   -1    0    0  501    0  0.00000000000E+00 -0.00000000000E+00 -0.10157883084E+04  0.10157883084E+04  0.00000000000E+00 0. -1.
         25    2    1    2    0    0  0.51906554590E+02  0.37638668018E+02 -0.45450808264E+03  0.47574670869E+03  0.12508546640E+03 0.  0.
          5    1    3    3  502    0 -0.11361545798E+02  0.46622621670E+02 -0.34911978362E+03  0.35242708365E+03  0.41800000000E+01 0.  1.
         -5    1    3    3    0  502  0.63268100388E+02 -0.89839536522E+01 -0.10538829902E+03  0.12331962504E+03  0.41800000000E+01 0.  1.
        -11    1    1    2    0    0  0.31534772867E+01 -0.53244183153E+02 -0.26367922349E+03  0.26901973972E+03  0.00000000000E+00 0. -1.
         11    1    1    2    0    0 -0.55060031877E+02  0.15605515135E+02 -0.28143154407E+03  0.28719131814E+03  0.00000000000E+00 0.  1.
</event>
<event>
 7    1  0.2794945E-009  0.1429117E+03  0.7561462E-02  0.1209464E+00
          2   -1    0    0  501    0  0.00000000000E+00  0.00000000000E+00  0.11337782601E+03  0.11337782601E+03  0.00000000000E+00 0. -1.
         -2   -1    0    0    0  501 -0.00000000000E+00 -0.00000000000E+00 -0.58419982198E+03  0.58419982198E+03  0.00000000000E+00 0.  1.
         25    2    1    2    0    0  0.11876699581E+03  0.58686845128E+02 -0.50173061567E+03  0.53378935352E+03  0.12509083959E+03 0.  0.
          5    1    3    3  502    0  0.97645294078E+02  0.66027935356E+02 -0.20749278450E+03  0.23867345836E+03  0.41800000000E+01 0.  1.
         -5    1    3    3    0  502  0.21121701728E+02 -0.73410902282E+01 -0.29423783117E+03  0.29511589517E+03  0.41800000000E+01 0.  1.
        -11    1    1    2    0    0 -0.43990909538E+02  0.82612527073E+01  0.43766020748E+02  0.62601221956E+02  0.00000000000E+00 0. -1.
         11    1    1    2    0    0 -0.74776086269E+02 -0.66948097835E+02 -0.12857401054E+02  0.10118707251E+03  0.00000000000E+00 0.  1.
</event>
<event>
 7    1  0.2794945E-009  0.1050830E+03  0.7561462E-02  0.1269956E+00
          2   -1    0    0  501    0  0.00000000000E+00  0.00000000000E+00  0.11540621520E+04  0.11540621520E+04  0.00000000000E+00 0. -1.
         -2   -1    0    0    0  501 -0.00000000000E+00 -0.00000000000E+00 -0.11837038396E+02  0.11837038396E+02  0.00000000000E+00 0.  1.
         25    2    1    2    0    0  0.40587662139E+02  0.61565472580E+01  0.85421907430E+03  0.86430470702E+03  0.12508852181E+03 0.  0.
          5    1    3    3  502    0 -0.41049991195E+02 -0.78133469304E+01  0.43071284492E+03  0.43275533197E+03  0.41800000000E+01 0.  1.
         -5    1    3    3    0  502  0.81637653334E+02  0.13969894188E+02  0.42350622938E+03  0.43154937505E+03  0.41800000000E+01 0.  1.
        -11    1    1    2    0    0 -0.24605457738E+02  0.34029535426E+02  0.96078708877E+02  0.10485492898E+03  0.00000000000E+00 0.  1.
         11    1    1    2    0    0 -0.15982204401E+02 -0.40186082684E+02  0.19192733044E+03  0.19673955441E+03  0.00000000000E+00 0. -1.
</event>
<event>
 7    1  0.2794945E-009  0.1863562E+03  0.7561462E-02  0.1161789E+00
         -1   -1    0    0    0  501 -0.00000000000E+00  0.00000000000E+00  0.81286123627E+03  0.81286123627E+03  0.00000000000E+00 0.  1.
          1   -1    0    0  501    0  0.00000000000E+00 -0.00000000000E+00 -0.53883697240E+02  0.53883697240E+02  0.00000000000E+00 0. -1.
         25    2    1    2    0    0 -0.29644587966E+00 -0.15240526708E+03  0.20503312778E+03  0.28444631323E+03  0.12507465095E+03 0.  0.
          5    1    3    3  502    0 -0.14404611856E+01  0.21328859335E+02  0.12644261133E+02  0.25186204727E+02  0.41800000000E+01 0.  1.
         -5    1    3    3    0  502  0.11440153059E+01 -0.17373412641E+03  0.19238886665E+03  0.25926010851E+03  0.41800000000E+01 0.  1.
        -11    1    1    2    0    0  0.44321164778E+02  0.94718569097E+02  0.37192137828E+03  0.38634373892E+03  0.00000000000E+00 0.  1.
         11    1    1    2    0    0 -0.44024718898E+02  0.57686697981E+02  0.18202303297E+03  0.19595488136E+03  0.00000000000E+00 0. -1.
</event>
<event>
 7    1  0.2794945E-009  0.1229860E+03  0.7561462E-02  0.1238251E+00
         -1   -1    0    0    0  501 -0.00000000000E+00  0.00000000000E+00  0.14783369539E+02  0.14783369539E+02  0.00000000000E+00 0.  1.
          1   -1    0    0  501    0  0.00000000000E+00 -0.00000000000E+00 -0.11167020187E+04  0.11167020187E+04  0.00000000000E+00 0. -1.
         25    2    1    2    0    0 -0.67865060820E+02 -0.73564180774E+01 -0.66128157760E+03  0.67646200373E+03  0.12509090397E+03 0.  0.
          5    1    3    3  502    0 -0.85367099270E+02 -0.40826254675E+02 -0.34021376725E+03  0.35315323096E+03  0.41800000000E+01 0.  1.
         -5    1    3    3    0  502  0.17502038450E+02  0.33469836597E+02 -0.32106781034E+03  0.32330877277E+03  0.41800000000E+01 0.  1.
        -11    1    1    2    0    0  0.38906691669E+02  0.48976159059E+02 -0.25859678166E+03  0.26605392366E+03  0.00000000000E+00 0.  1.
         11    1    1    2    0    0  0.28958369151E+02 -0.41619740981E+02 -0.18204028990E+03  0.18896946084E+03  0.00000000000E+00 0. -1.
</event>
<event>
 7    1  0.2794945E-009  0.1017358E+03  0.7561462E-02  0.1276688E+00
         -1   -1    0    0    0  501 -0.00000000000E+00  0.00000000000E+00  0.92545136493E+02  0.92545136493E+02  0.00000000000E+00 0.  1.
          1   -1    0    0  501    0  0.00000000000E+00 -0.00000000000E+00 -0.18927244265E+03  0.18927244265E+03  0.00000000000E+00 0. -1.
         25    2    1    2    0    0  0.11633212291E+02  0.43319410056E+02  0.11847640899E+02  0.13342344613E+03  0.12509814734E+03 0.  0.
          5    1    3    3  502    0 -0.20399969007E+02  0.65490720944E+02 -0.30975904240E+02  0.75380185120E+02  0.41800000000E+01 0.  1.
         -5    1    3    3    0  502  0.32033181298E+02 -0.22171310888E+02  0.42823545140E+02  0.58043261012E+02  0.41800000000E+01 0.  1.
        -11    1    1    2    0    0 -0.31925162683E+02 -0.60873783586E+02 -0.53404816149E+02  0.87045436000E+02  0.00000000000E+00 0.  1.
         11    1    1    2    0    0  0.20291950392E+02  0.17554373530E+02 -0.55170130908E+02  0.61348697013E+02  0.00000000000E+00 0. -1.
</event>
<event>
 7    1  0.2794945E-009  0.1011550E+03  0.7561462E-02  0.1277886E+00
         -2   -1    0    0    0  501 -0.00000000000E+00  0.00000000000E+00  0.12507488359E+02  0.12507488359E+02  0.00000000000E+00 0.  1.
          2   -1    0    0  501    0  0.00000000000E+00 -0.00000000000E+00 -0.10173321056E+04  0.10173321056E+04  0.00000000000E+00 0. -1.
         25    2    1    2    0    0 -0.35283536891E+02 -0.97768011706E+00 -0.56736579497E+03  0.58206295414E+03  0.12508978154E+03 0.  0.
          5    1    3    3  502    0 -0.23860786889E+00  0.47735749962E+02 -0.10052031511E+03  0.11135782374E+03  0.41800000000E+01 0.  1.
         -5    1    3    3    0  502 -0.35044929022E+02 -0.48713430079E+02 -0.46684547986E+03  0.47070513040E+03  0.41800000000E+01 0.  1.
        -11    1    1    2    0    0 -0.28517731418E+02 -0.84470244703E+01 -0.17503520352E+03  0.17754417957E+03  0.00000000000E+00 0. -1.
         11    1    1    2    0    0  0.63801268309E+02  0.94247045873E+01 -0.26242361873E+03  0.27023246023E+03  0.00000000000E+00 0.  1.
</event>
<event>
 7    1  0.2794945E-009  0.1772782E+03  0.7561462E-02  0.1170464E+00
         -1   -1    0    0    0  501 -0.00000000000E+00  0.00000000000E+00  0.12780170895E+04  0.12780170895E+04  0.00000000000E+00 0.  1.
          1   -1    0    0  501    0  0.00000000000E+00 -0.00000000000E+00 -0.34201813867E+02  0.34201813867E+02  0.00000000000E+00 0. -1.
         25    2    1    2    0    0  0.15723107039E+03 -0.27210075801E+02  0.89817787711E+03  0.92077677892E+03  0.12507749576E+03 0.  0.
          5    1    3    3  502    0 -0.10806910821E+02  0.10494253529E+02  0.17744241632E+02  0.23648450049E+02  0.41800000000E+01 0. -1.
         -5    1    3    3    0  502  0.16803798121E+03 -0.37704329330E+02  0.88043363548E+03  0.89712832887E+03  0.41800000000E+01 0. -1.
        -11    1    1    2    0    0 -0.85279916169E+02 -0.96308643403E+01  0.94682093737E+02  0.12778934433E+03  0.00000000000E+00 0. -1.
         11    1    1    2    0    0 -0.71951154222E+02  0.36840940142E+02  0.25095530479E+03  0.26365278012E+03  0.00000000000E+00 0.  1.
</event>
<event>
 7    1  0.2794945E-009  0.1642513E+03  0.7561462E-02  0.1183979E+00
         -1   -1    0    0    0  501 -0.00000000000E+00  0.00000000000E+00  0.12869462482E+03  0.12869462482E+03  0.00000000000E+00 0.  1.
          1   -1    0    0  501    0  0.00000000000E+00 -0.00000000000E+00 -0.27734486200E+03  0.27734486200E+03  0.00000000000E+00 0. -1.
         25    2    1    2    0    0 -0.92365060774E+02 -0.95081913603E+02 -0.16324710696E+03  0.24468146802E+03  0.12509007999E+03 0.  0.
          5    1    3    3  502    0  0.98868015673E+01 -0.74264854316E+02 -0.47607034118E+02  0.88864613482E+02  0.41800000000E+01 0. -1.
         -5    1    3    3    0  502 -0.10225186234E+03 -0.20817059288E+02 -0.11564007284E+03  0.15581685453E+03  0.41800000000E+01 0. -1.
        -11    1    1    2    0    0 -0.67734699068E+01  0.29258412063E+02  0.28679997289E+02  0.41526820436E+02  0.00000000000E+00 0.  1.
         11    1    1    2    0    0  0.99138530681E+02  0.65823501540E+02 -0.14083127512E+02  0.11983119836E+03  0.00000000000E+00 0. -1.
</event>
<event>
 7    1  0.2794945E-009  0.7089477E+03  0.7561462E-02  0.9702052E-01
         -2   -1    0    0    0  501 -0.00000000000E+00  0.00000000000E+00  0.18266210915E+03  0.18266210915E+03  0.00000000000E+00 0.  1.
          2   -1    0    0  501    0  0.00000000000E+00 -0.00000000000E+00 -0.28151717640E+04  0.28151717640E+04  0.00000000000E+00 0. -1.
         25    2    1    2    0    0  0.44593295694E+03  0.54189776086E+03 -0.11173581749E+04  0.13253854983E+04  0.12509213689E+03 0.  0.
          5    1    3    3  502    0  0.13363913215E+03  0.85694449818E+02 -0.21870826763E+03  0.27028454470E+03  0.41800000000E+01 0.  1.
         -5    1    3    3    0  502  0.31229382479E+03  0.45620331105E+03 -0.89864990729E+03  0.10551009536E+04  0.41800000000E+01 0.  1.
        -11    1    1    2    0    0 -0.37293131941E+03 -0.49376179096E+03 -0.13647841135E+04  0.14985039712E+04  0.00000000000E+00 0. -1.
         11    1    1    2    0    0 -0.73001637537E+02 -0.48135969905E+02 -0.15036736646E+03  0.17394440370E+03  0.00000000000E+00 0.  1.
</event>
<event>
 7    1  0.2794945E-009  0.1032036E+03  0.7561462E-02  0.1273700E+00
         -1   -1    0    0    0  501 -0.00000000000E+00  0.00000000000E+00  0.49887919940E+02  0.49887919940E+02  0.00000000000E+00 0.  1.
          1   -1    0    0  501    0  0.00000000000E+00 -0.00000000000E+00 -0.32513085498E+03  0.32513085498E+03  0.00000000000E+00 0. -1.
         25    2    1    2    0    0  0.10882872936E+02  0.68966033355E+01 -0.57368378483E+02  0.13821699868E+03  0.12508720084E+03 0.  0.
          5    1    3    3  502    0 -0.54296007936E+02 -0.85031959873E+01 -0.98438582321E+01  0.55988702116E+02  0.41800000000E+01 0. -1.
         -5    1    3    3    0  502  0.65178880872E+02  0.15399799323E+02 -0.47524520251E+02  0.82228296565E+02  0.41800000000E+01 0. -1.
        -11    1    1    2    0    0 -0.57911220196E+01  0.38284339653E+02 -0.52145663113E+02  0.64949195056E+02  0.00000000000E+00 0.  1.
         11    1    1    2    0    0 -0.50917509164E+01 -0.45180942988E+02 -0.16572889344E+03  0.17185258118E+03  0.00000000000E+00 0. -1.
</event>
<event>
 7    1  0.2794945E-009  0.1191351E+03  0.7561462E-02  0.1244531E+00
          1   -1    0    0  501    0  0.00000000000E+00  0.00000000000E+00  0.85102666044E+02  0.85102666044E+02  0.00000000000E+00 0. -1.
         -1   -1    0    0    0  501 -0.00000000000E+00 -0.00000000000E+00 -0.21235924072E+03  0.21235924072E+03  0.00000000000E+00 0.  1.
         25    2    1    2    0    0 -0.53147762067E+02  0.55412041675E+02 -0.95014121181E+02  0.17484443547E+03  0.12509082466E+03 0.  0.
          5    1    3    3  502    0 -0.18365499079E+02  0.84245079509E+02 -0.22338377547E+02  0.89168382790E+02  0.41800000000E+01 0. -1.
         -5    1    3    3    0  502 -0.34782262988E+02 -0.28833037834E+02 -0.72675743635E+02  0.85676052676E+02  0.41800000000E+01 0. -1.
        -11    1    1    2    0    0  0.70972552881E+02 -0.33950514283E+02 -0.46393755107E+02  0.91335213338E+02  0.00000000000E+00 0.  1.
         11    1    1    2    0    0 -0.17824790814E+02 -0.21461527392E+02  0.14151301615E+02  0.31282257958E+02  0.00000000000E+00 0. -1.
</event>
<event>
 7    1  0.2794945E-009  0.1891095E+03  0.7561462E-02  0.1159267E+00
         -2   -1    0    0    0  501 -0.00000000000E+00  0.00000000000E+00  0.23504809347E+03  0.23504809347E+03  0.00000000000E+00 0.  1.
          2   -1    0    0  501    0  0.00000000000E+00 -0.00000000000E+00 -0.29460644262E+03  0.29460644262E+03  0.00000000000E+00 0. -1.
         25    2    1    2    0    0  0.55212241079E+02  0.15333931358E+03 -0.20700443894E+03  0.29165041319E+03  0.12509112328E+03 0.  0.
          5    1    3    3  502    0 -0.27727661774E+02  0.20517172768E+02 -0.88963583036E+02  0.95507953137E+02  0.41800000000E+01 0. -1.
         -5    1    3    3    0  502  0.82939902854E+02  0.13282214081E+03 -0.11804085590E+03  0.19614246006E+03  0.41800000000E+01 0. -1.
        -11    1    1    2    0    0 -0.80786578589E+02 -0.10955415753E+03  0.10674884347E+03  0.17298526034E+03  0.00000000000E+00 0. -1.
         11    1    1    2    0    0  0.25574337510E+02 -0.43785156044E+02  0.40697246321E+02  0.65018862548E+02  0.00000000000E+00 0.  1.
</event>
<event>
 6    1  0.2794945E-009  0.1606589E+03  0.7561462E-02  0.1187955E+00
         -1   -1    0    0    0  501 -0.00000000000E+00  0.00000000000E+00  0.39410628330E+03  0.39410628330E+03  0.00000000000E+00 0.  1.
          1   -1    0    0  501    0  0.00000000000E+00 -0.00000000000E+00 -0.94487568705E+02  0.94487568705E+02  0.00000000000E+00 0. -1.
          5    1    1    2  502    0  0.32401666657E+02 -0.27047555569E+02 -0.17307577119E+02  0.45808982637E+02  0.41800000000E+01 0.  1.
         -5    1    1    2    0  502  0.47407909974E+02 -0.10970135961E+03  0.16732492952E+03  0.20566235112E+03  0.41800000000E+01 0.  1.
        -11    1    1    2    0    0 -0.44090953675E+02  0.58023797994E+02  0.12914254537E+03  0.14828543541E+03  0.00000000000E+00 0.  1.
         11    1    1    2    0    0 -0.35718622956E+02  0.78725117184E+02  0.20458816820E+02  0.88837082838E+02  0.00000000000E+00 0. -1.
</event>
<event>
 7    1  0.2794945E-009  0.3629334E+03  0.7561462E-02  0.1057428E+00
          2   -1    0    0  501    0  0.00000000000E+00  0.00000000000E+00  0.61028430713E+03  0.61028430713E+03  0.00000000000E+00 0. -1.
         -2   -1    0    0    0  501 -0.00000000000E+00 -0.00000000000E+00 -0.22530917602E+03  0.22530917602E+03  0.00000000000E+00 0.  1.
         25    2    1    2    0    0 -0.34379469667E+03  0.84657127317E+02  0.17305814076E+03  0.41346709416E+03  0.12507715703E+03 0.  0.
          5    1    3    3  502    0 -0.32469202255E+03  0.10671263348E+03  0.17486247184E+03  0.38393600002E+03  0.41800000000E+01 0. -1.
         -5    1    3    3    0  502 -0.19102674116E+02 -0.22055506167E+02 -0.18043310820E+01  0.29531094144E+02  0.41800000000E+01 0. -1.
        -11    1    1    2    0    0  0.23667637297E+03 -0.67408959762E+02  0.98214315180E+02  0.26496362974E+03  0.00000000000E+00 0.  1.
         11    1    1    2    0    0  0.10711832370E+03 -0.17248167555E+02  0.11370267517E+03  0.15716275925E+03  0.00000000000E+00 0. -1.
</event>
<event>
 7    1  0.2794945E-009  0.1564395E+03  0.7561462E-02  0.1192776E+00
          2   -1    0    0  501    0  0.00000000000E+00  0.00000000000E+00  0.32294274338E+03  0.32294274338E+03  0.00000000000E+00 0.  1.
         -2   -1    0    0    0  501 -0.00000000000E+00 -0.00000000000E+00 -0.99601925553E+02  0.99601925553E+02  0.00000000000E+00 0. -1.
         25    2    1    2    0    0 -0.56974877323E+02 -0.11777522563E+03  0.64892046078E+02  0.19229106776E+03  0.12509091364E+03 0.  0.
          5    1    3    3  502    0 -0.42444434319E+02  0.24315096229E+01  0.56520487381E+02  0.70848289588E+02  0.41800000000E+01 0.  1.
         -5    1    3    3    0  502 -0.14530443004E+02 -0.12020673526E+03  0.83715586968E+01  0.12144277817E+03  0.41800000000E+01 0.  1.
        -11    1    1    2    0    0  0.16612016514E+02  0.10552588699E+03  0.15457353602E+03  0.18789531648E+03  0.00000000000E+00 0.  1.
         11    1    1    2    0    0  0.40362860809E+02  0.12249338640E+02  0.38752357248E+01  0.42358284688E+02  0.00000000000E+00 0. -1.
</event>
<event>
 7    1  0.2794945E-009  0.1357711E+03  0.7561462E-02  0.1219135E+00
         -3   -1    0    0    0  501 -0.00000000000E+00  0.00000000000E+00  0.15743920845E+03  0.15743920845E+03  0.00000000000E+00 0.  1.
          3   -1    0    0  501    0  0.00000000000E+00 -0.00000000000E+00 -0.25533761211E+03  0.25533761211E+03  0.00000000000E+00 0. -1.
         25    2    1    2    0    0 -0.98137123601E+02  0.70858660542E+02 -0.17225750019E+03  0.24489190445E+03  0.12509018223E+03 0.  0.
          5    1    3    3  502    0 -0.81921320022E+02  0.16454246610E+02 -0.16815914658E+03  0.18782123384E+03  0.41800000000E+01 0. -1.
         -5    1    3    3    0  502 -0.16215803580E+02  0.54404413931E+02 -0.40983536119E+01  0.57070670605E+02  0.41800000000E+01 0. -1.
        -11    1    1    2    0    0  0.34534685979E+02 -0.55757934265E+02 -0.41568415044E+01  0.65718118510E+02  0.00000000000E+00 0. -1.
         11    1    1    2    0    0  0.63602437622E+02 -0.15100726276E+02  0.78515938037E+02  0.10216679760E+03  0.00000000000E+00 0.  1.
</event>
<event>
 7    1  0.2794945E-009  0.1258610E+03  0.7561462E-02  0.1233730E+00
         -1   -1    0    0    0  501 -0.00000000000E+00  0.00000000000E+00  0.26248529393E+02  0.26248529393E+02  0.00000000000E+00 0.  1.
          1   -1    0    0  501    0  0.00000000000E+00 -0.00000000000E+00 -0.64107374380E+03  0.64107374380E+03  0.00000000000E+00 0. -1.
         25    2    1    2    0    0  0.51418400142E+02  0.50266057740E+02 -0.36771455426E+03  0.39500878147E+03  0.12508963025E+03 0.  0.
          5    1    3    3  502    0  0.73971177851E+02 -0.82574755410E+01 -0.13798691779E+03  0.15683680351E+03  0.41800000000E+01 0. -1.
         -5    1    3    3    0  502 -0.22552777709E+02  0.58523533281E+02 -0.22972763647E+03  0.23817197797E+03  0.41800000000E+01 0. -1.
        -11    1    1    2    0    0  0.25458148558E+02 -0.16594632910E+02 -0.60775167860E+02  0.67949394389E+02  0.00000000000E+00 0. -1.
         11    1    1    2    0    0 -0.76876548700E+02 -0.33671424829E+02 -0.18633549229E+03  0.20436409733E+03  0.00000000000E+00 0.  1.
</event>
<event>
 7    1  0.2794945E-009  0.9912292E+02  0.7561462E-02  0.1282151E+00
          1   -1    0    0  501    0  0.00000000000E+00  0.00000000000E+00  0.30783836121E+03  0.30783836121E+03  0.00000000000E+00 0. -1.
         -1   -1    0    0    0  501 -0.00000000000E+00 -0.00000000000E+00 -0.44142987697E+02  0.44142987697E+02  0.00000000000E+00 0.  1.
         25    2    1    2    0    0  0.27318555158E+02  0.20267346642E+02  0.19188995193E+03  0.23157080938E+03  0.12508484044E+03 0.  0.
          5    1    3    3  502    0 -0.35727060733E+02  0.17955767700E+02  0.15103305195E+03  0.15629231473E+03  0.41800000000E+01 0.  1.
         -5    1    3    3    0  502  0.63045615891E+02  0.23115789426E+01  0.40856899981E+02  0.75278494647E+02  0.41800000000E+01 0.  1.
        -11    1    1    2    0    0  0.31228975564E+02  0.39105219556E+01  0.13248785155E+02  0.34147787700E+02  0.00000000000E+00 0. -1.
         11    1    1    2    0    0 -0.58547530722E+02 -0.24177868598E+02  0.58556636426E+02  0.86262751828E+02  0.00000000000E+00 0.  1.
</event>
<event>
 7    1  0.2794945E-009  0.1534543E+03  0.7561462E-02  0.1196292E+00
          2   -1    0    0  501    0  0.00000000000E+00  0.00000000000E+00  0.58217677150E+02  0.58217677150E+02  0.00000000000E+00 0. -1.
         -2   -1    0    0    0  501 -0.00000000000E+00 -0.00000000000E+00 -0.43450521534E+03  0.43450521534E+03  0.00000000000E+00 0.  1.
         25    2    1    2    0    0 -0.11176709849E+03  0.21653028196E+02 -0.23119488194E+03  0.28646041989E+03  0.12509101005E+03 0.  0.
          5    1    3    3  502    0 -0.46456019295E+02 -0.52163411520E+02 -0.85062694766E+02  0.11014680055E+03  0.41800000000E+01 0. -1.
         -5    1    3    3    0  502 -0.65311079197E+02  0.73816439716E+02 -0.14613218717E+03  0.17631361934E+03  0.41800000000E+01 0. -1.
        -11    1    1    2    0    0 -0.12060275878E+02 -0.59968393830E+01 -0.42854578745E+02  0.44921345219E+02  0.00000000000E+00 0.  1.
         11    1    1    2    0    0  0.12382737437E+03 -0.15656188813E+02 -0.10223807751E+03  0.16134112738E+03  0.00000000000E+00 0. -1.
</event>
<event>
 7    1  0.3043877E-009  0.1818112E+03  0.7561462E-02  0.1166062E+00
         -2   -1    0    0    0  501 -0.00000000000E+00  0.00000000000E+00  0.41951114942E+02  0.41951114942E+02  0.00000000000E+00 0. -1.
          2   -1    0    0  501    0  0.00000000000E+00 -0.00000000000E+00 -0.88666528160E+03  0.88666528160E+03  0.00000000000E+00 0.  1.
         25    2    1    2    0    0  0.13064485617E+03 -0.87724643280E+02 -0.50212375075E+03  0.54086921058E+03  0.12509016907E+03 0.  0.
          5    1    3    3  502    0  0.35709545088E+02 -0.98129583813E+02 -0.23630276607E+03  0.25838161018E+03  0.41800000000E+01 0. -1.
         -5    1    3    3    0  502  0.94935311079E+02  0.10404940533E+02 -0.26582098469E+03  0.28248760040E+03  0.41800000000E+01 0. -1.
        -11    1    1    2    0    0 -0.49226124286E+02  0.59776297520E+02 -0.24819712400E+03  0.25999659501E+03  0.00000000000E+00 0.  1.
         11    1    1    2    0    0 -0.81418731881E+02  0.27948345760E+02 -0.94393291911E+02  0.12775059096E+03  0.00000000000E+00 0. -1.
</event>
<event>
 7    1  0.2794945E-009  0.1684820E+03  0.7561462E-02  0.1179440E+00
         -1   -1    0    0    0  501 -0.00000000000E+00  0.00000000000E+00  0.11176913269E+04  0.11176913269E+04  0.00000000000E+00 0.  1.
          1   -1    0    0  501    0  0.00000000000E+00 -0.00000000000E+00 -0.30084887445E+02  0.30084887445E+02  0.00000000000E+00 0. -1.
         25    2    1    2    0    0  0.33797931382E+02 -0.12448436376E+03  0.34941311399E+03  0.39290674083E+03  0.12509007065E+03 0.  0.
          5    1    3    3  502    0 -0.15941038850E+02 -0.12807966973E+03  0.26459976208E+03  0.29443000019E+03  0.41800000000E+01 0. -1.
         -5    1    3    3    0  502  0.49738970232E+02  0.35953059753E+01  0.84813351911E+02  0.98476740641E+02  0.41800000000E+01 0. -1.
        -11    1    1    2    0    0 -0.60586987793E+02  0.49754095410E+02  0.36302117870E+03  0.37139013084E+03  0.00000000000E+00 0.  1.
         11    1    1    2    0    0  0.26789056412E+02  0.74730268348E+02  0.37517214673E+03  0.38347934265E+03  0.00000000000E+00 0. -1.
</event>
<event>
 7    1  0.2794945E-009  0.1320975E+03  0.7561462E-02  0.1224376E+00
         -1   -1    0    0    0  501 -0.00000000000E+00  0.00000000000E+00  0.23426728532E+02  0.23426728532E+02  0.00000000000E+00 0.  1.
          1   -1    0    0  501    0  0.00000000000E+00 -0.00000000000E+00 -0.88063876061E+03  0.88063876061E+03  0.00000000000E+00 0. -1.
         25    2    1    2    0    0 -0.10849916830E+02 -0.92647290629E+02 -0.41447817187E+03  0.44287749797E+03  0.12508829720E+03 0.  0.
          5    1    3    3  502    0 -0.44121585083E+01  0.21809989832E+02 -0.18442643799E+03  0.18581099599E+03  0.41800000000E+01 0. -1.
         -5    1    3    3    0  502 -0.64377583217E+01 -0.11445728046E+03 -0.23005173388E+03  0.25706650199E+03  0.41800000000E+01 0. -1.
        -11    1    1    2    0    0  0.40982874406E+02  0.15155441006E+02 -0.11357305703E+03  0.12168863000E+03  0.00000000000E+00 0.  1.
         11    1    1    2    0    0 -0.30132957576E+02  0.77491849624E+02 -0.32916080317E+03  0.33949936117E+03  0.00000000000E+00 0. -1.
</event>
<event>
 7    1  0.2794945E-009  0.1123466E+03  0.7561462E-02  0.1256285E+00
          2   -1    0    0  501    0  0.00000000000E+00  0.00000000000E+00  0.74182642419E+03  0.74182642419E+03  0.00000000000E+00 0. -1.
         -2   -1    0    0    0  501 -0.00000000000E+00 -0.00000000000E+00 -0.17859876280E+02  0.17859876280E+02  0.00000000000E+00 0.  1.
         25    2    1    2    0    0 -0.28127090834E+02 -0.25432013770E+02  0.44730970996E+03  0.46601659769E+03  0.12509025593E+03 0.  0.
          5    1    3    3  502    0  0.42715871970E+02  0.15167463953E+02  0.11231685203E+03  0.12119094574E+03  0.41800000000E+01 0.  1.
         -5    1    3    3    0  502 -0.70842962804E+02 -0.40599477723E+02  0.33499285794E+03  0.34482565195E+03  0.41800000000E+01 0.  1.
        -11    1    1    2    0    0  0.60934632464E+02  0.20171736087E+02  0.16064516434E+03  0.17299363340E+03  0.00000000000E+00 0.  1.
         11    1    1    2    0    0 -0.32807541630E+02  0.52602776828E+01  0.11601167361E+03  0.12067606939E+03  0.00000000000E+00 0. -1.
</event>
<event>
 7    1  0.2794945E-009  0.1155730E+03  0.7561462E-02  0.1250584E+00
         -3   -1    0    0    0  501 -0.00000000000E+00  0.00000000000E+00  0.12133083804E+03  0.12133083804E+03  0.00000000000E+00 0.  1.
          3   -1    0    0  501    0  0.00000000000E+00 -0.00000000000E+00 -0.11778558187E+03  0.11778558187E+03  0.00000000000E+00 0. -1.
         25    2    1    2    0    0  0.15699472149E+02 -0.46960512440E+02  0.34929530196E+01  0.13457480037E+03  0.12508562276E+03 0.  0.
          5    1    3    3  502    0  0.56760626437E+02  0.13649291825E+02  0.14823806236E+02  0.60376233008E+02  0.41800000000E+01 0. -1.
         -5    1    3    3    0  502 -0.41061154289E+02 -0.60609804265E+02 -0.11330853216E+02  0.74198567366E+02  0.41800000000E+01 0. -1.
        -11    1    1    2    0    0 -0.47590348327E+02  0.47713073302E+02 -0.15353430453E+02  0.69116614822E+02  0.00000000000E+00 0. -1.
         11    1    1    2    0    0  0.31890876179E+02 -0.75256086171E+00  0.15405733607E+02  0.35425004718E+02  0.00000000000E+00 0.  1.
</event>
<event>
 7    1  0.2794945E-009  0.9155426E+02  0.7561462E-02  0.1299131E+00
         -1   -1    0    0    0  501 -0.00000000000E+00  0.00000000000E+00  0.17311445652E+03  0.17311445652E+03  0.00000000000E+00 0.  1.
          1   -1    0    0  501    0  0.00000000000E+00 -0.00000000000E+00 -0.76022993869E+02  0.76022993869E+02  0.00000000000E+00 0. -1.
         25    2    1    2    0    0  0.32047203259E+02  0.17357233967E+02  0.70714733414E+02  0.14824481343E+03  0.12509058469E+03 0.  0.
          5    1    3    3  502    0 -0.13087962002E+02  0.63306249251E+02  0.26404727202E+02  0.69954685063E+02  0.41800000000E+01 0.  1.
         -5    1    3    3    0  502  0.45135165261E+02 -0.45949015284E+02  0.44310006211E+02  0.78290128364E+02  0.41800000000E+01 0.  1.
        -11    1    1    2    0    0  0.75893097532E+01 -0.11410757183E+02 -0.29267167591E+02  0.32316715502E+02  0.00000000000E+00 0. -1.
         11    1    1    2    0    0 -0.39636513012E+02 -0.59464767836E+01  0.55643896827E+02  0.68575921459E+02  0.00000000000E+00 0.  1.
</event>
<event>
 7    1  0.2794945E-009  0.1436772E+03  0.7561462E-02  0.1208465E+00
         -4   -1    0    0    0  501 -0.00000000000E+00  0.00000000000E+00  0.58333439973E+02  0.58333439973E+02  0.00000000000E+00 0.  1.
          4   -1    0    0  501    0  0.00000000000E+00 -0.00000000000E+00 -0.44304406833E+03  0.44304406833E+03  0.00000000000E+00 0. -1.
         25    2    1    2    0    0  0.12921906050E+02  0.11757021285E+03 -0.21253495942E+03  0.27351164577E+03  0.12509108996E+03 0.  0.
          5    1    3    3  502    0 -0.88793642412E+01  0.11557542520E+03 -0.84388241891E+02  0.14344117188E+03  0.41800000000E+01 0. -1.
         -5    1    3    3    0  502  0.21801270292E+02  0.19947876486E+01 -0.12814671753E+03  0.13007047389E+03  0.41800000000E+01 0. -1.
        -11    1    1    2    0    0 -0.42547966754E+02 -0.11079566061E+03 -0.13238715550E+03  0.17779866936E+03  0.00000000000E+00 0.  1.
         11    1    1    2    0    0  0.29626060704E+02 -0.67745522414E+01 -0.39788513433E+02  0.50067193172E+02  0.00000000000E+00 0. -1.
</event>
<event>
 7    1  0.2794945E-009  0.1334248E+03  0.7561462E-02  0.1222461E+00
          4   -1    0    0  501    0  0.00000000000E+00  0.00000000000E+00  0.12773487916E+03  0.12773487916E+03  0.00000000000E+00 0. -1.
         -4   -1    0    0    0  501 -0.00000000000E+00 -0.00000000000E+00 -0.24275841553E+03  0.24275841553E+03  0.00000000000E+00 0.  1.
         25    2    1    2    0    0  0.24733017802E+02  0.82107455500E+02  0.53418875583E+02  0.16079109731E+03  0.12508734663E+03 0.  0.
          5    1    3    3  502    0  0.65155785637E+02  0.81677904103E+02  0.16450753655E+02  0.10585204824E+03  0.41800000000E+01 0. -1.
         -5    1    3    3    0  502 -0.40422767835E+02  0.42955139759E+00  0.36968121927E+02  0.54939049070E+02  0.41800000000E+01 0. -1.
        -11    1    1    2    0    0  0.27012218832E+02 -0.30874173636E+01 -0.19981744488E+02  0.33741105865E+02  0.00000000000E+00 0.  1.
         11    1    1    2    0    0 -0.51745236634E+02 -0.79020038137E+02 -0.14846066747E+03  0.17596109152E+03  0.00000000000E+00 0. -1.
</event>
<event>
 7    1  0.2794945E-009  0.8826600E+02  0.7561462E-02  0.1307106E+00
          3   -1    0    0  501    0  0.00000000000E+00  0.00000000000E+00  0.15929648611E+03  0.15929648611E+03  0.00000000000E+00 0. -1.
         -3   -1    0    0    0  501 -0.00000000000E+00 -0.00000000000E+00 -0.97258829232E+02  0.97258829232E+02  0.00000000000E+00 0.  1.
         25    2    1    2    0    0 -0.51592174729E+02  0.22906697093E+02  0.90038639199E+01  0.13753333668E+03  0.12509148599E+03 0.  0.
          5    1    3    3  502    0 -0.43931280083E+02 -0.17970933627E+02 -0.47479569036E+02  0.67265843494E+02  0.41800000000E+01 0.  1.
         -5    1    3    3    0  502 -0.76608946464E+01  0.40877630720E+02  0.56483432956E+02  0.70267493186E+02  0.41800000000E+01 0.  1.
        -11    1    1    2    0    0  0.12678051310E+02  0.23390464582E+02  0.52140534827E+02  0.58536161392E+02  0.00000000000E+00 0. -1.
         11    1    1    2    0    0  0.38914123420E+02 -0.46297161676E+02  0.89325813061E+00  0.60485817270E+02  0.00000000000E+00 0.  1.
</event>
<event>
 7    1  0.2794945E-009  0.1871747E+03  0.7561462E-02  0.1161035E+00
          2   -1    0    0  501    0  0.00000000000E+00  0.00000000000E+00  0.31018805321E+03  0.31018805321E+03  0.00000000000E+00 0. -1.
         -2   -1    0    0    0  501 -0.00000000000E+00 -0.00000000000E+00 -0.13472135730E+03  0.13472135730E+03  0.00000000000E+00 0.  1.
         25    2    1    2    0    0  0.15851557558E+03  0.19054456803E+02  0.16346220067E+03  0.26048728794E+03  0.12507388257E+03 0.  0.
          5    1    3    3  502    0 -0.47654459356E+01  0.26095399283E+02  0.63292512452E+02  0.68753864409E+02  0.41800000000E+01 0. -1.
         -5    1    3    3    0  502  0.16328102152E+03 -0.70409424795E+01  0.10016968822E+03  0.19173342353E+03  0.41800000000E+01 0. -1.
        -11    1    1    2    0    0 -0.36664731794E+01  0.23208179902E+02  0.24888513699E+01  0.23627463281E+02  0.00000000000E+00 0.  1.
         11    1    1    2    0    0 -0.15484910240E+03 -0.42262636706E+02  0.95156438685E+01  0.16079465929E+03  0.00000000000E+00 0. -1.
</event>
<event>
 7    1  0.2794945E-009  0.1191275E+03  0.7561462E-02  0.1244543E+00
         -2   -1    0    0    0  501 -0.00000000000E+00  0.00000000000E+00  0.46103565646E+03  0.46103565646E+03  0.00000000000E+00 0.  1.
          2   -1    0    0  501    0  0.00000000000E+00 -0.00000000000E+00 -0.53533967604E+02  0.53533967604E+02  0.00000000000E+00 0. -1.
         25    2    1    2    0    0  0.77344916580E+02 -0.80599137941E+02  0.18909492004E+03  0.25275139333E+03  0.12509164994E+03 0.  0.
          5    1    3    3  502    0  0.55393536729E+02 -0.53605657119E+02  0.20133897040E+03  0.21563131449E+03  0.41800000000E+01 0. -1.
         -5    1    3    3    0  502  0.21951379850E+02 -0.26993480822E+02 -0.12244050354E+02  0.37120078842E+02  0.41800000000E+01 0. -1.
        -11    1    1    2    0    0 -0.56810865205E+02  0.87523377735E+02  0.21616625263E+03  0.24003263285E+03  0.00000000000E+00 0.  1.
         11    1    1    2    0    0 -0.20534051375E+02 -0.69242397938E+01  0.22405161834E+01  0.21785597888E+02  0.00000000000E+00 0. -1.
</event>
<event>
 7    1  0.2794945E-009  0.6418993E+02  0.7561462E-02  0.1381045E+00
         -2   -1    0    0    0  501 -0.00000000000E+00  0.00000000000E+00  0.14721031251E+02  0.14721031251E+02  0.00000000000E+00 0.  1.
          2   -1    0    0  501    0  0.00000000000E+00 -0.00000000000E+00 -0.84150180749E+03  0.84150180749E+03  0.00000000000E+00 0. -1.
         25    2    1    2    0    0 -0.17749862203E+02 -0.29760186785E+02 -0.56813686470E+03  0.58277651569E+03  0.12509294098E+03 0.  0.
          5    1    3    3  502    0 -0.19771489879E+02 -0.18046820416E+02 -0.56946269479E+03  0.57010686077E+03  0.41800000000E+01 0.  1.
         -5    1    3    3    0  502  0.20216276757E+01 -0.11713366369E+02  0.13258300980E+01  0.12669654913E+02  0.41800000000E+01 0.  1.
        -11    1    1    2    0    0  0.76344784691E+01  0.58097721489E+02 -0.16599357852E+03  0.17603266348E+03  0.00000000000E+00 0. -1.
         11    1    1    2    0    0  0.10115383734E+02 -0.28337534704E+02 -0.92650333023E+02  0.97413659568E+02  0.00000000000E+00 0.  1.
</event>
<event>
 7    1  0.2794945E-009  0.1076282E+03  0.7561462E-02  0.1265026E+00
          2   -1    0    0  501    0  0.00000000000E+00  0.00000000000E+00  0.85007624535E+03  0.85007624535E+03  0.00000000000E+00 0. -1.
         -2   -1    0    0    0  501 -0.00000000000E+00 -0.00000000000E+00 -0.25764100701E+02  0.25764100701E+02  0.00000000000E+00 0.  1.
         25    2    1    2    0    0 -0.29326907710E+02  0.43723883439E+02  0.50852288198E+03  0.52632488053E+03  0.12510200985E+03 0.  0.
          5    1    3    3  502    0 -0.42820208554E+02 -0.19832800601E+02  0.80715477094E+02  0.93591510741E+02  0.41800000000E+01 0.  1.
         -5    1    3    3    0  502  0.13493300845E+02  0.63556684040E+02  0.42780740488E+03  0.43273336979E+03  0.41800000000E+01 0.  1.
        -11    1    1    2    0    0  0.48834138075E+02  0.61509471646E+01  0.27676411418E+02  0.56467609667E+02  0.00000000000E+00 0.  1.
         11    1    1    2    0    0 -0.19507230365E+02 -0.49874830604E+02  0.28811285125E+03  0.29304785586E+03  0.00000000000E+00 0. -1.
</event>
<event>
 7    1  0.3060617E-009  0.1357877E+03  0.7561462E-02  0.1219112E+00
          2   -1    0    0  501    0  0.00000000000E+00  0.00000000000E+00  0.40145205890E+03  0.40145205890E+03  0.00000000000E+00 0. -1.
         -2   -1    0    0    0  501 -0.00000000000E+00 -0.00000000000E+00 -0.56674635028E+02  0.56674635028E+02  0.00000000000E+00 0.  1.
         25    2    1    2    0    0 -0.85311477759E+02 -0.50925697917E+02  0.23567624480E+03  0.28471446375E+03  0.12509020170E+03 0.  0.
          5    1    3    3  502    0 -0.95483976297E+02 -0.70256306548E+02  0.23407692434E+03  0.26241687683E+03  0.41800000000E+01 0. -1.
         -5    1    3    3    0  502  0.10172498538E+02  0.19330608631E+02  0.15993204619E+01  0.22297586921E+02  0.41800000000E+01 0. -1.
        -11    1    1    2    0    0  0.27346995019E+02  0.65471983026E+02  0.80030886014E+02  0.10695504389E+03  0.00000000000E+00 0. -1.
         11    1    1    2    0    0  0.57964482741E+02 -0.14546285109E+02  0.29070293057E+02  0.66457186280E+02  0.00000000000E+00 0.  1.
</event>
<event>
 7    1  0.2794945E-009  0.1357184E+03  0.7561462E-02  0.1219209E+00
          1   -1    0    0  501    0  0.00000000000E+00  0.00000000000E+00  0.52487456183E+03  0.52487456183E+03  0.00000000000E+00 0. -1.
         -1   -1    0    0    0  501 -0.00000000000E+00 -0.00000000000E+00 -0.39874722422E+02  0.39874722422E+02  0.00000000000E+00 0.  1.
         25    2    1    2    0    0 -0.48733261361E+02 -0.79335667675E+02  0.21185098254E+03  0.26304815379E+03  0.12507762980E+03 0.  0.
          5    1    3    3  502    0  0.30031138273E+02 -0.70271098535E+02  0.10400188446E+03  0.12912691790E+03  0.41800000000E+01 0. -1.
         -5    1    3    3    0  502 -0.78764399634E+02 -0.90645691402E+01  0.10784909808E+03  0.13392123588E+03  0.41800000000E+01 0. -1.
        -11    1    1    2    0    0  0.21511256879E+02 -0.88176144622E+01  0.15268908769E+02  0.27814098445E+02  0.00000000000E+00 0. -1.
         11    1    1    2    0    0  0.27222004482E+02  0.88153282137E+02  0.25787994809E+03  0.27388703202E+03  0.00000000000E+00 0.  1.
</event>
<event>
 7    1  0.2794945E-009  0.1018939E+03  0.7561462E-02  0.1276363E+00
         -2   -1    0    0    0  501 -0.00000000000E+00  0.00000000000E+00  0.66162640365E+02  0.66162640365E+02  0.00000000000E+00 0.  1.
          2   -1    0    0  501    0  0.00000000000E+00 -0.00000000000E+00 -0.22887606535E+03  0.22887606535E+03  0.00000000000E+00 0. -1.
         25    2    1    2    0    0 -0.41362125447E+02  0.42774378243E+01 -0.71349842855E+02  0.14989061462E+03  0.12508906579E+03 0.  0.
          5    1    3    3  502    0 -0.76723297227E+02  0.29245793231E+02 -0.67236602606E+02  0.10620740977E+03  0.41800000000E+01 0.  1.
         -5    1    3    3    0  502  0.35361171780E+02 -0.24968355407E+02 -0.41132402492E+01  0.43683204858E+02  0.41800000000E+01 0.  1.
        -11    1    1    2    0    0  0.59002346734E+02 -0.93274403572E+01 -0.10600260951E+03  0.12167510545E+03  0.00000000000E+00 0. -1.
         11    1    1    2    0    0 -0.17640221286E+02  0.50500025329E+01  0.14639027374E+02  0.23472985644E+02  0.00000000000E+00 0.  1.
</event>
<event>
 7    1  0.2794945E-009  0.1151347E+03  0.7561462E-02  0.1251346E+00
         -2   -1    0    0    0  501 -0.00000000000E+00  0.00000000000E+00  0.22421391195E+02  0.22421391195E+02  0.00000000000E+00 0.  1.
          2   -1    0    0  501    0  0.00000000000E+00 -0.00000000000E+00 -0.74892024787E+03  0.74892024787E+03  0.00000000000E+00 0. -1.
         25    2    1    2    0    0 -0.32792789953E+02  0.35184538480E+02 -0.54832901164E+03  0.56446936663E+03  0.12509053536E+03 0.  0.
          5    1    3    3  502    0  0.39823399059E+02 -0.17348785728E+02 -0.20653815985E+03  0.21109800414E+03  0.41800000000E+01 0. -1.
         -5    1    3    3    0  502 -0.72616189012E+02  0.52533324208E+02 -0.34179085179E+03  0.35337136249E+03  0.41800000000E+01 0. -1.
        -11    1    1    2    0    0  0.11459331471E+02 -0.61767792869E+02 -0.72963070759E+02  0.96281806216E+02  0.00000000000E+00 0.  1.
         11    1    1    2    0    0  0.21333458482E+02  0.26583254389E+02 -0.10520677428E+03  0.11059046622E+03  0.00000000000E+00 0. -1.
</event>
<event>
 7    1  0.2794945E-009  0.9926855E+02  0.7561462E-02  0.1281842E+00
          2   -1    0    0  501    0  0.00000000000E+00  0.00000000000E+00  0.21212626707E+02  0.21212626707E+02  0.00000000000E+00 0. -1.
         -2   -1    0    0    0  501 -0.00000000000E+00 -0.00000000000E+00 -0.71979975818E+03  0.71979975818E+03  0.00000000000E+00 0.  1.
         25    2    1    2    0    0 -0.45833564173E+02  0.34986889782E+02 -0.40688894217E+03  0.42957123009E+03  0.12509209566E+03 0.  0.
          5    1    3    3  502    0 -0.41759403719E+02 -0.12914481361E+02 -0.39610458498E+02  0.59136219445E+02  0.41800000000E+01 0.  1.
         -5    1    3    3    0  502 -0.40741604532E+01  0.47901371144E+02 -0.36727848367E+03  0.37043501064E+03  0.41800000000E+01 0.  1.
        -11    1    1    2    0    0  0.14446505547E+02 -0.62796300214E+02 -0.14116479882E+03  0.15517595583E+03  0.00000000000E+00 0. -1.
         11    1    1    2    0    0  0.31387058626E+02  0.27809410431E+02 -0.15053339049E+03  0.15626519898E+03  0.00000000000E+00 0.  1.
</event>
<event>
 7    1  0.2794945E-009  0.1045879E+03  0.7561462E-02  0.1270934E+00
         -2   -1    0    0    0  501 -0.00000000000E+00  0.00000000000E+00  0.13873908933E+02  0.13873908933E+02  0.00000000000E+00 0.  1.
          2   -1    0    0  501    0  0.00000000000E+00 -0.00000000000E+00 -0.13304407667E+04  0.13304407667E+04  0.00000000000E+00 0. -1.
         25    2    1    2    0    0  0.21377364264E+02 -0.28081661245E+02 -0.10896705884E+04  0.10973884383E+04  0.12503528257E+03 0.  0.
          5    1    3    3  502    0  0.17412196799E+02  0.44336911563E+02 -0.24656472918E+03  0.25115848462E+03  0.41800000000E+01 0. -1.
         -5    1    3    3    0  502  0.39651674656E+01 -0.72418572808E+02 -0.84310585921E+03  0.84622995366E+03  0.41800000000E+01 0. -1.
        -11    1    1    2    0    0  0.30341418048E+02  0.20064016474E+02 -0.46189482850E+02  0.58793152086E+02  0.00000000000E+00 0.  1.
         11    1    1    2    0    0 -0.51718782312E+02  0.80176447709E+01 -0.18070678648E+03  0.18813308522E+03  0.00000000000E+00 0. -1.
</event>
<event>
 7    1  0.2968279E-009  0.1167824E+03  0.7561462E-02  0.1248502E+00
          1   -1    0    0  501    0  0.00000000000E+00  0.00000000000E+00  0.16212305766E+03  0.16212305766E+03  0.00000000000E+00 0. -1.
         -1   -1    0    0    0  501 -0.00000000000E+00 -0.00000000000E+00 -0.11625514043E+03  0.11625514043E+03  0.00000000000E+00 0.  1.
         25    2    1    2    0    0  0.13303116579E+02 -0.77699598660E+02 -0.27070200340E+01  0.14787521220E+03  0.12508217252E+03 0.  0.
          5    1    3    3  502    0  0.48489362242E+02 -0.46567028695E+02 -0.47819793123E+02  0.82606969600E+02  0.41800000000E+01 0.  1.
         -5    1    3    3    0  502 -0.35186245663E+02 -0.31132569965E+02  0.45112773089E+02  0.65268242601E+02  0.41800000000E+01 0.  1.
        -11    1    1    2    0    0 -0.51740179080E+02  0.45239713821E+02  0.39838680589E+02  0.79440533161E+02  0.00000000000E+00 0. -1.
         11    1    1    2    0    0  0.38437062501E+02  0.32459884839E+02  0.87362566749E+01  0.51062452723E+02  0.00000000000E+00 0.  1.
</event>
<event>
 7    1  0.2794945E-009  0.1061653E+03  0.7561462E-02  0.1267841E+00
          2   -1    0    0  501    0  0.00000000000E+00  0.00000000000E+00  0.54475511036E+02  0.54475511036E+02  0.00000000000E+00 0.  1.
         -2   -1    0    0    0  501 -0.00000000000E+00 -0.00000000000E+00 -0.26533223070E+03  0.26533223070E+03  0.00000000000E+00 0. -1.
         25    2    1    2    0    0 -0.22545042235E+02  0.66042134129E+01 -0.57268127326E+02  0.13956735636E+03  0.12509002354E+03 0.  0.
          5    1    3    3  502    0  0.18555792042E+02  0.57107944005E+02 -0.15711819376E+02  0.62209069715E+02  0.41800000000E+01 0.  1.
         -5    1    3    3    0  502 -0.41100834277E+02 -0.50503730592E+02 -0.41556307950E+02  0.77358286643E+02  0.41800000000E+01 0.  1.
        -11    1    1    2    0    0  0.12863667372E+02 -0.45253554550E+02 -0.47229166993E+02  0.66662975876E+02  0.00000000000E+00 0.  1.
         11    1    1    2    0    0  0.96813748629E+01  0.38649341137E+02 -0.10635942534E+03  0.11357740950E+03  0.00000000000E+00 0. -1.
</event>
<event>
 7    1  0.2794945E-009  0.1722343E+03  0.7561462E-02  0.1175538E+00
          1   -1    0    0  501    0  0.00000000000E+00  0.00000000000E+00  0.19315098481E+03  0.19315098481E+03  0.00000000000E+00 0. -1.
         -1   -1    0    0    0  501 -0.00000000000E+00 -0.00000000000E+00 -0.22368242768E+03  0.22368242768E+03  0.00000000000E+00 0.  1.
         25    2    1    2    0    0 -0.68219614496E+02  0.14051911694E+03  0.67560719351E+02  0.21121360117E+03  0.12508875446E+03 0.  0.
          5    1    3    3  502    0 -0.10807213004E+02  0.11402778783E+03  0.88141742315E+02  0.14458759072E+03  0.41800000000E+01 0. -1.
         -5    1    3    3    0  502 -0.57412401492E+02  0.26491329113E+02 -0.20581022963E+02  0.66626010457E+02  0.41800000000E+01 0. -1.
        -11    1    1    2    0    0 -0.47977811652E+01 -0.49807484217E+02  0.47461527727E+01  0.50262611893E+02  0.00000000000E+00 0. -1.
         11    1    1    2    0    0  0.73017395661E+02 -0.90711632727E+02 -0.10283831499E+03  0.15535719942E+03  0.00000000000E+00 0.  1.
</event>
<event>
 7    1  0.2794945E-009  0.7732504E+02  0.7561462E-02  0.1336819E+00
          2   -1    0    0  501    0  0.00000000000E+00  0.00000000000E+00  0.37078268890E+03  0.37078268890E+03  0.00000000000E+00 0. -1.
         -2   -1    0    0    0  501 -0.00000000000E+00 -0.00000000000E+00 -0.33338510406E+02  0.33338510406E+02  0.00000000000E+00 0.  1.
         25    2    1    2    0    0  0.26092700787E+02  0.12168290387E+02  0.20654595693E+03  0.24317677652E+03  0.12507923885E+03 0.  0.
          5    1    3    3  502    0  0.62672428967E+02  0.27187801292E+02  0.18646684784E+03  0.19863123529E+03  0.41800000000E+01 0. -1.
         -5    1    3    3    0  502 -0.36579728180E+02 -0.15019510905E+02  0.20079109094E+02  0.44545541230E+02  0.41800000000E+01 0. -1.
        -11    1    1    2    0    0  0.56147610746E+01 -0.13589786654E+02 -0.91674044790E+01  0.17327698869E+02  0.00000000000E+00 0.  1.
         11    1    1    2    0    0 -0.31707461862E+02  0.14214962669E+01  0.14006562604E+03  0.14361672391E+03  0.00000000000E+00 0. -1.
</event>
<event>
 7    1  0.2794945E-009  0.7609817E+02  0.7561462E-02  0.1340504E+00
          2   -1    0    0  501    0  0.00000000000E+00  0.00000000000E+00  0.87806104585E+03  0.87806104585E+03  0.00000000000E+00 0. -1.
         -2   -1    0    0    0  501 -0.00000000000E+00 -0.00000000000E+00 -0.19739287041E+02  0.19739287041E+02  0.00000000000E+00 0.  1.
         25    2    1    2    0    0  0.54531883213E+02 -0.24123153341E+02  0.63638454062E+03  0.65129755283E+03  0.12509023133E+03 0.  0.
          5    1    3    3  502    0 -0.52300878969E+01 -0.15458454198E+02  0.51856151887E+03  0.51883507869E+03  0.41800000000E+01 0.  1.
         -5    1    3    3    0  502  0.59761971110E+02 -0.86646991429E+01  0.11782302175E+03  0.13246247414E+03  0.41800000000E+01 0.  1.
        -11    1    1    2    0    0 -0.10359656704E+02 -0.13346415216E+02 -0.24214500815E+00  0.16896979622E+02  0.00000000000E+00 0.  1.
         11    1    1    2    0    0 -0.44172226509E+02  0.37469568556E+02  0.22217936320E+03  0.22960580044E+03  0.00000000000E+00 0. -1.
</event>
<event>
 7    1  0.2794945E-009  0.1089699E+03  0.7561462E-02  0.1262490E+00
          2   -1    0    0  501    0  0.00000000000E+00  0.00000000000E+00  0.23182074944E+03  0.23182074944E+03  0.00000000000E+00 0. -1.
         -2   -1    0    0    0  501 -0.00000000000E+00 -0.00000000000E+00 -0.65041354007E+02  0.65041354007E+02  0.00000000000E+00 0.  1.
         25    2    1    2    0    0  0.28460031663E+02  0.36766237774E+02  0.13397487434E+03  0.18909802375E+03  0.12508823281E+03 0.  0.
          5    1    3    3  502    0 -0.15481028769E+01 -0.38338672593E+02  0.81262004010E+01  0.39443097896E+02  0.41800000000E+01 0. -1.
         -5    1    3    3    0  502  0.30008134540E+02  0.75104910366E+02  0.12584867394E+03  0.14965492585E+03  0.41800000000E+01 0. -1.
        -11    1    1    2    0    0  0.30845010170E+02 -0.55581839741E+01  0.25398490037E+02  0.40340938978E+02  0.00000000000E+00 0. -1.
         11    1    1    2    0    0 -0.59305041833E+02 -0.31208053800E+02  0.74060310598E+01  0.67423140722E+02  0.00000000000E+00 0.  1.
</event>
<event>
 7    1  0.3528903E-009  0.1176722E+03  0.7561462E-02  0.1246987E+00
         -2   -1    0    0    0  501 -0.00000000000E+00  0.00000000000E+00  0.78922433125E+02  0.78922433125E+02  0.00000000000E+00 0.  1.
          2   -1    0    0  501    0  0.00000000000E+00 -0.00000000000E+00 -0.28259781202E+03  0.28259781202E+03  0.00000000000E+00 0. -1.
         25    2    1    2    0    0 -0.97228938514E+02  0.32277206081E+02 -0.10641593636E+03  0.19356475059E+03  0.12509067368E+03 0.  0.
          5    1    3    3  502    0 -0.80898716743E+02  0.16656816752E+02 -0.13412085957E+03  0.15756880810E+03  0.41800000000E+01 0.  1.
         -5    1    3    3    0  502 -0.16330221771E+02  0.15620389329E+02  0.27704923207E+02  0.35995942491E+02  0.41800000000E+01 0.  1.
        -11    1    1    2    0    0  0.43700508484E+02 -0.56065792519E+02 -0.25953757771E+02  0.75674996366E+02  0.00000000000E+00 0.  1.
         11    1    1    2    0    0  0.53528430030E+02  0.23788586437E+02 -0.71305684759E+02  0.92280498184E+02  0.00000000000E+00 0. -1.
</event>
<event>
 7    1  0.2794945E-009  0.9313859E+02  0.7561462E-02  0.1295424E+00
         -2   -1    0    0    0  501 -0.00000000000E+00  0.00000000000E+00  0.51856303330E+02  0.51856303330E+02  0.00000000000E+00 0.  1.
          2   -1    0    0  501    0  0.00000000000E+00 -0.00000000000E+00 -0.27328769581E+03  0.27328769581E+03  0.00000000000E+00 0. -1.
         25    2    1    2    0    0  0.46300240878E+00  0.60385868176E+01 -0.18769146780E+03  0.22563772973E+03  0.12509044364E+03 0.  0.
          5    1    3    3  502    0  0.51821187586E+02  0.23047388998E+02 -0.14758332372E+03  0.15816108075E+03  0.41800000000E+01 0.  1.
         -5    1    3    3    0  502 -0.51358185177E+02 -0.17008802180E+02 -0.40108144080E+02  0.67476648982E+02  0.41800000000E+01 0.  1.
        -11    1    1    2    0    0  0.33196432352E+01 -0.40420260736E+02  0.11875866846E+02  0.42259362543E+02  0.00000000000E+00 0.  1.
         11    1    1    2    0    0 -0.37826456440E+01  0.34381673919E+02 -0.45615791521E+02  0.57246906865E+02  0.00000000000E+00 0. -1.
</event>
<event>
 7    1  0.2794945E-009  0.1471014E+03  0.7561462E-02  0.1204081E+00
          1   -1    0    0  501    0  0.00000000000E+00  0.00000000000E+00  0.10539875603E+04  0.10539875603E+04  0.00000000000E+00 0. -1.
         -1   -1    0    0    0  501 -0.00000000000E+00 -0.00000000000E+00 -0.22305347927E+02  0.22305347927E+02  0.00000000000E+00 0.  1.
         25    2    1    2    0    0 -0.15236848765E+00 -0.10124725551E+03  0.68245763649E+03  0.70117544988E+03  0.12509019125E+03 0.  0.
          5    1    3    3  502    0  0.61046102702E+02 -0.61435579084E+02  0.41048540966E+03  0.41954344349E+03  0.41800000000E+01 0.  1.
         -5    1    3    3    0  502 -0.61198471190E+02 -0.39811676427E+02  0.27197222683E+03  0.28163200639E+03  0.41800000000E+01 0.  1.
        -11    1    1    2    0    0 -0.44045916247E+02  0.53596141006E+02  0.21633482540E+03  0.22718570763E+03  0.00000000000E+00 0. -1.
         11    1    1    2    0    0  0.44198284735E+02  0.47651114506E+02  0.13288975046E+03  0.14793175069E+03  0.00000000000E+00 0.  1.
</event>
<event>
 7    1  0.2794945E-009  0.1199120E+03  0.7561462E-02  0.1243242E+00
          3   -1    0    0  501    0  0.00000000000E+00  0.00000000000E+00  0.10597282008E+03  0.10597282008E+03  0.00000000000E+00 0. -1.
         -3   -1    0    0    0  501 -0.00000000000E+00 -0.00000000000E+00 -0.19549668878E+03  0.19549668878E+03  0.00000000000E+00 0.  1.
         25    2    1    2    0    0 -0.61089575235E+02  0.54235432776E+02  0.34787797919E+00  0.14940265855E+03  0.12509042726E+03 0.  0.
          5    1    3    3  502    0 -0.68996986670E+02  0.81218816754E+02 -0.26936281710E+02  0.11000052744E+03  0.41800000000E+01 0. -1.
         -5    1    3    3    0  502  0.79074114343E+01 -0.26983383978E+02  0.27284159689E+02  0.39402131116E+02  0.41800000000E+01 0. -1.
        -11    1    1    2    0    0  0.59530956397E+02 -0.68295482657E+02 -0.99795981444E+02  0.13478666712E+03  0.00000000000E+00 0.  1.
         11    1    1    2    0    0  0.15586188387E+01  0.14060049881E+02  0.99242347606E+01  0.17280183186E+02  0.00000000000E+00 0. -1.
</event>
<event>
 7    1  0.2794945E-009  0.1204796E+03  0.7561462E-02  0.1242308E+00
         -2   -1    0    0    0  501 -0.00000000000E+00  0.00000000000E+00  0.33387303614E+02  0.33387303614E+02  0.00000000000E+00 0.  1.
          2   -1    0    0  501    0  0.00000000000E+00 -0.00000000000E+00 -0.59403488821E+03  0.59403488821E+03  0.00000000000E+00 0. -1.
         25    2    1    2    0    0 -0.18614228283E+02  0.67027578409E+02 -0.17856848369E+03  0.22885434331E+03  0.12509365020E+03 0.  0.
          5    1    3    3  502    0  0.31679254426E+02  0.71303684649E+02 -0.15372171048E+03  0.17244021364E+03  0.41800000000E+01 0. -1.
         -5    1    3    3    0  502 -0.50293482709E+02 -0.42761062402E+01 -0.24846773208E+02  0.56414129670E+02  0.41800000000E+01 0. -1.
        -11    1    1    2    0    0 -0.35362663017E+02 -0.32996347229E+02 -0.19488950255E+03  0.20080138214E+03  0.00000000000E+00 0.  1.
         11    1    1    2    0    0  0.53976891300E+02 -0.34031231181E+02 -0.18718959835E+03  0.19776646637E+03  0.00000000000E+00 0. -1.
</event>
<event>
 7    1  0.2794945E-009  0.2974184E+03  0.7561462E-02  0.1086538E+00
          2   -1    0    0  501    0  0.00000000000E+00  0.00000000000E+00  0.81483153568E+03  0.81483153568E+03  0.00000000000E+00 0. -1.
         -2   -1    0    0    0  501 -0.00000000000E+00 -0.00000000000E+00 -0.11735656574E+03  0.11735656574E+03  0.00000000000E+00 0.  1.
         25    2    1    2    0    0 -0.92610782644E+02 -0.27396094698E+03  0.36937370794E+03  0.48550559228E+03  0.12508951390E+03 0.  0.
          5    1    3    3  502    0 -0.10780223282E+03 -0.26781024217E+03  0.36907240019E+03  0.46858889892E+03  0.41800000000E+01 0.  1.
         -5    1    3    3    0  502  0.15191450173E+02 -0.61507048137E+01  0.30130775573E+00  0.16916693366E+02  0.41800000000E+01 0.  1.
        -11    1    1    2    0    0  0.87569973378E+02  0.25738775978E+03  0.25919259023E+03  0.37562981505E+03  0.00000000000E+00 0.  1.
         11    1    1    2    0    0  0.50408092667E+01  0.16573187197E+02  0.68908671766E+02  0.71052694083E+02  0.00000000000E+00 0. -1.
</event>
<event>
 7    1  0.2794945E-009  0.1127534E+03  0.7561462E-02  0.1255554E+00
         -1   -1    0    0    0  501 -0.00000000000E+00  0.00000000000E+00  0.80624833600E+02  0.80624833600E+02  0.00000000000E+00 0.  1.
          1   -1    0    0  501    0  0.00000000000E+00 -0.00000000000E+00 -0.28877960247E+03  0.28877960247E+03  0.00000000000E+00 0. -1.
         25    2    1    2    0    0 -0.65368130897E+02 -0.25746707992E+02 -0.28180168254E+02  0.14621102066E+03  0.12509058785E+03 0.  0.
          5    1    3    3  502    0 -0.99059797960E+02 -0.38407432814E+02 -0.28098077385E+02  0.10997703769E+03  0.41800000000E+01 0. -1.
         -5    1    3    3    0  502  0.33691667063E+02  0.12660724822E+02 -0.82090868897E-01  0.36233982963E+02  0.41800000000E+01 0. -1.
        -11    1    1    2    0    0  0.88594078767E+01 -0.12054093862E+02  0.12227760430E+02  0.19321190747E+02  0.00000000000E+00 0.  1.
         11    1    1    2    0    0  0.56508723020E+02  0.37800801854E+02 -0.19220236105E+03  0.20387222467E+03  0.00000000000E+00 0. -1.
</event>
<event>
 7    1  0.2794945E-009  0.1083096E+03  0.7561462E-02  0.1263733E+00
         -2   -1    0    0    0  501 -0.00000000000E+00  0.00000000000E+00  0.37308118471E+02  0.37308118471E+02  0.00000000000E+00 0.  1.
          2   -1    0    0  501    0  0.00000000000E+00 -0.00000000000E+00 -0.56321186568E+03  0.56321186568E+03  0.00000000000E+00 0. -1.
         25    2    1    2    0    0 -0.26187176552E+02  0.88420194241E+02 -0.23331890908E+03  0.28033816611E+03  0.12509146684E+03 0.  0.
          5    1    3    3  502    0 -0.20523083811E+01  0.94655610103E+01  0.15159841467E+02  0.18468947134E+02  0.41800000000E+01 0.  1.
         -5    1    3    3    0  502 -0.24134868171E+02  0.78954633231E+02 -0.24847875055E+03  0.26186921897E+03  0.41800000000E+01 0.  1.
        -11    1    1    2    0    0 -0.23698362679E+02 -0.63216546692E+02 -0.10841022214E+03  0.12771343090E+03  0.00000000000E+00 0. -1.
         11    1    1    2    0    0  0.49885539232E+02 -0.25203647549E+02 -0.18417461599E+03  0.19246838714E+03  0.00000000000E+00 0.  1.
</event>
<event>
 7    1  0.2794945E-009  0.1794727E+03  0.7561462E-02  0.1168314E+00
         -1   -1    0    0    0  501 -0.00000000000E+00  0.00000000000E+00  0.41778246049E+03  0.41778246049E+03  0.00000000000E+00 0. -1.
          1   -1    0    0  501    0  0.00000000000E+00 -0.00000000000E+00 -0.10102808650E+03  0.10102808650E+03  0.00000000000E+00 0.  1.
         25    2    1    2    0    0  0.17098564503E+03 -0.48701054495E+02  0.20739569616E+03  0.30044670813E+03  0.12508943252E+03 0.  0.
          5    1    3    3  502    0  0.70384996805E+02 -0.21360287852E+02  0.63570722468E+01  0.73947240922E+02  0.41800000000E+01 0.  1.
         -5    1    3    3    0  502  0.10060064822E+03 -0.27340766644E+02  0.20103862391E+03  0.22649946721E+03  0.41800000000E+01 0.  1.
        -11    1    1    2    0    0 -0.14300170255E+03  0.27005162496E+02  0.11082644890E+03  0.18292421247E+03  0.00000000000E+00 0.  1.
         11    1    1    2    0    0 -0.27983942479E+02  0.21695891999E+02 -0.14677710591E+01  0.35439626383E+02  0.00000000000E+00 0. -1.
</event>
<event>
 7    1  0.2794945E-009  0.1019496E+03  0.7561462E-02  0.1276249E+00
          2   -1    0    0  501    0  0.00000000000E+00  0.00000000000E+00  0.49542108845E+03  0.49542108845E+03  0.00000000000E+00 0.  1.
         -2   -1    0    0    0  501 -0.00000000000E+00 -0.00000000000E+00 -0.32542597390E+02  0.32542597390E+02  0.00000000000E+00 0. -1.
         25    2    1    2    0    0 -0.22030697420E+02 -0.18312489294E+02  0.38010034752E+03  0.40117899117E+03  0.12509040683E+03 0.  0.
          5    1    3    3  502    0 -0.22923778972E+02 -0.63899863919E+02  0.12794527198E+03  0.14490050819E+03  0.41800000000E+01 0.  1.
         -5    1    3    3    0  502  0.89308155150E+00  0.45587374625E+02  0.25215507554E+03  0.25627848298E+03  0.41800000000E+01 0.  1.
        -11    1    1    2    0    0  0.36426461639E+02  0.46127734932E+02  0.31465412166E+02  0.66668787302E+02  0.00000000000E+00 0.  1.
         11    1    1    2    0    0 -0.14395764219E+02 -0.27815245639E+02  0.51312731373E+02  0.60115907365E+02  0.00000000000E+00 0. -1.
</event>
<event>
 7    1  0.2794945E-009  0.1098713E+03  0.7561462E-02  0.1260808E+00
         -4   -1    0    0    0  501 -0.00000000000E+00  0.00000000000E+00  0.14347131270E+03  0.14347131270E+03  0.00000000000E+00 0. -1.
          4   -1    0    0  501    0  0.00000000000E+00 -0.00000000000E+00 -0.86886841797E+02  0.86886841797E+02  0.00000000000E+00 0.  1.
         25    2    1    2    0    0 -0.80515443600E+01  0.17375371631E+02  0.47812621930E+02  0.13528421509E+03  0.12509612756E+03 0.  0.
          5    1    3    3  502    0  0.14769179704E+02 -0.51200199277E+02  0.13282954861E+02  0.55077203678E+02  0.41800000000E+01 0. -1.
         -5    1    3    3    0  502 -0.22820724064E+02  0.68575570907E+02  0.34529667069E+02  0.80207011414E+02  0.41800000000E+01 0. -1.
        -11    1    1    2    0    0 -0.40208502048E+02 -0.21256321672E+02 -0.18013986128E+01  0.45517028516E+02  0.00000000000E+00 0.  1.
         11    1    1    2    0    0  0.48260046408E+02  0.38809500413E+01  0.10573247587E+02  0.49556910891E+02  0.00000000000E+00 0. -1.
</event>
<event>
 7    1  0.2794945E-009  0.1135044E+03  0.7561462E-02  0.1254214E+00
         -3   -1    0    0    0  501 -0.00000000000E+00  0.00000000000E+00  0.65799296378E+03  0.65799296378E+03  0.00000000000E+00 0.  1.
          3   -1    0    0  501    0  0.00000000000E+00 -0.00000000000E+00 -0.36281000556E+02  0.36281000556E+02  0.00000000000E+00 0. -1.
         25    2    1    2    0    0 -0.11349800477E+01 -0.10563688726E+03  0.40282339039E+03  0.43482707059E+03  0.12508979713E+03 0.  0.
          5    1    3    3  502    0 -0.11792200765E+02 -0.10093613943E+03  0.40867282181E+03  0.42113906008E+03  0.41800000000E+01 0.  1.
         -5    1    3    3    0  502  0.10657220717E+02 -0.47007478300E+01 -0.58494314249E+01  0.13688010505E+02  0.41800000000E+01 0.  1.
        -11    1    1    2    0    0  0.19329861390E+02  0.73455133104E+02  0.61376047892E+02  0.97654080178E+02  0.00000000000E+00 0. -1.
         11    1    1    2    0    0 -0.18194881343E+02  0.32181754155E+02  0.15751252494E+03  0.16179281357E+03  0.00000000000E+00 0.  1.
</event>
<event>
 7    1  0.2794945E-009  0.1465759E+03  0.7561462E-02  0.1204745E+00
         -2   -1    0    0    0  501 -0.00000000000E+00  0.00000000000E+00  0.40755513612E+02  0.40755513612E+02  0.00000000000E+00 0.  1.
          2   -1    0    0  501    0  0.00000000000E+00 -0.00000000000E+00 -0.68326739947E+03  0.68326739947E+03  0.00000000000E+00 0. -1.
         25    2    1    2    0    0  0.71768476169E+02  0.74519548848E+02 -0.49925034470E+03  0.52497805172E+03  0.12508865166E+03 0.  0.
          5    1    3    3  502    0  0.14129739745E+02 -0.35080367469E+02 -0.13310811022E+03  0.13843960103E+03  0.41800000000E+01 0.  1.
         -5    1    3    3    0  502  0.57638736424E+02  0.10959991632E+03 -0.36614223448E+03  0.38653845069E+03  0.41800000000E+01 0.  1.
        -11    1    1    2    0    0 -0.21575855539E+01 -0.60065418792E+02 -0.97362983245E+02  0.11442054106E+03  0.00000000000E+00 0. -1.
         11    1    1    2    0    0 -0.69610890615E+02 -0.14454130056E+02 -0.45898557916E+02  0.84624320303E+02  0.00000000000E+00 0.  1.
</event>
<event>
 7    1  0.2794945E-009  0.9966894E+02  0.7561462E-02  0.1280994E+00
         -2   -1    0    0    0  501 -0.00000000000E+00  0.00000000000E+00  0.95142202309E+01  0.95142202309E+01  0.00000000000E+00 0.  1.
          2   -1    0    0  501    0  0.00000000000E+00 -0.00000000000E+00 -0.16098421412E+04  0.16098421412E+04  0.00000000000E+00 0. -1.
         25    2    1    2    0    0 -0.37496216839E+02  0.14625946975E+02 -0.11768568769E+04  0.11841707131E+04  0.12509310350E+03 0.  0.
          5    1    3    3  502    0 -0.42928497158E+02 -0.36937757441E+02 -0.27431658034E+03  0.28013266936E+03  0.41800000000E+01 0.  1.
         -5    1    3    3    0  502  0.54322803190E+01  0.51563704416E+02 -0.90254029657E+03  0.90403804378E+03  0.41800000000E+01 0.  1.
        -11    1    1    2    0    0  0.63393794311E+02 -0.11799423557E+02 -0.37145696125E+03  0.37701229902E+03  0.00000000000E+00 0.  1.
         11    1    1    2    0    0 -0.25897577472E+02 -0.28265234177E+01 -0.52014082793E+02  0.58173349245E+02  0.00000000000E+00 0. -1.
</event>
<event>
 7    1  0.2794945E-009  0.1489934E+03  0.7561462E-02  0.1201715E+00
         -2   -1    0    0    0  501 -0.00000000000E+00  0.00000000000E+00  0.34559594573E+03  0.34559594573E+03  0.00000000000E+00 0.  1.
          2   -1    0    0  501    0  0.00000000000E+00 -0.00000000000E+00 -0.12666763573E+03  0.12666763573E+03  0.00000000000E+00 0. -1.
         25    2    1    2    0    0 -0.98857843995E+02  0.10627269335E+03 -0.21956436563E+01  0.19162221782E+03  0.12508994700E+03 0.  0.
          5    1    3    3  502    0 -0.39693966649E+02  0.42287507905E+02 -0.62650399263E+02  0.85477419480E+02  0.41800000000E+01 0.  1.
         -5    1    3    3    0  502 -0.59163877346E+02  0.63985185444E+02  0.60454755606E+02  0.10614479834E+03  0.41800000000E+01 0.  1.
        -11    1    1    2    0    0  0.54318923103E+02 -0.90099553707E+02  0.20529544579E+03  0.23068310525E+03  0.00000000000E+00 0.  1.
         11    1    1    2    0    0  0.44538920892E+02 -0.16173139642E+02  0.15828507877E+02  0.49958258394E+02  0.00000000000E+00 0. -1.
</event>
<event>
 7    1  0.2794945E-009  0.1084107E+03  0.7561462E-02  0.1263542E+00
          1   -1    0    0  501    0  0.00000000000E+00  0.00000000000E+00  0.21630787051E+03  0.21630787051E+03  0.00000000000E+00 0. -1.
         -1   -1    0    0    0  501 -0.00000000000E+00 -0.00000000000E+00 -0.73111277934E+02  0.73111277934E+02  0.00000000000E+00 0.  1.
         25    2    1    2    0    0  0.41100769276E+02 -0.35154823306E+02  0.12779680310E+03  0.18682762434E+03  0.12508958189E+03 0.  0.
          5    1    3    3  502    0  0.79581433623E+02 -0.36676445497E+01  0.10526639616E+03  0.13208006191E+03  0.41800000000E+01 0. -1.
         -5    1    3    3    0  502 -0.38480664347E+02 -0.31487178757E+02  0.22530406935E+02  0.54747562424E+02  0.41800000000E+01 0. -1.
        -11    1    1    2    0    0  0.76991584845E+01  0.37510528742E+02  0.33111890653E+02  0.50623256617E+02  0.00000000000E+00 0. -1.
         11    1    1    2    0    0 -0.48799927760E+02 -0.23557054354E+01 -0.17712101178E+02  0.51968267487E+02  0.00000000000E+00 0.  1.
</event>
<event>
 7    1  0.2794945E-009  0.3620161E+03  0.7561462E-02  0.1057788E+00
          1   -1    0    0  501    0  0.00000000000E+00  0.00000000000E+00  0.90829954222E+03  0.90829954222E+03  0.00000000000E+00 0. -1.
         -1   -1    0    0    0  501 -0.00000000000E+00 -0.00000000000E+00 -0.14942189071E+03  0.14942189071E+03  0.00000000000E+00 0.  1.
         25    2    1    2    0    0  0.28661755738E+03 -0.20079308918E+03  0.33655944486E+03  0.50138536091E+03  0.12509009292E+03 0.  0.
          5    1    3    3  502    0  0.10566397333E+03 -0.14194296521E+03  0.20034437662E+03  0.26733503750E+03  0.41800000000E+01 0. -1.
         -5    1    3    3    0  502  0.18095358405E+03 -0.58850123972E+02  0.13621506824E+03  0.23405032341E+03  0.41800000000E+01 0. -1.
        -11    1    1    2    0    0 -0.50777693434E+02  0.71644585479E+02  0.65515155529E+02  0.10956074289E+03  0.00000000000E+00 0.  1.
         11    1    1    2    0    0 -0.23583986395E+03  0.12914850370E+03  0.35680305111E+03  0.44677532913E+03  0.00000000000E+00 0. -1.
</event>
<event>
 7    1  0.3255093E-009  0.1039056E+03  0.7561462E-02  0.1272291E+00
          2   -1    0    0  501    0  0.00000000000E+00  0.00000000000E+00  0.21677346771E+03  0.21677346771E+03  0.00000000000E+00 0. -1.
         -2   -1    0    0    0  501 -0.00000000000E+00 -0.00000000000E+00 -0.76889541023E+02  0.76889541023E+02  0.00000000000E+00 0.  1.
         25    2    1    2    0    0  0.51736207637E+02  0.46580179344E+02  0.78243301198E+02  0.16314250794E+03  0.12508843042E+03 0.  0.
          5    1    3    3  502    0  0.73412651229E+02  0.60842982211E+02  0.92782542494E+02  0.13310656797E+03  0.41800000000E+01 0.  1.
         -5    1    3    3    0  502 -0.21676443592E+02 -0.14262802867E+02 -0.14539241296E+02  0.30035939970E+02  0.41800000000E+01 0.  1.
        -11    1    1    2    0    0 -0.44460214302E+02 -0.60018904686E+01 -0.11720752092E+02  0.46369271879E+02  0.00000000000E+00 0.  1.
         11    1    1    2    0    0 -0.72759933351E+01 -0.40578288875E+02  0.73361377577E+02  0.84151228910E+02  0.00000000000E+00 0. -1.
</event>
<event>
 7    1  0.2794945E-009  0.1512101E+03  0.7561462E-02  0.1198994E+00
          1   -1    0    0  501    0  0.00000000000E+00  0.00000000000E+00  0.12736636458E+03  0.12736636458E+03  0.00000000000E+00 0. -1.
         -1   -1    0    0    0  501 -0.00000000000E+00 -0.00000000000E+00 -0.22257294038E+03  0.22257294038E+03  0.00000000000E+00 0.  1.
         25    2    1    2    0    0  0.12658887942E+03  0.28143398051E+02 -0.50673570420E+02  0.18716970075E+03  0.12509153006E+03 0.  0.
          5    1    3    3  502    0  0.14681242964E+03  0.34894600491E+02 -0.61363825554E+02  0.16295555875E+03  0.41800000000E+01 0.  1.
         -5    1    3    3    0  502 -0.20223550221E+02 -0.67512024406E+01  0.10690255134E+02  0.24214142000E+02  0.41800000000E+01 0.  1.
        -11    1    1    2    0    0 -0.33485772977E+02 -0.91382044221E+01  0.26881500073E+02  0.43902378273E+02  0.00000000000E+00 0. -1.
         11    1    1    2    0    0 -0.93103106445E+02 -0.19005193628E+02 -0.71414505453E+02  0.11886722594E+03  0.00000000000E+00 0.  1.
</event>
<event>
 7    1  0.2794945E-009  0.9479070E+02  0.7561462E-02  0.1291648E+00
         -2   -1    0    0    0  501 -0.00000000000E+00  0.00000000000E+00  0.22004097714E+02  0.22004097714E+02  0.00000000000E+00 0. -1.
          2   -1    0    0  501    0  0.00000000000E+00 -0.00000000000E+00 -0.69914933808E+03  0.69914933808E+03  0.00000000000E+00 0.  1.
         25    2    1    2    0    0  0.16475612069E+02 -0.27367495593E+02 -0.51107596751E+03  0.52713056683E+03  0.12509022469E+03 0.  0.
          5    1    3    3  502    0  0.58667337878E+02 -0.24941598116E+01 -0.41555037347E+03  0.41969949090E+03  0.41800000000E+01 0.  1.
         -5    1    3    3    0  502 -0.42191725809E+02 -0.24873335782E+02 -0.95525594040E+02  0.10743107593E+03  0.41800000000E+01 0.  1.
        -11    1    1    2    0    0  0.29542932615E+02  0.35960463740E+01 -0.12333154521E+03  0.12687153527E+03  0.00000000000E+00 0.  1.
         11    1    1    2    0    0 -0.46018544684E+02  0.23771449219E+02 -0.42737727641E+02  0.67151333693E+02  0.00000000000E+00 0. -1.
</event>
<event>
 7    1  0.2794945E-009  0.1004615E+03  0.7561462E-02  0.1279328E+00
         -1   -1    0    0    0  501 -0.00000000000E+00  0.00000000000E+00  0.16210856073E+03  0.16210856073E+03  0.00000000000E+00 0. -1.
          1   -1    0    0  501    0  0.00000000000E+00 -0.00000000000E+00 -0.90070457420E+02  0.90070457420E+02  0.00000000000E+00 0.  1.
         25    2    1    2    0    0  0.10672070054E+02  0.28100862492E+02  0.87548171584E+02  0.15561600970E+03  0.12509240014E+03 0.  0.
          5    1    3    3  502    0  0.51589360111E+02  0.57627624163E+02  0.59974174803E+02  0.97963152188E+02  0.41800000000E+01 0.  1.
         -5    1    3    3    0  502 -0.40917290057E+02 -0.29526761671E+02  0.27573996782E+02  0.57652857509E+02  0.41800000000E+01 0.  1.
        -11    1    1    2    0    0 -0.38932716480E+02 -0.16223797279E+02  0.22442142235E+02  0.47776749144E+02  0.00000000000E+00 0. -1.
         11    1    1    2    0    0  0.28260646426E+02 -0.11877065213E+02 -0.37952210512E+02  0.48786259308E+02  0.00000000000E+00 0.  1.
</event>
<event>
 7    1  0.2794945E-009  0.9382599E+02  0.7561462E-02  0.1293842E+00
          2   -1    0    0  501    0  0.00000000000E+00  0.00000000000E+00  0.31309111670E+02  0.31309111670E+02  0.00000000000E+00 0. -1.
         -2   -1    0    0    0  501 -0.00000000000E+00 -0.00000000000E+00 -0.68826942284E+03  0.68826942284E+03  0.00000000000E+00 0.  1.
         25    2    1    2    0    0 -0.39467525157E+02  0.52975616132E+02 -0.53297248922E+03  0.55142727299E+03  0.12509301213E+03 0.  0.
          5    1    3    3  502    0  0.13076211604E+02  0.48887367544E+02 -0.45122969410E+03  0.45407782510E+03  0.41800000000E+01 0. -1.
         -5    1    3    3    0  502 -0.52543736761E+02  0.40882485875E+01 -0.81742795122E+02  0.97349447885E+02  0.41800000000E+01 0. -1.
        -11    1    1    2    0    0  0.99212052233E+01 -0.53542458770E+02 -0.16833206140E+02  0.56996333507E+02  0.00000000000E+00 0. -1.
         11    1    1    2    0    0  0.29546319934E+02  0.56684263874E+00 -0.10715461581E+03  0.11115492801E+03  0.00000000000E+00 0.  1.
</event>
<event>
 7    1  0.2794945E-009  0.1390102E+03  0.7561462E-02  0.1214667E+00
          1   -1    0    0  501    0  0.00000000000E+00  0.00000000000E+00  0.41705041718E+02  0.41705041718E+02  0.00000000000E+00 0. -1.
         -1   -1    0    0    0  501 -0.00000000000E+00 -0.00000000000E+00 -0.65011729132E+03  0.65011729132E+03  0.00000000000E+00 0.  1.
         25    2    1    2    0    0  0.96502008694E+02  0.11984338154E+02 -0.16410211698E+03  0.22811382474E+03  0.12510056034E+03 0.  0.
          5    1    3    3  502    0  0.91857316571E+02 -0.34716331026E+02 -0.14925940771E+03  0.17871439068E+03  0.41800000000E+01 0.  1.
         -5    1    3    3    0  502  0.46446921236E+01  0.46700669180E+02 -0.14842709267E+02  0.49399434057E+02  0.41800000000E+01 0.  1.
        -11    1    1    2    0    0 -0.52026795238E+01 -0.37467439531E+02 -0.13509427158E+03  0.14029019606E+03  0.00000000000E+00 0. -1.
         11    1    1    2    0    0 -0.91299329171E+02  0.25483101377E+02 -0.30921586105E+03  0.32341831223E+03  0.00000000000E+00 0.  1.
</event>
<event>
 7    1  0.2794945E-009  0.1161044E+03  0.7561462E-02  0.1249665E+00
          1   -1    0    0  501    0  0.00000000000E+00  0.00000000000E+00  0.19487093203E+03  0.19487093203E+03  0.00000000000E+00 0. -1.
         -1   -1    0    0    0  501 -0.00000000000E+00 -0.00000000000E+00 -0.94998270870E+02  0.94998270870E+02  0.00000000000E+00 0.  1.
         25    2    1    2    0    0  0.60666342934E+02  0.21124467083E+02  0.45708755740E+00  0.14061983951E+03  0.12508829706E+03 0.  0.
          5    1    3    3  502    0  0.38841601334E+02 -0.46615804594E+02  0.24228749344E+02  0.65469137209E+02  0.41800000000E+01 0. -1.
         -5    1    3    3    0  502  0.21824741599E+02  0.67740271677E+02 -0.23771661787E+02  0.75150702305E+02  0.41800000000E+01 0. -1.
        -11    1    1    2    0    0 -0.75103438537E+02 -0.32383599947E+02  0.48371503663E+02  0.95021189174E+02  0.00000000000E+00 0.  1.
         11    1    1    2    0    0  0.14437095603E+02  0.11259132864E+02  0.51044069942E+02  0.54228174213E+02  0.00000000000E+00 0. -1.
</event>
<event>
 7    1  0.2794945E-009  0.1228593E+03  0.7561462E-02  0.1238453E+00
          2   -1    0    0  501    0  0.00000000000E+00  0.00000000000E+00  0.84268481604E+02  0.84268481604E+02  0.00000000000E+00 0.  1.
         -2   -1    0    0    0  501 -0.00000000000E+00 -0.00000000000E+00 -0.78248215246E+03  0.78248215246E+03  0.00000000000E+00 0. -1.
         25    2    1    2    0    0  0.71985513123E+01 -0.87326714660E+02 -0.72170739643E+03  0.73769000738E+03  0.12508879524E+03 0.  0.
          5    1    3    3  502    0 -0.12413456191E+02 -0.11495750096E+03 -0.48961331376E+03  0.50309839031E+03  0.41800000000E+01 0. -1.
         -5    1    3    3    0  502  0.19612007503E+02  0.27630786299E+02 -0.23209408267E+03  0.23459161707E+03  0.41800000000E+01 0. -1.
        -11    1    1    2    0    0  0.15756074831E+02  0.45711120402E+02 -0.30471126659E+02  0.57151115320E+02  0.00000000000E+00 0. -1.
         11    1    1    2    0    0 -0.22954626144E+02  0.41615594258E+02  0.53964852237E+02  0.71909511358E+02  0.00000000000E+00 0.  1.
</event>
<event>
 7    1  0.2794945E-009  0.1026675E+03  0.7561462E-02  0.1274785E+00
          1   -1    0    0  501    0  0.00000000000E+00  0.00000000000E+00  0.30351865247E+03  0.30351865247E+03  0.00000000000E+00 0. -1.
         -1   -1    0    0    0  501 -0.00000000000E+00 -0.00000000000E+00 -0.56055958163E+02  0.56055958163E+02  0.00000000000E+00 0.  1.
         25    2    1    2    0    0 -0.10928496013E+02  0.58098023650E+02  0.80817096255E+02  0.16022923370E+03  0.12508873614E+03 0.  0.
          5    1    3    3  502    0 -0.42751148781E+02 -0.12860152383E+02  0.67775658719E+02  0.81265346589E+02  0.41800000000E+01 0. -1.
         -5    1    3    3    0  502  0.31822652769E+02  0.70958176033E+02  0.13041437536E+02  0.78963887114E+02  0.41800000000E+01 0. -1.
        -11    1    1    2    0    0  0.26753641476E+02 -0.60925682945E+02  0.17031847684E+03  0.18285535192E+03  0.00000000000E+00 0. -1.
         11    1    1    2    0    0 -0.15825145464E+02  0.28276592945E+01 -0.36728787893E+01  0.16490025004E+02  0.00000000000E+00 0.  1.
</event>
<event>
 7    1  0.2794945E-009  0.1083895E+03  0.7561462E-02  0.1263582E+00
          2   -1    0    0  501    0  0.00000000000E+00  0.00000000000E+00  0.68554149036E+03  0.68554149036E+03  0.00000000000E+00 0. -1.
         -2   -1    0    0    0  501 -0.00000000000E+00 -0.00000000000E+00 -0.19098581718E+02  0.19098581718E+02  0.00000000000E+00 0.  1.
         25    2    1    2    0    0 -0.15265050308E+02 -0.19527815070E+02  0.29237952453E+03  0.31899376359E+03  0.12512744511E+03 0.  0.
          5    1    3    3  502    0 -0.63950706198E+02  0.15819971618E+02  0.13051158685E+03  0.14625563589E+03  0.41800000000E+01 0.  1.
         -5    1    3    3    0  502  0.48685655890E+02 -0.35347786688E+02  0.16186793768E+03  0.17273812770E+03  0.41800000000E+01 0.  1.
        -11    1    1    2    0    0 -0.27905419860E+02  0.34853565895E+02  0.23584897107E+03  0.24003795672E+03  0.00000000000E+00 0.  1.
         11    1    1    2    0    0  0.43170470169E+02 -0.15325750825E+02  0.13821441304E+03  0.14560835177E+03  0.00000000000E+00 0. -1.
</event>
<event>
 7    1  0.2794945E-009  0.7477253E+02  0.7561462E-02  0.1344577E+00
         -1   -1    0    0    0  501 -0.00000000000E+00  0.00000000000E+00  0.56977678913E+02  0.56977678913E+02  0.00000000000E+00 0. -1.
          1   -1    0    0  501    0  0.00000000000E+00 -0.00000000000E+00 -0.27729643049E+03  0.27729643049E+03  0.00000000000E+00 0.  1.
         25    2    1    2    0    0 -0.67383680815E-01  0.61477256085E+02 -0.15458694562E+03  0.20815490103E+03  0.12510747984E+03 0.  0.
          5    1    3    3  502    0  0.62657225518E+01  0.65696987578E+02 -0.17440376941E+03  0.18651943770E+03  0.41800000000E+01 0. -1.
         -5    1    3    3    0  502 -0.63331062327E+01 -0.42197314932E+01  0.19816823790E+02  0.21635463331E+02  0.41800000000E+01 0. -1.
        -11    1    1    2    0    0 -0.18932560442E+02 -0.13849317267E+02 -0.70806436874E+02  0.74590863625E+02  0.00000000000E+00 0.  1.
         11    1    1    2    0    0  0.18999944123E+02 -0.47627938818E+02  0.50746309203E+01  0.51528344741E+02  0.00000000000E+00 0. -1.
</event>
<event>
 7    1  0.2794945E-009  0.1163872E+03  0.7561462E-02  0.1249179E+00
          2   -1    0    0  501    0  0.00000000000E+00  0.00000000000E+00  0.24084386207E+03  0.24084386207E+03  0.00000000000E+00 0. -1.
         -2   -1    0    0    0  501 -0.00000000000E+00 -0.00000000000E+00 -0.61793918106E+02  0.61793918106E+02  0.00000000000E+00 0.  1.
         25    2    1    2    0    0 -0.53076388791E+02  0.50707278368E+00  0.12335222161E+03  0.18350845517E+03  0.12506887053E+03 0.  0.
          5    1    3    3  502    0 -0.26461116611E+02  0.59438703777E+02  0.88530510303E+02  0.10994668641E+03  0.41800000000E+01 0.  1.
         -5    1    3    3    0  502 -0.26615272180E+02 -0.58931630994E+02  0.34821711305E+02  0.73561768759E+02  0.41800000000E+01 0.  1.
        -11    1    1    2    0    0  0.11853446893E+02  0.41955873748E+02  0.10997868861E+02  0.44963904020E+02  0.00000000000E+00 0.  1.
         11    1    1    2    0    0  0.41222941898E+02 -0.42462946532E+02  0.44699853492E+02  0.74165420979E+02  0.00000000000E+00 0. -1.
</event>
<event>
 7    1  0.2794945E-009  0.1244728E+03  0.7561462E-02  0.1235896E+00
         -2   -1    0    0    0  501 -0.00000000000E+00  0.00000000000E+00  0.20378901712E+02  0.20378901712E+02  0.00000000000E+00 0.  1.
          2   -1    0    0  501    0  0.00000000000E+00 -0.00000000000E+00 -0.94630861778E+03  0.94630861778E+03  0.00000000000E+00 0. -1.
         25    2    1    2    0    0  0.16060445575E+02 -0.86430486906E+02 -0.46272741837E+03  0.48733184088E+03  0.12508993742E+03 0.  0.
          5    1    3    3  502    0  0.48877365571E+01  0.30153728431E+02 -0.54511847410E+02  0.62627080524E+02  0.41800000000E+01 0. -1.
         -5    1    3    3    0  502  0.11172709018E+02 -0.11658421534E+03 -0.40821557096E+03  0.42470476036E+03  0.41800000000E+01 0. -1.
        -11    1    1    2    0    0 -0.10821062151E+02 -0.30847961611E+01 -0.47451141568E+01  0.12211775538E+02  0.00000000000E+00 0.  1.
         11    1    1    2    0    0 -0.52393834246E+01  0.89515283067E+02 -0.45845718354E+03  0.46714390308E+03  0.00000000000E+00 0. -1.
</event>
<event>
 7    1  0.2794945E-009  0.9270335E+02  0.7561462E-02  0.1296434E+00
         -1   -1    0    0    0  501 -0.00000000000E+00  0.00000000000E+00  0.19476338235E+02  0.19476338235E+02  0.00000000000E+00 0. -1.
          1   -1    0    0  501    0  0.00000000000E+00 -0.00000000000E+00 -0.10580904551E+04  0.10580904551E+04  0.00000000000E+00 0.  1.
         25    2    1    2    0    0 -0.24962525042E+02  0.37155668820E+02 -0.87415960119E+03  0.88419796761E+03  0.12508943281E+03 0.  0.
          5    1    3    3  502    0  0.23557711143E+02  0.22771060252E+02 -0.60281963877E+02  0.68737722600E+02  0.41800000000E+01 0. -1.
         -5    1    3    3    0  502 -0.48520236185E+02  0.14384608568E+02 -0.81387763731E+03  0.81546024501E+03  0.41800000000E+01 0. -1.
        -11    1    1    2    0    0  0.56108113469E+02 -0.42191865574E+01 -0.95710943332E+02  0.11102480176E+03  0.00000000000E+00 0.  1.
         11    1    1    2    0    0 -0.31145588427E+02 -0.32936482263E+02 -0.68743572298E+02  0.82344023916E+02  0.00000000000E+00 0. -1.
</event>
<event>
 7    1  0.2794945E-009  0.1830411E+03  0.7561462E-02  0.1164892E+00
         -1   -1    0    0    0  501 -0.00000000000E+00  0.00000000000E+00  0.15107057551E+03  0.15107057551E+03  0.00000000000E+00 0.  1.
          1   -1    0    0  501    0  0.00000000000E+00 -0.00000000000E+00 -0.36282741900E+03  0.36282741900E+03  0.00000000000E+00 0. -1.
         25    2    1    2    0    0  0.12369085565E+03  0.11765974790E+03 -0.23875165863E+03  0.31904958602E+03  0.12508812811E+03 0.  0.
          5    1    3    3  502    0  0.21937849587E+02 -0.15592109093E+02 -0.92828176213E+02  0.96741541282E+02  0.41800000000E+01 0. -1.
         -5    1    3    3    0  502  0.10175300606E+03  0.13325185699E+03 -0.14592348242E+03  0.22230804473E+03  0.41800000000E+01 0. -1.
        -11    1    1    2    0    0 -0.58290687605E+02 -0.47246354805E+02  0.56938424349E+02  0.94191329066E+02  0.00000000000E+00 0.  1.
         11    1    1    2    0    0 -0.65400168040E+02 -0.70413393090E+02 -0.29943609208E+02  0.10065707943E+03  0.00000000000E+00 0. -1.
</event>
<event>
 7    1  0.2794945E-009  0.7900403E+02  0.7561462E-02  0.1331902E+00
          1   -1    0    0  501    0  0.00000000000E+00  0.00000000000E+00  0.43515086288E+02  0.43515086288E+02  0.00000000000E+00 0. -1.
         -1   -1    0    0    0  501 -0.00000000000E+00 -0.00000000000E+00 -0.33560244179E+03  0.33560244179E+03  0.00000000000E+00 0.  1.
         25    2    1    2    0    0 -0.21930184329E+02 -0.44771228155E+02 -0.13453748433E+03  0.19034372747E+03  0.12507999058E+03 0.  0.
          5    1    3    3  502    0  0.15523053443E+02 -0.43056529051E+02  0.45937058881E+01  0.46188791020E+02  0.41800000000E+01 0.  1.
         -5    1    3    3    0  502 -0.37453237772E+02 -0.17146991047E+01 -0.13913119022E+03  0.14415493645E+03  0.41800000000E+01 0.  1.
        -11    1    1    2    0    0  0.40315888336E+02  0.25578799594E+02 -0.15486804133E+03  0.16206096404E+03  0.00000000000E+00 0.  1.
         11    1    1    2    0    0 -0.18385704007E+02  0.19192428561E+02 -0.26818298437E+01  0.26712836563E+02  0.00000000000E+00 0. -1.
</event>
<event>
 7    1  0.2794945E-009  0.1266454E+03  0.7561462E-02  0.1232520E+00
          3   -1    0    0  501    0  0.00000000000E+00  0.00000000000E+00  0.10998869224E+03  0.10998869224E+03  0.00000000000E+00 0. -1.
         -3   -1    0    0    0  501 -0.00000000000E+00 -0.00000000000E+00 -0.24829275963E+03  0.24829275963E+03  0.00000000000E+00 0.  1.
         25    2    1    2    0    0 -0.11040810361E+02 -0.10288630364E+03 -0.86189318647E+00  0.16235293950E+03  0.12510093179E+03 0.  0.
          5    1    3    3  502    0 -0.13609169647E+02  0.15941227068E+02  0.32441580648E+02  0.38849205575E+02  0.41800000000E+01 0.  1.
         -5    1    3    3    0  502  0.25683592859E+01 -0.11882753071E+03 -0.33303473834E+02  0.12350373392E+03  0.41800000000E+01 0.  1.
        -11    1    1    2    0    0  0.27549050816E+02  0.44711125678E+02 -0.80866883872E+01  0.53135952888E+02  0.00000000000E+00 0.  1.
         11    1    1    2    0    0 -0.16508240455E+02  0.58175177964E+02 -0.12935548582E+03  0.14279255949E+03  0.00000000000E+00 0. -1.
</event>
<event>
 7    1  0.2794945E-009  0.1476985E+03  0.7561462E-02  0.1203330E+00
         -2   -1    0    0    0  501 -0.00000000000E+00  0.00000000000E+00  0.69226979315E+02  0.69226979315E+02  0.00000000000E+00 0. -1.
          2   -1    0    0  501    0  0.00000000000E+00 -0.00000000000E+00 -0.12047729781E+04  0.12047729781E+04  0.00000000000E+00 0.  1.
         25    2    1    2    0    0  0.47707136144E+02  0.10324442939E+03 -0.11139281519E+04  0.11266850126E+04  0.12509119475E+03 0.  0.
          5    1    3    3  502    0  0.81220019928E+02  0.88850822553E+02 -0.99378392111E+03  0.10010569987E+04  0.41800000000E+01 0. -1.
         -5    1    3    3    0  502 -0.33512883784E+02  0.14393606838E+02 -0.12014423078E+03  0.12562801395E+03  0.41800000000E+01 0. -1.
        -11    1    1    2    0    0  0.10540823837E+02 -0.70757303722E+02 -0.34443039443E+02  0.79397909060E+02  0.00000000000E+00 0.  1.
         11    1    1    2    0    0 -0.58247959981E+02 -0.32487125670E+02  0.12825192583E+02  0.67917035720E+02  0.00000000000E+00 0. -1.
</event>
<event>
 7    1  0.2794945E-009  0.5871521E+02  0.7561462E-02  0.1403304E+00
         -2   -1    0    0    0  501 -0.00000000000E+00  0.00000000000E+00  0.10188101129E+04  0.10188101129E+04  0.00000000000E+00 0.  1.
          2   -1    0    0  501    0  0.00000000000E+00 -0.00000000000E+00 -0.17618228939E+02  0.17618228939E+02  0.00000000000E+00 0. -1.
         25    2    1    2    0    0  0.18901096136E+02 -0.10001723311E+02  0.83282622320E+03  0.84243951783E+03  0.12509011647E+03 0.  0.
          5    1    3    3  502    0  0.10689584960E+01 -0.32566721767E+01 -0.31360226376E+01  0.62494498891E+01  0.41800000000E+01 0.  1.
         -5    1    3    3    0  502  0.17832137640E+02 -0.67450511345E+01  0.83596224584E+03  0.83619006794E+03  0.41800000000E+01 0.  1.
        -11    1    1    2    0    0 -0.14506379734E+01 -0.39753569237E+02  0.10022215222E+03  0.10782824497E+03  0.00000000000E+00 0.  1.
         11    1    1    2    0    0 -0.17450458163E+02  0.49755292548E+02  0.68143508587E+02  0.86160579091E+02  0.00000000000E+00 0. -1.
</event>
<event>
 7    1  0.2794945E-009  0.1080927E+03  0.7561462E-02  0.1264143E+00
          1   -1    0    0  501    0  0.00000000000E+00  0.00000000000E+00  0.17112625871E+03  0.17112625871E+03  0.00000000000E+00 0. -1.
         -1   -1    0    0    0  501 -0.00000000000E+00 -0.00000000000E+00 -0.13998064265E+03  0.13998064265E+03  0.00000000000E+00 0.  1.
         25    2    1    2    0    0  0.22406371471E+02  0.53429567784E+02 -0.78671744019E+02  0.15872770540E+03  0.12509387259E+03 0.  0.
          5    1    3    3  502    0  0.61755067890E+02  0.69718654433E+02 -0.65555719266E+02  0.11397106613E+03  0.41800000000E+01 0.  1.
         -5    1    3    3    0  502 -0.39348696419E+02 -0.16289086648E+02 -0.13116024754E+02  0.44756639273E+02  0.41800000000E+01 0.  1.
        -11    1    1    2    0    0  0.18196197485E+02 -0.23504338920E+02 -0.19184006574E+01  0.29786503858E+02  0.00000000000E+00 0.  1.
         11    1    1    2    0    0 -0.40602568956E+02 -0.29925228864E+02  0.11173576074E+03  0.12259269210E+03  0.00000000000E+00 0. -1.
</event>
<event>
 7    1  0.2794945E-009  0.1885430E+03  0.7561462E-02  0.1159782E+00
          1   -1    0    0  501    0  0.00000000000E+00  0.00000000000E+00  0.88168416744E+02  0.88168416744E+02  0.00000000000E+00 0. -1.
         -1   -1    0    0    0  501 -0.00000000000E+00 -0.00000000000E+00 -0.51159790915E+03  0.51159790915E+03  0.00000000000E+00 0.  1.
         25    2    1    2    0    0 -0.20080310919E+02  0.17756749564E+03 -0.16670905030E+03  0.27454177907E+03  0.12509135304E+03 0.  0.
          5    1    3    3  502    0  0.29900586051E+02  0.97867601040E+02 -0.26753744409E+02  0.10585531455E+03  0.41800000000E+01 0. -1.
         -5    1    3    3    0  502 -0.49980896970E+02  0.79699894603E+02 -0.13995530590E+03  0.16868646451E+03  0.41800000000E+01 0. -1.
        -11    1    1    2    0    0  0.21578215688E+02 -0.78256803906E+02 -0.48586073366E+02  0.94606306740E+02  0.00000000000E+00 0. -1.
         11    1    1    2    0    0 -0.14979047688E+01 -0.99310691736E+02 -0.20813436874E+03  0.23061824009E+03  0.00000000000E+00 0.  1.
</event>
<event>
 7    1  0.2794945E-009  0.2038685E+03  0.7561462E-02  0.1146516E+00
          3   -1    0    0  501    0  0.00000000000E+00  0.00000000000E+00  0.23184509005E+03  0.23184509005E+03  0.00000000000E+00 0. -1.
         -3   -1    0    0    0  501 -0.00000000000E+00 -0.00000000000E+00 -0.25058332785E+03  0.25058332785E+03  0.00000000000E+00 0.  1.
         25    2    1    2    0    0  0.13594870269E+03  0.13043353996E+03 -0.11157342045E+03  0.25217532907E+03  0.12509520506E+03 0.  0.
          5    1    3    3  502    0  0.81590191952E+01  0.43733577966E+02  0.20283601804E+02  0.49072317431E+02  0.41800000000E+01 0.  1.
         -5    1    3    3    0  502  0.12778968349E+03  0.86699961993E+02 -0.13185702226E+03  0.20310301163E+03  0.41800000000E+01 0.  1.
        -11    1    1    2    0    0 -0.21027297431E+02 -0.80622129070E+02  0.21244816104E+02  0.85984982086E+02  0.00000000000E+00 0.  1.
         11    1    1    2    0    0 -0.11492140525E+03 -0.49811410889E+02  0.71590366556E+02  0.14426810675E+03  0.00000000000E+00 0. -1.
</event>
<event>
 7    1  0.2794945E-009  0.9867706E+02  0.7561462E-02  0.1283103E+00
          1   -1    0    0  501    0  0.00000000000E+00  0.00000000000E+00  0.14874935692E+03  0.14874935692E+03  0.00000000000E+00 0. -1.
         -1   -1    0    0    0  501 -0.00000000000E+00 -0.00000000000E+00 -0.12454951021E+03  0.12454951021E+03  0.00000000000E+00 0.  1.
         25    2    1    2    0    0  0.24993721392E+02 -0.58640350164E+02  0.37402599422E+02  0.14529290775E+03  0.12509075834E+03 0.  0.
          5    1    3    3  502    0  0.22064489087E+02 -0.69455493126E+02  0.75706296900E+02  0.10516569305E+03  0.41800000000E+01 0. -1.
         -5    1    3    3    0  502  0.29292323053E+01  0.10815142962E+02 -0.38303697478E+02  0.40127214701E+02  0.41800000000E+01 0. -1.
        -11    1    1    2    0    0  0.21997149187E+02  0.61505864510E+02  0.22320374587E+02  0.69029305829E+02  0.00000000000E+00 0.  1.
         11    1    1    2    0    0 -0.46990870579E+02 -0.28655143462E+01 -0.35523127303E+02  0.58976653547E+02  0.00000000000E+00 0. -1.
</event>
<event>
 7    1  0.2794945E-009  0.1336753E+03  0.7561462E-02  0.1222102E+00
          2   -1    0    0  501    0  0.00000000000E+00  0.00000000000E+00  0.27544102736E+02  0.27544102736E+02  0.00000000000E+00 0. -1.
         -2   -1    0    0    0  501 -0.00000000000E+00 -0.00000000000E+00 -0.10348870022E+04  0.10348870022E+04  0.00000000000E+00 0.  1.
         25    2    1    2    0    0  0.97653410340E+02  0.38021472910E+02 -0.76870722145E+03  0.78583711882E+03  0.12508942420E+03 0.  0.
          5    1    3    3  502    0  0.10340809657E+03 -0.18719709716E+02 -0.45903635874E+03  0.47093047577E+03  0.41800000000E+01 0. -1.
         -5    1    3    3    0  502 -0.57546862326E+01  0.56741182626E+02 -0.30967086271E+03  0.31490664304E+03  0.41800000000E+01 0. -1.
        -11    1    1    2    0    0 -0.12998543494E+02 -0.27593270457E+01  0.65534025284E+01  0.14816312071E+02  0.00000000000E+00 0. -1.
         11    1    1    2    0    0 -0.84654866846E+02 -0.35262145864E+02 -0.24518908049E+03  0.26177767400E+03  0.00000000000E+00 0.  1.
</event>
<event>
 6    1  0.2794945E-009  0.1486941E+03  0.7561462E-02  0.1202087E+00
          1   -1    0    0  501    0  0.00000000000E+00  0.00000000000E+00  0.14526926415E+03  0.14526926415E+03  0.00000000000E+00 0. -1.
         -1   -1    0    0    0  501 -0.00000000000E+00 -0.00000000000E+00 -0.15358779429E+03  0.15358779429E+03  0.00000000000E+00 0.  1.
          5    1    1    2  502    0  0.89412861642E+02 -0.62662298867E+02  0.86206520860E+01  0.10960388482E+03  0.41800000000E+01 0.  1.
         -5    1    1    2    0  502 -0.43660082769E+02 -0.27866828296E+02 -0.34078931605E+01  0.52075417257E+02  0.41800000000E+01 0.  1.
        -11    1    1    2    0    0 -0.61057231341E+02  0.20391998650E+02 -0.11291671891E+02  0.65355343791E+02  0.00000000000E+00 0. -1.
         11    1    1    2    0    0  0.15304452468E+02  0.70137128513E+02 -0.22396171794E+01  0.71822412564E+02  0.00000000000E+00 0.  1.
</event>
<event>
 7    1  0.2794945E-009  0.1304949E+03  0.7561462E-02  0.1226723E+00
          1   -1    0    0  501    0  0.00000000000E+00  0.00000000000E+00  0.28064688150E+02  0.28064688150E+02  0.00000000000E+00 0. -1.
         -1   -1    0    0    0  501 -0.00000000000E+00 -0.00000000000E+00 -0.70299847425E+03  0.70299847425E+03  0.00000000000E+00 0.  1.
         25    2    1    2    0    0 -0.76451736282E+02 -0.50144243189E+02 -0.31837656700E+03  0.35407780577E+03  0.12509252983E+03 0.  0.
          5    1    3    3  502    0  0.20695835631E+02 -0.53271421796E+02 -0.10666814771E+03  0.12108562313E+03  0.41800000000E+01 0. -1.
         -5    1    3    3    0  502 -0.97147571913E+02  0.31271786068E+01 -0.21170841929E+03  0.23299218264E+03  0.41800000000E+01 0. -1.
        -11    1    1    2    0    0  0.70896487672E+02  0.17151165965E+02 -0.31648605155E+03  0.32478284327E+03  0.00000000000E+00 0.  1.
         11    1    1    2    0    0  0.55552486101E+01  0.32993077225E+02 -0.40071167547E+02  0.52202513354E+02  0.00000000000E+00 0. -1.
</event>
<event>
 7    1  0.2794945E-009  0.1005647E+03  0.7561462E-02  0.1279113E+00
          1   -1    0    0  501    0  0.00000000000E+00  0.00000000000E+00  0.31017531124E+02  0.31017531124E+02  0.00000000000E+00 0. -1.
         -1   -1    0    0    0  501 -0.00000000000E+00 -0.00000000000E+00 -0.56956581350E+03  0.56956581350E+03  0.00000000000E+00 0.  1.
         25    2    1    2    0    0  0.62992382872E+02  0.79870389524E+01 -0.19475488003E+03  0.24002088236E+03  0.12509487431E+03 0.  0.
          5    1    3    3  502    0  0.52526485232E+02  0.35020867839E+02 -0.25441065637E+02  0.68192470668E+02  0.41800000000E+01 0. -1.
         -5    1    3    3    0  502  0.10465897639E+02 -0.27033828886E+02 -0.16931381440E+03  0.17182841169E+03  0.41800000000E+01 0. -1.
        -11    1    1    2    0    0 -0.70597286771E+02 -0.36209986886E+02 -0.24392632300E+03  0.25650573307E+03  0.00000000000E+00 0.  1.
         11    1    1    2    0    0  0.76049038997E+01  0.28222947934E+02 -0.99867079348E+02  0.10405672920E+03  0.00000000000E+00 0. -1.
</event>
<event>
 7    1  0.2794945E-009  0.1169535E+03  0.7561462E-02  0.1248209E+00
         -1   -1    0    0    0  501 -0.00000000000E+00  0.00000000000E+00  0.93518357074E+01  0.93518357074E+01  0.00000000000E+00 0.  1.
          1   -1    0    0  501    0  0.00000000000E+00 -0.00000000000E+00 -0.15421601596E+04  0.15421601596E+04  0.00000000000E+00 0. -1.
         25    2    1    2    0    0 -0.32989400409E+02  0.47152324512E+02 -0.10273423923E+04  0.10365285480E+04  0.12508955815E+03 0.  0.
          5    1    3    3  502    0  0.45174247221E+02  0.13105230249E+01 -0.42080402420E+03  0.42324452656E+03  0.41800000000E+01 0. -1.
         -5    1    3    3    0  502 -0.78163647630E+02  0.45841801487E+02 -0.60653836812E+03  0.61328402146E+03  0.41800000000E+01 0. -1.
        -11    1    1    2    0    0  0.34140269097E+02  0.13816493409E+02 -0.22181114090E+03  0.22484802799E+03  0.00000000000E+00 0.  1.
         11    1    1    2    0    0 -0.11508686875E+01 -0.60968817921E+02 -0.28365479063E+03  0.29013541925E+03  0.00000000000E+00 0. -1.
</event>
<event>
 7    1  0.2794945E-009  0.1128022E+03  0.7561462E-02  0.1255467E+00
          2   -1    0    0  501    0  0.00000000000E+00  0.00000000000E+00  0.93368792113E+02  0.93368792113E+02  0.00000000000E+00 0.  1.
         -2   -1    0    0    0  501 -0.00000000000E+00 -0.00000000000E+00 -0.18336941050E+03  0.18336941050E+03  0.00000000000E+00 0. -1.
         25    2    1    2    0    0  0.71415056697E+02 -0.13078286695E+02 -0.46533806659E+02  0.15193408033E+03  0.12508963865E+03 0.  0.
          5    1    3    3  502    0  0.10607298297E+03  0.12410396334E+01 -0.40972259364E+02  0.11379462348E+03  0.41800000000E+01 0. -1.
         -5    1    3    3    0  502 -0.34657926276E+02 -0.14319326328E+02 -0.55615472957E+01  0.38139456846E+02  0.41800000000E+01 0. -1.
        -11    1    1    2    0    0 -0.44941418737E+02  0.26349494358E+02 -0.68477526908E+02  0.86041842510E+02  0.00000000000E+00 0. -1.
         11    1    1    2    0    0 -0.26473637960E+02 -0.13271207663E+02  0.25010715179E+02  0.38762279776E+02  0.00000000000E+00 0.  1.
</event>
<event>
 7    1  0.2794945E-009  0.2305977E+03  0.7561462E-02  0.1126220E+00
         -2   -1    0    0    0  501 -0.00000000000E+00  0.00000000000E+00  0.88485192424E+02  0.88485192424E+02  0.00000000000E+00 0. -1.
          2   -1    0    0  501    0  0.00000000000E+00 -0.00000000000E+00 -0.10103763039E+04  0.10103763039E+04  0.00000000000E+00 0.  1.
         25    2    1    2    0    0  0.14647883985E+03 -0.16359393404E+03 -0.15639835309E+03  0.29719925396E+03  0.12509167008E+03 0.  0.
          5    1    3    3  502    0  0.61904181532E+02 -0.29856291456E+02  0.75967809911E+01  0.69272716938E+02  0.41800000000E+01 0.  1.
         -5    1    3    3    0  502  0.84574658321E+02 -0.13373764259E+03 -0.16399513409E+03  0.22792653702E+03  0.41800000000E+01 0.  1.
        -11    1    1    2    0    0 -0.10418472150E+03  0.16087962997E+03 -0.67590612740E+03  0.70255662021E+03  0.00000000000E+00 0.  1.
         11    1    1    2    0    0 -0.42294118351E+02  0.27143040732E+01 -0.89586630997E+02  0.99105622177E+02  0.00000000000E+00 0. -1.
</event>
<event>
 7    1  0.2794945E-009  0.1235301E+03  0.7561462E-02  0.1237384E+00
          2   -1    0    0  501    0  0.00000000000E+00  0.00000000000E+00  0.63919004889E+03  0.63919004889E+03  0.00000000000E+00 0. -1.
         -2   -1    0    0    0  501 -0.00000000000E+00 -0.00000000000E+00 -0.31278371770E+02  0.31278371770E+02  0.00000000000E+00 0.  1.
         25    2    1    2    0    0 -0.40351433445E+02 -0.78287562184E+02  0.32712077315E+03  0.36113338779E+03  0.12510852480E+03 0.  0.
          5    1    3    3  502    0  0.28381198525E+01 -0.10176818462E+03  0.24481678633E+03  0.26517456438E+03  0.41800000000E+01 0.  1.
         -5    1    3    3    0  502 -0.43189553298E+02  0.23480622435E+02  0.82303986823E+02  0.95958823414E+02  0.41800000000E+01 0.  1.
        -11    1    1    2    0    0  0.42330739353E+01  0.49397184905E+02  0.24732697662E+03  0.25224716877E+03  0.00000000000E+00 0. -1.
         11    1    1    2    0    0  0.36118359510E+02  0.28890377279E+02  0.33463927346E+02  0.57087864091E+02  0.00000000000E+00 0.  1.
</event>
<event>
 7    1  0.2794945E-009  0.1233252E+03  0.7561462E-02  0.1237710E+00
          1   -1    0    0  501    0  0.00000000000E+00  0.00000000000E+00  0.19206034933E+03  0.19206034933E+03  0.00000000000E+00 0. -1.
         -1   -1    0    0    0  501 -0.00000000000E+00 -0.00000000000E+00 -0.11301406270E+03  0.11301406270E+03  0.00000000000E+00 0.  1.
         25    2    1    2    0    0  0.43911001913E+02 -0.33384883625E+02  0.97170348696E+02  0.16772909511E+03  0.12509294999E+03 0.  0.
          5    1    3    3  502    0  0.28624047501E+02  0.43352476853E+02  0.15103155207E+02  0.54261874662E+02  0.41800000000E+01 0. -1.
         -5    1    3    3    0  502  0.15286954413E+02 -0.76737360478E+02  0.82067193489E+02  0.11346722045E+03  0.41800000000E+01 0. -1.
        -11    1    1    2    0    0 -0.26936910289E+02 -0.35877474884E+02 -0.42681577361E+02  0.61923399342E+02  0.00000000000E+00 0.  1.
         11    1    1    2    0    0 -0.16974091625E+02  0.69262358509E+02  0.24557515296E+02  0.75421917572E+02  0.00000000000E+00 0. -1.
</event>
<event>
 7    1  0.2794945E-009  0.1024407E+03  0.7561462E-02  0.1275246E+00
          2   -1    0    0  501    0  0.00000000000E+00  0.00000000000E+00  0.14149694370E+04  0.14149694370E+04  0.00000000000E+00 0. -1.
         -2   -1    0    0    0  501 -0.00000000000E+00 -0.00000000000E+00 -0.16907279298E+02  0.16907279298E+02  0.00000000000E+00 0.  1.
         25    2    1    2    0    0 -0.21370641061E+02  0.14965879667E+02  0.12439376406E+04  0.12504836812E+04  0.12509157131E+03 0.  0.
          5    1    3    3  502    0 -0.52647416034E+02 -0.27098727632E+02  0.34977416028E+03  0.35477531912E+03  0.41800000000E+01 0. -1.
         -5    1    3    3    0  502  0.31276774973E+02  0.42064607300E+02  0.89416348035E+03  0.89570836204E+03  0.41800000000E+01 0. -1.
        -11    1    1    2    0    0  0.10445702872E+02  0.37715317563E+02  0.44384477040E+02  0.59173809151E+02  0.00000000000E+00 0.  1.
         11    1    1    2    0    0  0.10924938189E+02 -0.52681197230E+02  0.10974004007E+03  0.12221922602E+03  0.00000000000E+00 0. -1.
</event>
<event>
 7    1  0.2794945E-009  0.1106183E+03  0.7561462E-02  0.1259429E+00
          3   -1    0    0  501    0  0.00000000000E+00  0.00000000000E+00  0.24567055695E+03  0.24567055695E+03  0.00000000000E+00 0. -1.
         -3   -1    0    0    0  501 -0.00000000000E+00 -0.00000000000E+00 -0.10753749078E+03  0.10753749078E+03  0.00000000000E+00 0.  1.
         25    2    1    2    0    0 -0.14882950181E+02 -0.53025353693E+02 -0.42381477583E+02  0.14310083501E+03  0.12509384077E+03 0.  0.
          5    1    3    3  502    0  0.88488139537E+01  0.38825319699E+02 -0.25332304453E+01  0.40119778347E+02  0.41800000000E+01 0.  1.
         -5    1    3    3    0  502 -0.23731764135E+02 -0.91850673393E+02 -0.39848247138E+02  0.10298105666E+03  0.41800000000E+01 0.  1.
        -11    1    1    2    0    0  0.26937977866E+02 -0.46323403140E+01  0.90275046953E+01  0.28785570505E+02  0.00000000000E+00 0.  1.
         11    1    1    2    0    0 -0.12055027685E+02  0.57657694007E+02  0.17148703905E+03  0.18132164221E+03  0.00000000000E+00 0. -1.
</event>
<event>
 7    1  0.2794945E-009  0.1109829E+03  0.7561462E-02  0.1258760E+00
         -1   -1    0    0    0  501 -0.00000000000E+00  0.00000000000E+00  0.18238272573E+02  0.18238272573E+02  0.00000000000E+00 0.  1.
          1   -1    0    0  501    0  0.00000000000E+00 -0.00000000000E+00 -0.74887848681E+03  0.74887848681E+03  0.00000000000E+00 0. -1.
         25    2    1    2    0    0  0.32284379872E+02 -0.18038014141E+02 -0.33746548324E+03  0.36179852793E+03  0.12509025260E+03 0.  0.
          5    1    3    3  502    0 -0.42264069874E+02  0.12582525024E+02 -0.17328131591E+03  0.17885317549E+03  0.41800000000E+01 0.  1.
         -5    1    3    3    0  502  0.74548449746E+02 -0.30620539165E+02 -0.16418416733E+03  0.18294535244E+03  0.41800000000E+01 0.  1.
        -11    1    1    2    0    0 -0.91645798684E+01 -0.36553581045E+02 -0.11973659423E+03  0.12552691269E+03  0.00000000000E+00 0.  1.
         11    1    1    2    0    0 -0.23119800004E+02  0.54591595186E+02 -0.27343813677E+03  0.27979131876E+03  0.00000000000E+00 0. -1.
</event>
<event>
 7    1  0.2794945E-009  0.1463491E+03  0.7561462E-02  0.1205032E+00
         -2   -1    0    0    0  501 -0.00000000000E+00  0.00000000000E+00  0.24342614424E+03  0.24342614424E+03  0.00000000000E+00 0.  1.
          2   -1    0    0  501    0  0.00000000000E+00 -0.00000000000E+00 -0.92950619245E+02  0.92950619245E+02  0.00000000000E+00 0. -1.
         25    2    1    2    0    0 -0.99259748054E+02 -0.10245292613E+02  0.44436544524E+02  0.16607115022E+03  0.12509019482E+03 0.  0.
          5    1    3    3  502    0 -0.11889355239E+03  0.22971556485E+02  0.32061309590E+02  0.12533462881E+03  0.41800000000E+01 0. -1.
         -5    1    3    3    0  502  0.19633804334E+02 -0.33216849099E+02  0.12375234934E+02  0.40736521407E+02  0.41800000000E+01 0. -1.
        -11    1    1    2    0    0  0.25714925822E+02 -0.37184375934E+02  0.28973553067E+02  0.53697318378E+02  0.00000000000E+00 0. -1.
         11    1    1    2    0    0  0.73544822232E+02  0.47429668547E+02  0.77065427403E+02  0.11660829489E+03  0.00000000000E+00 0.  1.
</event>
<event>
 7    1  0.2794945E-009  0.8916103E+02  0.7561462E-02  0.1304896E+00
         -2   -1    0    0    0  501 -0.00000000000E+00  0.00000000000E+00  0.22136318118E+02  0.22136318118E+02  0.00000000000E+00 0.  1.
          2   -1    0    0  501    0  0.00000000000E+00 -0.00000000000E+00 -0.66195013436E+03  0.66195013436E+03  0.00000000000E+00 0. -1.
         25    2    1    2    0    0 -0.49961776275E+01 -0.37945912289E+02 -0.47031430419E+03  0.48816541639E+03  0.12508027416E+03 0.  0.
          5    1    3    3  502    0 -0.27376680305E+02  0.12447843016E+02 -0.38687979629E+03  0.38806942755E+03  0.41800000000E+01 0.  1.
         -5    1    3    3    0  502  0.22380502677E+02 -0.50393755305E+02 -0.83434507897E+02  0.10009598884E+03  0.41800000000E+01 0.  1.
        -11    1    1    2    0    0  0.43043985727E+02  0.69833331395E+01 -0.11286344656E+03  0.12099466608E+03  0.00000000000E+00 0. -1.
         11    1    1    2    0    0 -0.38047808100E+02  0.30962579149E+02 -0.56636065488E+02  0.74926370009E+02  0.00000000000E+00 0.  1.
</event>
<event>
 7    1  0.2794945E-009  0.1421607E+03  0.7561462E-02  0.1210451E+00
          2   -1    0    0  501    0  0.00000000000E+00  0.00000000000E+00  0.22625586661E+03  0.22625586661E+03  0.00000000000E+00 0.  1.
         -2   -1    0    0    0  501 -0.00000000000E+00 -0.00000000000E+00 -0.96691573420E+02  0.96691573420E+02  0.00000000000E+00 0. -1.
         25    2    1    2    0    0 -0.97958136724E+02  0.71305002628E+01  0.96023863407E+02  0.18578438831E+03  0.12509442838E+03 0.  0.
          5    1    3    3  502    0 -0.11988052255E+03  0.28392688866E+02  0.93765933169E+02  0.15487739374E+03  0.41800000000E+01 0. -1.
         -5    1    3    3    0  502  0.21922385825E+02 -0.21262188603E+02  0.22579302378E+01  0.30906994571E+02  0.41800000000E+01 0. -1.
        -11    1    1    2    0    0 -0.34255026492E+01 -0.26746817754E+02 -0.40546377423E+01  0.27268414247E+02  0.00000000000E+00 0. -1.
         11    1    1    2    0    0  0.10138363937E+03  0.19616317491E+02  0.37595067530E+02  0.10989463748E+03  0.00000000000E+00 0.  1.
</event>
<event>
 7    1  0.2794945E-009  0.1892237E+03  0.7561462E-02  0.1159163E+00
         -2   -1    0    0    0  501 -0.00000000000E+00  0.00000000000E+00  0.21360880824E+03  0.21360880824E+03  0.00000000000E+00 0.  1.
          2   -1    0    0  501    0  0.00000000000E+00 -0.00000000000E+00 -0.18693234583E+03  0.18693234583E+03  0.00000000000E+00 0. -1.
         25    2    1    2    0    0  0.46931309513E+02  0.16121098070E+03  0.68345629901E+01  0.20948592726E+03  0.12508442893E+03 0.  0.
          5    1    3    3  502    0  0.52028503306E+02  0.92292471378E+01 -0.16649797294E+02  0.55559268434E+02  0.41800000000E+01 0.  1.
         -5    1    3    3    0  502 -0.50971937929E+01  0.15198173356E+03  0.23484360284E+02  0.15392665883E+03  0.41800000000E+01 0.  1.
        -11    1    1    2    0    0 -0.51318078728E+02 -0.10434101317E+03 -0.24471933130E+02  0.11882536659E+03  0.00000000000E+00 0. -1.
         11    1    1    2    0    0  0.43867692148E+01 -0.56869967528E+02  0.44313832557E+02  0.72229860215E+02  0.00000000000E+00 0.  1.
</event>
<event>
 7    1  0.2794945E-009  0.1188490E+03  0.7561462E-02  0.1245008E+00
          3   -1    0    0  501    0  0.00000000000E+00  0.00000000000E+00  0.12346626241E+03  0.12346626241E+03  0.00000000000E+00 0. -1.
         -3   -1    0    0    0  501 -0.00000000000E+00 -0.00000000000E+00 -0.18179957474E+03  0.18179957474E+03  0.00000000000E+00 0.  1.
         25    2    1    2    0    0  0.14469185944E+02  0.96375476808E+02 -0.40232579349E+01  0.15862319173E+03  0.12509012943E+03 0.  0.
          5    1    3    3  502    0  0.18020037947E+02  0.87195210846E+01  0.51024624847E+02  0.54970324324E+02  0.41800000000E+01 0. -1.
         -5    1    3    3    0  502 -0.35508520028E+01  0.87655955724E+02 -0.55047882781E+02  0.10365286741E+03  0.41800000000E+01 0. -1.
        -11    1    1    2    0    0 -0.14534592755E+02  0.13325799337E+02 -0.27279733115E+02  0.33660290453E+02  0.00000000000E+00 0.  1.
         11    1    1    2    0    0  0.65406811398E-01 -0.10970127615E+03 -0.27030321277E+02  0.11298235497E+03  0.00000000000E+00 0. -1.
</event>
<event>
 7    1  0.2794945E-009  0.1292903E+03  0.7561462E-02  0.1228513E+00
          1   -1    0    0  501    0  0.00000000000E+00  0.00000000000E+00  0.35167167745E+02  0.35167167745E+02  0.00000000000E+00 0. -1.
         -1   -1    0    0    0  501 -0.00000000000E+00 -0.00000000000E+00 -0.52676889179E+03  0.52676889179E+03  0.00000000000E+00 0.  1.
         25    2    1    2    0    0  0.22031436057E+02  0.75144108291E+02 -0.23449351491E+03  0.27706742573E+03  0.12508848341E+03 0.  0.
          5    1    3    3  502    0  0.70987484855E+02  0.65596510111E+02 -0.14065798873E+03  0.17071692165E+03  0.41800000000E+01 0. -1.
         -5    1    3    3    0  502 -0.48956048798E+02  0.95475981807E+01 -0.93835526182E+02  0.10635050408E+03  0.41800000000E+01 0. -1.
        -11    1    1    2    0    0 -0.23782111450E+02 -0.91904072641E+02 -0.24835443079E+03  0.26587942885E+03  0.00000000000E+00 0.  1.
         11    1    1    2    0    0  0.17506753930E+01  0.16759964350E+02 -0.87537783461E+01  0.18989204951E+02  0.00000000000E+00 0. -1.
</event>
<event>
 7    1  0.2794945E-009  0.1239122E+03  0.7561462E-02  0.1236779E+00
          2   -1    0    0  501    0  0.00000000000E+00  0.00000000000E+00  0.51798921271E+02  0.51798921271E+02  0.00000000000E+00 0. -1.
         -2   -1    0    0    0  501 -0.00000000000E+00 -0.00000000000E+00 -0.36272311495E+03  0.36272311495E+03  0.00000000000E+00 0.  1.
         25    2    1    2    0    0 -0.74492493351E+02  0.30685242625E+01 -0.98572431282E+02  0.17584933580E+03  0.12509163555E+03 0.  0.
          5    1    3    3  502    0 -0.56517293261E+02 -0.56966039276E+02 -0.39139068242E+02  0.89379377549E+02  0.41800000000E+01 0. -1.
         -5    1    3    3    0  502 -0.17975200091E+02  0.60034563538E+02 -0.59433363040E+02  0.86469958250E+02  0.41800000000E+01 0. -1.
        -11    1    1    2    0    0  0.72344680719E+02 -0.29511964024E+02 -0.12526857309E+03  0.14763781444E+03  0.00000000000E+00 0.  1.
         11    1    1    2    0    0  0.21478126321E+01  0.26443439762E+02 -0.87083189308E+02  0.91034885981E+02  0.00000000000E+00 0. -1.
</event>
<event>
 7    1  0.2794945E-009  0.9715173E+02  0.7561462E-02  0.1286402E+00
         -3   -1    0    0    0  501 -0.00000000000E+00  0.00000000000E+00  0.16864752420E+03  0.16864752420E+03  0.00000000000E+00 0. -1.
          3   -1    0    0  501    0  0.00000000000E+00 -0.00000000000E+00 -0.10484093495E+03  0.10484093495E+03  0.00000000000E+00 0.  1.
         25    2    1    2    0    0  0.58375828423E+02  0.25310780867E+02  0.64403705522E+02  0.15443784590E+03  0.12511929503E+03 0.  0.
          5    1    3    3  502    0  0.37706627170E+01 -0.37326217786E+02  0.60292117270E+02  0.71134212841E+02  0.41800000000E+01 0. -1.
         -5    1    3    3    0  502  0.54605165706E+02  0.62636998654E+02  0.41115882513E+01  0.83303633055E+02  0.41800000000E+01 0. -1.
        -11    1    1    2    0    0 -0.46798166503E+02 -0.14372362494E+01 -0.46527630279E+02  0.66007230024E+02  0.00000000000E+00 0.  1.
         11    1    1    2    0    0 -0.11577661921E+02 -0.23873544618E+02  0.45930514000E+02  0.53043383230E+02  0.00000000000E+00 0. -1.
</event>
<event>
 7    1  0.2794945E-009  0.4066224E+03  0.7561462E-02  0.1041510E+00
         -2   -1    0    0    0  501 -0.00000000000E+00  0.00000000000E+00  0.29071713033E+03  0.29071713033E+03  0.00000000000E+00 0.  1.
          2   -1    0    0  501    0  0.00000000000E+00 -0.00000000000E+00 -0.62667238711E+03  0.62667238711E+03  0.00000000000E+00 0. -1.
         25    2    1    2    0    0 -0.30536970475E+03 -0.26273977421E+03 -0.26378947264E+03  0.49751499189E+03  0.12511369128E+03 0.  0.
          5    1    3    3  502    0 -0.19276231805E+03 -0.19704311106E+03 -0.11248492696E+03  0.29774759457E+03  0.41800000000E+01 0.  1.
         -5    1    3    3    0  502 -0.11260738670E+03 -0.65696663144E+02 -0.15130454568E+03  0.19976739732E+03  0.41800000000E+01 0.  1.
        -11    1    1    2    0    0  0.15613422096E+03  0.17276694091E+03 -0.77816986516E+02  0.24552351051E+03  0.00000000000E+00 0. -1.
         11    1    1    2    0    0  0.14923548380E+03  0.89972833299E+02  0.56512023771E+01  0.17435101504E+03  0.00000000000E+00 0.  1.
</event>
<event>
 7    1  0.2794945E-009  0.9791677E+02  0.7561462E-02  0.1284739E+00
          3   -1    0    0  501    0  0.00000000000E+00  0.00000000000E+00  0.58786606425E+02  0.58786606425E+02  0.00000000000E+00 0. -1.
         -3   -1    0    0    0  501 -0.00000000000E+00 -0.00000000000E+00 -0.22745446843E+03  0.22745446843E+03  0.00000000000E+00 0.  1.
         25    2    1    2    0    0 -0.16544194034E+02 -0.34168118123E+02 -0.11411891589E+03  0.17352920262E+03  0.12509231210E+03 0.  0.
          5    1    3    3  502    0  0.60241606834E+01 -0.68851028661E+02 -0.22320727596E+02  0.72749171404E+02  0.41800000000E+01 0. -1.
         -5    1    3    3    0  502 -0.22568354718E+02  0.34682910538E+02 -0.91798188298E+02  0.10078003122E+03  0.41800000000E+01 0. -1.
        -11    1    1    2    0    0  0.15139160043E+02  0.58603654003E+02 -0.62472842783E+02  0.86985277575E+02  0.00000000000E+00 0.  1.
         11    1    1    2    0    0  0.14050339912E+01 -0.24435535880E+02  0.79238966692E+01  0.25726594658E+02  0.00000000000E+00 0. -1.
</event>
<event>
 7    1  0.2794945E-009  0.1419527E+03  0.7561462E-02  0.1210725E+00
          1   -1    0    0  501    0  0.00000000000E+00  0.00000000000E+00  0.15575232408E+03  0.15575232408E+03  0.00000000000E+00 0. -1.
         -1   -1    0    0    0  501 -0.00000000000E+00 -0.00000000000E+00 -0.13852757648E+03  0.13852757648E+03  0.00000000000E+00 0.  1.
         25    2    1    2    0    0 -0.26911613236E+02  0.92906784149E+02 -0.74082366917E+01  0.15829931034E+03  0.12509150337E+03 0.  0.
          5    1    3    3  502    0 -0.31544590692E+02 -0.20849639069E+02  0.17190799599E+02  0.41746432687E+02  0.41800000000E+01 0. -1.
         -5    1    3    3    0  502  0.46329774560E+01  0.11375642322E+03 -0.24599036291E+02  0.11655287766E+03  0.41800000000E+01 0. -1.
        -11    1    1    2    0    0 -0.32317400135E+02 -0.20013488747E+02 -0.28502956990E+01  0.38119263751E+02  0.00000000000E+00 0.  1.
         11    1    1    2    0    0  0.59229013371E+02 -0.72893295402E+02  0.27483279988E+02  0.97861326469E+02  0.00000000000E+00 0. -1.
</event>
<event>
 7    1  0.2794945E-009  0.1478338E+03  0.7561462E-02  0.1203160E+00
          2   -1    0    0  501    0  0.00000000000E+00  0.00000000000E+00  0.14200194558E+03  0.14200194558E+03  0.00000000000E+00 0. -1.
         -2   -1    0    0    0  501 -0.00000000000E+00 -0.00000000000E+00 -0.17568839325E+03  0.17568839325E+03  0.00000000000E+00 0.  1.
         25    2    1    2    0    0 -0.14071368826E+02  0.10180439973E+03 -0.70898644036E+02  0.17674236602E+03  0.12509639082E+03 0.  0.
          5    1    3    3  502    0 -0.68189934940E+02  0.74693126258E+02 -0.44548706080E+02  0.11059380611E+03  0.41800000000E+01 0.  1.
         -5    1    3    3    0  502  0.54118566114E+02  0.27111273474E+02 -0.26349937956E+02  0.66148559907E+02  0.41800000000E+01 0.  1.
        -11    1    1    2    0    0 -0.11832730742E+02 -0.10674447507E+03  0.19429890818E+02  0.10914172956E+03  0.00000000000E+00 0.  1.
         11    1    1    2    0    0  0.25904099568E+02  0.49400753357E+01  0.17782305551E+02  0.31806243247E+02  0.00000000000E+00 0. -1.
</event>
<event>
 7    1  0.2794945E-009  0.1017060E+03  0.7561462E-02  0.1276749E+00
          2   -1    0    0  501    0  0.00000000000E+00  0.00000000000E+00  0.35701334367E+03  0.35701334367E+03  0.00000000000E+00 0. -1.
         -2   -1    0    0    0  501 -0.00000000000E+00 -0.00000000000E+00 -0.40615499630E+02  0.40615499630E+02  0.00000000000E+00 0.  1.
         25    2    1    2    0    0 -0.21812907648E+02  0.39510237244E+02  0.22256737863E+03  0.25926945058E+03  0.12509016023E+03 0.  0.
          5    1    3    3  502    0 -0.38040733565E+02 -0.30315919422E+02  0.14757321882E+03  0.15543963360E+03  0.41800000000E+01 0.  1.
         -5    1    3    3    0  502  0.16227825917E+02  0.69826156667E+02  0.74994159808E+02  0.10382981698E+03  0.41800000000E+01 0.  1.
        -11    1    1    2    0    0  0.29858486856E+02  0.10859913742E+02  0.79136722569E+02  0.85276537352E+02  0.00000000000E+00 0. -1.
         11    1    1    2    0    0 -0.80455792081E+01 -0.50370150987E+02  0.14693742840E+02  0.53082855366E+02  0.00000000000E+00 0.  1.
</event>
<event>
 7    1  0.2794945E-009  0.1091828E+03  0.7561462E-02  0.1262091E+00
         -2   -1    0    0    0  501 -0.00000000000E+00  0.00000000000E+00  0.40721030790E+02  0.40721030790E+02  0.00000000000E+00 0.  1.
          2   -1    0    0  501    0  0.00000000000E+00 -0.00000000000E+00 -0.44452936965E+03  0.44452936965E+03  0.00000000000E+00 0. -1.
         25    2    1    2    0    0 -0.44402305522E+02  0.65102594078E+02 -0.25644829743E+03  0.29601322579E+03  0.12509271800E+03 0.  0.
          5    1    3    3  502    0 -0.65358655754E+02 -0.55570330664E+01 -0.17041113443E+03  0.18264736964E+03  0.41800000000E+01 0.  1.
         -5    1    3    3    0  502  0.20956350233E+02  0.70659627145E+02 -0.86037162999E+02  0.11336585615E+03  0.41800000000E+01 0.  1.
        -11    1    1    2    0    0  0.25316635182E+02 -0.35770253880E+02 -0.67522920020E+01  0.44340010451E+02  0.00000000000E+00 0.  1.
         11    1    1    2    0    0  0.19085670340E+02 -0.29332340199E+02 -0.14060774943E+03  0.14489716420E+03  0.00000000000E+00 0. -1.
</event>
<event>
 7    1  0.2950331E-009  0.1534670E+03  0.7561462E-02  0.1196276E+00
         -2   -1    0    0    0  501 -0.00000000000E+00  0.00000000000E+00  0.33495118569E+02  0.33495118569E+02  0.00000000000E+00 0.  1.
          2   -1    0    0  501    0  0.00000000000E+00 -0.00000000000E+00 -0.80751361904E+03  0.80751361904E+03  0.00000000000E+00 0. -1.
         25    2    1    2    0    0  0.51543003824E+02  0.10699308960E+03 -0.32677270415E+03  0.36950309305E+03  0.12509169890E+03 0.  0.
          5    1    3    3  502    0  0.66390405487E+02  0.12876168872E+03 -0.26126839830E+03  0.29877400619E+03  0.41800000000E+01 0.  1.
         -5    1    3    3    0  502 -0.14847401663E+02 -0.21768599124E+02 -0.65504305846E+02  0.70729086862E+02  0.41800000000E+01 0.  1.
        -11    1    1    2    0    0  0.86714459164E+01 -0.55267391275E+02 -0.93463627138E+02  0.10892716883E+03  0.00000000000E+00 0.  1.
         11    1    1    2    0    0 -0.60214449740E+02 -0.51725698322E+02 -0.35378216919E+03  0.36257847572E+03  0.00000000000E+00 0. -1.
</event>
<event>
 7    1  0.2794945E-009  0.3530152E+02  0.7561462E-02  0.1545939E+00
         -2   -1    0    0    0  501 -0.00000000000E+00  0.00000000000E+00  0.10138503696E+03  0.10138503696E+03  0.00000000000E+00 0.  1.
          2   -1    0    0  501    0  0.00000000000E+00 -0.00000000000E+00 -0.11918311350E+03  0.11918311350E+03  0.00000000000E+00 0. -1.
         25    2    1    2    0    0  0.12698345333E+02  0.40310583204E+01 -0.17836467621E+02  0.12705130914E+03  0.12508556340E+03 0.  0.
          5    1    3    3  502    0 -0.88135766811E+01 -0.19377763776E+01  0.52347459634E+02  0.53283797175E+02  0.41800000000E+01 0.  1.
         -5    1    3    3    0  502  0.21511922014E+02  0.59688346979E+01 -0.70183927255E+02  0.73767511964E+02  0.41800000000E+01 0.  1.
        -11    1    1    2    0    0 -0.97488475931E+01 -0.19711126310E+02  0.42666886866E+02  0.48000330880E+02  0.00000000000E+00 0.  1.
         11    1    1    2    0    0 -0.29494977397E+01  0.15680067990E+02 -0.42628495787E+02  0.45516510434E+02  0.00000000000E+00 0. -1.
</event>
<event>
 7    1  0.2794945E-009  0.9760249E+02  0.7561462E-02  0.1285420E+00
         -2   -1    0    0    0  501 -0.00000000000E+00  0.00000000000E+00  0.16444243729E+02  0.16444243729E+02  0.00000000000E+00 0. -1.
          2   -1    0    0  501    0  0.00000000000E+00 -0.00000000000E+00 -0.95579420873E+03  0.95579420873E+03  0.00000000000E+00 0.  1.
         25    2    1    2    0    0  0.14815951568E+02  0.21943598005E+01 -0.76461566827E+03  0.77492509855E+03  0.12508981001E+03 0.  0.
          5    1    3    3  502    0 -0.15947803102E+02 -0.45319467986E+02 -0.57443184560E+03  0.57645260364E+03  0.41800000000E+01 0.  1.
         -5    1    3    3    0  502  0.30763754670E+02  0.47513827787E+02 -0.19018382267E+03  0.19847249491E+03  0.41800000000E+01 0.  1.
        -11    1    1    2    0    0  0.32306233794E+02 -0.22022310118E+02 -0.93304580410E+02  0.10116530833E+03  0.00000000000E+00 0.  1.
         11    1    1    2    0    0 -0.47122185362E+02  0.19827950317E+02 -0.81429716322E+02  0.96148045572E+02  0.00000000000E+00 0. -1.
</event>
<event>
 7    1  0.2794945E-009  0.1452915E+03  0.7561462E-02  0.1206381E+00
         -1   -1    0    0    0  501 -0.00000000000E+00  0.00000000000E+00  0.40983911880E+02  0.40983911880E+02  0.00000000000E+00 0.  1.
          1   -1    0    0  501    0  0.00000000000E+00 -0.00000000000E+00 -0.11943918456E+04  0.11943918456E+04  0.00000000000E+00 0. -1.
         25    2    1    2    0    0 -0.21985756565E+02 -0.11042568609E+03 -0.10338876737E+04  0.10474963167E+04  0.12509039132E+03 0.  0.
          5    1    3    3  502    0 -0.54774701634E+02 -0.10258752158E+03 -0.53776205814E+03  0.55020902492E+03  0.41800000000E+01 0. -1.
         -5    1    3    3    0  502  0.32788945069E+02 -0.78381645119E+01 -0.49612561557E+03  0.49728729178E+03  0.41800000000E+01 0. -1.
        -11    1    1    2    0    0 -0.22787251509E+02  0.19269734023E+01 -0.40094315129E+02  0.46157623027E+02  0.00000000000E+00 0. -1.
         11    1    1    2    0    0  0.44773008073E+02  0.10849871269E+03 -0.79425944873E+02  0.14172181775E+03  0.00000000000E+00 0.  1.
</event>
<event>
 7    1  0.2794945E-009  0.1030962E+03  0.7561462E-02  0.1273917E+00
         -1   -1    0    0    0  501 -0.00000000000E+00  0.00000000000E+00  0.17624445619E+03  0.17624445619E+03  0.00000000000E+00 0.  1.
          1   -1    0    0  501    0  0.00000000000E+00 -0.00000000000E+00 -0.91653331918E+02  0.91653331918E+02  0.00000000000E+00 0. -1.
         25    2    1    2    0    0 -0.38999716308E+02 -0.10154510270E+02  0.10229979423E+03  0.16654480794E+03  0.12509129946E+03 0.  0.
          5    1    3    3  502    0  0.17947441782E+02 -0.55517745689E+02  0.45492460057E+02  0.74103758845E+02  0.41800000000E+01 0. -1.
         -5    1    3    3    0  502 -0.56947158089E+02  0.45363235419E+02  0.56807334168E+02  0.92441049093E+02  0.41800000000E+01 0. -1.
        -11    1    1    2    0    0  0.43532152182E+02  0.30996907873E+02  0.20788980064E+02  0.57341418394E+02  0.00000000000E+00 0.  1.
         11    1    1    2    0    0 -0.45324358746E+01 -0.20842397603E+02 -0.38497650019E+02  0.44011561774E+02  0.00000000000E+00 0. -1.
</event>
<event>
 7    1  0.2794945E-009  0.1162121E+03  0.7561462E-02  0.1249480E+00
         -2   -1    0    0    0  501 -0.00000000000E+00  0.00000000000E+00  0.89239058816E+02  0.89239058816E+02  0.00000000000E+00 0.  1.
          2   -1    0    0  501    0  0.00000000000E+00 -0.00000000000E+00 -0.21620128065E+03  0.21620128065E+03  0.00000000000E+00 0. -1.
         25    2    1    2    0    0 -0.21849663670E+02  0.70695817497E+02 -0.11939307093E+03  0.18808634603E+03  0.12508581760E+03 0.  0.
          5    1    3    3  502    0 -0.22352267894E+02 -0.16623094137E+02  0.11714139308E+02  0.30506468141E+02  0.41800000000E+01 0.  1.
         -5    1    3    3    0  502  0.50260422431E+00  0.87318911633E+02 -0.13110721024E+03  0.15757987789E+03  0.41800000000E+01 0.  1.
        -11    1    1    2    0    0  0.55025384362E+02 -0.25180464173E+02  0.85381968826E-01  0.60513271191E+02  0.00000000000E+00 0. -1.
         11    1    1    2    0    0 -0.33175720692E+02 -0.45515353324E+02 -0.76545328708E+01  0.56840722243E+02  0.00000000000E+00 0.  1.
</event>
<event>
 7    1  0.2794945E-009  0.1024599E+03  0.7561462E-02  0.1275207E+00
          1   -1    0    0  501    0  0.00000000000E+00  0.00000000000E+00  0.62342034611E+03  0.62342034611E+03  0.00000000000E+00 0. -1.
         -1   -1    0    0    0  501 -0.00000000000E+00 -0.00000000000E+00 -0.27238507180E+02  0.27238507180E+02  0.00000000000E+00 0.  1.
         25    2    1    2    0    0  0.13910216208E+02 -0.18940886216E+02  0.49934067469E+03  0.51530665907E+03  0.12509033612E+03 0.  0.
          5    1    3    3  502    0  0.57549810174E+02 -0.38665017128E+02  0.19092273507E+03  0.20316477885E+03  0.41800000000E+01 0. -1.
         -5    1    3    3    0  502 -0.43639593966E+02  0.19724130912E+02  0.30841793963E+03  0.31214188022E+03  0.41800000000E+01 0. -1.
        -11    1    1    2    0    0  0.19787157511E+02 -0.25083658257E+02  0.12259869327E+02  0.34220255841E+02  0.00000000000E+00 0. -1.
         11    1    1    2    0    0 -0.33697373719E+02  0.44024544473E+02  0.84581294907E+02  0.10113193838E+03  0.00000000000E+00 0.  1.
</event>
<event>
 7    1  0.2794945E-009  0.8804517E+02  0.7561462E-02  0.1307656E+00
         -2   -1    0    0    0  501 -0.00000000000E+00  0.00000000000E+00  0.44089136587E+02  0.44089136587E+02  0.00000000000E+00 0.  1.
          2   -1    0    0  501    0  0.00000000000E+00 -0.00000000000E+00 -0.30880165948E+03  0.30880165948E+03  0.00000000000E+00 0. -1.
         25    2    1    2    0    0 -0.90825274858E+01 -0.36739434748E+02 -0.17960778820E+03  0.22212401746E+03  0.12509133935E+03 0.  0.
          5    1    3    3  502    0  0.35071921202E+02  0.22629476571E+02 -0.11968107840E+03  0.12681942199E+03  0.41800000000E+01 0.  1.
         -5    1    3    3    0  502 -0.44154448688E+02 -0.59368911319E+02 -0.59926709796E+02  0.95304595467E+02  0.41800000000E+01 0.  1.
        -11    1    1    2    0    0  0.18985995795E+02  0.43890460018E+02 -0.10039124982E+03  0.11119911671E+03  0.00000000000E+00 0. -1.
         11    1    1    2    0    0 -0.99034683091E+01 -0.71510252701E+01  0.15286515132E+02  0.19567661890E+02  0.00000000000E+00 0.  1.
</event>
<event>
 7    1  0.2794945E-009  0.1005425E+03  0.7561462E-02  0.1279159E+00
          1   -1    0    0  501    0  0.00000000000E+00  0.00000000000E+00  0.95865021705E+03  0.95865021705E+03  0.00000000000E+00 0. -1.
         -1   -1    0    0    0  501 -0.00000000000E+00 -0.00000000000E+00 -0.17455026311E+02  0.17455026311E+02  0.00000000000E+00 0.  1.
         25    2    1    2    0    0 -0.43495656383E+02 -0.50759974603E+02  0.62189171180E+03  0.63785949502E+03  0.12508791722E+03 0.  0.
          5    1    3    3  502    0  0.25198306953E+02 -0.22464647529E+02  0.44031998774E+03  0.44163194978E+03  0.41800000000E+01 0. -1.
         -5    1    3    3    0  502 -0.68693963336E+02 -0.28295327074E+02  0.18157172406E+03  0.19622754524E+03  0.41800000000E+01 0. -1.
        -11    1    1    2    0    0  0.43259388460E+02  0.65183836790E+02  0.31277678527E+03  0.32241219684E+03  0.00000000000E+00 0. -1.
         11    1    1    2    0    0  0.23626792269E+00 -0.14423862187E+02  0.65266936715E+01  0.15833551503E+02  0.00000000000E+00 0.  1.
</event>
<event>
 7    1  0.2794945E-009  0.1250894E+03  0.7561462E-02  0.1234930E+00
          2   -1    0    0  501    0  0.00000000000E+00  0.00000000000E+00  0.35948108986E+03  0.35948108986E+03  0.00000000000E+00 0. -1.
         -2   -1    0    0    0  501 -0.00000000000E+00 -0.00000000000E+00 -0.74601106267E+02  0.74601106267E+02  0.00000000000E+00 0.  1.
         25    2    1    2    0    0 -0.69134692019E+01 -0.11685248038E+03  0.99590109815E+02  0.19816324790E+03  0.12509270411E+03 0.  0.
          5    1    3    3  502    0 -0.24709107651E+02 -0.70213168647E+02  0.12224542386E+03  0.14318465388E+03  0.41800000000E+01 0. -1.
         -5    1    3    3    0  502  0.17795638449E+02 -0.46639311730E+02 -0.22655314044E+02  0.54978594024E+02  0.41800000000E+01 0. -1.
        -11    1    1    2    0    0  0.26334973894E+02  0.71603261933E+02  0.16662221356E+03  0.18325806946E+03  0.00000000000E+00 0. -1.
         11    1    1    2    0    0 -0.19421504692E+02  0.45249218444E+02  0.18667660217E+02  0.52660878765E+02  0.00000000000E+00 0.  1.
</event>
<event>
 7    1  0.2794945E-009  0.1714093E+03  0.7561462E-02  0.1176386E+00
         -1   -1    0    0    0  501 -0.00000000000E+00  0.00000000000E+00  0.48201284665E+02  0.48201284665E+02  0.00000000000E+00 0.  1.
          1   -1    0    0  501    0  0.00000000000E+00 -0.00000000000E+00 -0.77789443357E+03  0.77789443357E+03  0.00000000000E+00 0. -1.
         25    2    1    2    0    0  0.12854458554E+03  0.74985248241E+02 -0.50961402843E+03  0.54543635321E+03  0.12509140459E+03 0.  0.
          5    1    3    3  502    0  0.12617911511E+03  0.13552521225E+02 -0.27555941157E+03  0.30340616610E+03  0.41800000000E+01 0.  1.
         -5    1    3    3    0  502  0.23654704322E+01  0.61432727016E+02 -0.23405461686E+03  0.24203018711E+03  0.41800000000E+01 0.  1.
        -11    1    1    2    0    0 -0.85001003754E+02 -0.70533218706E+02 -0.20758296085E+03  0.23513993964E+03  0.00000000000E+00 0. -1.
         11    1    1    2    0    0 -0.43543581789E+02 -0.44520295346E+01 -0.12496159626E+02  0.45519425385E+02  0.00000000000E+00 0.  1.
</event>
<event>
 7    1  0.2794945E-009  0.1629858E+03  0.7561462E-02  0.1185366E+00
         -1   -1    0    0    0  501 -0.00000000000E+00  0.00000000000E+00  0.23337005428E+03  0.23337005428E+03  0.00000000000E+00 0.  1.
          1   -1    0    0  501    0  0.00000000000E+00 -0.00000000000E+00 -0.24263013540E+03  0.24263013540E+03  0.00000000000E+00 0. -1.
         25    2    1    2    0    0 -0.14252549173E+03  0.23357782828E+02 -0.16413158894E+03  0.25190749414E+03  0.12513634686E+03 0.  0.
          5    1    3    3  502    0  0.86342883531E+01 -0.12691615206E+02  0.97562278462E+01  0.18662379636E+02  0.41800000000E+01 0.  1.
         -5    1    3    3    0  502 -0.15115978008E+03  0.36049398034E+02 -0.17388781679E+03  0.23324511450E+03  0.41800000000E+01 0.  1.
        -11    1    1    2    0    0  0.11281074776E+03 -0.41023073324E+02  0.14480131206E+03  0.18808662188E+03  0.00000000000E+00 0. -1.
         11    1    1    2    0    0  0.29714743967E+02  0.17665290496E+02  0.10070195761E+02  0.36006073654E+02  0.00000000000E+00 0.  1.
</event>
<event>
 7    1  0.2794945E-009  0.1867902E+03  0.7561462E-02  0.1161389E+00
          2   -1    0    0  501    0  0.00000000000E+00  0.00000000000E+00  0.30860302884E+03  0.30860302884E+03  0.00000000000E+00 0. -1.
         -2   -1    0    0    0  501 -0.00000000000E+00 -0.00000000000E+00 -0.15952176305E+03  0.15952176305E+03  0.00000000000E+00 0.  1.
         25    2    1    2    0    0 -0.10724357508E+01 -0.15497989485E+03  0.20149230620E+03  0.28331439815E+03  0.12509188949E+03 0.  0.
          5    1    3    3  502    0 -0.54992898335E+01  0.20604710495E+02  0.11677562620E+02  0.24670511790E+02  0.41800000000E+01 0.  1.
         -5    1    3    3    0  502  0.44268540827E+01 -0.17558460535E+03  0.18981474358E+03  0.25864388636E+03  0.41800000000E+01 0.  1.
        -11    1    1    2    0    0  0.42011834964E+02  0.66382562303E+02 -0.33460808915E+02  0.85388902020E+02  0.00000000000E+00 0.  1.
         11    1    1    2    0    0 -0.40939399214E+02  0.88597332550E+02 -0.18950231497E+02  0.99421491725E+02  0.00000000000E+00 0. -1.
</event>
<event>
 7    1  0.2794945E-009  0.1582775E+03  0.7561462E-02  0.1190655E+00
          1   -1    0    0  501    0  0.00000000000E+00  0.00000000000E+00  0.21894018525E+03  0.21894018525E+03  0.00000000000E+00 0. -1.
         -1   -1    0    0    0  501 -0.00000000000E+00 -0.00000000000E+00 -0.15881504099E+03  0.15881504099E+03  0.00000000000E+00 0.  1.
         25    2    1    2    0    0  0.14499109015E+03 -0.38296283744E+02  0.52350011141E+02  0.20217999350E+03  0.12508878660E+03 0.  0.
          5    1    3    3  502    0  0.10393800293E+03 -0.44517445823E+02  0.91075491625E+02  0.14524850777E+03  0.41800000000E+01 0.  1.
         -5    1    3    3    0  502  0.41053087223E+02  0.62211620789E+01 -0.38725480484E+02  0.56931485725E+02  0.41800000000E+01 0.  1.
        -11    1    1    2    0    0 -0.11800965984E+03  0.40522276586E+01 -0.25413996747E+02  0.12078315941E+03  0.00000000000E+00 0.  1.
         11    1    1    2    0    0 -0.26981430308E+02  0.34244056085E+02  0.33189129867E+02  0.54792073331E+02  0.00000000000E+00 0. -1.
</event>
<event>
 7    1  0.2794945E-009  0.1140405E+03  0.7561462E-02  0.1253265E+00
          1   -1    0    0  501    0  0.00000000000E+00  0.00000000000E+00  0.20385954919E+03  0.20385954919E+03  0.00000000000E+00 0. -1.
         -1   -1    0    0    0  501 -0.00000000000E+00 -0.00000000000E+00 -0.72004336274E+02  0.72004336274E+02  0.00000000000E+00 0.  1.
         25    2    1    2    0    0 -0.42275176237E+02 -0.20682344662E+02  0.41357370051E+02  0.13989940744E+03  0.12508581949E+03 0.  0.
          5    1    3    3  502    0 -0.53135224708E+02  0.40976821674E+02  0.37620910906E+02  0.77040621471E+02  0.41800000000E+01 0. -1.
         -5    1    3    3    0  502  0.10860048471E+02 -0.61659166337E+02  0.37364591457E+01  0.62858785966E+02  0.41800000000E+01 0. -1.
        -11    1    1    2    0    0  0.38201194353E+02  0.53109311976E+02  0.75805531108E+02  0.10013195701E+03  0.00000000000E+00 0. -1.
         11    1    1    2    0    0  0.40739818846E+01 -0.32426967314E+02  0.14692311760E+02  0.35832521017E+02  0.00000000000E+00 0.  1.
</event>
<event>
 7    1  0.2794945E-009  0.8033572E+02  0.7561462E-02  0.1328101E+00
         -2   -1    0    0    0  501 -0.00000000000E+00  0.00000000000E+00  0.30578938120E+02  0.30578938120E+02  0.00000000000E+00 0.  1.
          2   -1    0    0  501    0  0.00000000000E+00 -0.00000000000E+00 -0.39667584527E+03  0.39667584527E+03  0.00000000000E+00 0. -1.
         25    2    1    2    0    0 -0.24724512672E+02  0.16553932040E+02 -0.24972254085E+03  0.28087976243E+03  0.12508700710E+03 0.  0.
          5    1    3    3  502    0 -0.27398610943E+02  0.51734027567E+02 -0.23534465222E+03  0.24255240922E+03  0.41800000000E+01 0.  1.
         -5    1    3    3    0  502  0.26740982710E+01 -0.35180095527E+02 -0.14377888621E+02  0.38327353209E+02  0.41800000000E+01 0.  1.
        -11    1    1    2    0    0  0.37690360834E+02 -0.29701769599E+02 -0.11844216307E+03  0.12779399207E+03  0.00000000000E+00 0. -1.
         11    1    1    2    0    0 -0.12965848162E+02  0.13147837559E+02  0.20677967615E+01  0.18581028887E+02  0.00000000000E+00 0.  1.
</event>
<event>
 7    1  0.2794945E-009  0.9372178E+02  0.7561462E-02  0.1294081E+00
         -3   -1    0    0    0  501 -0.00000000000E+00  0.00000000000E+00  0.20523028862E+02  0.20523028862E+02  0.00000000000E+00 0.  1.
          3   -1    0    0  501    0  0.00000000000E+00 -0.00000000000E+00 -0.71208826926E+03  0.71208826926E+03  0.00000000000E+00 0. -1.
         25    2    1    2    0    0  0.36756148937E+01 -0.39708297778E+02 -0.44851329976E+03  0.46733593651E+03  0.12509371862E+03 0.  0.
          5    1    3    3  502    0  0.30812071281E+01  0.22185602436E+02 -0.35114514137E+03  0.35188361357E+03  0.41800000000E+01 0. -1.
         -5    1    3    3    0  502  0.59440776562E+00 -0.61893900213E+02 -0.97368158388E+02  0.11545232294E+03  0.41800000000E+01 0. -1.
        -11    1    1    2    0    0  0.40654465817E+02 -0.33870284847E+01 -0.64458906572E+02  0.76283734762E+02  0.00000000000E+00 0.  1.
         11    1    1    2    0    0 -0.44330080711E+02  0.43095326262E+02 -0.17859303406E+03  0.18899162685E+03  0.00000000000E+00 0. -1.
</event>
<event>
 7    1  0.2794945E-009  0.1330629E+03  0.7561462E-02  0.1222980E+00
          1   -1    0    0  501    0  0.00000000000E+00  0.00000000000E+00  0.13297376116E+03  0.13297376116E+03  0.00000000000E+00 0. -1.
         -1   -1    0    0    0  501 -0.00000000000E+00 -0.00000000000E+00 -0.23194563776E+03  0.23194563776E+03  0.00000000000E+00 0.  1.
         25    2    1    2    0    0  0.63613952923E+02  0.73716386335E+02 -0.15297036935E+03  0.22029183918E+03  0.12509084655E+03 0.  0.
          5    1    3    3  502    0  0.90173792386E+02  0.11957687324E+02 -0.83983958313E+02  0.12387524681E+03  0.41800000000E+01 0. -1.
         -5    1    3    3    0  502 -0.26559839462E+02  0.61758699011E+02 -0.68986411041E+02  0.96416592369E+02  0.41800000000E+01 0. -1.
        -11    1    1    2    0    0 -0.19284041245E+02 -0.57265213921E+02  0.72033062576E+02  0.94020960835E+02  0.00000000000E+00 0. -1.
         11    1    1    2    0    0 -0.44329911678E+02 -0.16451172414E+02 -0.18034569825E+02  0.50606598897E+02  0.00000000000E+00 0.  1.
</event>
<event>
 7    1  0.2794945E-009  0.1496233E+03  0.7561462E-02  0.1200937E+00
          2   -1    0    0  501    0  0.00000000000E+00  0.00000000000E+00  0.38412344186E+03  0.38412344186E+03  0.00000000000E+00 0. -1.
         -2   -1    0    0    0  501 -0.00000000000E+00 -0.00000000000E+00 -0.62285481821E+02  0.62285481821E+02  0.00000000000E+00 0.  1.
         25    2    1    2    0    0 -0.58739920575E+02  0.80460240211E+02  0.22491140894E+03  0.27594539234E+03  0.12504594819E+03 0.  0.
          5    1    3    3  502    0 -0.21407595504E+01 -0.32694696359E+02  0.53095689480E+02  0.62531197516E+02  0.41800000000E+01 0.  1.
         -5    1    3    3    0  502 -0.56599161025E+02  0.11315493657E+03  0.17181571946E+03  0.21341419483E+03  0.41800000000E+01 0.  1.
        -11    1    1    2    0    0  0.43359153861E+02  0.12719160771E+02  0.38878485710E+02  0.59609814002E+02  0.00000000000E+00 0. -1.
         11    1    1    2    0    0  0.15380766714E+02 -0.93179400982E+02  0.58048065386E+02  0.11085371734E+03  0.00000000000E+00 0.  1.
</event>
<event>
 7    1  0.2794945E-009  0.1050927E+03  0.7561462E-02  0.1269937E+00
         -1   -1    0    0    0  501 -0.00000000000E+00  0.00000000000E+00  0.36569482994E+02  0.36569482994E+02  0.00000000000E+00 0.  1.
          1   -1    0    0  501    0  0.00000000000E+00 -0.00000000000E+00 -0.37588538876E+03  0.37588538876E+03  0.00000000000E+00 0. -1.
         25    2    1    2    0    0  0.34887409440E+02 -0.11806140860E+02 -0.20620722753E+03  0.24397850258E+03  0.12509025835E+03 0.  0.
          5    1    3    3  502    0 -0.30289404963E+02 -0.41891244781E+02 -0.50116076291E+02  0.72120856520E+02  0.41800000000E+01 0. -1.
         -5    1    3    3    0  502  0.65176814403E+02  0.30085103920E+02 -0.15609115124E+03  0.17185764606E+03  0.41800000000E+01 0. -1.
        -11    1    1    2    0    0 -0.35118633080E+02  0.42831957537E+02 -0.34861144606E+02  0.65446118136E+02  0.00000000000E+00 0.  1.
         11    1    1    2    0    0  0.23122364022E+00 -0.31025816677E+02 -0.98247533624E+02  0.10303025103E+03  0.00000000000E+00 0. -1.
</event>
<event>
 7    1  0.2794945E-009  0.9017834E+02  0.7561462E-02  0.1302420E+00
         -1   -1    0    0    0  501 -0.00000000000E+00  0.00000000000E+00  0.22249905446E+02  0.22249905446E+02  0.00000000000E+00 0.  1.
          1   -1    0    0  501    0  0.00000000000E+00 -0.00000000000E+00 -0.59186318541E+03  0.59186318541E+03  0.00000000000E+00 0. -1.
         25    2    1    2    0    0  0.34669678281E+02 -0.11294453364E+02 -0.30598618219E+03  0.33256874052E+03  0.12507946358E+03 0.  0.
          5    1    3    3  502    0  0.20424391789E+02 -0.45413220823E+02 -0.40041394076E+02  0.64033600906E+02  0.41800000000E+01 0. -1.
         -5    1    3    3    0  502  0.14245286492E+02  0.34118767459E+02 -0.26594478812E+03  0.26853513961E+03  0.41800000000E+01 0. -1.
        -11    1    1    2    0    0 -0.36449252558E+02  0.45852208897E+02 -0.11642100348E+03  0.13032583445E+03  0.00000000000E+00 0. -1.
         11    1    1    2    0    0  0.17795742765E+01 -0.34557755533E+02 -0.14720609429E+03  0.15121851589E+03  0.00000000000E+00 0.  1.
</event>
<event>
 7    1  0.2794945E-009  0.9936645E+02  0.7561462E-02  0.1281634E+00
          1   -1    0    0  501    0  0.00000000000E+00  0.00000000000E+00  0.30473131667E+03  0.30473131667E+03  0.00000000000E+00 0. -1.
         -1   -1    0    0    0  501 -0.00000000000E+00 -0.00000000000E+00 -0.67899895992E+02  0.67899895992E+02  0.00000000000E+00 0.  1.
         25    2    1    2    0    0 -0.17337444703E+02  0.32980748123E+02  0.24279319061E+03  0.27565395318E+03  0.12509297247E+03 0.  0.
          5    1    3    3  502    0  0.38479389190E+02  0.16232339745E+01  0.19586992099E+02  0.43409917536E+02  0.41800000000E+01 0. -1.
         -5    1    3    3    0  502 -0.55816833894E+02  0.31357514148E+02  0.22320619851E+03  0.23224403564E+03  0.41800000000E+01 0. -1.
        -11    1    1    2    0    0  0.32605004484E+02  0.21631837897E+02 -0.91403400724E+01  0.40181694151E+02  0.00000000000E+00 0.  1.
         11    1    1    2    0    0 -0.15267559780E+02 -0.54612586020E+02  0.31785701445E+01  0.56795565334E+02  0.00000000000E+00 0. -1.
</event>
<event>
 7    1  0.2794945E-009  0.2194601E+03  0.7561462E-02  0.1134286E+00
          3   -1    0    0  501    0  0.00000000000E+00  0.00000000000E+00  0.37511093463E+03  0.37511093463E+03  0.00000000000E+00 0. -1.
         -3   -1    0    0    0  501 -0.00000000000E+00 -0.00000000000E+00 -0.21558671943E+03  0.21558671943E+03  0.00000000000E+00 0.  1.
         25    2    1    2    0    0  0.84660822931E+02  0.17714004702E+03  0.26266691815E+03  0.35098054289E+03  0.12508948954E+03 0.  0.
          5    1    3    3  502    0 -0.52951876205E+01  0.13151516679E+03  0.14230844591E+03  0.19389028931E+03  0.41800000000E+01 0. -1.
         -5    1    3    3    0  502  0.89956010552E+02  0.45624880228E+02  0.12035847224E+03  0.15709025358E+03  0.41800000000E+01 0. -1.
        -11    1    1    2    0    0 -0.68772330831E+02 -0.70589538072E+02 -0.13307316069E+02  0.99446473211E+02  0.00000000000E+00 0. -1.
         11    1    1    2    0    0 -0.15888492100E+02 -0.10655050895E+03 -0.89835386882E+02  0.14027063796E+03  0.00000000000E+00 0.  1.
</event>
<event>
 7    1  0.2794945E-009  0.2147263E+03  0.7561462E-02  0.1137877E+00
          2   -1    0    0  501    0  0.00000000000E+00  0.00000000000E+00  0.19720592733E+03  0.19720592733E+03  0.00000000000E+00 0. -1.
         -2   -1    0    0    0  501 -0.00000000000E+00 -0.00000000000E+00 -0.27888057698E+03  0.27888057698E+03  0.00000000000E+00 0.  1.
         25    2    1    2    0    0  0.23353851465E+02 -0.19705194069E+03 -0.10401217893E+03  0.25661110398E+03  0.12512336157E+03 0.  0.
          5    1    3    3  502    0  0.67174449907E+01 -0.20919616688E+03 -0.78554811321E+02  0.22359895144E+03  0.41800000000E+01 0.  1.
         -5    1    3    3    0  502  0.16636406474E+02  0.12144226183E+02 -0.25457367607E+02  0.33012152541E+02  0.41800000000E+01 0.  1.
        -11    1    1    2    0    0 -0.16857096986E+02  0.75271650466E+02 -0.35012156844E+02  0.84710295770E+02  0.00000000000E+00 0.  1.
         11    1    1    2    0    0 -0.64967544796E+01  0.12178029023E+03  0.57349686120E+02  0.13476510455E+03  0.00000000000E+00 0. -1.
</event>
<event>
 7    1  0.2794945E-009  0.9450753E+02  0.7561462E-02  0.1292289E+00
         -1   -1    0    0    0  501 -0.00000000000E+00  0.00000000000E+00  0.30170693952E+02  0.30170693952E+02  0.00000000000E+00 0.  1.
          1   -1    0    0  501    0  0.00000000000E+00 -0.00000000000E+00 -0.56720095789E+03  0.56720095789E+03  0.00000000000E+00 0. -1.
         25    2    1    2    0    0 -0.99490522565E+01  0.56790789992E+02 -0.19446979290E+03  0.23831039824E+03  0.12509663500E+03 0.  0.
          5    1    3    3  502    0  0.27846666268E+02  0.28991566318E+02 -0.18613811103E+03  0.19047523859E+03  0.41800000000E+01 0. -1.
         -5    1    3    3    0  502 -0.37795718524E+02  0.27799223674E+02 -0.83316818751E+01  0.47835159647E+02  0.41800000000E+01 0. -1.
        -11    1    1    2    0    0  0.46681342289E+02 -0.38241286243E+02 -0.25874806457E+03  0.26569174735E+03  0.00000000000E+00 0.  1.
         11    1    1    2    0    0 -0.36732290033E+02 -0.18549503748E+02 -0.83812406461E+02  0.93369506248E+02  0.00000000000E+00 0. -1.
</event>
<event>
 7    1  0.2794945E-009  0.1681571E+03  0.7561462E-02  0.1179783E+00
          1   -1    0    0  501    0  0.00000000000E+00  0.00000000000E+00  0.21356150674E+03  0.21356150674E+03  0.00000000000E+00 0. -1.
         -1   -1    0    0    0  501 -0.00000000000E+00 -0.00000000000E+00 -0.19089232407E+03  0.19089232407E+03  0.00000000000E+00 0.  1.
         25    2    1    2    0    0 -0.13205244230E+03  0.53922062848E+02  0.90929931317E+02  0.21038421753E+03  0.12509128746E+03 0.  0.
          5    1    3    3  502    0 -0.35672610748E+02 -0.28970691893E+02  0.66382683216E+02  0.80845341098E+02  0.41800000000E+01 0. -1.
         -5    1    3    3    0  502 -0.96379831554E+02  0.82892754741E+02  0.24547248102E+02  0.12953887644E+03  0.41800000000E+01 0. -1.
        -11    1    1    2    0    0  0.58631153844E+02  0.16846145985E+02 -0.68989862896E+02  0.92092377633E+02  0.00000000000E+00 0.  1.
         11    1    1    2    0    0  0.73421288458E+02 -0.70768208833E+02  0.72911424802E+00  0.10197723564E+03  0.00000000000E+00 0. -1.
</event>
<event>
 7    1  0.2794945E-009  0.9159964E+02  0.7561462E-02  0.1299024E+00
          1   -1    0    0  501    0  0.00000000000E+00  0.00000000000E+00  0.71736331528E+03  0.71736331528E+03  0.00000000000E+00 0. -1.
         -1   -1    0    0    0  501 -0.00000000000E+00 -0.00000000000E+00 -0.20697035096E+02  0.20697035096E+02  0.00000000000E+00 0.  1.
         25    2    1    2    0    0 -0.10660279967E+02 -0.29261607060E+02  0.53482531022E+03  0.55014125515E+03  0.12508958767E+03 0.  0.
          5    1    3    3  502    0 -0.36613568462E+02 -0.52959031853E+02  0.48356240692E+03  0.48784760555E+03  0.41800000000E+01 0. -1.
         -5    1    3    3    0  502  0.25953288494E+02  0.23697424793E+02  0.51262903301E+02  0.62293649599E+02  0.41800000000E+01 0. -1.
        -11    1    1    2    0    0  0.79608635638E+01  0.55924834851E+02  0.59157132911E+02  0.81795653161E+02  0.00000000000E+00 0.  1.
         11    1    1    2    0    0  0.26994164036E+01 -0.26663227791E+02  0.10268383705E+03  0.10612344207E+03  0.00000000000E+00 0. -1.
</event>
<event>
 7    1  0.2794945E-009  0.8412606E+02  0.7561462E-02  0.1317734E+00
          1   -1    0    0  501    0  0.00000000000E+00  0.00000000000E+00  0.45176699300E+03  0.45176699300E+03  0.00000000000E+00 0. -1.
         -1   -1    0    0    0  501 -0.00000000000E+00 -0.00000000000E+00 -0.29685139475E+02  0.29685139475E+02  0.00000000000E+00 0.  1.
         25    2    1    2    0    0  0.21447537485E+01 -0.20436316756E+02  0.31049695325E+03  0.33537656554E+03  0.12508732838E+03 0.  0.
          5    1    3    3  502    0 -0.52153168115E+02 -0.83004158624E+01  0.23838445873E+03  0.24419965686E+03  0.41800000000E+01 0.  1.
         -5    1    3    3    0  502  0.54297921864E+02 -0.12135900894E+02  0.72112494520E+02  0.91176908673E+02  0.41800000000E+01 0.  1.
        -11    1    1    2    0    0  0.22350421552E+02  0.26079171529E+02  0.11562303288E+03  0.12061654225E+03  0.00000000000E+00 0. -1.
         11    1    1    2    0    0 -0.24495175300E+02 -0.56428547729E+01 -0.40381326105E+01  0.25459024686E+02  0.00000000000E+00 0.  1.
</event>
<event>
 7    1  0.2794945E-009  0.2170002E+03  0.7561462E-02  0.1136140E+00
          1   -1    0    0  501    0  0.00000000000E+00  0.00000000000E+00  0.11454130472E+04  0.11454130472E+04  0.00000000000E+00 0. -1.
         -1   -1    0    0    0  501 -0.00000000000E+00 -0.00000000000E+00 -0.57593091875E+02  0.57593091875E+02  0.00000000000E+00 0.  1.
         25    2    1    2    0    0  0.17417933813E+03 -0.84339678686E+02  0.25737315046E+03  0.34545798023E+03  0.12509458141E+03 0.  0.
          5    1    3    3  502    0  0.15647673245E+03 -0.18112184487E+02  0.20763935199E+03  0.26066183441E+03  0.41800000000E+01 0.  1.
         -5    1    3    3    0  502  0.17702605679E+02 -0.66227494199E+02  0.49733798471E+02  0.84796145821E+02  0.41800000000E+01 0.  1.
        -11    1    1    2    0    0 -0.14926422231E+03  0.36281042188E+02  0.51248627819E+03  0.53501243670E+03  0.00000000000E+00 0.  1.
         11    1    1    2    0    0 -0.24915115819E+02  0.48058636498E+02  0.31796052669E+03  0.32253572216E+03  0.00000000000E+00 0. -1.
</event>
<event>
 7    1  0.2794945E-009  0.8671521E+02  0.7561462E-02  0.1311007E+00
         -1   -1    0    0    0  501 -0.00000000000E+00  0.00000000000E+00  0.21016954384E+02  0.21016954384E+02  0.00000000000E+00 0.  1.
          1   -1    0    0  501    0  0.00000000000E+00 -0.00000000000E+00 -0.66998276553E+03  0.66998276553E+03  0.00000000000E+00 0. -1.
         25    2    1    2    0    0  0.20275887192E+02 -0.41121378774E+02 -0.42256529436E+03  0.44306975782E+03  0.12508917980E+03 0.  0.
          5    1    3    3  502    0 -0.81451326123E+00  0.15154853133E+02 -0.34254836243E+03  0.34290988030E+03  0.41800000000E+01 0.  1.
         -5    1    3    3    0  502  0.21090400453E+02 -0.56276231908E+02 -0.80016931928E+02  0.10015987752E+03  0.41800000000E+01 0.  1.
        -11    1    1    2    0    0  0.55286849268E+01  0.63225954846E+02 -0.11364610692E+03  0.13016729751E+03  0.00000000000E+00 0.  1.
         11    1    1    2    0    0 -0.25804572118E+02 -0.22104576071E+02 -0.11275440987E+03  0.11776266459E+03  0.00000000000E+00 0. -1.
</event>
<event>
 7    1  0.2794945E-009  0.1094020E+03  0.7561462E-02  0.1261681E+00
         -2   -1    0    0    0  501 -0.00000000000E+00  0.00000000000E+00  0.98267703365E+02  0.98267703365E+02  0.00000000000E+00 0.  1.
          2   -1    0    0  501    0  0.00000000000E+00 -0.00000000000E+00 -0.22235370851E+03  0.22235370851E+03  0.00000000000E+00 0. -1.
         25    2    1    2    0    0 -0.44417858200E+02 -0.40487203316E+02 -0.15425892306E+03  0.20750714147E+03  0.12510491061E+03 0.  0.
          5    1    3    3  502    0  0.33746404113E+02  0.24989708148E+01 -0.93426705586E+02  0.99453940909E+02  0.41800000000E+01 0.  1.
         -5    1    3    3    0  502 -0.78164262313E+02 -0.42986174130E+02 -0.60832217473E+02  0.10805320056E+03  0.41800000000E+01 0.  1.
        -11    1    1    2    0    0  0.64120602050E+02  0.20446460795E+02 -0.57010543258E+01  0.67542663456E+02  0.00000000000E+00 0.  1.
         11    1    1    2    0    0 -0.19702743851E+02  0.20040742521E+02  0.35873972236E+02  0.45571606950E+02  0.00000000000E+00 0. -1.
</event>
<event>
 7    1  0.2794945E-009  0.1209932E+03  0.7561462E-02  0.1241467E+00
          1   -1    0    0  501    0  0.00000000000E+00  0.00000000000E+00  0.28325269936E+03  0.28325269936E+03  0.00000000000E+00 0. -1.
         -1   -1    0    0    0  501 -0.00000000000E+00 -0.00000000000E+00 -0.68765358467E+02  0.68765358467E+02  0.00000000000E+00 0.  1.
         25    2    1    2    0    0  0.15016963879E+02  0.80144352035E+02  0.16260349435E+03  0.22076397470E+03  0.12509280468E+03 0.  0.
          5    1    3    3  502    0 -0.55034973720E+02  0.42459148264E+02  0.78082819200E+02  0.10462326060E+03  0.41800000000E+01 0. -1.
         -5    1    3    3    0  502  0.70051937599E+02  0.37685203771E+02  0.84520675148E+02  0.11614071410E+03  0.41800000000E+01 0. -1.
        -11    1    1    2    0    0 -0.13537209207E+02 -0.10392420677E+01 -0.20122221294E+02  0.24274263057E+02  0.00000000000E+00 0.  1.
         11    1    1    2    0    0 -0.14797546727E+01 -0.79105109967E+02  0.72006067836E+02  0.10697982007E+03  0.00000000000E+00 0. -1.
</event>
<event>
 7    1  0.2794945E-009  0.2203685E+03  0.7561462E-02  0.1133609E+00
         -2   -1    0    0    0  501 -0.00000000000E+00  0.00000000000E+00  0.36724867193E+02  0.36724867193E+02  0.00000000000E+00 0.  1.
          2   -1    0    0  501    0  0.00000000000E+00 -0.00000000000E+00 -0.14915991956E+04  0.14915991956E+04  0.00000000000E+00 0. -1.
         25    2    1    2    0    0 -0.20341214817E+03  0.36222302024E+02 -0.70850799081E+03  0.74854490651E+03  0.12508935539E+03 0.  0.
          5    1    3    3  502    0 -0.35248035169E+02 -0.16173982952E+02 -0.35113014107E+02  0.52482548218E+02  0.41800000000E+01 0.  1.
         -5    1    3    3    0  502 -0.16816411301E+03  0.52396284977E+02 -0.67339497671E+03  0.69606235830E+03  0.41800000000E+01 0.  1.
        -11    1    1    2    0    0  0.48886782249E+02  0.30074113038E+02 -0.17368736617E+03  0.18292531514E+03  0.00000000000E+00 0.  1.
         11    1    1    2    0    0  0.15452536593E+03 -0.66296415063E+02 -0.57267897138E+03  0.59685384110E+03  0.00000000000E+00 0. -1.
</event>
<event>
 7    1  0.2794945E-009  0.1542211E+03  0.7561462E-02  0.1195380E+00
         -2   -1    0    0    0  501 -0.00000000000E+00  0.00000000000E+00  0.14141446813E+03  0.14141446813E+03  0.00000000000E+00 0.  1.
          2   -1    0    0  501    0  0.00000000000E+00 -0.00000000000E+00 -0.21157577126E+03  0.21157577126E+03  0.00000000000E+00 0. -1.
         25    2    1    2    0    0 -0.10911067284E+03 -0.76032067875E+02 -0.61837341946E+02  0.19276383805E+03  0.12509207060E+03 0.  0.
          5    1    3    3  502    0 -0.75788661923E+02 -0.93440240499E+02 -0.85938170988E+02  0.14791160013E+03  0.41800000000E+01 0.  1.
         -5    1    3    3    0  502 -0.33322010917E+02  0.17408172624E+02  0.24100829042E+02  0.44852237917E+02  0.41800000000E+01 0.  1.
        -11    1    1    2    0    0  0.93715144660E+02  0.89639673105E+02  0.13340436146E+02  0.13036781263E+03  0.00000000000E+00 0.  1.
         11    1    1    2    0    0  0.15395528179E+02 -0.13607605230E+02 -0.21664397330E+02  0.29858588709E+02  0.00000000000E+00 0. -1.
</event>
<event>
 7    1  0.2837997E-009  0.1312183E+03  0.7561462E-02  0.1225659E+00
         -1   -1    0    0    0  501 -0.00000000000E+00  0.00000000000E+00  0.63175991520E+02  0.63175991520E+02  0.00000000000E+00 0.  1.
          1   -1    0    0  501    0  0.00000000000E+00 -0.00000000000E+00 -0.33821648763E+03  0.33821648763E+03  0.00000000000E+00 0. -1.
         25    2    1    2    0    0 -0.20797975194E+02 -0.85226774953E+02 -0.20889898517E+03  0.25881181803E+03  0.12509441316E+03 0.  0.
          5    1    3    3  502    0 -0.64815117198E+02 -0.10260543481E+02 -0.89508059279E+02  0.11106504061E+03  0.41800000000E+01 0. -1.
         -5    1    3    3    0  502  0.44017142003E+02 -0.74966231472E+02 -0.11939092589E+03  0.14774677742E+03  0.41800000000E+01 0. -1.
        -11    1    1    2    0    0 -0.14151719415E+02  0.70186310705E+02 -0.65761291014E+01  0.71900172787E+02  0.00000000000E+00 0.  1.
         11    1    1    2    0    0  0.34949694609E+02  0.15040464248E+02 -0.59565381836E+02  0.70680488336E+02  0.00000000000E+00 0. -1.
</event>
<event>
 7    1  0.2794945E-009  0.9758732E+02  0.7561462E-02  0.1285453E+00
          1   -1    0    0  501    0  0.00000000000E+00  0.00000000000E+00  0.83649717404E+02  0.83649717404E+02  0.00000000000E+00 0. -1.
         -1   -1    0    0    0  501 -0.00000000000E+00 -0.00000000000E+00 -0.19307247764E+03  0.19307247764E+03  0.00000000000E+00 0.  1.
         25    2    1    2    0    0  0.38064667949E+02  0.39886536046E+02 -0.20253651432E+02  0.13819236828E+03  0.12508823106E+03 0.  0.
          5    1    3    3  502    0 -0.53079544824E+01 -0.18140879125E+02  0.39631703147E+02  0.44106804130E+02  0.41800000000E+01 0. -1.
         -5    1    3    3    0  502  0.43372622431E+02  0.58027415171E+02 -0.59885354579E+02  0.94085564148E+02  0.41800000000E+01 0. -1.
        -11    1    1    2    0    0 -0.66394018079E+02 -0.32770350542E+02 -0.77189422879E+02  0.10695919089E+03  0.00000000000E+00 0.  1.
         11    1    1    2    0    0  0.28329350130E+02 -0.71161855043E+01 -0.11979685927E+02  0.31570635879E+02  0.00000000000E+00 0. -1.
</event>
<event>
 7    1  0.2794945E-009  0.6766561E+02  0.7561462E-02  0.1368216E+00
          2   -1    0    0  501    0  0.00000000000E+00  0.00000000000E+00  0.29432217363E+03  0.29432217363E+03  0.00000000000E+00 0. -1.
         -2   -1    0    0    0  501 -0.00000000000E+00 -0.00000000000E+00 -0.45083263437E+02  0.45083263437E+02  0.00000000000E+00 0.  1.
         25    2    1    2    0    0  0.34459807690E+01  0.28685771838E+02  0.10739651634E+03  0.16737815905E+03  0.12508672237E+03 0.  0.
          5    1    3    3  502    0 -0.34575433458E+02  0.16869906300E+02 -0.12744557682E+02  0.40742489957E+02  0.41800000000E+01 0. -1.
         -5    1    3    3    0  502  0.38021414227E+02  0.11815865538E+02  0.12014107402E+03  0.12663566909E+03  0.41800000000E+01 0. -1.
        -11    1    1    2    0    0 -0.26083756962E+02 -0.13842168417E+02  0.20086148115E+01  0.29597340036E+02  0.00000000000E+00 0.  1.
         11    1    1    2    0    0  0.22637776193E+02 -0.14843603421E+02  0.13983377904E+03  0.14242993799E+03  0.00000000000E+00 0. -1.
</event>
<event>
 7    1  0.2794945E-009  0.1411117E+03  0.7561462E-02  0.1211841E+00
          2   -1    0    0  501    0  0.00000000000E+00  0.00000000000E+00  0.68626545629E+02  0.68626545629E+02  0.00000000000E+00 0. -1.
         -2   -1    0    0    0  501 -0.00000000000E+00 -0.00000000000E+00 -0.43696791309E+03  0.43696791309E+03  0.00000000000E+00 0.  1.
         25    2    1    2    0    0  0.82436733654E+02 -0.60838737282E+02 -0.31718967241E+03  0.35602569826E+03  0.12509133675E+03 0.  0.
          5    1    3    3  502    0  0.96400101672E+02 -0.20308660811E+02 -0.12574535157E+03  0.15979607989E+03  0.41800000000E+01 0. -1.
         -5    1    3    3    0  502 -0.13963368018E+02 -0.40530076471E+02 -0.19144432084E+03  0.19622961837E+03  0.41800000000E+01 0. -1.
        -11    1    1    2    0    0 -0.90753004919E+02  0.79160667513E+02 -0.44151467195E+02  0.12826484802E+03  0.00000000000E+00 0.  1.
         11    1    1    2    0    0  0.83162712646E+01 -0.18321930231E+02 -0.70002278618E+01  0.21303912440E+02  0.00000000000E+00 0. -1.
</event>
<event>
 7    1  0.2794945E-009  0.1435602E+03  0.7561462E-02  0.1208617E+00
         -2   -1    0    0    0  501 -0.00000000000E+00  0.00000000000E+00  0.22767435657E+03  0.22767435657E+03  0.00000000000E+00 0.  1.
          2   -1    0    0  501    0  0.00000000000E+00 -0.00000000000E+00 -0.13486998198E+03  0.13486998198E+03  0.00000000000E+00 0. -1.
         25    2    1    2    0    0  0.79719292350E+02  0.82155495432E+02 -0.28954053300E+02  0.17202065409E+03  0.12509227485E+03 0.  0.
          5    1    3    3  502    0  0.13594675825E+02  0.95853033111E+02  0.35344507054E+01  0.96966921727E+02  0.41800000000E+01 0. -1.
         -5    1    3    3    0  502  0.66124616525E+02 -0.13697537679E+02 -0.32488504005E+02  0.75053732362E+02  0.41800000000E+01 0. -1.
        -11    1    1    2    0    0 -0.28682225812E+02 -0.36363147231E+01 -0.84632164839E+01  0.30125054283E+02  0.00000000000E+00 0. -1.
         11    1    1    2    0    0 -0.51037066538E+02 -0.78519180709E+02  0.13022164437E+03  0.16039863018E+03  0.00000000000E+00 0.  1.
</event>
<event>
 7    1  0.3169482E-009  0.8664333E+02  0.7561462E-02  0.1311190E+00
         -1   -1    0    0    0  501 -0.00000000000E+00  0.00000000000E+00  0.45851868468E+02  0.45851868468E+02  0.00000000000E+00 0.  1.
          1   -1    0    0  501    0  0.00000000000E+00 -0.00000000000E+00 -0.34028792807E+03  0.34028792807E+03  0.00000000000E+00 0. -1.
         25    2    1    2    0    0 -0.17637428133E+02  0.35454046715E+02 -0.23831350642E+03  0.27204546759E+03  0.12508933125E+03 0.  0.
          5    1    3    3  502    0 -0.65524073135E+02  0.39874540312E+02 -0.10380035463E+03  0.12913314503E+03  0.41800000000E+01 0.  1.
         -5    1    3    3    0  502  0.47886645001E+02 -0.44204935971E+01 -0.13451315180E+03  0.14291232256E+03  0.41800000000E+01 0.  1.
        -11    1    1    2    0    0 -0.61537925576E+01 -0.17028024534E+02  0.23099377028E+02  0.29349684861E+02  0.00000000000E+00 0.  1.
         11    1    1    2    0    0  0.23791220691E+02 -0.18426022181E+02 -0.79221930210E+02  0.84744644088E+02  0.00000000000E+00 0. -1.
</event>
<event>
 7    1  0.2794945E-009  0.1278116E+03  0.7561462E-02  0.1230739E+00
          1   -1    0    0  501    0  0.00000000000E+00  0.00000000000E+00  0.44086803833E+03  0.44086803833E+03  0.00000000000E+00 0.  1.
         -1   -1    0    0    0  501 -0.00000000000E+00 -0.00000000000E+00 -0.81862603288E+02  0.81862603288E+02  0.00000000000E+00 0. -1.
         25    2    1    2    0    0 -0.31655309968E+02  0.10836590209E+03  0.41247565237E+02  0.17347908181E+03  0.12509357619E+03 0.  0.
          5    1    3    3  502    0  0.45720985609E+01  0.48540433854E+02 -0.42130144043E+02  0.64571659736E+02  0.41800000000E+01 0.  1.
         -5    1    3    3    0  502 -0.36227408529E+02  0.59825468239E+02  0.83377709280E+02  0.10890742208E+03  0.41800000000E+01 0.  1.
        -11    1    1    2    0    0  0.22137571682E+02  0.51353473259E+01  0.19357395577E+02  0.29852179747E+02  0.00000000000E+00 0. -1.
         11    1    1    2    0    0  0.95177382854E+01 -0.11350124942E+03  0.29840047423E+03  0.31939938006E+03  0.00000000000E+00 0.  1.
</event>
<event>
 7    1  0.2794945E-009  0.8110073E+02  0.7561462E-02  0.1325956E+00
          2   -1    0    0  501    0  0.00000000000E+00  0.00000000000E+00  0.16183028517E+03  0.16183028517E+03  0.00000000000E+00 0.  1.
         -2   -1    0    0    0  501 -0.00000000000E+00 -0.00000000000E+00 -0.99253013042E+02  0.99253013042E+02  0.00000000000E+00 0. -1.
         25    2    1    2    0    0 -0.38742777337E+02 -0.47117846034E+02  0.57981027798E+02  0.15076678350E+03  0.12509088381E+03 0.  0.
          5    1    3    3  502    0 -0.32986604833E+02 -0.11230968935E+02 -0.35781017960E+02  0.50119900318E+02  0.41800000000E+01 0.  1.
         -5    1    3    3    0  502 -0.57561725044E+01 -0.35886877100E+02  0.93762045758E+02  0.10064688318E+03  0.41800000000E+01 0.  1.
        -11    1    1    2    0    0  0.28753746885E+02  0.64417711358E+02  0.31127028191E+02  0.77105845307E+02  0.00000000000E+00 0.  1.
         11    1    1    2    0    0  0.99890304523E+01 -0.17299865324E+02 -0.26530783864E+02  0.33210669400E+02  0.00000000000E+00 0. -1.
</event>
<event>
 7    1  0.2794945E-009  0.1463778E+03  0.7561462E-02  0.1204996E+00
          1   -1    0    0  501    0  0.00000000000E+00  0.00000000000E+00  0.18924847362E+03  0.18924847362E+03  0.00000000000E+00 0.  1.
         -1   -1    0    0    0  501 -0.00000000000E+00 -0.00000000000E+00 -0.12353431375E+03  0.12353431375E+03  0.00000000000E+00 0. -1.
         25    2    1    2    0    0  0.62784889977E+02 -0.86620818899E+02  0.28794516645E+02  0.16709810999E+03  0.12509014949E+03 0.  0.
          5    1    3    3  502    0 -0.98313743376E+01  0.20125265308E+02  0.30308207880E+02  0.37917569674E+02  0.41800000000E+01 0. -1.
         -5    1    3    3    0  502  0.72616264314E+02 -0.10674608421E+03 -0.15136912355E+01  0.12918054032E+03  0.41800000000E+01 0. -1.
        -11    1    1    2    0    0 -0.80767449433E+02  0.38591468313E+02  0.20452287913E+02  0.91820359373E+02  0.00000000000E+00 0.  1.
         11    1    1    2    0    0  0.17982559457E+02  0.48029350585E+02  0.16467355314E+02  0.53864317997E+02  0.00000000000E+00 0. -1.
</event>
<event>
 7    1  0.2794945E-009  0.1139502E+03  0.7561462E-02  0.1253425E+00
          2   -1    0    0  501    0  0.00000000000E+00  0.00000000000E+00  0.58530048326E+03  0.58530048326E+03  0.00000000000E+00 0. -1.
         -2   -1    0    0    0  501 -0.00000000000E+00 -0.00000000000E+00 -0.23817037076E+02  0.23817037076E+02  0.00000000000E+00 0.  1.
         25    2    1    2    0    0  0.23331928471E+02  0.33114548298E+02  0.25585711921E+03  0.28766471848E+03  0.12508865901E+03 0.  0.
          5    1    3    3  502    0  0.21224148010E+02 -0.45116142357E+02  0.13122445164E+03  0.14043952388E+03  0.41800000000E+01 0.  1.
         -5    1    3    3    0  502  0.21077804612E+01  0.78230690655E+02  0.12463266757E+03  0.14722519460E+03  0.41800000000E+01 0.  1.
        -11    1    1    2    0    0 -0.13844089042E+02 -0.64881579445E+02  0.19604501456E+03  0.20696600177E+03  0.00000000000E+00 0.  1.
         11    1    1    2    0    0 -0.94878394296E+01  0.31767031147E+02  0.10958131242E+03  0.11448680010E+03  0.00000000000E+00 0. -1.
</event>
<event>
 7    1  0.2794945E-009  0.1377200E+03  0.7561462E-02  0.1216430E+00
         -2   -1    0    0    0  501 -0.00000000000E+00  0.00000000000E+00  0.10528894633E+03  0.10528894633E+03  0.00000000000E+00 0.  1.
          2   -1    0    0  501    0  0.00000000000E+00 -0.00000000000E+00 -0.21722966324E+03  0.21722966324E+03  0.00000000000E+00 0. -1.
         25    2    1    2    0    0  0.98071603300E+02  0.32583736835E+02 -0.83629357378E+02  0.18254066737E+03  0.12508991385E+03 0.  0.
          5    1    3    3  502    0  0.12168533962E+03  0.16753110050E+02 -0.90939790864E+02  0.15289050506E+03  0.41800000000E+01 0. -1.
         -5    1    3    3    0  502 -0.23613736317E+02  0.15830626785E+02  0.73104334862E+01  0.29650162310E+02  0.41800000000E+01 0. -1.
        -11    1    1    2    0    0  0.83545207993E+01 -0.13203258235E+02 -0.27696680457E+02  0.31799845190E+02  0.00000000000E+00 0. -1.
         11    1    1    2    0    0 -0.10642612410E+03 -0.19380478600E+02 -0.61467907329E+00  0.10817809701E+03  0.00000000000E+00 0.  1.
</event>
<event>
 7    1  0.2794945E-009  0.1042018E+03  0.7561462E-02  0.1271700E+00
         -3   -1    0    0    0  501 -0.00000000000E+00  0.00000000000E+00  0.19868518774E+02  0.19868518774E+02  0.00000000000E+00 0. -1.
          3   -1    0    0  501    0  0.00000000000E+00 -0.00000000000E+00 -0.68784315033E+03  0.68784315033E+03  0.00000000000E+00 0.  1.
         25    2    1    2    0    0 -0.13623054145E+02  0.19483644497E+02 -0.50043918787E+03  0.51637811453E+03  0.12506708761E+03 0.  0.
          5    1    3    3  502    0 -0.99928659930E+01 -0.53228763533E+02 -0.22177435244E+03  0.22832979315E+03  0.41800000000E+01 0. -1.
         -5    1    3    3    0  502 -0.36301881522E+01  0.72712408030E+02 -0.27866483543E+03  0.28804832138E+03  0.41800000000E+01 0. -1.
        -11    1    1    2    0    0 -0.11883709353E+02 -0.44124015281E+02 -0.13738306807E+03  0.14478348892E+03  0.00000000000E+00 0. -1.
         11    1    1    2    0    0  0.25506763498E+02  0.24640370783E+02 -0.30152375612E+02  0.46550065644E+02  0.00000000000E+00 0.  1.
</event>
<event>
 7    1  0.2794945E-009  0.7448909E+02  0.7561462E-02  0.1345460E+00
          2   -1    0    0  501    0  0.00000000000E+00  0.00000000000E+00  0.49130924291E+02  0.49130924291E+02  0.00000000000E+00 0. -1.
         -2   -1    0    0    0  501 -0.00000000000E+00 -0.00000000000E+00 -0.29004397109E+03  0.29004397109E+03  0.00000000000E+00 0.  1.
         25    2    1    2    0    0 -0.47539663883E+02  0.12885067317E+02 -0.14145121339E+03  0.19513755168E+03  0.12507667130E+03 0.  0.
          5    1    3    3  502    0 -0.23537734685E+02 -0.11101669084E+02  0.18093521021E+02  0.31970610152E+02  0.41800000000E+01 0. -1.
         -5    1    3    3    0  502 -0.24001929198E+02  0.23986736401E+02 -0.15954473442E+03  0.16316694153E+03  0.41800000000E+01 0. -1.
        -11    1    1    2    0    0 -0.36287929662E+01  0.24685121442E+02  0.12576873879E+01  0.24982096321E+02  0.00000000000E+00 0. -1.
         11    1    1    2    0    0  0.51168456849E+02 -0.37570188759E+02 -0.10071952079E+03  0.11905524738E+03  0.00000000000E+00 0.  1.
</event>
<event>
 7    1  0.2794945E-009  0.1180103E+03  0.7561462E-02  0.1246416E+00
         -2   -1    0    0    0  501 -0.00000000000E+00  0.00000000000E+00  0.64271353753E+02  0.64271353753E+02  0.00000000000E+00 0.  1.
          2   -1    0    0  501    0  0.00000000000E+00 -0.00000000000E+00 -0.31609746449E+03  0.31609746449E+03  0.00000000000E+00 0. -1.
         25    2    1    2    0    0 -0.70987066080E+02  0.41367527669E+02 -0.80039792502E+02  0.16971355798E+03  0.12508352202E+03 0.  0.
          5    1    3    3  502    0 -0.58780185327E+02  0.70724705499E+02 -0.96754379563E+02  0.13355140029E+03  0.41800000000E+01 0. -1.
         -5    1    3    3    0  502 -0.12206880753E+02 -0.29357177830E+02  0.16714587061E+02  0.36162157686E+02  0.41800000000E+01 0. -1.
        -11    1    1    2    0    0  0.25146329241E+02 -0.57931825737E+02 -0.13674739422E+03  0.15062630625E+03  0.00000000000E+00 0. -1.
         11    1    1    2    0    0  0.45840736839E+02  0.16564298068E+02 -0.35038924014E+02  0.60028954018E+02  0.00000000000E+00 0.  1.
</event>
<event>
 7    1  0.3498555E-009  0.1069106E+03  0.7561462E-02  0.1266400E+00
         -1   -1    0    0    0  501 -0.00000000000E+00  0.00000000000E+00  0.66646302770E+02  0.66646302770E+02  0.00000000000E+00 0.  1.
          1   -1    0    0  501    0  0.00000000000E+00 -0.00000000000E+00 -0.32275068540E+03  0.32275068540E+03  0.00000000000E+00 0. -1.
         25    2    1    2    0    0 -0.33934776779E+02 -0.80370234066E+02 -0.77393720940E+02  0.17101744197E+03  0.12508490643E+03 0.  0.
          5    1    3    3  502    0  0.17624679667E+02 -0.24247431339E+02 -0.88825504783E+02  0.93840342923E+02  0.41800000000E+01 0.  1.
         -5    1    3    3    0  502 -0.51559456446E+02 -0.56122802727E+02  0.11431783842E+02  0.77177099043E+02  0.41800000000E+01 0.  1.
        -11    1    1    2    0    0  0.43432968767E+02  0.23133144387E+02 -0.27393248228E+02  0.56320113580E+02  0.00000000000E+00 0.  1.
         11    1    1    2    0    0 -0.94981919882E+01  0.57237089679E+02 -0.15131741346E+03  0.16205943262E+03  0.00000000000E+00 0. -1.
</event>
<event>
 7    1  0.2794945E-009  0.1531765E+03  0.7561462E-02  0.1196623E+00
         -2   -1    0    0    0  501 -0.00000000000E+00  0.00000000000E+00  0.20007591315E+03  0.20007591315E+03  0.00000000000E+00 0.  1.
          2   -1    0    0  501    0  0.00000000000E+00 -0.00000000000E+00 -0.23513006133E+03  0.23513006133E+03  0.00000000000E+00 0. -1.
         25    2    1    2    0    0  0.68896581708E+02  0.10374749259E+03 -0.15894249795E+03  0.23753558567E+03  0.12510058199E+03 0.  0.
          5    1    3    3  502    0  0.84066176017E+02  0.30720971836E+02 -0.42449199973E+02  0.99147904865E+02  0.41800000000E+01 0.  1.
         -5    1    3    3    0  502 -0.15169594310E+02  0.73026520758E+02 -0.11649329798E+03  0.13838768081E+03  0.41800000000E+01 0.  1.
        -11    1    1    2    0    0 -0.48638277267E+01 -0.69047748430E+02  0.98810962970E+02  0.12064350288E+03  0.00000000000E+00 0.  1.
         11    1    1    2    0    0 -0.64032753981E+02 -0.34699744164E+02  0.25077386806E+02  0.77026885933E+02  0.00000000000E+00 0. -1.
</event>
<event>
 7    1  0.2794945E-009  0.2052544E+03  0.7561462E-02  0.1145380E+00
          2   -1    0    0  501    0  0.00000000000E+00  0.00000000000E+00  0.16368557549E+03  0.16368557549E+03  0.00000000000E+00 0. -1.
         -2   -1    0    0    0  501 -0.00000000000E+00 -0.00000000000E+00 -0.32359322758E+03  0.32359322758E+03  0.00000000000E+00 0.  1.
         25    2    1    2    0    0 -0.17368085466E+03 -0.55733751626E+02 -0.17548516916E+03  0.28232879945E+03  0.12507284301E+03 0.  0.
          5    1    3    3  502    0 -0.17585538357E+03 -0.73016850731E+02 -0.12263362219E+03  0.22652384888E+03  0.41800000000E+01 0.  1.
         -5    1    3    3    0  502  0.21745289059E+01  0.17283099105E+02 -0.52851546978E+02  0.55804950574E+02  0.41800000000E+01 0.  1.
        -11    1    1    2    0    0  0.42435850354E+01  0.30544812198E+02  0.13433902534E+02  0.33637230912E+02  0.00000000000E+00 0.  1.
         11    1    1    2    0    0  0.16943726963E+03  0.25188939428E+02  0.21436145395E+01  0.17131277271E+03  0.00000000000E+00 0. -1.
</event>
<event>
 7    1  0.2794945E-009  0.3497107E+03  0.7561462E-02  0.1062734E+00
         -2   -1    0    0    0  501 -0.00000000000E+00  0.00000000000E+00  0.71326165232E+03  0.71326165232E+03  0.00000000000E+00 0.  1.
          2   -1    0    0  501    0  0.00000000000E+00 -0.00000000000E+00 -0.26075795992E+03  0.26075795992E+03  0.00000000000E+00 0. -1.
         25    2    1    2    0    0  0.13374062874E+03 -0.31092569819E+03  0.50205166994E+03  0.61827590340E+03  0.12509143802E+03 0.  0.
          5    1    3    3  502    0  0.47823824595E+02 -0.22563234489E+03  0.25986067333E+03  0.34747966157E+03  0.41800000000E+01 0. -1.
         -5    1    3    3    0  502  0.85916804141E+02 -0.85293353295E+02  0.24219099661E+03  0.27079624183E+03  0.41800000000E+01 0. -1.
        -11    1    1    2    0    0 -0.68590623571E+02  0.69923366636E+02  0.11818386511E+02  0.98659135934E+02  0.00000000000E+00 0.  1.
         11    1    1    2    0    0 -0.65150005165E+02  0.24100233155E+03 -0.61366364060E+02  0.25708457290E+03  0.00000000000E+00 0. -1.
</event>
<event>
 7    1  0.2794945E-009  0.8557167E+02  0.7561462E-02  0.1313944E+00
         -1   -1    0    0    0  501 -0.00000000000E+00  0.00000000000E+00  0.19697033324E+03  0.19697033324E+03  0.00000000000E+00 0.  1.
          1   -1    0    0  501    0  0.00000000000E+00 -0.00000000000E+00 -0.72048233412E+02  0.72048233412E+02  0.00000000000E+00 0. -1.
         25    2    1    2    0    0 -0.49565733794E+02  0.44564582921E+01  0.63151779376E+02  0.14870495060E+03  0.12509353743E+03 0.  0.
          5    1    3    3  502    0 -0.52092800090E+02  0.16782001784E+02  0.97499092411E+02  0.11188762588E+03  0.41800000000E+01 0. -1.
         -5    1    3    3    0  502  0.25270662958E+01 -0.12325543492E+02 -0.34347313035E+02  0.36817324715E+02  0.41800000000E+01 0. -1.
        -11    1    1    2    0    0  0.58898840112E+02 -0.36721660468E+02  0.37652851390E+02  0.78963858390E+02  0.00000000000E+00 0. -1.
         11    1    1    2    0    0 -0.93331063174E+01  0.32265202176E+02  0.24117469066E+02  0.41349757667E+02  0.00000000000E+00 0.  1.
</event>
<event>
 7    1  0.4394787E-009  0.1059059E+03  0.7561462E-02  0.1268345E+00
          1   -1    0    0  501    0  0.00000000000E+00  0.00000000000E+00  0.49854234658E+03  0.49854234658E+03  0.00000000000E+00 0. -1.
         -1   -1    0    0    0  501 -0.00000000000E+00 -0.00000000000E+00 -0.35619143984E+02  0.35619143984E+02  0.00000000000E+00 0.  1.
         25    2    1    2    0    0  0.16907927877E+02 -0.45679772128E+02  0.13578632160E+03  0.19093763025E+03  0.12508690542E+03 0.  0.
          5    1    3    3  502    0 -0.28034877765E+02  0.27493804393E+02  0.14072517762E+02  0.41921018683E+02  0.41800000000E+01 0. -1.
         -5    1    3    3    0  502  0.44942805642E+02 -0.73173576520E+02  0.12171380384E+03  0.14901661157E+03  0.41800000000E+01 0. -1.
        -11    1    1    2    0    0  0.49399763324E+01 -0.18188050221E+02  0.15622495879E+02  0.24480010509E+02  0.00000000000E+00 0.  1.
         11    1    1    2    0    0 -0.21847904209E+02  0.63867822349E+02  0.31151438512E+03  0.31874384980E+03  0.00000000000E+00 0. -1.
</event>
<event>
 7    1  0.2794945E-009  0.8660344E+02  0.7561462E-02  0.1311292E+00
          2   -1    0    0  501    0  0.00000000000E+00  0.00000000000E+00  0.40332876132E+03  0.40332876132E+03  0.00000000000E+00 0. -1.
         -2   -1    0    0    0  501 -0.00000000000E+00 -0.00000000000E+00 -0.88069966657E+02  0.88069966657E+02  0.00000000000E+00 0.  1.
         25    2    1    2    0    0 -0.29894308126E+02 -0.41836116975E+01  0.36334693694E+03  0.38546018380E+03  0.12508950573E+03 0.  0.
          5    1    3    3  502    0 -0.69670355423E+02 -0.34617859459E+02  0.20376369987E+03  0.21815011437E+03  0.41800000000E+01 0.  1.
         -5    1    3    3    0  502  0.39776047296E+02  0.30434247761E+02  0.15958323708E+03  0.16731006943E+03  0.41800000000E+01 0.  1.
        -11    1    1    2    0    0  0.28291521709E+02 -0.10568475689E+02  0.20019110968E+02  0.36233516017E+02  0.00000000000E+00 0. -1.
         11    1    1    2    0    0  0.16027864171E+01  0.14752087386E+02 -0.68107253246E+02  0.69705028163E+02  0.00000000000E+00 0.  1.
</event>
<event>
 7    1  0.2794945E-009  0.1149440E+03  0.7561462E-02  0.1251679E+00
         -1   -1    0    0    0  501 -0.00000000000E+00  0.00000000000E+00  0.41010774760E+02  0.41010774760E+02  0.00000000000E+00 0.  1.
          1   -1    0    0  501    0  0.00000000000E+00 -0.00000000000E+00 -0.33808134019E+03  0.33808134019E+03  0.00000000000E+00 0. -1.
         25    2    1    2    0    0  0.81817119002E+01 -0.43490731359E+02 -0.14763569915E+03  0.19850175645E+03  0.12509301949E+03 0.  0.
          5    1    3    3  502    0  0.52454955918E+02 -0.61312984313E+02 -0.68181050201E+02  0.10572101235E+03  0.41800000000E+01 0.  1.
         -5    1    3    3    0  502 -0.44273244018E+02  0.17822252954E+02 -0.79454648947E+02  0.92780744099E+02  0.41800000000E+01 0.  1.
        -11    1    1    2    0    0  0.16294877343E+02 -0.24215185535E+02 -0.48619549967E+02  0.56707661538E+02  0.00000000000E+00 0. -1.
         11    1    1    2    0    0 -0.24476589243E+02  0.67705916894E+02 -0.10081531632E+03  0.12388269696E+03  0.00000000000E+00 0.  1.
</event>
<event>
 7    1  0.2794945E-009  0.7069740E+02  0.7561462E-02  0.1357737E+00
          1   -1    0    0  501    0  0.00000000000E+00  0.00000000000E+00  0.26184237453E+03  0.26184237453E+03  0.00000000000E+00 0. -1.
         -1   -1    0    0    0  501 -0.00000000000E+00 -0.00000000000E+00 -0.45354047000E+02  0.45354047000E+02  0.00000000000E+00 0.  1.
         25    2    1    2    0    0 -0.11937262926E+02 -0.13184730617E+02  0.14451509398E+03  0.19196728596E+03  0.12510192294E+03 0.  0.
          5    1    3    3  502    0  0.15028879436E+02 -0.46964958207E+02  0.13978343858E+03  0.14828505190E+03  0.41800000000E+01 0. -1.
         -5    1    3    3    0  502 -0.26966142362E+02  0.33780227590E+02  0.47316554047E+01  0.43682234064E+02  0.41800000000E+01 0. -1.
        -11    1    1    2    0    0 -0.10242490939E+02  0.22270680836E+02 -0.12432910927E+02  0.27485798508E+02  0.00000000000E+00 0.  1.
         11    1    1    2    0    0  0.22179753865E+02 -0.90859502190E+01  0.84406144479E+02  0.87743337061E+02  0.00000000000E+00 0. -1.
</event>
<event>
 7    1  0.2794945E-009  0.1041760E+03  0.7561462E-02  0.1271752E+00
         -1   -1    0    0    0  501 -0.00000000000E+00  0.00000000000E+00  0.24763393669E+02  0.24763393669E+02  0.00000000000E+00 0.  1.
          1   -1    0    0  501    0  0.00000000000E+00 -0.00000000000E+00 -0.68794571108E+03  0.68794571108E+03  0.00000000000E+00 0. -1.
         25    2    1    2    0    0  0.61702860052E+02  0.35218874467E+02 -0.39761822241E+03  0.42284187876E+03  0.12508953427E+03 0.  0.
          5    1    3    3  502    0 -0.10101935573E+02  0.32381077838E+02 -0.29791829403E+03  0.29987224884E+03  0.41800000000E+01 0. -1.
         -5    1    3    3    0  502  0.71804795625E+02  0.28377966283E+01 -0.99699928376E+02  0.12296962992E+03  0.41800000000E+01 0. -1.
        -11    1    1    2    0    0 -0.67121195647E+02 -0.57084216384E+00 -0.98727362340E+02  0.11938455864E+03  0.00000000000E+00 0.  1.
         11    1    1    2    0    0  0.54183355958E+01 -0.34648032303E+02 -0.16683673266E+03  0.17048266735E+03  0.00000000000E+00 0. -1.
</event>
<event>
 7    1  0.2794945E-009  0.1357823E+03  0.7561462E-02  0.1219119E+00
         -2   -1    0    0    0  501 -0.00000000000E+00  0.00000000000E+00  0.22451033336E+03  0.22451033336E+03  0.00000000000E+00 0.  1.
          2   -1    0    0  501    0  0.00000000000E+00 -0.00000000000E+00 -0.86902987856E+02  0.86902987856E+02  0.00000000000E+00 0. -1.
         25    2    1    2    0    0 -0.93433130500E+02  0.16777124680E+02  0.83225655308E+02  0.17772399915E+03  0.12509231945E+03 0.  0.
          5    1    3    3  502    0 -0.12155269377E+03  0.11745037336E+01  0.50637646751E+02  0.13175006827E+03  0.41800000000E+01 0. -1.
         -5    1    3    3    0  502  0.28119563267E+02  0.15602620946E+02  0.32588008557E+02  0.45973930878E+02  0.41800000000E+01 0. -1.
        -11    1    1    2    0    0  0.79478892252E+02  0.16719762142E+02  0.53755681736E+02  0.97396704660E+02  0.00000000000E+00 0.  1.
         11    1    1    2    0    0  0.13954238247E+02 -0.33496886821E+02  0.62600846228E+00  0.36292617409E+02  0.00000000000E+00 0. -1.
</event>
<event>
 7    1  0.2821154E-009  0.1380792E+03  0.7561462E-02  0.1215937E+00
         -1   -1    0    0    0  501 -0.00000000000E+00  0.00000000000E+00  0.75438463714E+02  0.75438463714E+02  0.00000000000E+00 0.  1.
          1   -1    0    0  501    0  0.00000000000E+00 -0.00000000000E+00 -0.37780015794E+03  0.37780015794E+03  0.00000000000E+00 0. -1.
         25    2    1    2    0    0 -0.64890275752E+02 -0.10864834762E+03 -0.19583796475E+03  0.26460319421E+03  0.12508849116E+03 0.  0.
          5    1    3    3  502    0  0.52018924394E+01  0.81174479812E+01  0.12084518367E+02  0.16014388245E+02  0.41800000000E+01 0. -1.
         -5    1    3    3    0  502 -0.70092168191E+02 -0.11676579560E+03 -0.20792248312E+03  0.24858880597E+03  0.41800000000E+01 0. -1.
        -11    1    1    2    0    0  0.21538197056E+02  0.62378384606E+02 -0.15640752760E+01  0.66010628917E+02  0.00000000000E+00 0.  1.
         11    1    1    2    0    0  0.43352078696E+02  0.46269963015E+02 -0.10495965420E+03  0.12262479853E+03  0.00000000000E+00 0. -1.
</event>
<event>
 7    1  0.2794945E-009  0.1063958E+03  0.7561462E-02  0.1267394E+00
          2   -1    0    0  501    0  0.00000000000E+00  0.00000000000E+00  0.54018892766E+03  0.54018892766E+03  0.00000000000E+00 0. -1.
         -2   -1    0    0    0  501 -0.00000000000E+00 -0.00000000000E+00 -0.29494442445E+02  0.29494442445E+02  0.00000000000E+00 0.  1.
         25    2    1    2    0    0 -0.21415665595E+02 -0.11764987966E+02  0.41877196291E+03  0.43773980476E+03  0.12509649906E+03 0.  0.
          5    1    3    3  502    0 -0.72513593826E+02 -0.15840772827E+02  0.28145722481E+03  0.29110958962E+03  0.41800000000E+01 0.  1.
         -5    1    3    3    0  502  0.51097928231E+02  0.40757848604E+01  0.13731473810E+03  0.14663021514E+03  0.41800000000E+01 0.  1.
        -11    1    1    2    0    0  0.32140426542E+02  0.43177755231E+02  0.29840411447E+02  0.61544908160E+02  0.00000000000E+00 0. -1.
         11    1    1    2    0    0 -0.10724760948E+02 -0.31412767265E+02  0.62082110860E+02  0.70398657185E+02  0.00000000000E+00 0.  1.
</event>
<event>
 7    1  0.2794945E-009  0.9152474E+02  0.7561462E-02  0.1299201E+00
         -2   -1    0    0    0  501 -0.00000000000E+00  0.00000000000E+00  0.10877024757E+03  0.10877024757E+03  0.00000000000E+00 0. -1.
          2   -1    0    0  501    0  0.00000000000E+00 -0.00000000000E+00 -0.26095770479E+03  0.26095770479E+03  0.00000000000E+00 0.  1.
         25    2    1    2    0    0 -0.47561777402E+02 -0.46256777834E+02  0.39986969071E+02  0.14713896021E+03  0.12509637785E+03 0.  0.
          5    1    3    3  502    0 -0.46839886226E+02 -0.33624091631E+02  0.83540432227E+02  0.10159247362E+03  0.41800000000E+01 0. -1.
         -5    1    3    3    0  502 -0.72189117598E+00 -0.12632686203E+02 -0.43553463156E+02  0.45546486588E+02  0.41800000000E+01 0. -1.
        -11    1    1    2    0    0  0.46664906058E+02 -0.16240085944E+02 -0.75576549679E+02  0.90294898584E+02  0.00000000000E+00 0.  1.
         11    1    1    2    0    0  0.89687134414E+00  0.62496863777E+02 -0.11659787662E+03  0.13229409356E+03  0.00000000000E+00 0. -1.
</event>
<event>
 7    1  0.2794945E-009  0.1294133E+03  0.7561462E-02  0.1228329E+00
          1   -1    0    0  501    0  0.00000000000E+00  0.00000000000E+00  0.39940754186E+03  0.39940754186E+03  0.00000000000E+00 0. -1.
         -1   -1    0    0    0  501 -0.00000000000E+00 -0.00000000000E+00 -0.59732548840E+02  0.59732548840E+02  0.00000000000E+00 0.  1.
         25    2    1    2    0    0  0.86054585693E+02  0.51218141476E+02  0.11567173478E+03  0.19762573478E+03  0.12508913257E+03 0.  0.
          5    1    3    3  502    0 -0.27425411478E+02  0.92170414754E+01 -0.13187056526E+01  0.29262919077E+02  0.41800000000E+01 0.  1.
         -5    1    3    3    0  502  0.11347999717E+03  0.42001100000E+02  0.11699044044E+03  0.16836281571E+03  0.41800000000E+01 0.  1.
        -11    1    1    2    0    0 -0.74596523958E+02 -0.22999422360E+02  0.21650615728E+03  0.23014893211E+03  0.00000000000E+00 0. -1.
         11    1    1    2    0    0 -0.11458061735E+02 -0.28218719116E+02  0.74971009573E+01  0.31365423798E+02  0.00000000000E+00 0.  1.
</event>
<event>
 7    1  0.2794945E-009  0.1400814E+03  0.7561462E-02  0.1213219E+00
          2   -1    0    0  501    0  0.00000000000E+00  0.00000000000E+00  0.70188397623E+03  0.70188397623E+03  0.00000000000E+00 0. -1.
         -2   -1    0    0    0  501 -0.00000000000E+00 -0.00000000000E+00 -0.30458267606E+02  0.30458267606E+02  0.00000000000E+00 0.  1.
         25    2    1    2    0    0 -0.75560875424E+02 -0.63418630768E+02  0.37051125482E+03  0.40330813256E+03  0.12508993250E+03 0.  0.
          5    1    3    3  502    0 -0.24018421281E+02  0.34276122012E+02  0.16126259203E+03  0.16665783237E+03  0.41800000000E+01 0. -1.
         -5    1    3    3    0  502 -0.51542454143E+02 -0.97694752781E+02  0.20924866279E+03  0.23665030019E+03  0.41800000000E+01 0. -1.
        -11    1    1    2    0    0 -0.18877162190E+00 -0.17049820699E+02  0.82601939139E+02  0.84343419246E+02  0.00000000000E+00 0.  1.
         11    1    1    2    0    0  0.75749647046E+02  0.80468451467E+02  0.21831251466E+03  0.24469069203E+03  0.00000000000E+00 0. -1.
</event>
<event>
 7    1  0.2794945E-009  0.1442716E+03  0.7561462E-02  0.1207694E+00
         -2   -1    0    0    0  501 -0.00000000000E+00  0.00000000000E+00  0.15076296397E+03  0.15076296397E+03  0.00000000000E+00 0.  1.
          2   -1    0    0  501    0  0.00000000000E+00 -0.00000000000E+00 -0.22336180920E+03  0.22336180920E+03  0.00000000000E+00 0. -1.
         25    2    1    2    0    0  0.24142678446E+02  0.11203152450E+03 -0.12933309851E+03  0.21332770485E+03  0.12509087850E+03 0.  0.
          5    1    3    3  502    0 -0.27055684548E+02  0.10388840525E+03 -0.50083146347E+02  0.11853524691E+03  0.41800000000E+01 0.  1.
         -5    1    3    3    0  502  0.51198362994E+02  0.81431192450E+01 -0.79249952160E+02  0.94792457937E+02  0.41800000000E+01 0.  1.
        -11    1    1    2    0    0  0.19276205082E+02 -0.48077573023E+02  0.64934390577E+02  0.83063230070E+02  0.00000000000E+00 0. -1.
         11    1    1    2    0    0 -0.43418883528E+02 -0.63953951477E+02 -0.82001372984E+01  0.77733838243E+02  0.00000000000E+00 0.  1.
</event>
<event>
 7    1  0.2794945E-009  0.1226483E+03  0.7561462E-02  0.1238791E+00
         -2   -1    0    0    0  501 -0.00000000000E+00  0.00000000000E+00  0.13633593785E+02  0.13633593785E+02  0.00000000000E+00 0.  1.
          2   -1    0    0  501    0  0.00000000000E+00 -0.00000000000E+00 -0.13162270721E+04  0.13162270721E+04  0.00000000000E+00 0. -1.
         25    2    1    2    0    0  0.70640887994E+02 -0.82855401657E+01 -0.89175573085E+03  0.90329129353E+03  0.12509233479E+03 0.  0.
          5    1    3    3  502    0 -0.31800793210E+02 -0.55517793193E+01 -0.37793677476E+03  0.37933598671E+03  0.41800000000E+01 0. -1.
         -5    1    3    3    0  502  0.10244168120E+03 -0.27337608464E+01 -0.51381895610E+03  0.52395530681E+03  0.41800000000E+01 0. -1.
        -11    1    1    2    0    0 -0.49393380627E+02 -0.35961528748E+02 -0.16664197392E+03  0.17748939425E+03  0.00000000000E+00 0.  1.
         11    1    1    2    0    0 -0.21247507367E+02  0.44247068913E+02 -0.24419577351E+03  0.24907997808E+03  0.00000000000E+00 0. -1.
</event>
<event>
 7    1  0.2794945E-009  0.1032182E+03  0.7561462E-02  0.1273670E+00
          2   -1    0    0  501    0  0.00000000000E+00  0.00000000000E+00  0.70577344692E+02  0.70577344692E+02  0.00000000000E+00 0. -1.
         -2   -1    0    0    0  501 -0.00000000000E+00 -0.00000000000E+00 -0.49694417348E+03  0.49694417348E+03  0.00000000000E+00 0.  1.
         25    2    1    2    0    0  0.17717556872E+02 -0.50171310745E+02 -0.44196532585E+03  0.46239813621E+03  0.12509042679E+03 0.  0.
          5    1    3    3  502    0 -0.37978022939E+02  0.22072185145E+02 -0.12604545557E+03  0.13354565082E+03  0.41800000000E+01 0. -1.
         -5    1    3    3    0  502  0.55695579811E+02 -0.72243495890E+02 -0.31591987028E+03  0.32885248539E+03  0.41800000000E+01 0. -1.
        -11    1    1    2    0    0  0.28258663743E+01  0.50372335881E+02  0.46104417248E+02  0.68344531841E+02  0.00000000000E+00 0. -1.
         11    1    1    2    0    0 -0.20543423246E+02 -0.20102513543E+00 -0.30505920187E+02  0.36778850121E+02  0.00000000000E+00 0.  1.
</event>
<event>
 7    1  0.2794945E-009  0.3258606E+03  0.7561462E-02  0.1072983E+00
         -1   -1    0    0    0  501 -0.00000000000E+00  0.00000000000E+00  0.44989398066E+02  0.44989398066E+02  0.00000000000E+00 0.  1.
          1   -1    0    0  501    0  0.00000000000E+00 -0.00000000000E+00 -0.26702029958E+04  0.26702029958E+04  0.00000000000E+00 0. -1.
         25    2    1    2    0    0  0.30069746004E+03  0.10337380411E+03 -0.16353091813E+04  0.16706251972E+04  0.12508926920E+03 0.  0.
          5    1    3    3  502    0  0.17610605509E+03  0.32899587884E+02 -0.11740596163E+04  0.11876570130E+04  0.41800000000E+01 0. -1.
         -5    1    3    3    0  502  0.12459140495E+03  0.70474216225E+02 -0.46124956496E+03  0.48296818417E+03  0.41800000000E+01 0. -1.
        -11    1    1    2    0    0 -0.29382469269E+02 -0.41814626982E+02 -0.10183790851E+03  0.11394188053E+03  0.00000000000E+00 0.  1.
         11    1    1    2    0    0 -0.27131499077E+03 -0.61559177127E+02 -0.88806650795E+03  0.93062531614E+03  0.00000000000E+00 0. -1.
</event>
<event>
 7    1  0.2794945E-009  0.1243388E+03  0.7561462E-02  0.1236106E+00
          3   -1    0    0  501    0  0.00000000000E+00  0.00000000000E+00  0.60304794284E+02  0.60304794284E+02  0.00000000000E+00 0.  1.
         -3   -1    0    0    0  501 -0.00000000000E+00 -0.00000000000E+00 -0.32487059669E+03  0.32487059669E+03  0.00000000000E+00 0. -1.
         25    2    1    2    0    0 -0.40930550639E+02  0.49162272727E+02 -0.22813855729E+03  0.26793124533E+03  0.12509081449E+03 0.  0.
          5    1    3    3  502    0 -0.76862172784E+02 -0.26070821956E+01 -0.13434140147E+03  0.15485372140E+03  0.41800000000E+01 0.  1.
         -5    1    3    3    0  502  0.35931622145E+02  0.51769354922E+02 -0.93797155816E+02  0.11307752393E+03  0.41800000000E+01 0.  1.
        -11    1    1    2    0    0 -0.41301241292E+01 -0.61614450331E+02 -0.73476360947E+01  0.62188312174E+02  0.00000000000E+00 0.  1.
         11    1    1    2    0    0  0.45060674768E+02  0.12452177604E+02 -0.29079609019E+02  0.55055833464E+02  0.00000000000E+00 0. -1.
</event>
<event>
 7    1  0.2794945E-009  0.1318116E+03  0.7561462E-02  0.1224792E+00
          2   -1    0    0  501    0  0.00000000000E+00  0.00000000000E+00  0.66867698780E+03  0.66867698780E+03  0.00000000000E+00 0. -1.
         -2   -1    0    0    0  501 -0.00000000000E+00 -0.00000000000E+00 -0.29871456732E+02  0.29871456732E+02  0.00000000000E+00 0.  1.
         25    2    1    2    0    0  0.83221414658E+02  0.23372263824E+02  0.28463938490E+03  0.32270661863E+03  0.12509162921E+03 0.  0.
          5    1    3    3  502    0  0.89142351684E+01  0.59520879627E+02  0.68540158128E+02  0.91309497734E+02  0.41800000000E+01 0. -1.
         -5    1    3    3    0  502  0.74307179489E+02 -0.36148615803E+02  0.21609922677E+03  0.23139712089E+03  0.41800000000E+01 0. -1.
        -11    1    1    2    0    0 -0.46390157364E+02  0.30337567901E+02  0.11050494322E+03  0.12362749372E+03  0.00000000000E+00 0.  1.
         11    1    1    2    0    0 -0.36831257294E+02 -0.53709831725E+02  0.24366120295E+03  0.25221433219E+03  0.00000000000E+00 0. -1.
</event>
<event>
 7    1  0.2794945E-009  0.7400896E+02  0.7561462E-02  0.1346968E+00
          2   -1    0    0  501    0  0.00000000000E+00  0.00000000000E+00  0.19400803884E+03  0.19400803884E+03  0.00000000000E+00 0. -1.
         -2   -1    0    0    0  501 -0.00000000000E+00 -0.00000000000E+00 -0.70024420582E+02  0.70024420582E+02  0.00000000000E+00 0.  1.
         25    2    1    2    0    0  0.27654944760E+02 -0.37932842221E+02  0.10235426350E+03  0.16831031177E+03  0.12509304259E+03 0.  0.
          5    1    3    3  502    0  0.38627153044E+02 -0.47665485911E+02 -0.32793109442E+01  0.61581505175E+02  0.41800000000E+01 0. -1.
         -5    1    3    3    0  502 -0.10972208284E+02  0.97326436895E+01  0.10563357444E+03  0.10672880660E+03  0.41800000000E+01 0. -1.
        -11    1    1    2    0    0  0.10394861838E+02  0.30870146324E+02  0.41065729440E+02  0.52415772637E+02  0.00000000000E+00 0. -1.
         11    1    1    2    0    0 -0.38049806598E+02  0.70626958977E+01 -0.19436374686E+02  0.43306375009E+02  0.00000000000E+00 0.  1.
</event>
<event>
 7    1  0.2794945E-009  0.1034291E+03  0.7561462E-02  0.1273246E+00
         -1   -1    0    0    0  501 -0.00000000000E+00  0.00000000000E+00  0.14442365066E+02  0.14442365066E+02  0.00000000000E+00 0.  1.
          1   -1    0    0  501    0  0.00000000000E+00 -0.00000000000E+00 -0.90746847358E+03  0.90746847358E+03  0.00000000000E+00 0. -1.
         25    2    1    2    0    0  0.17615584792E+02 -0.32234862425E+02 -0.57247026318E+03  0.58712679228E+03  0.12508506228E+03 0.  0.
          5    1    3    3  502    0  0.44878085360E+02 -0.57385273970E+02 -0.50298616208E+03  0.50825157536E+03  0.41800000000E+01 0.  1.
         -5    1    3    3    0  502 -0.27262500568E+02  0.25150411545E+02 -0.69484101096E+02  0.78875216914E+02  0.41800000000E+01 0.  1.
        -11    1    1    2    0    0  0.36680956694E+02  0.14494015724E+02 -0.13138759691E+03  0.13717969856E+03  0.00000000000E+00 0. -1.
         11    1    1    2    0    0 -0.54296541486E+02  0.17740846701E+02 -0.18916824843E+03  0.19760434781E+03  0.00000000000E+00 0.  1.
</event>
<event>
 7    1  0.2794945E-009  0.1180582E+03  0.7561462E-02  0.1246335E+00
         -1   -1    0    0    0  501 -0.00000000000E+00  0.00000000000E+00  0.33049235518E+02  0.33049235518E+02  0.00000000000E+00 0. -1.
          1   -1    0    0  501    0  0.00000000000E+00 -0.00000000000E+00 -0.61304354303E+03  0.61304354303E+03  0.00000000000E+00 0.  1.
         25    2    1    2    0    0 -0.47037612722E-01 -0.85092498192E+02 -0.39165249705E+03  0.41985655036E+03  0.12508840461E+03 0.  0.
          5    1    3    3  502    0 -0.59935285085E+02 -0.39230591896E+02 -0.23889815225E+03  0.24944153080E+03  0.41800000000E+01 0. -1.
         -5    1    3    3    0  502  0.59888247473E+02 -0.45861906295E+02 -0.15275434481E+03  0.17041501956E+03  0.41800000000E+01 0. -1.
        -11    1    1    2    0    0  0.12609450967E+02  0.49069620004E+02 -0.21412551075E+02  0.55002938144E+02  0.00000000000E+00 0. -1.
         11    1    1    2    0    0 -0.12562413354E+02  0.36022878188E+02 -0.16692925938E+03  0.17123329005E+03  0.00000000000E+00 0.  1.
</event>
<event>
 7    1  0.2794945E-009  0.1163948E+03  0.7561462E-02  0.1249166E+00
          3   -1    0    0  501    0  0.00000000000E+00  0.00000000000E+00  0.24375969992E+03  0.24375969992E+03  0.00000000000E+00 0.  1.
         -3   -1    0    0    0  501 -0.00000000000E+00 -0.00000000000E+00 -0.92911566767E+02  0.92911566767E+02  0.00000000000E+00 0. -1.
         25    2    1    2    0    0 -0.51788238275E+02  0.24488580739E+02  0.18069358118E+03  0.22710929394E+03  0.12508696536E+03 0.  0.
          5    1    3    3  502    0  0.34989223799E+02  0.35249926558E+02  0.59795146032E+02  0.77844299685E+02  0.41800000000E+01 0.  1.
         -5    1    3    3    0  502 -0.86777462074E+02 -0.10761345820E+02  0.12089843515E+03  0.14926499425E+03  0.41800000000E+01 0.  1.
        -11    1    1    2    0    0 -0.56299709755E+01 -0.36342467489E+02  0.10673824047E+02  0.38293629185E+02  0.00000000000E+00 0.  1.
         11    1    1    2    0    0  0.57418209250E+02  0.11853886751E+02 -0.40519272075E+02  0.71268343562E+02  0.00000000000E+00 0. -1.
</event>
<event>
 7    1  0.2794945E-009  0.1169355E+03  0.7561462E-02  0.1248240E+00
         -1   -1    0    0    0  501 -0.00000000000E+00  0.00000000000E+00  0.47660260517E+03  0.47660260517E+03  0.00000000000E+00 0.  1.
          1   -1    0    0  501    0  0.00000000000E+00 -0.00000000000E+00 -0.31489669924E+02  0.31489669924E+02  0.00000000000E+00 0. -1.
         25    2    1    2    0    0  0.38553549969E+02  0.40673070328E+02  0.27794803133E+03  0.30990958672E+03  0.12509264148E+03 0.  0.
          5    1    3    3  502    0 -0.44240137195E+02  0.15510616496E+02  0.13255037815E+03  0.14065860838E+03  0.41800000000E+01 0. -1.
         -5    1    3    3    0  502  0.82793687164E+02  0.25162453832E+02  0.14539765318E+03  0.16925097834E+03  0.41800000000E+01 0. -1.
        -11    1    1    2    0    0 -0.55479496247E+02 -0.54906509064E+02  0.96379275615E+02  0.12402283665E+03  0.00000000000E+00 0. -1.
         11    1    1    2    0    0  0.16925946278E+02  0.14233438736E+02  0.70785628296E+02  0.74159851732E+02  0.00000000000E+00 0.  1.
</event>
<event>
 7    1  0.2794945E-009  0.1491291E+03  0.7561462E-02  0.1201547E+00
         -1   -1    0    0    0  501 -0.00000000000E+00  0.00000000000E+00  0.37722893696E+02  0.37722893696E+02  0.00000000000E+00 0.  1.
          1   -1    0    0  501    0  0.00000000000E+00 -0.00000000000E+00 -0.92040124185E+03  0.92040124185E+03  0.00000000000E+00 0. -1.
         25    2    1    2    0    0 -0.12105806481E+03  0.86817986920E+02 -0.39743004929E+03  0.44248535346E+03  0.12510086346E+03 0.  0.
          5    1    3    3  502    0 -0.82657367524E+02  0.61172138793E+02 -0.10731443478E+03  0.14868803342E+03  0.41800000000E+01 0. -1.
         -5    1    3    3    0  502 -0.38400697288E+02  0.25645848127E+02 -0.29011561451E+03  0.29379732004E+03  0.41800000000E+01 0. -1.
        -11    1    1    2    0    0  0.75525098099E+02 -0.54884265022E+02 -0.15660034039E+03  0.18231837428E+03  0.00000000000E+00 0.  1.
         11    1    1    2    0    0  0.45532966714E+02 -0.31933721898E+02 -0.32864795848E+03  0.33332040782E+03  0.00000000000E+00 0. -1.
</event>
<event>
 7    1  0.2794945E-009  0.1885208E+03  0.7561462E-02  0.1159802E+00
          3   -1    0    0  501    0  0.00000000000E+00  0.00000000000E+00  0.10950839021E+03  0.10950839021E+03  0.00000000000E+00 0. -1.
         -3   -1    0    0    0  501 -0.00000000000E+00 -0.00000000000E+00 -0.40685094066E+03  0.40685094066E+03  0.00000000000E+00 0.  1.
         25    2    1    2    0    0  0.16210421979E+03 -0.80147708886E+02 -0.15025785260E+03  0.26630784737E+03  0.12506403956E+03 0.  0.
          5    1    3    3  502    0  0.58242709023E+02 -0.40159034280E+02  0.95607391077E+01  0.71511127252E+02  0.41800000000E+01 0.  1.
         -5    1    3    3    0  502  0.10386151077E+03 -0.39988674606E+02 -0.15981859170E+03  0.19479672012E+03  0.41800000000E+01 0.  1.
        -11    1    1    2    0    0 -0.49749685179E+02  0.64353167810E+02 -0.95414702500E+02  0.12538072753E+03  0.00000000000E+00 0.  1.
         11    1    1    2    0    0 -0.11235453461E+03  0.15794541076E+02 -0.51669995347E+02  0.12467075597E+03  0.00000000000E+00 0. -1.
</event>
<event>
 7    1  0.2794945E-009  0.2862936E+03  0.7561462E-02  0.1092300E+00
         -2   -1    0    0    0  501 -0.00000000000E+00  0.00000000000E+00  0.95194654446E+02  0.95194654446E+02  0.00000000000E+00 0.  1.
          2   -1    0    0  501    0  0.00000000000E+00 -0.00000000000E+00 -0.10055876210E+04  0.10055876210E+04  0.00000000000E+00 0. -1.
         25    2    1    2    0    0 -0.27524433940E+03 -0.22375180306E+02 -0.61703856552E+03  0.68749061559E+03  0.12508661050E+03 0.  0.
          5    1    3    3  502    0 -0.30394970189E+02 -0.36920323168E+02 -0.48286455671E+02  0.68088315274E+02  0.41800000000E+01 0.  1.
         -5    1    3    3    0  502 -0.24484936921E+03  0.14545142862E+02 -0.56875210985E+03  0.61940230032E+03  0.41800000000E+01 0.  1.
        -11    1    1    2    0    0  0.52247982830E+02 -0.12072686713E+02 -0.16443581937E+02  0.56089151011E+02  0.00000000000E+00 0.  1.
         11    1    1    2    0    0  0.22299635657E+03  0.34447867020E+02 -0.27691081909E+03  0.35720250883E+03  0.00000000000E+00 0. -1.
</event>
<event>
 7    1  0.2794945E-009  0.1820366E+03  0.7561462E-02  0.1165846E+00
         -1   -1    0    0    0  501 -0.00000000000E+00  0.00000000000E+00  0.40745816796E+02  0.40745816796E+02  0.00000000000E+00 0.  1.
          1   -1    0    0  501    0  0.00000000000E+00 -0.00000000000E+00 -0.10284493552E+04  0.10284493552E+04  0.00000000000E+00 0. -1.
         25    2    1    2    0    0  0.51466520786E+02 -0.16540228443E+03 -0.47090755931E+03  0.51711508627E+03  0.12508942630E+03 0.  0.
          5    1    3    3  502    0  0.59832016351E+02 -0.15475063436E+03 -0.47433489492E+03  0.50253228151E+03  0.41800000000E+01 0. -1.
         -5    1    3    3    0  502 -0.83654955646E+01 -0.10651650069E+02  0.34273356117E+01  0.14582804759E+02  0.41800000000E+01 0. -1.
        -11    1    1    2    0    0 -0.40147407489E+02  0.35663332921E+02 -0.24336267948E+03  0.24921693643E+03  0.00000000000E+00 0.  1.
         11    1    1    2    0    0 -0.11319113297E+02  0.12973895151E+03 -0.27343329964E+03  0.30286314933E+03  0.00000000000E+00 0. -1.
</event>
<event>
 7    1  0.2794945E-009  0.2051774E+03  0.7561462E-02  0.1145443E+00
          2   -1    0    0  501    0  0.00000000000E+00  0.00000000000E+00  0.11885586389E+04  0.11885586389E+04  0.00000000000E+00 0. -1.
         -2   -1    0    0    0  501 -0.00000000000E+00 -0.00000000000E+00 -0.45834698464E+02  0.45834698464E+02  0.00000000000E+00 0.  1.
         25    2    1    2    0    0 -0.19060414633E+03  0.66573104034E+02  0.47988049282E+03  0.53543909870E+03  0.12509125569E+03 0.  0.
          5    1    3    3  502    0 -0.15912228947E+03  0.57293909867E+02  0.47203597742E+03  0.50143586977E+03  0.41800000000E+01 0. -1.
         -5    1    3    3    0  502 -0.31481856859E+02  0.92791941672E+01  0.78445153973E+01  0.34003228928E+02  0.41800000000E+01 0. -1.
        -11    1    1    2    0    0  0.26444962420E+02 -0.29847414350E+02  0.52943431561E+02  0.66281302991E+02  0.00000000000E+00 0.  1.
         11    1    1    2    0    0  0.16415918391E+03 -0.36725689684E+02  0.60990001601E+03  0.63267293563E+03  0.00000000000E+00 0. -1.
</event>
<event>
 7    1  0.2794945E-009  0.1065628E+03  0.7561462E-02  0.1267071E+00
         -2   -1    0    0    0  501 -0.00000000000E+00  0.00000000000E+00  0.26501500098E+02  0.26501500098E+02  0.00000000000E+00 0.  1.
          2   -1    0    0  501    0  0.00000000000E+00 -0.00000000000E+00 -0.68764800559E+03  0.68764800559E+03  0.00000000000E+00 0. -1.
         25    2    1    2    0    0 -0.68820924225E+02  0.84245208875E+01 -0.46957699908E+03  0.49087430357E+03  0.12509089367E+03 0.  0.
          5    1    3    3  502    0 -0.69055028223E+02 -0.46700009570E+02 -0.33803141819E+03  0.34818414654E+03  0.41800000000E+01 0.  1.
         -5    1    3    3    0  502  0.23410399808E+00  0.55124530458E+02 -0.13154558089E+03  0.14269015704E+03  0.41800000000E+01 0.  1.
        -11    1    1    2    0    0  0.30809088484E+02 -0.17308086497E+02 -0.88457624792E+01  0.36428248726E+02  0.00000000000E+00 0.  1.
         11    1    1    2    0    0  0.38011835741E+02  0.88835656093E+01 -0.18272374393E+03  0.18684695339E+03  0.00000000000E+00 0. -1.
</event>
<event>
 7    1  0.2794945E-009  0.1503747E+03  0.7561462E-02  0.1200013E+00
         -1   -1    0    0    0  501 -0.00000000000E+00  0.00000000000E+00  0.58691524810E+02  0.58691524810E+02  0.00000000000E+00 0.  1.
          1   -1    0    0  501    0  0.00000000000E+00 -0.00000000000E+00 -0.75811892046E+03  0.75811892046E+03  0.00000000000E+00 0. -1.
         25    2    1    2    0    0  0.24358319980E+02  0.13881482963E+03 -0.15115268891E+03  0.24155896471E+03  0.12506283778E+03 0.  0.
          5    1    3    3  502    0  0.76043653447E+01  0.29111827723E+02 -0.12340825477E+03  0.12709207147E+03  0.41800000000E+01 0. -1.
         -5    1    3    3    0  502  0.16753954636E+02  0.10970300190E+03 -0.27744434135E+02  0.11446689324E+03  0.41800000000E+01 0. -1.
        -11    1    1    2    0    0 -0.49586636963E+02 -0.68119400743E+02 -0.40318864557E+03  0.41189825350E+03  0.00000000000E+00 0. -1.
         11    1    1    2    0    0  0.25228316982E+02 -0.70695428882E+02 -0.14508606118E+03  0.16335322706E+03  0.00000000000E+00 0.  1.
</event>
<event>
 6    1  0.2794945E-009  0.1355661E+03  0.7561462E-02  0.1219423E+00
         -2   -1    0    0    0  501 -0.00000000000E+00  0.00000000000E+00  0.13712995333E+02  0.13712995333E+02  0.00000000000E+00 0.  1.
          2   -1    0    0  501    0  0.00000000000E+00 -0.00000000000E+00 -0.21363993548E+04  0.21363993548E+04  0.00000000000E+00 0. -1.
          5    1    1    2  502    0 -0.13727568146E+02  0.10345472708E+02 -0.84975220698E+03  0.84993632738E+03  0.41800000000E+01 0.  1.
         -5    1    1    2    0  502  0.39243897617E+02  0.10551357031E+03 -0.65037563499E+03  0.66005994880E+03  0.41800000000E+01 0.  1.
        -11    1    1    2    0    0  0.26902977901E+02 -0.48200646459E+02 -0.14924171978E+03  0.15912310788E+03  0.00000000000E+00 0.  1.
         11    1    1    2    0    0 -0.52419307372E+02 -0.67658396562E+02 -0.47331679773E+03  0.48099296609E+03  0.00000000000E+00 0. -1.
</event>
<event>
 7    1  0.2794945E-009  0.9676660E+02  0.7561462E-02  0.1287246E+00
          2   -1    0    0  501    0  0.00000000000E+00  0.00000000000E+00  0.10812934256E+04  0.10812934256E+04  0.00000000000E+00 0. -1.
         -2   -1    0    0    0  501 -0.00000000000E+00 -0.00000000000E+00 -0.12912020057E+02  0.12912020057E+02  0.00000000000E+00 0.  1.
         25    2    1    2    0    0  0.34133577633E+02 -0.27529530832E+02  0.66151755058E+03  0.67466809840E+03  0.12509435273E+03 0.  0.
          5    1    3    3  502    0  0.62979846229E+02 -0.31803846667E+02  0.19837871729E+03  0.21059328947E+03  0.41800000000E+01 0.  1.
         -5    1    3    3    0  502 -0.28846268595E+02  0.42743158348E+01  0.46313883329E+03  0.46407480893E+03  0.41800000000E+01 0.  1.
        -11    1    1    2    0    0  0.99151818096E-01 -0.28087492463E+02  0.56021962494E+02  0.62668790842E+02  0.00000000000E+00 0.  1.
         11    1    1    2    0    0 -0.34232729451E+02  0.55617023295E+02  0.35084189249E+03  0.35686855643E+03  0.00000000000E+00 0. -1.
</event>
<event>
 7    1  0.2794945E-009  0.9919501E+02  0.7561462E-02  0.1281998E+00
          2   -1    0    0  501    0  0.00000000000E+00  0.00000000000E+00  0.52380954722E+03  0.52380954722E+03  0.00000000000E+00 0. -1.
         -2   -1    0    0    0  501 -0.00000000000E+00 -0.00000000000E+00 -0.52428931840E+02  0.52428931840E+02  0.00000000000E+00 0.  1.
         25    2    1    2    0    0  0.86145384069E+01 -0.34225853219E+02  0.46195644326E+03  0.47988874313E+03  0.12507530137E+03 0.  0.
          5    1    3    3  502    0 -0.48126376404E+02 -0.49387282616E+02  0.29058218565E+03  0.29868165462E+03  0.41800000000E+01 0.  1.
         -5    1    3    3    0  502  0.56740914811E+02  0.15161429397E+02  0.17137425760E+03  0.18120708851E+03  0.41800000000E+01 0.  1.
        -11    1    1    2    0    0 -0.20607938517E+02 -0.11191506421E+02  0.35558344508E+02  0.42594985738E+02  0.00000000000E+00 0. -1.
         11    1    1    2    0    0  0.11993400110E+02  0.45417359640E+02 -0.26134172381E+02  0.53754750199E+02  0.00000000000E+00 0.  1.
</event>
<event>
 7    1  0.2794945E-009  0.9152656E+02  0.7561462E-02  0.1299196E+00
         -2   -1    0    0    0  501 -0.00000000000E+00  0.00000000000E+00  0.16425473567E+03  0.16425473567E+03  0.00000000000E+00 0.  1.
          2   -1    0    0  501    0  0.00000000000E+00 -0.00000000000E+00 -0.10124865042E+03  0.10124865042E+03  0.00000000000E+00 0. -1.
         25    2    1    2    0    0  0.65287049142E+01  0.52500361260E+02  0.80333551884E+02  0.15779409142E+03  0.12508630544E+03 0.  0.
          5    1    3    3  502    0 -0.27891378323E+02 -0.20967809617E+02  0.66737609342E+02  0.75425187607E+02  0.41800000000E+01 0.  1.
         -5    1    3    3    0  502  0.34420083237E+02  0.73468170877E+02  0.13595942542E+02  0.82368903815E+02  0.41800000000E+01 0.  1.
        -11    1    1    2    0    0  0.12365421808E+02 -0.17139757681E+01  0.32052324976E+02  0.34397571219E+02  0.00000000000E+00 0.  1.
         11    1    1    2    0    0 -0.18894126722E+02 -0.50786385492E+02 -0.49379791615E+02  0.73311723454E+02  0.00000000000E+00 0. -1.
</event>
<event>
 7    1  0.2794945E-009  0.1044813E+03  0.7561462E-02  0.1271145E+00
         -2   -1    0    0    0  501 -0.00000000000E+00  0.00000000000E+00  0.14271974831E+02  0.14271974831E+02  0.00000000000E+00 0.  1.
          2   -1    0    0  501    0  0.00000000000E+00 -0.00000000000E+00 -0.11437399799E+04  0.11437399799E+04  0.00000000000E+00 0. -1.
         25    2    1    2    0    0 -0.36583228150E+02  0.20382783631E+02 -0.87866766071E+03  0.88851404880E+03  0.12508623623E+03 0.  0.
          5    1    3    3  502    0  0.13111694697E+02 -0.39255309567E+02 -0.51245867829E+03  0.51414420664E+03  0.41800000000E+01 0. -1.
         -5    1    3    3    0  502 -0.49694922847E+02  0.59638093198E+02 -0.36620898243E+03  0.37436984217E+03  0.41800000000E+01 0. -1.
        -11    1    1    2    0    0 -0.12550275856E+02  0.21609859700E+02 -0.13111865014E+03  0.13347882183E+03  0.00000000000E+00 0.  1.
         11    1    1    2    0    0  0.49133504006E+02 -0.41992643331E+02 -0.11968169423E+03  0.13601908411E+03  0.00000000000E+00 0. -1.
</event>
<event>
 7    1  0.2794945E-009  0.2357623E+03  0.7561462E-02  0.1122648E+00
         -2   -1    0    0    0  501 -0.00000000000E+00  0.00000000000E+00  0.39037474753E+02  0.39037474753E+02  0.00000000000E+00 0.  1.
          2   -1    0    0  501    0  0.00000000000E+00 -0.00000000000E+00 -0.19541626656E+04  0.19541626656E+04  0.00000000000E+00 0. -1.
         25    2    1    2    0    0 -0.21432137643E+03 -0.21612085645E+02 -0.14626102765E+04  0.14836696784E+04  0.12508460664E+03 0.  0.
          5    1    3    3  502    0 -0.10145632427E+03  0.42540373540E+02 -0.47716517386E+03  0.48970107684E+03  0.41800000000E+01 0. -1.
         -5    1    3    3    0  502 -0.11286505216E+03 -0.64152459184E+02 -0.98544510267E+03  0.99396860152E+03  0.41800000000E+01 0. -1.
        -11    1    1    2    0    0  0.14613406330E+03 -0.25928860100E+02 -0.32540907659E+03  0.35765701079E+03  0.00000000000E+00 0. -1.
         11    1    1    2    0    0  0.68187313134E+02  0.47540945744E+02 -0.12710583768E+03  0.15187345116E+03  0.00000000000E+00 0.  1.
</event>
<event>
 7    1  0.2794945E-009  0.9854133E+02  0.7561462E-02  0.1283394E+00
          1   -1    0    0  501    0  0.00000000000E+00  0.00000000000E+00  0.32343379045E+02  0.32343379045E+02  0.00000000000E+00 0. -1.
         -1   -1    0    0    0  501 -0.00000000000E+00 -0.00000000000E+00 -0.50791947885E+03  0.50791947885E+03  0.00000000000E+00 0.  1.
         25    2    1    2    0    0 -0.22109150869E+02  0.51479332169E+02 -0.34761117177E+03  0.37365742014E+03  0.12508958666E+03 0.  0.
          5    1    3    3  502    0 -0.57785139273E+02 -0.10838992719E+01 -0.81268283668E+02  0.99811339480E+02  0.41800000000E+01 0.  1.
         -5    1    3    3    0  502  0.35675988404E+02  0.52563231441E+02 -0.26634288811E+03  0.27384608066E+03  0.41800000000E+01 0.  1.
        -11    1    1    2    0    0  0.33190656134E+02 -0.13366666375E+02 -0.12116291007E+03  0.12633581520E+03  0.00000000000E+00 0.  1.
         11    1    1    2    0    0 -0.11081505265E+02 -0.38112665794E+02 -0.68020179625E+01  0.40269622561E+02  0.00000000000E+00 0. -1.
</event>
<event>
 7    1  0.2794945E-009  0.1031283E+03  0.7561462E-02  0.1273852E+00
         -1   -1    0    0    0  501 -0.00000000000E+00  0.00000000000E+00  0.31780619871E+02  0.31780619871E+02  0.00000000000E+00 0.  1.
          1   -1    0    0  501    0  0.00000000000E+00 -0.00000000000E+00 -0.59105087293E+03  0.59105087293E+03  0.00000000000E+00 0. -1.
         25    2    1    2    0    0  0.58951693785E+02  0.40165106622E+02 -0.40356753958E+03  0.42848888698E+03  0.12508968494E+03 0.  0.
          5    1    3    3  502    0 -0.99410269516E+01 -0.30051228823E+02 -0.19801593968E+03  0.20057339090E+03  0.41800000000E+01 0.  1.
         -5    1    3    3    0  502  0.68892720736E+02  0.70216335445E+02 -0.20555159990E+03  0.22791549608E+03  0.41800000000E+01 0.  1.
        -11    1    1    2    0    0 -0.45794569777E+02 -0.16281168311E+02 -0.15956443025E+03  0.16680235749E+03  0.00000000000E+00 0. -1.
         11    1    1    2    0    0 -0.13157124008E+02 -0.23883938310E+02  0.38617167719E+01  0.27540248324E+02  0.00000000000E+00 0.  1.
</event>
<event>
 7    1  0.2794945E-009  0.1051889E+03  0.7561462E-02  0.1269748E+00
          2   -1    0    0  501    0  0.00000000000E+00  0.00000000000E+00  0.47345868557E+03  0.47345868557E+03  0.00000000000E+00 0. -1.
         -2   -1    0    0    0  501 -0.00000000000E+00 -0.00000000000E+00 -0.31829928728E+02  0.31829928728E+02  0.00000000000E+00 0.  1.
         25    2    1    2    0    0  0.53639215505E+02 -0.83815505499E+01  0.20365523389E+03  0.24509368346E+03  0.12509214026E+03 0.  0.
          5    1    3    3  502    0  0.56020822402E+02 -0.43326920439E+02  0.19674936187E+03  0.20914908169E+03  0.41800000000E+01 0. -1.
         -5    1    3    3    0  502 -0.23816068973E+01  0.34945369889E+02  0.69058720204E+01  0.35944601771E+02  0.41800000000E+01 0. -1.
        -11    1    1    2    0    0  0.24121586866E+02  0.10643457986E+02  0.77441918943E+02  0.81806998236E+02  0.00000000000E+00 0.  1.
         11    1    1    2    0    0 -0.77760802371E+02 -0.22619074363E+01  0.16053160401E+03  0.17838793260E+03  0.00000000000E+00 0. -1.
</event>
<event>
 7    1  0.2794945E-009  0.1080095E+03  0.7561462E-02  0.1264301E+00
          2   -1    0    0  501    0  0.00000000000E+00  0.00000000000E+00  0.10705048773E+04  0.10705048773E+04  0.00000000000E+00 0. -1.
         -2   -1    0    0    0  501 -0.00000000000E+00 -0.00000000000E+00 -0.13822133576E+02  0.13822133576E+02  0.00000000000E+00 0.  1.
         25    2    1    2    0    0 -0.32421256943E+01 -0.54658077920E+02  0.64784354004E+03  0.66207624545E+03  0.12508271489E+03 0.  0.
          5    1    3    3  502    0 -0.54239934409E+02 -0.41998499500E+02  0.50800558126E+03  0.51263338502E+03  0.41800000000E+01 0.  1.
         -5    1    3    3    0  502  0.50997808714E+02 -0.12659578420E+02  0.13983795877E+03  0.14944286043E+03  0.41800000000E+01 0.  1.
        -11    1    1    2    0    0 -0.50569908472E+01 -0.19405684081E+02  0.29571036976E+02  0.35729539025E+02  0.00000000000E+00 0.  1.
         11    1    1    2    0    0  0.82991165416E+01  0.74063762001E+02  0.37926816669E+03  0.38652122638E+03  0.00000000000E+00 0. -1.
</event>
<event>
 7    1  0.2794945E-009  0.1168629E+03  0.7561462E-02  0.1248364E+00
         -4   -1    0    0    0  501 -0.00000000000E+00  0.00000000000E+00  0.11603494844E+03  0.11603494844E+03  0.00000000000E+00 0. -1.
          4   -1    0    0  501    0  0.00000000000E+00 -0.00000000000E+00 -0.24303907157E+03  0.24303907157E+03  0.00000000000E+00 0.  1.
         25    2    1    2    0    0  0.51694641758E+02 -0.65528398022E+02  0.36862032393E+02  0.15483018590E+03  0.12508904869E+03 0.  0.
          5    1    3    3  502    0  0.23724075938E+02 -0.95993162775E+02  0.50464297469E+02  0.11109291966E+03  0.41800000000E+01 0. -1.
         -5    1    3    3    0  502  0.27970565820E+02  0.30464764753E+02 -0.13602265076E+02  0.43737266249E+02  0.41800000000E+01 0. -1.
        -11    1    1    2    0    0 -0.30837612131E+02  0.78024332421E+01 -0.28630112297E+01  0.31937957351E+02  0.00000000000E+00 0.  1.
         11    1    1    2    0    0 -0.20857029627E+02  0.57725964780E+02 -0.16100314428E+03  0.17230587675E+03  0.00000000000E+00 0. -1.
</event>
<event>
 7    1  0.2794945E-009  0.2293678E+03  0.7561462E-02  0.1127086E+00
         -1   -1    0    0    0  501 -0.00000000000E+00  0.00000000000E+00  0.78248685533E+02  0.78248685533E+02  0.00000000000E+00 0.  1.
          1   -1    0    0  501    0  0.00000000000E+00 -0.00000000000E+00 -0.71924590170E+03  0.71924590170E+03  0.00000000000E+00 0. -1.
         25    2    1    2    0    0 -0.19176968651E+02  0.20721480272E+03 -0.38515265401E+03  0.45529628969E+03  0.12508562636E+03 0.  0.
          5    1    3    3  502    0 -0.21486196705E+02  0.22341027803E+03 -0.34343552005E+03  0.41029164969E+03  0.41800000000E+01 0. -1.
         -5    1    3    3    0  502  0.23092280536E+01 -0.16195475316E+02 -0.41717133962E+02  0.45004639993E+02  0.41800000000E+01 0. -1.
        -11    1    1    2    0    0  0.37276716442E+02 -0.18498897433E+03 -0.17866703237E+03  0.25986993413E+03  0.00000000000E+00 0.  1.
         11    1    1    2    0    0 -0.18099747791E+02 -0.22225828391E+02 -0.77177529791E+02  0.82328363414E+02  0.00000000000E+00 0. -1.
</event>
<event>
 7    1  0.2794945E-009  0.1136991E+03  0.7561462E-02  0.1253869E+00
          1   -1    0    0  501    0  0.00000000000E+00  0.00000000000E+00  0.94091292875E+02  0.94091292875E+02  0.00000000000E+00 0. -1.
         -1   -1    0    0    0  501 -0.00000000000E+00 -0.00000000000E+00 -0.17155769834E+03  0.17155769834E+03  0.00000000000E+00 0.  1.
         25    2    1    2    0    0  0.26621808256E+02 -0.38636339888E+02  0.55061230934E+01  0.13370629800E+03  0.12508225014E+03 0.  0.
          5    1    3    3  502    0  0.43227421886E+02 -0.74019177257E+02  0.25604875531E+02  0.89557415414E+02  0.41800000000E+01 0. -1.
         -5    1    3    3    0  502 -0.16605613630E+02  0.35382837370E+02 -0.20098752437E+02  0.44148882589E+02  0.41800000000E+01 0. -1.
        -11    1    1    2    0    0 -0.53698980574E+02  0.49559135063E+02 -0.54481069113E+02  0.91147546729E+02  0.00000000000E+00 0.  1.
         11    1    1    2    0    0  0.27077172318E+02 -0.10922795176E+02 -0.28491459446E+02  0.40795146483E+02  0.00000000000E+00 0. -1.
</event>
<event>
 7    1  0.2794945E-009  0.1124218E+03  0.7561462E-02  0.1256150E+00
         -2   -1    0    0    0  501 -0.00000000000E+00  0.00000000000E+00  0.16299064611E+02  0.16299064611E+02  0.00000000000E+00 0. -1.
          2   -1    0    0  501    0  0.00000000000E+00 -0.00000000000E+00 -0.21804613903E+04  0.21804613903E+04  0.00000000000E+00 0.  1.
         25    2    1    2    0    0  0.36092132874E+01 -0.75046643112E+02 -0.19226690176E+04  0.19281983107E+04  0.12509016332E+03 0.  0.
          5    1    3    3  502    0  0.42582373713E+02 -0.15910921386E+02 -0.13990768900E+04  0.13998214288E+04  0.41800000000E+01 0.  1.
         -5    1    3    3    0  502 -0.38973160425E+02 -0.59135721726E+02 -0.52359212765E+03  0.52837688193E+03  0.41800000000E+01 0.  1.
        -11    1    1    2    0    0 -0.39875198007E+02  0.27455281760E+02 -0.16192043016E+03  0.16900310534E+03  0.00000000000E+00 0.  1.
         11    1    1    2    0    0  0.36265984720E+02  0.47591361352E+02 -0.79572877892E+02  0.99559038862E+02  0.00000000000E+00 0. -1.
</event>
<event>
 7    1  0.2794945E-009  0.1280816E+03  0.7561462E-02  0.1230330E+00
          1   -1    0    0  501    0  0.00000000000E+00  0.00000000000E+00  0.76445778196E+02  0.76445778196E+02  0.00000000000E+00 0. -1.
         -1   -1    0    0    0  501 -0.00000000000E+00 -0.00000000000E+00 -0.28259311547E+03  0.28259311547E+03  0.00000000000E+00 0.  1.
         25    2    1    2    0    0  0.88687847020E+02  0.40613201325E+02 -0.95928870736E+02  0.18537626443E+03  0.12508814828E+03 0.  0.
          5    1    3    3  502    0  0.23438230501E+02 -0.30949650101E+02  0.11474312480E+02  0.40698448832E+02  0.41800000000E+01 0. -1.
         -5    1    3    3    0  502  0.65249616519E+02  0.71562851426E+02 -0.10740318322E+03  0.14467781559E+03  0.41800000000E+01 0. -1.
        -11    1    1    2    0    0 -0.42875369084E+02  0.17390487810E+02 -0.71294183024E+01  0.46814046457E+02  0.00000000000E+00 0. -1.
         11    1    1    2    0    0 -0.45812477936E+02 -0.58003689135E+02 -0.10308904824E+03  0.12684858279E+03  0.00000000000E+00 0.  1.
</event>
<event>
 7    1  0.2794945E-009  0.1211630E+03  0.7561462E-02  0.1241191E+00
         -2   -1    0    0    0  501 -0.00000000000E+00  0.00000000000E+00  0.10373591252E+03  0.10373591252E+03  0.00000000000E+00 0.  1.
          2   -1    0    0  501    0  0.00000000000E+00 -0.00000000000E+00 -0.16196592086E+03  0.16196592086E+03  0.00000000000E+00 0. -1.
         25    2    1    2    0    0 -0.21722578845E+02 -0.66714939272E+02 -0.14766817702E+02  0.14418301822E+03  0.12509168751E+03 0.  0.
          5    1    3    3  502    0  0.22906193231E+02  0.24795780621E+02 -0.24353429556E+02  0.41834033467E+02  0.41800000000E+01 0.  1.
         -5    1    3    3    0  502 -0.44628772075E+02 -0.91510719893E+02  0.95866118544E+01  0.10234898475E+03  0.41800000000E+01 0.  1.
        -11    1    1    2    0    0  0.28666154284E+02 -0.92570467413E+01  0.58406570781E+01  0.30684761542E+02  0.00000000000E+00 0.  1.
         11    1    1    2    0    0 -0.69435754391E+01  0.75971986013E+02 -0.49303847715E+02  0.90834053626E+02  0.00000000000E+00 0. -1.
</event>
<event>
 7    1  0.2794945E-009  0.1078123E+03  0.7561462E-02  0.1264676E+00
         -1   -1    0    0    0  501 -0.00000000000E+00  0.00000000000E+00  0.40870946230E+03  0.40870946230E+03  0.00000000000E+00 0.  1.
          1   -1    0    0  501    0  0.00000000000E+00 -0.00000000000E+00 -0.48188019625E+02  0.48188019625E+02  0.00000000000E+00 0. -1.
         25    2    1    2    0    0  0.25901696507E+02  0.13838646151E+02  0.33333910480E+03  0.35724403225E+03  0.12508370710E+03 0.  0.
          5    1    3    3  502    0 -0.30610848286E+02  0.47280733990E+02  0.20986304923E+03  0.21733031006E+03  0.41800000000E+01 0.  1.
         -5    1    3    3    0  502  0.56512544793E+02 -0.33442087839E+02  0.12347605558E+03  0.13991372220E+03  0.41800000000E+01 0.  1.
        -11    1    1    2    0    0 -0.76009353799E+00 -0.49613880909E+02  0.25751537863E+02  0.55903994699E+02  0.00000000000E+00 0.  1.
         11    1    1    2    0    0 -0.25141602969E+02  0.35775234758E+02  0.14308000120E+01  0.43749454974E+02  0.00000000000E+00 0. -1.
</event>
<event>
 7    1  0.2794945E-009  0.1093235E+03  0.7561462E-02  0.1261828E+00
          4   -1    0    0  501    0  0.00000000000E+00  0.00000000000E+00  0.76142504714E+02  0.76142504714E+02  0.00000000000E+00 0. -1.
         -4   -1    0    0    0  501 -0.00000000000E+00 -0.00000000000E+00 -0.21529792778E+03  0.21529792778E+03  0.00000000000E+00 0.  1.
         25    2    1    2    0    0 -0.63908093245E+02 -0.22871849074E+01 -0.10072106206E+03  0.17286769053E+03  0.12509608503E+03 0.  0.
          5    1    3    3  502    0 -0.63240656345E+02  0.52490687590E+02 -0.78093985852E+02  0.11344953030E+03  0.41800000000E+01 0.  1.
         -5    1    3    3    0  502 -0.66743689922E+00 -0.54777872498E+02 -0.22627076209E+02  0.59418160230E+02  0.41800000000E+01 0.  1.
        -11    1    1    2    0    0  0.11262138343E+01  0.16912522726E+02  0.23635199779E+02  0.29084780404E+02  0.00000000000E+00 0. -1.
         11    1    1    2    0    0  0.62781879410E+02 -0.14625337819E+02 -0.62069560785E+02  0.89487961563E+02  0.00000000000E+00 0.  1.
</event>
<event>
 7    1  0.2794945E-009  0.9227278E+02  0.7561462E-02  0.1297439E+00
          1   -1    0    0  501    0  0.00000000000E+00  0.00000000000E+00  0.27360322917E+03  0.27360322917E+03  0.00000000000E+00 0. -1.
         -1   -1    0    0    0  501 -0.00000000000E+00 -0.00000000000E+00 -0.58667075012E+02  0.58667075012E+02  0.00000000000E+00 0.  1.
         25    2    1    2    0    0  0.29363685034E+01  0.13774873769E+02  0.20329327806E+03  0.23911127913E+03  0.12509067709E+03 0.  0.
          5    1    3    3  502    0  0.20828978861E+02  0.56454976987E+02  0.17405443431E+03  0.18421028551E+03  0.41800000000E+01 0. -1.
         -5    1    3    3    0  502 -0.17892610357E+02 -0.42680103217E+02  0.29238843757E+02  0.54900993618E+02  0.41800000000E+01 0. -1.
        -11    1    1    2    0    0  0.30218971739E+02 -0.28446740598E+02  0.31239576543E+02  0.51945302446E+02  0.00000000000E+00 0. -1.
         11    1    1    2    0    0 -0.33155340243E+02  0.14671866828E+02 -0.19596700446E+02  0.41213722608E+02  0.00000000000E+00 0.  1.
</event>
<event>
 7    1  0.2794945E-009  0.1059406E+03  0.7561462E-02  0.1268278E+00
         -3   -1    0    0    0  501 -0.00000000000E+00  0.00000000000E+00  0.28263135599E+03  0.28263135599E+03  0.00000000000E+00 0.  1.
          3   -1    0    0  501    0  0.00000000000E+00 -0.00000000000E+00 -0.48534670697E+02  0.48534670697E+02  0.00000000000E+00 0. -1.
         25    2    1    2    0    0 -0.35207587997E+02 -0.23146901565E+02  0.14497486195E+03  0.19606222836E+03  0.12508930205E+03 0.  0.
          5    1    3    3  502    0 -0.29867898574E+01 -0.72578461241E+02  0.76528884387E+02  0.10559685836E+03  0.41800000000E+01 0. -1.
         -5    1    3    3    0  502 -0.32220798140E+02  0.49431559676E+02  0.68445977566E+02  0.90465370002E+02  0.41800000000E+01 0. -1.
        -11    1    1    2    0    0  0.51622934273E+02  0.39439132399E-01  0.12086005116E+02  0.53018868510E+02  0.00000000000E+00 0. -1.
         11    1    1    2    0    0 -0.16415346276E+02  0.23107462433E+02  0.77035818221E+02  0.82084929813E+02  0.00000000000E+00 0.  1.
</event>
<event>
 7    1  0.2794945E-009  0.1149862E+03  0.7561462E-02  0.1251605E+00
         -1   -1    0    0    0  501 -0.00000000000E+00  0.00000000000E+00  0.30663403270E+02  0.30663403270E+02  0.00000000000E+00 0. -1.
          1   -1    0    0  501    0  0.00000000000E+00 -0.00000000000E+00 -0.47764369330E+03  0.47764369330E+03  0.00000000000E+00 0.  1.
         25    2    1    2    0    0 -0.15513908341E+02 -0.44363580326E+02 -0.30935897903E+03  0.33698283020E+03  0.12508253806E+03 0.  0.
          5    1    3    3  502    0 -0.48720392376E+02  0.23106969530E+02 -0.17236010906E+03  0.18064630710E+03  0.41800000000E+01 0. -1.
         -5    1    3    3    0  502  0.33206484035E+02 -0.67470549856E+02 -0.13699886997E+03  0.15633652310E+03  0.41800000000E+01 0. -1.
        -11    1    1    2    0    0 -0.27222989358E+02  0.50526960802E+02 -0.92595777989E+02  0.10894054809E+03  0.00000000000E+00 0.  1.
         11    1    1    2    0    0  0.42736897699E+02 -0.61633804762E+01 -0.45025533009E+02  0.62383718281E+02  0.00000000000E+00 0. -1.
</event>
<event>
 7    1  0.2794945E-009  0.1283980E+03  0.7561462E-02  0.1229852E+00
         -2   -1    0    0    0  501 -0.00000000000E+00  0.00000000000E+00  0.34208795426E+02  0.34208795426E+02  0.00000000000E+00 0.  1.
          2   -1    0    0  501    0  0.00000000000E+00 -0.00000000000E+00 -0.10191315294E+04  0.10191315294E+04  0.00000000000E+00 0. -1.
         25    2    1    2    0    0  0.37205270034E+01  0.10721370941E+03 -0.82626236781E+03  0.84253550333E+03  0.12509177478E+03 0.  0.
          5    1    3    3  502    0  0.26601192821E+02  0.71413717663E+02 -0.75926894558E+03  0.76309524088E+03  0.41800000000E+01 0. -1.
         -5    1    3    3    0  502 -0.22880665817E+02  0.35799991747E+02 -0.66993422231E+02  0.79440262459E+02  0.41800000000E+01 0. -1.
        -11    1    1    2    0    0 -0.40445883615E+02 -0.24515517574E+02 -0.66939540702E+02  0.81962077894E+02  0.00000000000E+00 0. -1.
         11    1    1    2    0    0  0.36725356612E+02 -0.82698191836E+02 -0.91720825431E+02  0.12884274356E+03  0.00000000000E+00 0.  1.
</event>
<event>
 7    1  0.2794945E-009  0.1126719E+03  0.7561462E-02  0.1255700E+00
         -2   -1    0    0    0  501 -0.00000000000E+00  0.00000000000E+00  0.39997071705E+02  0.39997071705E+02  0.00000000000E+00 0.  1.
          2   -1    0    0  501    0  0.00000000000E+00 -0.00000000000E+00 -0.32327230181E+03  0.32327230181E+03  0.00000000000E+00 0. -1.
         25    2    1    2    0    0  0.14741868038E+02  0.32262286670E+02 -0.16323830912E+03  0.20868893819E+03  0.12508456957E+03 0.  0.
          5    1    3    3  502    0  0.66966617938E+02  0.38137105945E+02 -0.10133430474E+03  0.12737770796E+03  0.41800000000E+01 0. -1.
         -5    1    3    3    0  502 -0.52224749900E+02 -0.58748192751E+01 -0.61904004380E+02  0.81311230232E+02  0.41800000000E+01 0. -1.
        -11    1    1    2    0    0 -0.45920601767E+02  0.57534010232E+01 -0.73663637716E+02  0.86995027511E+02  0.00000000000E+00 0.  1.
         11    1    1    2    0    0  0.31178733729E+02 -0.38015687693E+02 -0.46373283262E+02  0.67585407806E+02  0.00000000000E+00 0. -1.
</event>
<event>
 7    1  0.2794945E-009  0.1026414E+03  0.7561462E-02  0.1274837E+00
         -2   -1    0    0    0  501 -0.00000000000E+00  0.00000000000E+00  0.54042478366E+02  0.54042478366E+02  0.00000000000E+00 0.  1.
          2   -1    0    0  501    0  0.00000000000E+00 -0.00000000000E+00 -0.29312768937E+03  0.29312768937E+03  0.00000000000E+00 0. -1.
         25    2    1    2    0    0 -0.34158960760E+02  0.34093471175E+02 -0.18514562738E+03  0.22859366906E+03  0.12508782043E+03 0.  0.
          5    1    3    3  502    0 -0.61620140686E+02 -0.40609123864E+01 -0.16687819581E+03  0.17798690228E+03  0.41800000000E+01 0.  1.
         -5    1    3    3    0  502  0.27461179926E+02  0.38154383561E+02 -0.18267431577E+02  0.50606766783E+02  0.41800000000E+01 0.  1.
        -11    1    1    2    0    0  0.58567437755E+02 -0.58425233300E+01 -0.80315944651E+01  0.59403588727E+02  0.00000000000E+00 0. -1.
         11    1    1    2    0    0 -0.24408476994E+02 -0.28250947845E+02 -0.45907989159E+02  0.59172909950E+02  0.00000000000E+00 0.  1.
</event>
<event>
 7    1  0.2794945E-009  0.1265533E+03  0.7561462E-02  0.1232661E+00
          2   -1    0    0  501    0  0.00000000000E+00  0.00000000000E+00  0.24915977131E+03  0.24915977131E+03  0.00000000000E+00 0. -1.
         -2   -1    0    0    0  501 -0.00000000000E+00 -0.00000000000E+00 -0.15093205541E+03  0.15093205541E+03  0.00000000000E+00 0.  1.
         25    2    1    2    0    0 -0.10013737619E+03 -0.45348026541E+01  0.17174043159E+03  0.23492397969E+03  0.12508573798E+03 0.  0.
          5    1    3    3  502    0 -0.52003389729E+02  0.14038282720E+02 -0.15691871471E+01  0.54049613073E+02  0.41800000000E+01 0.  1.
         -5    1    3    3    0  502 -0.48133986460E+02 -0.18573085375E+02  0.17330961874E+03  0.18087436662E+03  0.41800000000E+01 0.  1.
        -11    1    1    2    0    0  0.29982270697E+02  0.53801545842E+02 -0.38044345259E+02  0.72394164802E+02  0.00000000000E+00 0.  1.
         11    1    1    2    0    0  0.70155105492E+02 -0.49266743188E+02 -0.35468370437E+02  0.92773682219E+02  0.00000000000E+00 0. -1.
</event>
<event>
 7    1  0.2794945E-009  0.9998567E+02  0.7561462E-02  0.1280326E+00
         -1   -1    0    0    0  501 -0.00000000000E+00  0.00000000000E+00  0.60198840980E+02  0.60198840980E+02  0.00000000000E+00 0.  1.
          1   -1    0    0  501    0  0.00000000000E+00 -0.00000000000E+00 -0.24725069819E+03  0.24725069819E+03  0.00000000000E+00 0. -1.
         25    2    1    2    0    0 -0.19712536792E+02 -0.49921243364E+02 -0.12004569993E+03  0.18149175494E+03  0.12509025698E+03 0.  0.
          5    1    3    3  502    0  0.21348166833E+02 -0.67998700187E+02 -0.23859660770E+02  0.75274984333E+02  0.41800000000E+01 0.  1.
         -5    1    3    3    0  502 -0.41060703626E+02  0.18077456823E+02 -0.96186039164E+02  0.10621677060E+03  0.41800000000E+01 0.  1.
        -11    1    1    2    0    0  0.92389053930E+01  0.64727372728E+02 -0.80240639797E+02  0.10350628207E+03  0.00000000000E+00 0. -1.
         11    1    1    2    0    0  0.10473631399E+02 -0.14806129364E+02  0.13234482525E+02  0.22451502158E+02  0.00000000000E+00 0.  1.
</event>
<event>
 7    1  0.3846162E-009  0.5429527E+02  0.7561462E-02  0.1423461E+00
          2   -1    0    0  501    0  0.00000000000E+00  0.00000000000E+00  0.27065800079E+03  0.27065800079E+03  0.00000000000E+00 0. -1.
         -2   -1    0    0    0  501 -0.00000000000E+00 -0.00000000000E+00 -0.48920030169E+02  0.48920030169E+02  0.00000000000E+00 0.  1.
         25    2    1    2    0    0  0.60687164385E+01 -0.34327947276E+02  0.10641485818E+03  0.16789189621E+03  0.12509328315E+03 0.  0.
          5    1    3    3  502    0 -0.10775549449E+02 -0.11804181140E+02  0.12994076961E+03  0.13098674423E+03  0.41800000000E+01 0. -1.
         -5    1    3    3    0  502  0.16844265888E+02 -0.22523766136E+02 -0.23525911427E+02  0.36905151981E+02  0.41800000000E+01 0. -1.
        -11    1    1    2    0    0  0.11654322403E+02  0.42536342528E+02  0.10871583982E+02  0.45424167627E+02  0.00000000000E+00 0.  1.
         11    1    1    2    0    0 -0.17723038841E+02 -0.82083952521E+01  0.10445152846E+03  0.10626196712E+03  0.00000000000E+00 0. -1.
</event>
<event>
 7    1  0.2794945E-009  0.2212287E+03  0.7561462E-02  0.1132970E+00
          1   -1    0    0  501    0  0.00000000000E+00  0.00000000000E+00  0.28136733083E+03  0.28136733083E+03  0.00000000000E+00 0. -1.
         -1   -1    0    0    0  501 -0.00000000000E+00 -0.00000000000E+00 -0.27959534126E+03  0.27959534126E+03  0.00000000000E+00 0.  1.
         25    2    1    2    0    0 -0.19585334491E+03 -0.91947388241E+02  0.14226030154E+03  0.28757451122E+03  0.12509297020E+03 0.  0.
          5    1    3    3  502    0 -0.12918219305E+03 -0.36270900783E+02  0.14875235448E+03  0.20037053827E+03  0.41800000000E+01 0.  1.
         -5    1    3    3    0  502 -0.66671151858E+02 -0.55676487458E+02 -0.64920529436E+01  0.87203972944E+02  0.41800000000E+01 0.  1.
        -11    1    1    2    0    0  0.11119018399E+03  0.26663788383E+02 -0.27027373631E+02  0.11749337663E+03  0.00000000000E+00 0. -1.
         11    1    1    2    0    0  0.84663160921E+02  0.65283599858E+02 -0.11346093834E+03  0.15589478425E+03  0.00000000000E+00 0.  1.
</event>
<event>
 7    1  0.2794945E-009  0.1140403E+03  0.7561462E-02  0.1253266E+00
         -4   -1    0    0    0  501 -0.00000000000E+00  0.00000000000E+00  0.87507706774E+03  0.87507706774E+03  0.00000000000E+00 0.  1.
          4   -1    0    0  501    0  0.00000000000E+00 -0.00000000000E+00 -0.31424599299E+02  0.31424599299E+02  0.00000000000E+00 0. -1.
         25    2    1    2    0    0  0.21375518627E+02 -0.44917489736E+02  0.76187460350E+03  0.77367516088E+03  0.12508336991E+03 0.  0.
          5    1    3    3  502    0  0.44746881328E+02 -0.80207459021E+02  0.53692584179E+03  0.54474062805E+03  0.41800000000E+01 0.  1.
         -5    1    3    3    0  502 -0.23371362701E+02  0.35289969285E+02  0.22494876171E+03  0.22893453283E+03  0.41800000000E+01 0.  1.
        -11    1    1    2    0    0 -0.50569771448E+02  0.17375160739E+02  0.16076567556E+02  0.55835956331E+02  0.00000000000E+00 0.  1.
         11    1    1    2    0    0  0.29194252821E+02  0.27542328997E+02  0.65701297393E+02  0.76990549833E+02  0.00000000000E+00 0. -1.
</event>
<event>
 7    1  0.2794945E-009  0.9619974E+02  0.7561462E-02  0.1288497E+00
          3   -1    0    0  501    0  0.00000000000E+00  0.00000000000E+00  0.27805284541E+02  0.27805284541E+02  0.00000000000E+00 0. -1.
         -3   -1    0    0    0  501 -0.00000000000E+00 -0.00000000000E+00 -0.50756477953E+03  0.50756477953E+03  0.00000000000E+00 0.  1.
         25    2    1    2    0    0  0.11460136923E+00  0.28089639279E+02 -0.36194712551E+03  0.38398276807E+03  0.12509198032E+03 0.  0.
          5    1    3    3  502    0 -0.20723401065E+02 -0.42730124672E+02 -0.20529012366E+03  0.21075300752E+03  0.41800000000E+01 0. -1.
         -5    1    3    3    0  502  0.20838002434E+02  0.70819763951E+02 -0.15665700185E+03  0.17322976055E+03  0.41800000000E+01 0. -1.
        -11    1    1    2    0    0 -0.30883664088E+02 -0.25238642254E+02 -0.12747174374E+02  0.41872189157E+02  0.00000000000E+00 0. -1.
         11    1    1    2    0    0  0.30769062718E+02 -0.28509970252E+01 -0.10506519510E+03  0.10951510684E+03  0.00000000000E+00 0.  1.
</event>
<event>
 7    1  0.2794945E-009  0.9507772E+02  0.7561462E-02  0.1291001E+00
         -2   -1    0    0    0  501 -0.00000000000E+00  0.00000000000E+00  0.13566194541E+03  0.13566194541E+03  0.00000000000E+00 0.  1.
          2   -1    0    0  501    0  0.00000000000E+00 -0.00000000000E+00 -0.12159816649E+03  0.12159816649E+03  0.00000000000E+00 0. -1.
         25    2    1    2    0    0  0.27200819245E+02 -0.24229841867E+02 -0.55492380603E+02  0.14160974161E+03  0.12508774843E+03 0.  0.
          5    1    3    3  502    0 -0.18902022991E+02  0.35984857432E+02 -0.51240899613E+02  0.65538527834E+02  0.41800000000E+01 0. -1.
         -5    1    3    3    0  502  0.46102842236E+02 -0.60214699299E+02 -0.42514809904E+01  0.76071213771E+02  0.41800000000E+01 0. -1.
        -11    1    1    2    0    0 -0.47520774301E+02  0.23486679269E+02  0.11643386311E+02  0.54271691867E+02  0.00000000000E+00 0. -1.
         11    1    1    2    0    0  0.20319955056E+02  0.74316259763E+00  0.57912773217E+02  0.61378678430E+02  0.00000000000E+00 0.  1.
</event>
<event>
 7    1  0.2794945E-009  0.7317620E+02  0.7561462E-02  0.1349614E+00
          2   -1    0    0  501    0  0.00000000000E+00  0.00000000000E+00  0.33860920289E+03  0.33860920289E+03  0.00000000000E+00 0. -1.
         -2   -1    0    0    0  501 -0.00000000000E+00 -0.00000000000E+00 -0.39574498444E+02  0.39574498444E+02  0.00000000000E+00 0.  1.
         25    2    1    2    0    0 -0.26312823617E+02  0.89750656399E+01  0.21513485337E+03  0.25040644957E+03  0.12508984115E+03 0.  0.
          5    1    3    3  502    0 -0.22030388104E+02  0.36291827456E+02  0.21814789486E+03  0.22228002873E+03  0.41800000000E+01 0.  1.
         -5    1    3    3    0  502 -0.42824355129E+01 -0.27316761816E+02 -0.30130414880E+01  0.28126420836E+02  0.41800000000E+01 0.  1.
        -11    1    1    2    0    0  0.30514630923E+02  0.26250547358E+02  0.83051420193E+02  0.92291778253E+02  0.00000000000E+00 0. -1.
         11    1    1    2    0    0 -0.42018073052E+01 -0.35225612998E+02  0.84843088168E+00  0.35485473516E+02  0.00000000000E+00 0.  1.
</event>
<event>
 7    1  0.2794945E-009  0.7911231E+02  0.7561462E-02  0.1331590E+00
         -2   -1    0    0    0  501 -0.00000000000E+00  0.00000000000E+00  0.27226780643E+02  0.27226780643E+02  0.00000000000E+00 0.  1.
          2   -1    0    0  501    0  0.00000000000E+00 -0.00000000000E+00 -0.43851187105E+03  0.43851187105E+03  0.00000000000E+00 0. -1.
         25    2    1    2    0    0 -0.67401081449E+01  0.16178744787E+02 -0.21657403750E+03  0.25071786024E+03  0.12509176984E+03 0.  0.
          5    1    3    3  502    0  0.24611641162E+02  0.27016968266E+02 -0.57169005327E+01  0.37226399325E+02  0.41800000000E+01 0.  1.
         -5    1    3    3    0  502 -0.31351749307E+02 -0.10838223479E+02 -0.21085713697E+03  0.21349146092E+03  0.41800000000E+01 0.  1.
        -11    1    1    2    0    0 -0.72649902293E+01 -0.50456453291E+02 -0.83748800200E+02  0.98043333770E+02  0.00000000000E+00 0.  1.
         11    1    1    2    0    0  0.14005098374E+02  0.34277708505E+02 -0.11096225270E+03  0.11697745768E+03  0.00000000000E+00 0. -1.
</event>
<event>
 7    1  0.2794945E-009  0.1271307E+03  0.7561462E-02  0.1231776E+00
          1   -1    0    0  501    0  0.00000000000E+00  0.00000000000E+00  0.27782967914E+03  0.27782967914E+03  0.00000000000E+00 0. -1.
         -1   -1    0    0    0  501 -0.00000000000E+00 -0.00000000000E+00 -0.86495969706E+02  0.86495969706E+02  0.00000000000E+00 0.  1.
         25    2    1    2    0    0  0.89802776371E+02 -0.77520535341E+02  0.65840728940E+02  0.18454243214E+03  0.12508771175E+03 0.  0.
          5    1    3    3  502    0  0.65334147962E+02 -0.30187587609E+02  0.98381759039E+02  0.12196837396E+03  0.41800000000E+01 0. -1.
         -5    1    3    3    0  502  0.24468628408E+02 -0.47332947732E+02 -0.32541030099E+02  0.62574058180E+02  0.41800000000E+01 0. -1.
        -11    1    1    2    0    0 -0.78155908089E+02  0.36833320698E+02  0.82882369404E+02  0.11972688353E+03  0.00000000000E+00 0.  1.
         11    1    1    2    0    0 -0.11646868281E+02  0.40687214643E+02  0.42610611089E+02  0.60056333167E+02  0.00000000000E+00 0. -1.
</event>
<event>
 7    1  0.2794945E-009  0.2356303E+03  0.7561462E-02  0.1122739E+00
          1   -1    0    0  501    0  0.00000000000E+00  0.00000000000E+00  0.44516631190E+03  0.44516631190E+03  0.00000000000E+00 0. -1.
         -1   -1    0    0    0  501 -0.00000000000E+00 -0.00000000000E+00 -0.16435534767E+03  0.16435534767E+03  0.00000000000E+00 0.  1.
         25    2    1    2    0    0 -0.16007776827E+03 -0.16582421439E+03  0.43456779239E+02  0.26581695747E+03  0.12509037231E+03 0.  0.
          5    1    3    3  502    0 -0.10730434352E+03 -0.12855930048E+03 -0.27515038330E+02  0.16975354374E+03  0.41800000000E+01 0. -1.
         -5    1    3    3    0  502 -0.52773424755E+02 -0.37264913910E+02  0.70971817568E+02  0.96063413733E+02  0.41800000000E+01 0. -1.
        -11    1    1    2    0    0  0.55035410819E+02  0.10255048473E+03  0.68589362811E+02  0.13509255736E+03  0.00000000000E+00 0.  1.
         11    1    1    2    0    0  0.10504235745E+03  0.63273729660E+02  0.16876482218E+03  0.20861214473E+03  0.00000000000E+00 0. -1.
</event>
<event>
 7    1  0.2794945E-009  0.1291771E+03  0.7561462E-02  0.1228682E+00
         -2   -1    0    0    0  501 -0.00000000000E+00  0.00000000000E+00  0.31560565352E+02  0.31560565352E+02  0.00000000000E+00 0.  1.
          2   -1    0    0  501    0  0.00000000000E+00 -0.00000000000E+00 -0.97081078382E+03  0.97081078382E+03  0.00000000000E+00 0. -1.
         25    2    1    2    0    0  0.53701693459E+02 -0.61201237581E+02 -0.81024749072E+03  0.82388020374E+03  0.12509248793E+03 0.  0.
          5    1    3    3  502    0  0.16249502271E+02  0.35423170470E+02 -0.34463329391E+03  0.34685505186E+03  0.41800000000E+01 0. -1.
         -5    1    3    3    0  502  0.37452191187E+02 -0.96624408050E+02 -0.46561419681E+03  0.47702515188E+03  0.41800000000E+01 0. -1.
        -11    1    1    2    0    0 -0.19550827647E+02  0.75817700301E+02 -0.54988946246E+02  0.95678329573E+02  0.00000000000E+00 0.  1.
         11    1    1    2    0    0 -0.34150865811E+02 -0.14616462721E+02 -0.74013781511E+02  0.82812815866E+02  0.00000000000E+00 0. -1.
</event>
<event>
 7    1  0.2794945E-009  0.1392398E+03  0.7561462E-02  0.1214356E+00
         -1   -1    0    0    0  501 -0.00000000000E+00  0.00000000000E+00  0.34631910888E+02  0.34631910888E+02  0.00000000000E+00 0.  1.
          1   -1    0    0  501    0  0.00000000000E+00 -0.00000000000E+00 -0.61847405589E+03  0.61847405589E+03  0.00000000000E+00 0. -1.
         25    2    1    2    0    0 -0.90745169697E+02 -0.10853731240E+02 -0.23883888127E+03  0.28468180954E+03  0.12508889708E+03 0.  0.
          5    1    3    3  502    0 -0.54986470311E+02  0.56245451611E+02 -0.12072393040E+03  0.14414854323E+03  0.41800000000E+01 0.  1.
         -5    1    3    3    0  502 -0.35758699386E+02 -0.67099182851E+02 -0.11811495086E+03  0.14053326631E+03  0.41800000000E+01 0.  1.
        -11    1    1    2    0    0  0.66194996324E+02  0.46059439198E+02 -0.27236927715E+03  0.28405681230E+03  0.00000000000E+00 0.  1.
         11    1    1    2    0    0  0.24550173373E+02 -0.35205707958E+02 -0.72633986589E+02  0.84367344946E+02  0.00000000000E+00 0. -1.
</event>
<event>
 7    1  0.2794945E-009  0.1196687E+03  0.7561462E-02  0.1243645E+00
          1   -1    0    0  501    0  0.00000000000E+00  0.00000000000E+00  0.33197872094E+03  0.33197872094E+03  0.00000000000E+00 0. -1.
         -1   -1    0    0    0  501 -0.00000000000E+00 -0.00000000000E+00 -0.85027099900E+02  0.85027099900E+02  0.00000000000E+00 0.  1.
         25    2    1    2    0    0 -0.18473556281E+02  0.39878785837E+02  0.26398692664E+03  0.29541070232E+03  0.12508715270E+03 0.  0.
          5    1    3    3  502    0  0.20235881265E+02  0.70318627575E+02  0.20899828507E+03  0.22147676140E+03  0.41800000000E+01 0. -1.
         -5    1    3    3    0  502 -0.38709437545E+02 -0.30439841738E+02  0.54988641563E+02  0.73933940927E+02  0.41800000000E+01 0. -1.
        -11    1    1    2    0    0  0.61755463494E+02 -0.67589799093E+01 -0.24108408598E+02  0.66638100557E+02  0.00000000000E+00 0.  1.
         11    1    1    2    0    0 -0.43281907213E+02 -0.33119805928E+02  0.70731029981E+01  0.54957017957E+02  0.00000000000E+00 0. -1.
</event>
<event>
 7    1  0.2794945E-009  0.1044136E+03  0.7561462E-02  0.1271279E+00
          2   -1    0    0  501    0  0.00000000000E+00  0.00000000000E+00  0.19342815416E+03  0.19342815416E+03  0.00000000000E+00 0. -1.
         -2   -1    0    0    0  501 -0.00000000000E+00 -0.00000000000E+00 -0.93616152066E+02  0.93616152066E+02  0.00000000000E+00 0.  1.
         25    2    1    2    0    0 -0.19568933780E+02  0.76099556481E+02  0.48812884306E+02  0.15557033315E+03  0.12508135439E+03 0.  0.
          5    1    3    3  502    0 -0.37927885794E+02 -0.37404432205E+01  0.61592314776E+02  0.72550679361E+02  0.41800000000E+01 0. -1.
         -5    1    3    3    0  502  0.18358952014E+02  0.79839999701E+02 -0.12779430470E+02  0.83019653784E+02  0.41800000000E+01 0. -1.
        -11    1    1    2    0    0  0.27105455984E+02 -0.25225718583E+02  0.67899353967E+02  0.77339284270E+02  0.00000000000E+00 0. -1.
         11    1    1    2    0    0 -0.75365222047E+01 -0.50873837897E+02 -0.16900236183E+02  0.54134688809E+02  0.00000000000E+00 0.  1.
</event>
<event>
 7    1  0.2794945E-009  0.1493875E+03  0.7561462E-02  0.1201228E+00
         -1   -1    0    0    0  501 -0.00000000000E+00  0.00000000000E+00  0.36712460275E+02  0.36712460275E+02  0.00000000000E+00 0.  1.
          1   -1    0    0  501    0  0.00000000000E+00 -0.00000000000E+00 -0.81386763213E+03  0.81386763213E+03  0.00000000000E+00 0. -1.
         25    2    1    2    0    0  0.10356935211E+03 -0.74124886310E+02 -0.30289235063E+03  0.35158626680E+03  0.12509203599E+03 0.  0.
          5    1    3    3  502    0  0.84002304147E+02 -0.18924870801E+02 -0.68956716425E+02  0.11039492279E+03  0.41800000000E+01 0.  1.
         -5    1    3    3    0  502  0.19567047960E+02 -0.55200015509E+02 -0.23393563420E+03  0.24119134402E+03  0.41800000000E+01 0.  1.
        -11    1    1    2    0    0 -0.89408148834E+02  0.93816251293E+02 -0.37320760605E+03  0.39506863112E+03  0.00000000000E+00 0. -1.
         11    1    1    2    0    0 -0.14161203274E+02 -0.19691364983E+02 -0.10105521518E+03  0.10392519448E+03  0.00000000000E+00 0.  1.
</event>
<event>
 7    1  0.2794945E-009  0.9886121E+02  0.7561462E-02  0.1282709E+00
          1   -1    0    0  501    0  0.00000000000E+00  0.00000000000E+00  0.99603412768E+02  0.99603412768E+02  0.00000000000E+00 0. -1.
         -1   -1    0    0    0  501 -0.00000000000E+00 -0.00000000000E+00 -0.24746634158E+03  0.24746634158E+03  0.00000000000E+00 0.  1.
         25    2    1    2    0    0  0.20844830505E+02 -0.57120678203E+02 -0.18002848117E+03  0.22749587852E+03  0.12508733698E+03 0.  0.
          5    1    3    3  502    0 -0.39719212095E+02 -0.45912314336E+01 -0.12196355058E+03  0.12841836039E+03  0.41800000000E+01 0.  1.
         -5    1    3    3    0  502  0.60564042600E+02 -0.52529446769E+02 -0.58064930590E+02  0.99077518128E+02  0.41800000000E+01 0.  1.
        -11    1    1    2    0    0  0.14108541833E+02  0.60416998958E+01 -0.28839587258E+02  0.32669173291E+02  0.00000000000E+00 0.  1.
         11    1    1    2    0    0 -0.34953372338E+02  0.51078978307E+02  0.61005139619E+02  0.86904702535E+02  0.00000000000E+00 0. -1.
</event>
<event>
 7    1  0.2794945E-009  0.7753989E+02  0.7561462E-02  0.1336181E+00
         -1   -1    0    0    0  501 -0.00000000000E+00  0.00000000000E+00  0.42596974312E+03  0.42596974312E+03  0.00000000000E+00 0.  1.
          1   -1    0    0  501    0  0.00000000000E+00 -0.00000000000E+00 -0.34481417239E+02  0.34481417239E+02  0.00000000000E+00 0. -1.
         25    2    1    2    0    0 -0.23737303493E+02  0.15799827680E+02  0.13238900028E+03  0.18435607306E+03  0.12508884902E+03 0.  0.
          5    1    3    3  502    0  0.16218545003E+02 -0.67924172634E+01 -0.18930521773E+02  0.26172794824E+02  0.41800000000E+01 0. -1.
         -5    1    3    3    0  502 -0.39955848496E+02  0.22592244943E+02  0.15131952205E+03  0.15818327824E+03  0.41800000000E+01 0. -1.
        -11    1    1    2    0    0  0.36626793134E+02 -0.45575857481E+02  0.12311868191E+03  0.13629706745E+03  0.00000000000E+00 0. -1.
         11    1    1    2    0    0 -0.12889489641E+02  0.29776029801E+02  0.13598064369E+03  0.13979801984E+03  0.00000000000E+00 0.  1.
</event>
<event>
 7    1  0.2794945E-009  0.1102238E+03  0.7561462E-02  0.1260156E+00
         -1   -1    0    0    0  501 -0.00000000000E+00  0.00000000000E+00  0.65723602254E+02  0.65723602254E+02  0.00000000000E+00 0.  1.
          1   -1    0    0  501    0  0.00000000000E+00 -0.00000000000E+00 -0.44153764570E+03  0.44153764570E+03  0.00000000000E+00 0. -1.
         25    2    1    2    0    0 -0.25106194702E+02 -0.77411877079E+01 -0.83780643336E+01  0.12809679694E+03  0.12509336683E+03 0.  0.
          5    1    3    3  502    0 -0.10589398183E+02 -0.66056035257E+02  0.15314518068E+01  0.67047392882E+02  0.41800000000E+01 0.  1.
         -5    1    3    3    0  502 -0.14516796519E+02  0.58314847549E+02 -0.99095161403E+01  0.61049404059E+02  0.41800000000E+01 0.  1.
        -11    1    1    2    0    0  0.31362535821E+02  0.45302416319E+02 -0.19981222680E+03  0.20726997746E+03  0.00000000000E+00 0. -1.
         11    1    1    2    0    0 -0.62563411193E+01 -0.37561228612E+02 -0.16762375231E+03  0.17189447355E+03  0.00000000000E+00 0.  1.
</event>
<event>
 7    1  0.2794945E-009  0.1455268E+03  0.7561462E-02  0.1206080E+00
          2   -1    0    0  501    0  0.00000000000E+00  0.00000000000E+00  0.18582596191E+03  0.18582596191E+03  0.00000000000E+00 0. -1.
         -2   -1    0    0    0  501 -0.00000000000E+00 -0.00000000000E+00 -0.14219305821E+03  0.14219305821E+03  0.00000000000E+00 0.  1.
         25    2    1    2    0    0  0.58479988162E+02 -0.10474092862E+03  0.25565297891E+02  0.17518799123E+03  0.12508667664E+03 0.  0.
          5    1    3    3  502    0 -0.33619399110E+02 -0.59243740096E+02  0.24073711574E+02  0.72367815540E+02  0.41800000000E+01 0.  1.
         -5    1    3    3    0  502  0.92099387272E+02 -0.45497188523E+02  0.14915863170E+01  0.10282017569E+03  0.41800000000E+01 0.  1.
        -11    1    1    2    0    0 -0.35442710297E+02  0.60455281300E+02  0.56348722210E+02  0.89923329815E+02  0.00000000000E+00 0. -1.
         11    1    1    2    0    0 -0.23037277865E+02  0.44285647320E+02 -0.38281116401E+02  0.62907699074E+02  0.00000000000E+00 0.  1.
</event>
<event>
 7    1  0.2794945E-009  0.1131415E+03  0.7561462E-02  0.1254861E+00
          2   -1    0    0  501    0  0.00000000000E+00  0.00000000000E+00  0.20833177757E+03  0.20833177757E+03  0.00000000000E+00 0. -1.
         -2   -1    0    0    0  501 -0.00000000000E+00 -0.00000000000E+00 -0.65635945515E+02  0.65635945515E+02  0.00000000000E+00 0.  1.
         25    2    1    2    0    0 -0.35583192240E+02  0.22599420631E+02  0.70773800759E+02  0.14977422936E+03  0.12508593656E+03 0.  0.
          5    1    3    3  502    0 -0.79284427787E+02  0.57424729071E+01  0.23276125218E+02  0.82935196930E+02  0.41800000000E+01 0. -1.
         -5    1    3    3    0  502  0.43701235547E+02  0.16856947724E+02  0.47497675541E+02  0.66839032434E+02  0.41800000000E+01 0. -1.
        -11    1    1    2    0    0 -0.27863381134E+02  0.83152772837E+01  0.31461836320E+02  0.42841089962E+02  0.00000000000E+00 0.  1.
         11    1    1    2    0    0  0.63446573374E+02 -0.30914697915E+02  0.40460194978E+02  0.81352403761E+02  0.00000000000E+00 0. -1.
</event>
<event>
 7    1  0.2794945E-009  0.1101266E+03  0.7561462E-02  0.1260336E+00
          1   -1    0    0  501    0  0.00000000000E+00  0.00000000000E+00  0.39441225343E+03  0.39441225343E+03  0.00000000000E+00 0. -1.
         -1   -1    0    0    0  501 -0.00000000000E+00 -0.00000000000E+00 -0.37744989761E+02  0.37744989761E+02  0.00000000000E+00 0.  1.
         25    2    1    2    0    0 -0.42146328943E+02 -0.36960935540E+02  0.18869883848E+03  0.23323556980E+03  0.12509658498E+03 0.  0.
          5    1    3    3  502    0 -0.12789156177E+02  0.35820474601E+02  0.12896254741E+03  0.13451944079E+03  0.41800000000E+01 0.  1.
         -5    1    3    3    0  502 -0.29357172767E+02 -0.72781410142E+02  0.59736291075E+02  0.98716129009E+02  0.41800000000E+01 0.  1.
        -11    1    1    2    0    0  0.17230885867E+02  0.64206558292E+02  0.12971270940E+03  0.14575586621E+03  0.00000000000E+00 0. -1.
         11    1    1    2    0    0  0.24915443076E+02 -0.27245622752E+02  0.38255715784E+02  0.53165807179E+02  0.00000000000E+00 0.  1.
</event>
<event>
 6    1  0.2794945E-009  0.1587064E+03  0.7561462E-02  0.1190165E+00
          2   -1    0    0  501    0  0.00000000000E+00  0.00000000000E+00  0.63462539192E+03  0.63462539192E+03  0.00000000000E+00 0. -1.
         -2   -1    0    0    0  501 -0.00000000000E+00 -0.00000000000E+00 -0.58991303222E+02  0.58991303222E+02  0.00000000000E+00 0.  1.
          5    1    1    2  502    0 -0.10811846874E+02  0.28535125665E+02  0.57197670653E+01  0.31326307871E+02  0.41800000000E+01 0.  1.
         -5    1    1    2    0  502  0.56790746675E+02  0.11803672901E+03  0.38682243604E+03  0.40842003835E+03  0.41800000000E+01 0.  1.
        -11    1    1    2    0    0 -0.27822439511E+01 -0.46228639480E+02  0.11785569259E+03  0.12662856023E+03  0.00000000000E+00 0. -1.
         11    1    1    2    0    0 -0.43196655850E+02 -0.10034321520E+03  0.65236193006E+02  0.12724178870E+03  0.00000000000E+00 0.  1.
</event>
<event>
 7    1  0.2794945E-009  0.1161830E+03  0.7561462E-02  0.1249530E+00
         -2   -1    0    0    0  501 -0.00000000000E+00  0.00000000000E+00  0.84277998105E+02  0.84277998105E+02  0.00000000000E+00 0.  1.
          2   -1    0    0  501    0  0.00000000000E+00 -0.00000000000E+00 -0.19928369484E+03  0.19928369484E+03  0.00000000000E+00 0. -1.
         25    2    1    2    0    0 -0.21290335008E+02 -0.56925031262E+02 -0.10526252119E+03  0.17442003354E+03  0.12509361369E+03 0.  0.
          5    1    3    3  502    0  0.46389864526E+02 -0.32300633351E+02 -0.14552081542E+02  0.58519961746E+02  0.41800000000E+01 0.  1.
         -5    1    3    3    0  502 -0.67680199534E+02 -0.24624397911E+02 -0.90710439650E+02  0.11590007180E+03  0.41800000000E+01 0.  1.
        -11    1    1    2    0    0  0.33871277146E+02  0.74552315521E+02 -0.21277358385E+02  0.84605183913E+02  0.00000000000E+00 0. -1.
         11    1    1    2    0    0 -0.12580942138E+02 -0.17627284258E+02  0.11534182843E+02  0.24536475486E+02  0.00000000000E+00 0.  1.
</event>
<event>
 7    1  0.2794945E-009  0.1029523E+03  0.7561462E-02  0.1274207E+00
          3   -1    0    0  501    0  0.00000000000E+00  0.00000000000E+00  0.90520302051E+02  0.90520302051E+02  0.00000000000E+00 0. -1.
         -3   -1    0    0    0  501 -0.00000000000E+00 -0.00000000000E+00 -0.18523059082E+03  0.18523059082E+03  0.00000000000E+00 0.  1.
         25    2    1    2    0    0  0.11466487496E+01 -0.70093764363E+02 -0.40904858655E+02  0.14911352739E+03  0.12508871245E+03 0.  0.
          5    1    3    3  502    0  0.43595021762E+02 -0.92625384159E+01 -0.57616504894E+02  0.72962007761E+02  0.41800000000E+01 0.  1.
         -5    1    3    3    0  502 -0.42448373013E+02 -0.60831225947E+02  0.16711646239E+02  0.76151519628E+02  0.41800000000E+01 0.  1.
        -11    1    1    2    0    0  0.13371997500E+02  0.71048265492E+02 -0.72874270926E+02  0.10265147690E+03  0.00000000000E+00 0.  1.
         11    1    1    2    0    0 -0.14518646249E+02 -0.95450112878E+00  0.19068840811E+02  0.23985888584E+02  0.00000000000E+00 0. -1.
</event>
<event>
 7    1  0.2794945E-009  0.1094142E+03  0.7561462E-02  0.1261659E+00
         -1   -1    0    0    0  501 -0.00000000000E+00  0.00000000000E+00  0.77841957817E+02  0.77841957817E+02  0.00000000000E+00 0.  1.
          1   -1    0    0  501    0  0.00000000000E+00 -0.00000000000E+00 -0.22819371486E+03  0.22819371486E+03  0.00000000000E+00 0. -1.
         25    2    1    2    0    0  0.14655320363E+02  0.46668734376E+02 -0.15460315031E+03  0.20479783763E+03  0.12508905239E+03 0.  0.
          5    1    3    3  502    0  0.12531407665E+02 -0.34490669987E+02 -0.10069125585E+03  0.10725131188E+03  0.41800000000E+01 0.  1.
         -5    1    3    3    0  502  0.21239126982E+01  0.81159404362E+02 -0.53911894460E+02  0.97546525750E+02  0.41800000000E+01 0.  1.
        -11    1    1    2    0    0  0.37184351136E+02 -0.17202575133E+02  0.69113894739E+01  0.41549631347E+02  0.00000000000E+00 0.  1.
         11    1    1    2    0    0 -0.51839671499E+02 -0.29466159243E+02 -0.26599962046E+01  0.59688203704E+02  0.00000000000E+00 0. -1.
</event>
<event>
 7    1  0.2794945E-009  0.1430631E+03  0.7561462E-02  0.1209266E+00
          1   -1    0    0  501    0  0.00000000000E+00  0.00000000000E+00  0.51736998084E+03  0.51736998084E+03  0.00000000000E+00 0. -1.
         -1   -1    0    0    0  501 -0.00000000000E+00 -0.00000000000E+00 -0.56553151759E+02  0.56553151759E+02  0.00000000000E+00 0.  1.
         25    2    1    2    0    0  0.98541481240E+01  0.11975725438E+03  0.21660613056E+03  0.27749604931E+03  0.12508771873E+03 0.  0.
          5    1    3    3  502    0 -0.22564462841E+02 -0.14093595045E+02  0.76016933037E+02  0.80646332297E+02  0.41800000000E+01 0. -1.
         -5    1    3    3    0  502  0.32418610965E+02  0.13385084942E+03  0.14058919752E+03  0.19684971701E+03  0.41800000000E+01 0. -1.
        -11    1    1    2    0    0  0.45241230716E+01 -0.48980238173E+02  0.21149550840E+03  0.21714023463E+03  0.00000000000E+00 0.  1.
         11    1    1    2    0    0 -0.14378271196E+02 -0.70777016207E+02  0.32715190123E+02  0.79286848661E+02  0.00000000000E+00 0. -1.
</event>
<event>
 7    1  0.3034505E-009  0.1219054E+03  0.7561462E-02  0.1239986E+00
         -2   -1    0    0    0  501 -0.00000000000E+00  0.00000000000E+00  0.48848694609E+02  0.48848694609E+02  0.00000000000E+00 0.  1.
          2   -1    0    0  501    0  0.00000000000E+00 -0.00000000000E+00 -0.36871375160E+03  0.36871375160E+03  0.00000000000E+00 0. -1.
         25    2    1    2    0    0  0.52185347516E+02 -0.58748740568E+02 -0.16062760627E+03  0.21823113206E+03  0.12509545991E+03 0.  0.
          5    1    3    3  502    0  0.69791303374E+02 -0.88556100353E+02 -0.12451377112E+03  0.16803023697E+03  0.41800000000E+01 0. -1.
         -5    1    3    3    0  502 -0.17605955858E+02  0.29807359785E+02 -0.36113835152E+02  0.50200895096E+02  0.41800000000E+01 0. -1.
        -11    1    1    2    0    0 -0.18458828722E+00  0.41242547226E+02 -0.13164015203E+02  0.43292875520E+02  0.00000000000E+00 0.  1.
         11    1    1    2    0    0 -0.52000759229E+02  0.17506193341E+02 -0.14607343551E+03  0.15603843862E+03  0.00000000000E+00 0. -1.
</event>
<event>
 7    1  0.5539261E-009  0.7858685E+02  0.7561462E-02  0.1333110E+00
         -2   -1    0    0    0  501 -0.00000000000E+00  0.00000000000E+00  0.82956981344E+02  0.82956981344E+02  0.00000000000E+00 0.  1.
          2   -1    0    0  501    0  0.00000000000E+00 -0.00000000000E+00 -0.16488051018E+03  0.16488051018E+03  0.00000000000E+00 0. -1.
         25    2    1    2    0    0  0.29393333496E+01  0.20814926914E+02 -0.58526926490E+01  0.12697898774E+03  0.12509000141E+03 0.  0.
          5    1    3    3  502    0 -0.11291779580E+02 -0.44500835478E+02  0.25874550563E+02  0.52865805689E+02  0.41800000000E+01 0. -1.
         -5    1    3    3    0  502  0.14231112930E+02  0.65315762392E+02 -0.31727243212E+02  0.74113182052E+02  0.41800000000E+01 0. -1.
        -11    1    1    2    0    0  0.15574751941E+02  0.84754489995E+00  0.17266246010E+02  0.23268314972E+02  0.00000000000E+00 0.  1.
         11    1    1    2    0    0 -0.18514085291E+02 -0.21662471814E+02 -0.93337082195E+02  0.97590188810E+02  0.00000000000E+00 0. -1.
</event>
<event>
 7    1  0.3745701E-009  0.1370001E+03  0.7561462E-02  0.1217424E+00
         -2   -1    0    0    0  501 -0.00000000000E+00  0.00000000000E+00  0.16243173261E+03  0.16243173261E+03  0.00000000000E+00 0.  1.
          2   -1    0    0  501    0  0.00000000000E+00 -0.00000000000E+00 -0.15924473571E+03  0.15924473571E+03  0.00000000000E+00 0. -1.
         25    2    1    2    0    0 -0.10260587865E+03  0.58706162459E+02  0.12060242753E+02  0.17252733757E+03  0.12508338382E+03 0.  0.
          5    1    3    3  502    0 -0.95134846184E+02  0.11563540207E+01  0.45364829144E+02  0.10548656899E+03  0.41800000000E+01 0. -1.
         -5    1    3    3    0  502 -0.74710324688E+01  0.57549808438E+02 -0.33304586391E+02  0.67040768582E+02  0.41800000000E+01 0. -1.
        -11    1    1    2    0    0  0.63892968714E+02 -0.22965778736E+02  0.38709626781E+02  0.78154805671E+02  0.00000000000E+00 0.  1.
         11    1    1    2    0    0  0.38712909939E+02 -0.35740383723E+02 -0.47582872638E+02  0.70994325077E+02  0.00000000000E+00 0. -1.
</event>
<event>
 7    1  0.2794945E-009  0.6026714E+02  0.7561462E-02  0.1396714E+00
          4   -1    0    0  501    0  0.00000000000E+00  0.00000000000E+00  0.26492765834E+02  0.26492765834E+02  0.00000000000E+00 0. -1.
         -4   -1    0    0    0  501 -0.00000000000E+00 -0.00000000000E+00 -0.51173443230E+03  0.51173443230E+03  0.00000000000E+00 0.  1.
         25    2    1    2    0    0  0.70064802557E+01 -0.86468376364E+01 -0.37039812819E+03  0.39110817116E+03  0.12508784757E+03 0.  0.
          5    1    3    3  502    0  0.15868201672E+02  0.31396792477E+02 -0.25243124032E+02  0.43499955322E+02  0.41800000000E+01 0. -1.
         -5    1    3    3    0  502 -0.88617214159E+01 -0.40043630113E+02 -0.34515500416E+03  0.34760821583E+03  0.41800000000E+01 0. -1.
        -11    1    1    2    0    0 -0.24243398743E+02 -0.74221824131E+00 -0.12336073618E+03  0.12572256957E+03  0.00000000000E+00 0.  1.
         11    1    1    2    0    0  0.17236918487E+02  0.93890558777E+01  0.85171979033E+01  0.21396457402E+02  0.00000000000E+00 0. -1.
</event>
<event>
 7    1  0.2794945E-009  0.9106761E+02  0.7561462E-02  0.1300287E+00
         -1   -1    0    0    0  501 -0.00000000000E+00  0.00000000000E+00  0.11339567665E+03  0.11339567665E+03  0.00000000000E+00 0.  1.
          1   -1    0    0  501    0  0.00000000000E+00 -0.00000000000E+00 -0.12561026121E+03  0.12561026121E+03  0.00000000000E+00 0. -1.
         25    2    1    2    0    0 -0.88788740515E+01 -0.32112555332E+02  0.32296887333E+02  0.13341815618E+03  0.12508902771E+03 0.  0.
          5    1    3    3  502    0 -0.15629336594E+02  0.46837443768E+02  0.64756321965E+01  0.49974278519E+02  0.41800000000E+01 0.  1.
         -5    1    3    3    0  502  0.67504625429E+01 -0.78949999100E+02  0.25821255137E+02  0.83443877662E+02  0.41800000000E+01 0.  1.
        -11    1    1    2    0    0  0.25640817474E+02  0.18087568931E+02  0.20177822237E+02  0.37306248549E+02  0.00000000000E+00 0.  1.
         11    1    1    2    0    0 -0.16761943422E+02  0.14024986401E+02 -0.64689294136E+02  0.68281533131E+02  0.00000000000E+00 0. -1.
</event>
<event>
 7    1  0.3192011E-009  0.1738848E+03  0.7561462E-02  0.1173856E+00
         -1   -1    0    0    0  501 -0.00000000000E+00  0.00000000000E+00  0.10488331822E+03  0.10488331822E+03  0.00000000000E+00 0.  1.
          1   -1    0    0  501    0  0.00000000000E+00 -0.00000000000E+00 -0.33117413747E+03  0.33117413747E+03  0.00000000000E+00 0. -1.
         25    2    1    2    0    0  0.47769296879E+02  0.13759458340E+03 -0.71947635217E+02  0.20503247676E+03  0.12509068393E+03 0.  0.
          5    1    3    3  502    0 -0.49395089990E+01  0.13252881186E+03 -0.26900150734E+02  0.13538602303E+03  0.41800000000E+01 0. -1.
         -5    1    3    3    0  502  0.52708805878E+02  0.50657715354E+01 -0.45047484482E+02  0.69646453725E+02  0.41800000000E+01 0. -1.
        -11    1    1    2    0    0  0.54460646330E+01 -0.91212666861E+02 -0.47542680411E+02  0.10300347895E+03  0.00000000000E+00 0.  1.
         11    1    1    2    0    0 -0.53215361512E+02 -0.46381916537E+02 -0.10680050363E+03  0.12802149998E+03  0.00000000000E+00 0. -1.
</event>
<event>
 7    1  0.2794945E-009  0.2502116E+03  0.7561462E-02  0.1113171E+00
          2   -1    0    0  501    0  0.00000000000E+00  0.00000000000E+00  0.11397739277E+04  0.11397739277E+04  0.00000000000E+00 0. -1.
         -2   -1    0    0    0  501 -0.00000000000E+00 -0.00000000000E+00 -0.77192468330E+02  0.77192468330E+02  0.00000000000E+00 0.  1.
         25    2    1    2    0    0  0.14857570090E+03  0.17547584367E+03  0.85616444831E+03  0.89528299249E+03  0.12509022136E+03 0.  0.
          5    1    3    3  502    0  0.14026443447E+03  0.78932362766E+02  0.45797698039E+03  0.48545320726E+03  0.41800000000E+01 0.  1.
         -5    1    3    3    0  502  0.83112664264E+01  0.96543480899E+02  0.39818746792E+03  0.40982978523E+03  0.41800000000E+01 0.  1.
        -11    1    1    2    0    0 -0.57388904958E+02 -0.17452397908E+02  0.78807165334E+02  0.99038588000E+02  0.00000000000E+00 0.  1.
         11    1    1    2    0    0 -0.91186795938E+02 -0.15802344576E+03  0.12760984573E+03  0.22264481555E+03  0.00000000000E+00 0. -1.
</event>
<event>
 7    1  0.2794945E-009  0.1982282E+03  0.7561462E-02  0.1151243E+00
         -1   -1    0    0    0  501 -0.00000000000E+00  0.00000000000E+00  0.56453226355E+02  0.56453226355E+02  0.00000000000E+00 0.  1.
          1   -1    0    0  501    0  0.00000000000E+00 -0.00000000000E+00 -0.87075949476E+03  0.87075949476E+03  0.00000000000E+00 0. -1.
         25    2    1    2    0    0 -0.12715364878E+03 -0.14332094953E+03 -0.36646668496E+03  0.43203532224E+03  0.12509094095E+03 0.  0.
          5    1    3    3  502    0 -0.34266645451E+02 -0.64380537933E+02 -0.39473031936E+02  0.83034024985E+02  0.41800000000E+01 0.  1.
         -5    1    3    3    0  502 -0.92887003328E+02 -0.78940411598E+02 -0.32699365302E+03  0.34900129726E+03  0.41800000000E+01 0.  1.
        -11    1    1    2    0    0 -0.60562840913E+01  0.16224734570E+02 -0.10124767620E+03  0.10271812170E+03  0.00000000000E+00 0. -1.
         11    1    1    2    0    0  0.13320993287E+03  0.12709621496E+03 -0.34659190725E+03  0.39245927718E+03  0.00000000000E+00 0.  1.
</event>
<event>
 7    1  0.2794945E-009  0.1670356E+03  0.7561462E-02  0.1180975E+00
          2   -1    0    0  501    0  0.00000000000E+00  0.00000000000E+00  0.11279282609E+04  0.11279282609E+04  0.00000000000E+00 0. -1.
         -2   -1    0    0    0  501 -0.00000000000E+00 -0.00000000000E+00 -0.33611739431E+02  0.33611739431E+02  0.00000000000E+00 0.  1.
         25    2    1    2    0    0 -0.26760767646E+02  0.14952990241E+03  0.73588965947E+03  0.76174567867E+03  0.12509019810E+03 0.  0.
          5    1    3    3  502    0 -0.15257820279E+02  0.14668694037E+03  0.73442283677E+03  0.74909561147E+03  0.41800000000E+01 0. -1.
         -5    1    3    3    0  502 -0.11502947368E+02  0.28429620412E+01  0.14668226968E+01  0.12650067199E+02  0.41800000000E+01 0. -1.
        -11    1    1    2    0    0  0.43520257285E+02 -0.29041249534E+02  0.14475615753E+03  0.15392125295E+03  0.00000000000E+00 0. -1.
         11    1    1    2    0    0 -0.16759489639E+02 -0.12048865288E+03  0.21367070449E+03  0.24587306872E+03  0.00000000000E+00 0.  1.
</event>
<event>
 7    1  0.2983909E-009  0.1149016E+03  0.7561462E-02  0.1251753E+00
         -1   -1    0    0    0  501 -0.00000000000E+00  0.00000000000E+00  0.27838699437E+03  0.27838699437E+03  0.00000000000E+00 0.  1.
          1   -1    0    0  501    0  0.00000000000E+00 -0.00000000000E+00 -0.82992013653E+02  0.82992013653E+02  0.00000000000E+00 0. -1.
         25    2    1    2    0    0 -0.47240750595E+02  0.66554378112E+02  0.24928560014E+02  0.15142949220E+03  0.12509310229E+03 0.  0.
          5    1    3    3  502    0 -0.88244905559E+02  0.32608515297E+02  0.45589890130E+01  0.94280090199E+02  0.41800000000E+01 0.  1.
         -5    1    3    3    0  502  0.41004154964E+02  0.33945862815E+02  0.20369571001E+02  0.57149402004E+02  0.41800000000E+01 0.  1.
        -11    1    1    2    0    0  0.25204084077E+02 -0.43981993330E+02  0.17104499227E+03  0.17839857335E+03  0.00000000000E+00 0.  1.
         11    1    1    2    0    0  0.22036666518E+02 -0.22572384782E+02 -0.57857156806E+00  0.31550942475E+02  0.00000000000E+00 0. -1.
</event>
<event>
 7    1  0.2794945E-009  0.1634754E+03  0.7561462E-02  0.1184828E+00
          1   -1    0    0  501    0  0.00000000000E+00  0.00000000000E+00  0.13263257306E+03  0.13263257306E+03  0.00000000000E+00 0. -1.
         -1   -1    0    0    0  501 -0.00000000000E+00 -0.00000000000E+00 -0.22159996769E+03  0.22159996769E+03  0.00000000000E+00 0.  1.
         25    2    1    2    0    0 -0.12366237568E+03 -0.52121564807E+02 -0.53757383666E+02  0.19117202334E+03  0.12509134876E+03 0.  0.
          5    1    3    3  502    0 -0.14353393159E+03 -0.43262762584E+02 -0.68175082305E+02  0.16473909794E+03  0.41800000000E+01 0.  1.
         -5    1    3    3    0  502  0.19871555910E+02 -0.88588022230E+01  0.14417698639E+02  0.26432925399E+02  0.41800000000E+01 0.  1.
        -11    1    1    2    0    0  0.11507836334E+03  0.14207587297E+02 -0.92599722505E+01  0.11632124626E+03  0.00000000000E+00 0.  1.
         11    1    1    2    0    0  0.85840123426E+01  0.37913977509E+02 -0.25950038709E+02  0.46739271148E+02  0.00000000000E+00 0. -1.
</event>
<event>
 7    1  0.2794945E-009  0.1405090E+03  0.7561462E-02  0.1212646E+00
         -1   -1    0    0    0  501 -0.00000000000E+00  0.00000000000E+00  0.44279255932E+02  0.44279255932E+02  0.00000000000E+00 0.  1.
          1   -1    0    0  501    0  0.00000000000E+00 -0.00000000000E+00 -0.47968853139E+03  0.47968853139E+03  0.00000000000E+00 0. -1.
         25    2    1    2    0    0 -0.35595923125E+02  0.88397024109E+02 -0.21480886231E+03  0.26621658740E+03  0.12508925000E+03 0.  0.
          5    1    3    3  502    0 -0.74748820462E+02  0.31720989574E+02 -0.76465954398E+02  0.11161595729E+03  0.41800000000E+01 0.  1.
         -5    1    3    3    0  502  0.39152897337E+02  0.56676034535E+02 -0.13834290792E+03  0.15460063011E+03  0.41800000000E+01 0.  1.
        -11    1    1    2    0    0 -0.30336547041E+02 -0.27601452467E+02 -0.94447116561E+02  0.10296797605E+03  0.00000000000E+00 0. -1.
         11    1    1    2    0    0  0.65932470166E+02 -0.60795571642E+02 -0.12615329659E+03  0.15478322388E+03  0.00000000000E+00 0.  1.
</event>
<event>
 7    1  0.2794945E-009  0.1212782E+03  0.7561462E-02  0.1241003E+00
         -1   -1    0    0    0  501 -0.00000000000E+00  0.00000000000E+00  0.13800340481E+03  0.13800340481E+03  0.00000000000E+00 0.  1.
          1   -1    0    0  501    0  0.00000000000E+00 -0.00000000000E+00 -0.18952549469E+03  0.18952549469E+03  0.00000000000E+00 0. -1.
         25    2    1    2    0    0 -0.70738191927E+02 -0.86947442776E+02  0.12942715244E+02  0.16846109879E+03  0.12509147982E+03 0.  0.
          5    1    3    3  502    0 -0.80651488882E+02 -0.64053617231E+02 -0.39380440582E+02  0.11034409835E+03  0.41800000000E+01 0. -1.
         -5    1    3    3    0  502  0.99132969553E+01 -0.22893825545E+02  0.52323155826E+02  0.58117000440E+02  0.41800000000E+01 0. -1.
        -11    1    1    2    0    0  0.27002481703E+02  0.17720574758E+02 -0.69901485396E+02  0.77002405472E+02  0.00000000000E+00 0. -1.
         11    1    1    2    0    0  0.43735710224E+02  0.69226868018E+02  0.54366802767E+01  0.82065395246E+02  0.00000000000E+00 0.  1.
</event>
<event>
 7    1  0.2794945E-009  0.7950628E+02  0.7561462E-02  0.1330458E+00
         -1   -1    0    0    0  501 -0.00000000000E+00  0.00000000000E+00  0.31369387137E+03  0.31369387137E+03  0.00000000000E+00 0.  1.
          1   -1    0    0  501    0  0.00000000000E+00 -0.00000000000E+00 -0.49784899717E+02  0.49784899717E+02  0.00000000000E+00 0. -1.
         25    2    1    2    0    0 -0.17724771901E+02 -0.24421322017E+02  0.21414743850E+03  0.24983210206E+03  0.12508551193E+03 0.  0.
          5    1    3    3  502    0  0.38104744883E+02  0.62812812567E+01  0.16637757844E+02  0.42257703001E+02  0.41800000000E+01 0.  1.
         -5    1    3    3    0  502 -0.55829516783E+02 -0.30702603274E+02  0.19750968065E+03  0.20757439906E+03  0.41800000000E+01 0.  1.
        -11    1    1    2    0    0  0.26346041892E+02 -0.39711475757E+01  0.71865868664E+02  0.76645854521E+02  0.00000000000E+00 0.  1.
         11    1    1    2    0    0 -0.86212699911E+01  0.28392469593E+02 -0.22104335510E+02  0.37000814507E+02  0.00000000000E+00 0. -1.
</event>
<event>
 7    1  0.2794945E-009  0.1691221E+03  0.7561462E-02  0.1178766E+00
          2   -1    0    0  501    0  0.00000000000E+00  0.00000000000E+00  0.35034593674E+03  0.35034593674E+03  0.00000000000E+00 0. -1.
         -2   -1    0    0    0  501 -0.00000000000E+00 -0.00000000000E+00 -0.94203853933E+02  0.94203853933E+02  0.00000000000E+00 0.  1.
         25    2    1    2    0    0 -0.13739194049E+02 -0.14341291193E+03  0.11590059884E+03  0.22324178389E+03  0.12509163242E+03 0.  0.
          5    1    3    3  502    0 -0.48585083113E+02 -0.35297352763E+02 -0.97449090634E+00  0.60206606329E+02  0.41800000000E+01 0. -1.
         -5    1    3    3    0  502  0.34845889064E+02 -0.10811555917E+03  0.11687508975E+03  0.16303517756E+03  0.41800000000E+01 0. -1.
        -11    1    1    2    0    0 -0.32473237037E+02  0.43409771728E+02  0.18885519780E+02  0.57407162118E+02  0.00000000000E+00 0.  1.
         11    1    1    2    0    0  0.46212431086E+02  0.10000314021E+03  0.12135596419E+03  0.16390084467E+03  0.00000000000E+00 0. -1.
</event>
<event>
 7    1  0.2794945E-009  0.1131721E+03  0.7561462E-02  0.1254806E+00
          2   -1    0    0  501    0  0.00000000000E+00  0.00000000000E+00  0.32046085868E+03  0.32046085868E+03  0.00000000000E+00 0. -1.
         -2   -1    0    0    0  501 -0.00000000000E+00 -0.00000000000E+00 -0.46500672490E+02  0.46500672490E+02  0.00000000000E+00 0.  1.
         25    2    1    2    0    0  0.19859168289E+02 -0.42983435223E+02  0.11024184760E+03  0.17333099909E+03  0.12509359701E+03 0.  0.
          5    1    3    3  502    0 -0.51118190929E+02 -0.30771715780E+02  0.35991492569E+02  0.69805643563E+02  0.41800000000E+01 0. -1.
         -5    1    3    3    0  502  0.70977359218E+02 -0.12211719443E+02  0.74250355034E+02  0.10352535552E+03  0.41800000000E+01 0. -1.
        -11    1    1    2    0    0 -0.50619749030E+02  0.14971699324E+02  0.50674051977E+02  0.73173562961E+02  0.00000000000E+00 0.  1.
         11    1    1    2    0    0  0.30760580741E+02  0.28011735899E+02  0.11304428661E+03  0.12045696913E+03  0.00000000000E+00 0. -1.
</event>
<event>
 7    1  0.2794945E-009  0.1178385E+03  0.7561462E-02  0.1246706E+00
          1   -1    0    0  501    0  0.00000000000E+00  0.00000000000E+00  0.23212015014E+03  0.23212015014E+03  0.00000000000E+00 0. -1.
         -1   -1    0    0    0  501 -0.00000000000E+00 -0.00000000000E+00 -0.10122050995E+03  0.10122050995E+03  0.00000000000E+00 0.  1.
         25    2    1    2    0    0  0.69798992753E+02 -0.43870933022E+02  0.14729422682E+03  0.21009341352E+03  0.12508834876E+03 0.  0.
          5    1    3    3  502    0 -0.20988023478E+02 -0.52925698972E+02  0.43068332822E+02  0.71512099908E+02  0.41800000000E+01 0. -1.
         -5    1    3    3    0  502  0.90787016231E+02  0.90547659501E+01  0.10422589399E+03  0.13858131361E+03  0.41800000000E+01 0. -1.
        -11    1    1    2    0    0 -0.60020508585E+02  0.23126533289E+02 -0.50755857687E+02  0.81935676492E+02  0.00000000000E+00 0.  1.
         11    1    1    2    0    0 -0.97784841683E+01  0.20744399733E+02  0.34361271069E+02  0.41311570079E+02  0.00000000000E+00 0. -1.
</event>
<event>
 7    1  0.2794945E-009  0.1787478E+03  0.7561462E-02  0.1169020E+00
          1   -1    0    0  501    0  0.00000000000E+00  0.00000000000E+00  0.13327003386E+04  0.13327003386E+04  0.00000000000E+00 0. -1.
         -1   -1    0    0    0  501 -0.00000000000E+00 -0.00000000000E+00 -0.33859717097E+02  0.33859717097E+02  0.00000000000E+00 0.  1.
         25    2    1    2    0    0 -0.71703541690E+02 -0.15979302360E+03  0.84194227528E+03  0.86901622954E+03  0.12508878450E+03 0.  0.
          5    1    3    3  502    0 -0.17683374674E+02 -0.61114658069E+01  0.35528548992E+03  0.35580233768E+03  0.41800000000E+01 0.  1.
         -5    1    3    3    0  502 -0.54020167016E+02 -0.15368155779E+03  0.48665678537E+03  0.51321389185E+03  0.41800000000E+01 0.  1.
        -11    1    1    2    0    0  0.24207216014E+01  0.10652211510E+02 -0.10403521255E+01  0.10973232690E+02  0.00000000000E+00 0.  1.
         11    1    1    2    0    0  0.69282820089E+02  0.14914081209E+03  0.45793869838E+03  0.48657059351E+03  0.00000000000E+00 0. -1.
</event>
<event>
 7    1  0.2794945E-009  0.1108611E+03  0.7561462E-02  0.1258984E+00
         -1   -1    0    0    0  501 -0.00000000000E+00  0.00000000000E+00  0.12034665551E+03  0.12034665551E+03  0.00000000000E+00 0.  1.
          1   -1    0    0  501    0  0.00000000000E+00 -0.00000000000E+00 -0.18024721400E+03  0.18024721400E+03  0.00000000000E+00 0. -1.
         25    2    1    2    0    0  0.42258832664E+02 -0.90851759974E+02 -0.46717446508E+02  0.16694376973E+03  0.12509137146E+03 0.  0.
          5    1    3    3  502    0  0.14323776757E+02 -0.91782681171E+02 -0.80434576356E+02  0.12294886993E+03  0.41800000000E+01 0.  1.
         -5    1    3    3    0  502  0.27935055908E+02  0.93092119743E+00  0.33717129849E+02  0.43994899796E+02  0.41800000000E+01 0.  1.
        -11    1    1    2    0    0 -0.13684943486E+02  0.38042152186E+02  0.37448528093E+02  0.55107851323E+02  0.00000000000E+00 0.  1.
         11    1    1    2    0    0 -0.28573889179E+02  0.52809607788E+02 -0.50631640072E+02  0.78542248464E+02  0.00000000000E+00 0. -1.
</event>
<event>
 7    1  0.2794945E-009  0.1114532E+03  0.7561462E-02  0.1257902E+00
         -2   -1    0    0    0  501 -0.00000000000E+00  0.00000000000E+00  0.11355516024E+03  0.11355516024E+03  0.00000000000E+00 0.  1.
          2   -1    0    0  501    0  0.00000000000E+00 -0.00000000000E+00 -0.17847001999E+03  0.17847001999E+03  0.00000000000E+00 0. -1.
         25    2    1    2    0    0  0.29696882951E+02 -0.21893809839E+02 -0.99460049008E+02  0.16400811537E+03  0.12508044128E+03 0.  0.
          5    1    3    3  502    0  0.49276924125E+02  0.37222342310E+02 -0.74323237225E+02  0.96721941719E+02  0.41800000000E+01 0.  1.
         -5    1    3    3    0  502 -0.19580041174E+02 -0.59116152150E+02 -0.25136811783E+02  0.67286173646E+02  0.41800000000E+01 0.  1.
        -11    1    1    2    0    0  0.33048608695E+02  0.11514467911E+02  0.51437051051E+02  0.62213854797E+02  0.00000000000E+00 0.  1.
         11    1    1    2    0    0 -0.62745491646E+02  0.10379341928E+02 -0.16891861786E+02  0.65803210069E+02  0.00000000000E+00 0. -1.
</event>
<event>
 7    1  0.2794945E-009  0.8583808E+02  0.7561462E-02  0.1313255E+00
          2   -1    0    0  501    0  0.00000000000E+00  0.00000000000E+00  0.87612181448E+02  0.87612181448E+02  0.00000000000E+00 0. -1.
         -2   -1    0    0    0  501 -0.00000000000E+00 -0.00000000000E+00 -0.17957397214E+03  0.17957397214E+03  0.00000000000E+00 0.  1.
         25    2    1    2    0    0  0.54598038899E+02 -0.17844018989E+00 -0.81496259452E+02  0.15896959877E+03  0.12509482538E+03 0.  0.
          5    1    3    3  502    0  0.65526288984E+02  0.15286331151E+02 -0.10728213056E+03  0.12670554213E+03  0.41800000000E+01 0.  1.
         -5    1    3    3    0  502 -0.10928250084E+02 -0.15464771341E+02  0.25785871108E+02  0.32264056647E+02  0.41800000000E+01 0.  1.
        -11    1    1    2    0    0 -0.31300229776E+02  0.32437212326E+02  0.27842094042E+02  0.52981688612E+02  0.00000000000E+00 0. -1.
         11    1    1    2    0    0 -0.23297809123E+02 -0.32258772136E+02 -0.38307625285E+02  0.55234866205E+02  0.00000000000E+00 0.  1.
</event>
<event>
 7    1  0.2794945E-009  0.9361646E+02  0.7561462E-02  0.1294323E+00
          2   -1    0    0  501    0  0.00000000000E+00  0.00000000000E+00  0.53893438249E+03  0.53893438249E+03  0.00000000000E+00 0.  1.
         -2   -1    0    0    0  501 -0.00000000000E+00 -0.00000000000E+00 -0.32279302902E+02  0.32279302902E+02  0.00000000000E+00 0. -1.
         25    2    1    2    0    0 -0.48260182000E+02  0.74286455821E+00  0.40075884664E+03  0.42259602707E+03  0.12510056723E+03 0.  0.
          5    1    3    3  502    0 -0.70628263107E+02 -0.41588578726E+02  0.20040340484E+03  0.21655705599E+03  0.41800000000E+01 0. -1.
         -5    1    3    3    0  502  0.22368081107E+02  0.42331443284E+02  0.20035544180E+03  0.20603897107E+03  0.41800000000E+01 0. -1.
        -11    1    1    2    0    0  0.41738969354E+02 -0.12575863790E+02  0.12084546268E+03  0.12846758253E+03  0.00000000000E+00 0.  1.
         11    1    1    2    0    0  0.65212126454E+01  0.11832999232E+02 -0.14949229722E+02  0.20150075793E+02  0.00000000000E+00 0. -1.
</event>
<event>
 7    1  0.2794945E-009  0.1106927E+03  0.7561462E-02  0.1259292E+00
          2   -1    0    0  501    0  0.00000000000E+00  0.00000000000E+00  0.12811254787E+03  0.12811254787E+03  0.00000000000E+00 0. -1.
         -2   -1    0    0    0  501 -0.00000000000E+00 -0.00000000000E+00 -0.16226065608E+03  0.16226065608E+03  0.00000000000E+00 0.  1.
         25    2    1    2    0    0  0.55610470017E+02 -0.78903724933E+02 -0.38650116673E+02  0.16266484085E+03  0.12509075404E+03 0.  0.
          5    1    3    3  502    0  0.55714299139E+02 -0.39694886090E+02 -0.80124316972E+02  0.10543787593E+03  0.41800000000E+01 0. -1.
         -5    1    3    3    0  502 -0.10382912159E+00 -0.39208838843E+02  0.41474200299E+02  0.57226964924E+02  0.41800000000E+01 0. -1.
        -11    1    1    2    0    0 -0.47964705137E+02  0.88791706919E+02 -0.17479905206E+02  0.10242132221E+03  0.00000000000E+00 0.  1.
         11    1    1    2    0    0 -0.76457648804E+01 -0.98879819858E+01  0.21981913666E+02  0.25287040886E+02  0.00000000000E+00 0. -1.
</event>
<event>
 7    1  0.2794945E-009  0.1214539E+03  0.7561462E-02  0.1240718E+00
         -1   -1    0    0    0  501 -0.00000000000E+00  0.00000000000E+00  0.12994936178E+02  0.12994936178E+02  0.00000000000E+00 0.  1.
          1   -1    0    0  501    0  0.00000000000E+00 -0.00000000000E+00 -0.13452093421E+04  0.13452093421E+04  0.00000000000E+00 0. -1.
         25    2    1    2    0    0 -0.66916513448E+02 -0.62660345048E+01 -0.92435640902E+03  0.93520003393E+03  0.12508896675E+03 0.  0.
          5    1    3    3  502    0 -0.92876626240E+02 -0.31821201404E+02 -0.78395735806E+03  0.79009193656E+03  0.41800000000E+01 0.  1.
         -5    1    3    3    0  502  0.25960112792E+02  0.25555166899E+02 -0.14039905095E+03  0.14510809736E+03  0.41800000000E+01 0.  1.
        -11    1    1    2    0    0  0.20518586814E+02 -0.38421279724E+02 -0.22379233451E+03  0.22799170188E+03  0.00000000000E+00 0. -1.
         11    1    1    2    0    0  0.46397926634E+02  0.44687314228E+02 -0.18406566238E+03  0.19501254246E+03  0.00000000000E+00 0.  1.
</event>
<event>
 7    1  0.2794945E-009  0.1868892E+03  0.7561462E-02  0.1161297E+00
          1   -1    0    0  501    0  0.00000000000E+00  0.00000000000E+00  0.23664108589E+03  0.23664108589E+03  0.00000000000E+00 0.  1.
         -1   -1    0    0    0  501 -0.00000000000E+00 -0.00000000000E+00 -0.16946326589E+03  0.16946326589E+03  0.00000000000E+00 0. -1.
         25    2    1    2    0    0 -0.59130997265E+02  0.14978655236E+03  0.83197962574E+02  0.22023500924E+03  0.12509625180E+03 0.  0.
          5    1    3    3  502    0  0.28200359207E+02  0.78834942343E+02  0.66785285795E+01  0.84096869964E+02  0.41800000000E+01 0.  1.
         -5    1    3    3    0  502 -0.87331356472E+02  0.70951610018E+02  0.76519433995E+02  0.13613813928E+03  0.41800000000E+01 0.  1.
        -11    1    1    2    0    0  0.27066062412E+02 -0.14172476777E+03  0.87587631556E+01  0.14455171208E+03  0.00000000000E+00 0.  1.
         11    1    1    2    0    0  0.32064934853E+02 -0.80617845950E+01 -0.24778905726E+02  0.41317630462E+02  0.00000000000E+00 0. -1.
</event>
<event>
 7    1  0.2794945E-009  0.1183636E+03  0.7561462E-02  0.1245821E+00
         -1   -1    0    0    0  501 -0.00000000000E+00  0.00000000000E+00  0.17577456013E+03  0.17577456013E+03  0.00000000000E+00 0. -1.
          1   -1    0    0  501    0  0.00000000000E+00 -0.00000000000E+00 -0.12282413037E+03  0.12282413037E+03  0.00000000000E+00 0.  1.
         25    2    1    2    0    0 -0.84340737758E+02 -0.26843167985E+02 -0.15650723347E+02  0.15403521146E+03  0.12509190827E+03 0.  0.
          5    1    3    3  502    0 -0.49399989097E+02  0.45744095732E+02  0.12484799094E+02  0.68601922899E+02  0.41800000000E+01 0. -1.
         -5    1    3    3    0  502 -0.34940748662E+02 -0.72587263716E+02 -0.28135522441E+02  0.85433288558E+02  0.41800000000E+01 0. -1.
        -11    1    1    2    0    0  0.34316758815E+02  0.88253454306E+01 -0.20402554752E+02  0.40887539641E+02  0.00000000000E+00 0.  1.
         11    1    1    2    0    0  0.50023978944E+02  0.18017822554E+02  0.89003707853E+02  0.10367593940E+03  0.00000000000E+00 0. -1.
</event>
<event>
 7    1  0.2794945E-009  0.2438214E+03  0.7561462E-02  0.1117273E+00
         -1   -1    0    0    0  501 -0.00000000000E+00  0.00000000000E+00  0.93778340248E+02  0.93778340248E+02  0.00000000000E+00 0.  1.
          1   -1    0    0  501    0  0.00000000000E+00 -0.00000000000E+00 -0.71248379121E+03  0.71248379121E+03  0.00000000000E+00 0. -1.
         25    2    1    2    0    0  0.51588555408E+02 -0.22682771259E+03 -0.28033464929E+03  0.38515689911E+03  0.12508449581E+03 0.  0.
          5    1    3    3  502    0  0.17916347547E+02 -0.21920434297E+03 -0.27120735169E+03  0.34920257659E+03  0.41800000000E+01 0. -1.
         -5    1    3    3    0  502  0.33672207861E+02 -0.76233696178E+01 -0.91272976049E+01  0.35954322524E+02  0.41800000000E+01 0. -1.
        -11    1    1    2    0    0 -0.30509226735E+02  0.10883187452E+03 -0.24274846010E+03  0.26777230012E+03  0.00000000000E+00 0. -1.
         11    1    1    2    0    0 -0.21079328673E+02  0.11799583807E+03 -0.95622341565E+02  0.15333293223E+03  0.00000000000E+00 0.  1.
</event>
<event>
 7    1  0.2794945E-009  0.1414579E+03  0.7561462E-02  0.1211381E+00
         -2   -1    0    0    0  501 -0.00000000000E+00  0.00000000000E+00  0.22970147564E+03  0.22970147564E+03  0.00000000000E+00 0. -1.
          2   -1    0    0  501    0  0.00000000000E+00 -0.00000000000E+00 -0.11215318497E+03  0.11215318497E+03  0.00000000000E+00 0.  1.
         25    2    1    2    0    0 -0.70272251208E+02 -0.61370307430E+02  0.14180333962E+03  0.21086536669E+03  0.12510600233E+03 0.  0.
          5    1    3    3  502    0 -0.55174186191E+02 -0.10003478561E+03  0.10565849575E+03  0.15566739954E+03  0.41800000000E+01 0.  1.
         -5    1    3    3    0  502 -0.15098065017E+02  0.38664478179E+02  0.36144843864E+02  0.55197967155E+02  0.41800000000E+01 0.  1.
        -11    1    1    2    0    0  0.73842642465E+02  0.90011036576E+01 -0.32757198619E+01  0.74461305749E+02  0.00000000000E+00 0.  1.
         11    1    1    2    0    0 -0.35703912567E+01  0.52369203772E+02 -0.20979329081E+02  0.56527988167E+02  0.00000000000E+00 0. -1.
</event>
<event>
 7    1  0.2794945E-009  0.1503438E+03  0.7561462E-02  0.1200051E+00
          2   -1    0    0  501    0  0.00000000000E+00  0.00000000000E+00  0.79206775265E+03  0.79206775265E+03  0.00000000000E+00 0. -1.
         -2   -1    0    0    0  501 -0.00000000000E+00 -0.00000000000E+00 -0.42750517838E+02  0.42750517838E+02  0.00000000000E+00 0.  1.
         25    2    1    2    0    0 -0.92949203510E+02  0.95014611771E+02  0.24849468433E+03  0.30832189560E+03  0.12508178238E+03 0.  0.
          5    1    3    3  502    0 -0.77525429851E+02  0.11346222905E+03  0.24840791593E+03  0.28391518944E+03  0.41800000000E+01 0.  1.
         -5    1    3    3    0  502 -0.15423773658E+02 -0.18447617276E+02  0.86768395866E-01  0.24406706164E+02  0.41800000000E+01 0.  1.
        -11    1    1    2    0    0  0.79342281607E+01 -0.32019966054E+02  0.32278415589E+02  0.46153291492E+02  0.00000000000E+00 0.  1.
         11    1    1    2    0    0  0.85014975349E+02 -0.62994645717E+02  0.46854413490E+03  0.48034308340E+03  0.00000000000E+00 0. -1.
</event>
<event>
 7    1  0.2794945E-009  0.9141653E+02  0.7561462E-02  0.1299457E+00
         -2   -1    0    0    0  501 -0.00000000000E+00  0.00000000000E+00  0.16737254620E+02  0.16737254620E+02  0.00000000000E+00 0.  1.
          2   -1    0    0  501    0  0.00000000000E+00 -0.00000000000E+00 -0.70002367683E+03  0.70002367683E+03  0.00000000000E+00 0. -1.
         25    2    1    2    0    0  0.10805828135E+02  0.82380608386E+01 -0.36050727661E+03  0.38183393616E+03  0.12508807595E+03 0.  0.
          5    1    3    3  502    0 -0.29328109774E+01 -0.41433883424E+02 -0.29709197341E+03  0.30001080171E+03  0.41800000000E+01 0. -1.
         -5    1    3    3    0  502  0.13738639112E+02  0.49671944263E+02 -0.63415303198E+02  0.81823134450E+02  0.41800000000E+01 0. -1.
        -11    1    1    2    0    0 -0.44071534207E+02  0.17398467021E+02 -0.16923377913E+03  0.17574151126E+03  0.00000000000E+00 0.  1.
         11    1    1    2    0    0  0.33265706072E+02 -0.25636527859E+02 -0.15354536647E+03  0.15918548403E+03  0.00000000000E+00 0. -1.
</event>
<event>
 7    1  0.2794945E-009  0.1427105E+03  0.7561462E-02  0.1209728E+00
         -2   -1    0    0    0  501 -0.00000000000E+00  0.00000000000E+00  0.33249604684E+02  0.33249604684E+02  0.00000000000E+00 0.  1.
          2   -1    0    0  501    0  0.00000000000E+00 -0.00000000000E+00 -0.18877939001E+04  0.18877939001E+04  0.00000000000E+00 0. -1.
         25    2    1    2    0    0 -0.66498193691E+02  0.89062865228E+02 -0.17023734418E+04  0.17105781176E+04  0.12509179512E+03 0.  0.
          5    1    3    3  502    0 -0.51641973434E+02 -0.92338358767E+01 -0.97645399988E+03  0.97787117936E+03  0.41800000000E+01 0.  1.
         -5    1    3    3    0  502 -0.14856220257E+02  0.98296701105E+02 -0.72591944194E+03  0.73270693822E+03  0.41800000000E+01 0.  1.
        -11    1    1    2    0    0 -0.94898564419E+01 -0.43862942779E+02 -0.15094211207E+02  0.47348181977E+02  0.00000000000E+00 0. -1.
         11    1    1    2    0    0  0.75988050133E+02 -0.45199922448E+02 -0.13707664240E+03  0.16311720523E+03  0.00000000000E+00 0.  1.
</event>
<event>
 7    1  0.2794945E-009  0.1856956E+03  0.7561462E-02  0.1162402E+00
         -1   -1    0    0    0  501 -0.00000000000E+00  0.00000000000E+00  0.35264538373E+03  0.35264538373E+03  0.00000000000E+00 0.  1.
          1   -1    0    0  501    0  0.00000000000E+00 -0.00000000000E+00 -0.13205528023E+03  0.13205528023E+03  0.00000000000E+00 0. -1.
         25    2    1    2    0    0 -0.15812090521E+03 -0.95875449741E+02  0.93933075292E+02  0.24220992700E+03  0.12509158076E+03 0.  0.
          5    1    3    3  502    0 -0.12359760932E+03 -0.65941228640E+02  0.12418203432E+03  0.18725187505E+03  0.41800000000E+01 0. -1.
         -5    1    3    3    0  502 -0.34523295893E+02 -0.29934221100E+02 -0.30248959023E+02  0.54958051950E+02  0.41800000000E+01 0. -1.
        -11    1    1    2    0    0  0.11328665306E+03  0.61833193091E+02  0.13361436602E+03  0.18576869580E+03  0.00000000000E+00 0.  1.
         11    1    1    2    0    0  0.44834252155E+02  0.34042256649E+02 -0.69573378228E+01  0.56722041162E+02  0.00000000000E+00 0. -1.
</event>
<event>
 7    1  0.2794945E-009  0.7574799E+02  0.7561462E-02  0.1341570E+00
         -1   -1    0    0    0  501 -0.00000000000E+00  0.00000000000E+00  0.36892117834E+02  0.36892117834E+02  0.00000000000E+00 0.  1.
          1   -1    0    0  501    0  0.00000000000E+00 -0.00000000000E+00 -0.87803669869E+03  0.87803669869E+03  0.00000000000E+00 0. -1.
         25    2    1    2    0    0  0.21963829909E+02  0.17779017805E+02 -0.80123252763E+03  0.81143115391E+03  0.12509376845E+03 0.  0.
          5    1    3    3  502    0  0.58323858644E+02  0.12998049601E+02 -0.71660975180E+03  0.71910891425E+03  0.41800000000E+01 0. -1.
         -5    1    3    3    0  502 -0.36360028735E+02  0.47809682048E+01 -0.84622775831E+02  0.92322239661E+02  0.41800000000E+01 0. -1.
        -11    1    1    2    0    0  0.12301892508E+02  0.52754501503E+01  0.23954869075E+02  0.27440894409E+02  0.00000000000E+00 0.  1.
         11    1    1    2    0    0 -0.34265722417E+02 -0.23054467956E+02 -0.63866922302E+02  0.76056768205E+02  0.00000000000E+00 0. -1.
</event>
<event>
 7    1  0.2794945E-009  0.1076632E+03  0.7561462E-02  0.1264959E+00
          2   -1    0    0  501    0  0.00000000000E+00  0.00000000000E+00  0.33819468624E+03  0.33819468624E+03  0.00000000000E+00 0.  1.
         -2   -1    0    0    0  501 -0.00000000000E+00 -0.00000000000E+00 -0.40294642475E+02  0.40294642475E+02  0.00000000000E+00 0. -1.
         25    2    1    2    0    0  0.27532579822E+02  0.33723141597E+02  0.16452765540E+03  0.21121449404E+03  0.12508764876E+03 0.  0.
          5    1    3    3  502    0  0.32429318015E+02 -0.34741807105E+02  0.21125961896E+02  0.52176934500E+02  0.41800000000E+01 0. -1.
         -5    1    3    3    0  502 -0.48967381929E+01  0.68464948702E+02  0.14340169350E+03  0.15903755954E+03  0.41800000000E+01 0. -1.
        -11    1    1    2    0    0 -0.19783109642E+02  0.29299698760E+02  0.64812799989E+02  0.73827791630E+02  0.00000000000E+00 0.  1.
         11    1    1    2    0    0 -0.77494701804E+01 -0.63022840357E+02  0.68559588377E+02  0.93447043041E+02  0.00000000000E+00 0. -1.
</event>
<event>
 7    1  0.2794945E-009  0.6863337E+02  0.7561462E-02  0.1364803E+00
          2   -1    0    0  501    0  0.00000000000E+00  0.00000000000E+00  0.48353748800E+03  0.48353748800E+03  0.00000000000E+00 0. -1.
         -2   -1    0    0    0  501 -0.00000000000E+00 -0.00000000000E+00 -0.30703086886E+02  0.30703086886E+02  0.00000000000E+00 0.  1.
         25    2    1    2    0    0  0.21716704743E+02 -0.88173316947E+01  0.14799695003E+03  0.19519182094E+03  0.12508952450E+03 0.  0.
          5    1    3    3  502    0 -0.97970955788E+01  0.10502546073E+02 -0.18954528731E+02  0.24146078672E+02  0.41800000000E+01 0. -1.
         -5    1    3    3    0  502  0.31513800321E+02 -0.19319877768E+02  0.16695147876E+03  0.17104574227E+03  0.41800000000E+01 0. -1.
        -11    1    1    2    0    0 -0.18012126853E+02  0.45137895012E+02  0.10242318011E+03  0.11336831173E+03  0.00000000000E+00 0.  1.
         11    1    1    2    0    0 -0.37045778894E+01 -0.36320563317E+02  0.20241427098E+03  0.20568044222E+03  0.00000000000E+00 0. -1.
</event>
<event>
 7    1  0.2794945E-009  0.2374821E+03  0.7561462E-02  0.1121482E+00
          1   -1    0    0  501    0  0.00000000000E+00  0.00000000000E+00  0.42247406272E+03  0.42247406272E+03  0.00000000000E+00 0. -1.
         -1   -1    0    0    0  501 -0.00000000000E+00 -0.00000000000E+00 -0.15395912982E+03  0.15395912982E+03  0.00000000000E+00 0.  1.
         25    2    1    2    0    0  0.22501638652E+03  0.11829028265E+02  0.80823527101E+02  0.27009728798E+03  0.12509117605E+03 0.  0.
          5    1    3    3  502    0  0.23544634886E+03  0.13252475357E+02  0.92943780988E+02  0.25350863914E+03  0.41800000000E+01 0. -1.
         -5    1    3    3    0  502 -0.10429962337E+02 -0.14234470912E+01 -0.12120253886E+02  0.16588648837E+02  0.41800000000E+01 0. -1.
        -11    1    1    2    0    0 -0.13906523822E+03  0.89561284433E+01  0.61681800050E+02  0.15239421634E+03  0.00000000000E+00 0.  1.
         11    1    1    2    0    0 -0.85951148304E+02 -0.20785156709E+02  0.12600960574E+03  0.15394168823E+03  0.00000000000E+00 0. -1.
</event>
<event>
 7    1  0.2794945E-009  0.1041457E+03  0.7561462E-02  0.1271812E+00
          1   -1    0    0  501    0  0.00000000000E+00  0.00000000000E+00  0.50700801849E+02  0.50700801849E+02  0.00000000000E+00 0. -1.
         -1   -1    0    0    0  501 -0.00000000000E+00 -0.00000000000E+00 -0.37688342081E+03  0.37688342081E+03  0.00000000000E+00 0.  1.
         25    2    1    2    0    0 -0.84024689996E+02  0.24788826484E+02 -0.18179478008E+03  0.23742636795E+03  0.12508918293E+03 0.  0.
          5    1    3    3  502    0 -0.86559099671E+02  0.96496398578E+01 -0.42097143668E+02  0.96825798165E+02  0.41800000000E+01 0.  1.
         -5    1    3    3    0  502  0.25344096755E+01  0.15139186626E+02 -0.13969763641E+03  0.14060056978E+03  0.41800000000E+01 0.  1.
        -11    1    1    2    0    0  0.40085687629E+02 -0.41943258644E+02 -0.12745995534E+03  0.14004334870E+03  0.00000000000E+00 0.  1.
         11    1    1    2    0    0  0.43939002367E+02  0.17154432160E+02 -0.16927883536E+02  0.50114506011E+02  0.00000000000E+00 0. -1.
</event>
<event>
 7    1  0.2794945E-009  0.3389078E+03  0.7561462E-02  0.1067262E+00
          1   -1    0    0  501    0  0.00000000000E+00  0.00000000000E+00  0.10187845821E+03  0.10187845821E+03  0.00000000000E+00 0. -1.
         -1   -1    0    0    0  501 -0.00000000000E+00 -0.00000000000E+00 -0.17058267254E+04  0.17058267254E+04  0.00000000000E+00 0.  1.
         25    2    1    2    0    0 -0.31139503364E+03  0.12013249353E+03 -0.12962984401E+04  0.13444086339E+04  0.12508495556E+03 0.  0.
          5    1    3    3  502    0 -0.26505580320E+03  0.88876053963E+02 -0.12071340230E+04  0.12390898086E+04  0.41800000000E+01 0. -1.
         -5    1    3    3    0  502 -0.46339230447E+02  0.31256439570E+02 -0.89164417033E+02  0.10531882528E+03  0.41800000000E+01 0. -1.
        -11    1    1    2    0    0  0.93813886635E+02 -0.38046107003E+00 -0.11833475540E+03  0.15101094137E+03  0.00000000000E+00 0.  1.
         11    1    1    2    0    0  0.21758114701E+03 -0.11975203246E+03 -0.18931507168E+03  0.31228560834E+03  0.00000000000E+00 0. -1.
</event>
<event>
 7    1  0.2794945E-009  0.1191749E+03  0.7561462E-02  0.1244464E+00
          1   -1    0    0  501    0  0.00000000000E+00  0.00000000000E+00  0.46574879322E+02  0.46574879322E+02  0.00000000000E+00 0. -1.
         -1   -1    0    0    0  501 -0.00000000000E+00 -0.00000000000E+00 -0.42145243691E+03  0.42145243691E+03  0.00000000000E+00 0.  1.
         25    2    1    2    0    0 -0.48196419785E+02  0.61236625977E+02 -0.13471844326E+03  0.19967060697E+03  0.12508586288E+03 0.  0.
          5    1    3    3  502    0 -0.50277024447E+02  0.87972061203E+02 -0.13913749224E+03  0.17217310152E+03  0.41800000000E+01 0. -1.
         -5    1    3    3    0  502  0.20806046622E+01 -0.26735435226E+02  0.44190489784E+01  0.27497505457E+02  0.41800000000E+01 0. -1.
        -11    1    1    2    0    0 -0.21443925762E+02 -0.15997590995E+02 -0.21062367775E+02  0.34049790103E+02  0.00000000000E+00 0. -1.
         11    1    1    2    0    0  0.69640345547E+02 -0.45239034982E+02 -0.21909674656E+03  0.23430691916E+03  0.00000000000E+00 0.  1.
</event>
<event>
 7    1  0.2794945E-009  0.9968593E+02  0.7561462E-02  0.1280958E+00
          3   -1    0    0  501    0  0.00000000000E+00  0.00000000000E+00  0.46484182505E+03  0.46484182505E+03  0.00000000000E+00 0. -1.
         -3   -1    0    0    0  501 -0.00000000000E+00 -0.00000000000E+00 -0.44849809050E+02  0.44849809050E+02  0.00000000000E+00 0.  1.
         25    2    1    2    0    0  0.65198381936E+02  0.43053931336E+02  0.13525316216E+03  0.20010508228E+03  0.12507660081E+03 0.  0.
          5    1    3    3  502    0  0.52964286883E+02  0.23608302157E+02 -0.45962889408E+01  0.58319515497E+02  0.41800000000E+01 0.  1.
         -5    1    3    3    0  502  0.12234095053E+02  0.19445629179E+02  0.13984945110E+03  0.14178556679E+03  0.41800000000E+01 0.  1.
        -11    1    1    2    0    0 -0.14528369890E+02  0.27451075319E+02  0.11240111891E+03  0.11661323510E+03  0.00000000000E+00 0.  1.
         11    1    1    2    0    0 -0.50670012046E+02 -0.70505006655E+02  0.17233773493E+03  0.19297331672E+03  0.00000000000E+00 0. -1.
</event>
<event>
 7    1  0.2794945E-009  0.1314351E+03  0.7561462E-02  0.1225342E+00
          1   -1    0    0  501    0  0.00000000000E+00  0.00000000000E+00  0.21860271075E+03  0.21860271075E+03  0.00000000000E+00 0. -1.
         -1   -1    0    0    0  501 -0.00000000000E+00 -0.00000000000E+00 -0.14134469379E+03  0.14134469379E+03  0.00000000000E+00 0.  1.
         25    2    1    2    0    0 -0.10247299532E+03 -0.60367850516E+02 -0.31142273441E+02  0.17538848351E+03  0.12508511825E+03 0.  0.
          5    1    3    3  502    0 -0.22955267453E+00 -0.19058911670E+01  0.38316186116E+02  0.38591289614E+02  0.41800000000E+01 0.  1.
         -5    1    3    3    0  502 -0.10224344264E+03 -0.58461959349E+02 -0.69458459557E+02  0.13679719390E+03  0.41800000000E+01 0.  1.
        -11    1    1    2    0    0  0.11328611420E+03  0.45608307435E+02  0.66996244929E+02  0.13929234800E+03  0.00000000000E+00 0.  1.
         11    1    1    2    0    0 -0.10813118882E+02  0.14759543081E+02  0.41404045471E+02  0.45266573023E+02  0.00000000000E+00 0. -1.
</event>
<event>
 7    1  0.2794945E-009  0.1303622E+03  0.7561462E-02  0.1226919E+00
         -2   -1    0    0    0  501 -0.00000000000E+00  0.00000000000E+00  0.17343609406E+02  0.17343609406E+02  0.00000000000E+00 0.  1.
          2   -1    0    0  501    0  0.00000000000E+00 -0.00000000000E+00 -0.10802291920E+04  0.10802291920E+04  0.00000000000E+00 0. -1.
         25    2    1    2    0    0  0.72937990515E+02  0.26965403370E+02 -0.45866995187E+03  0.48173869990E+03  0.12508783632E+03 0.  0.
          5    1    3    3  502    0  0.10047320870E+03  0.45119476080E+02 -0.39257288295E+03  0.40775185299E+03  0.41800000000E+01 0.  1.
         -5    1    3    3    0  502 -0.27535218183E+02 -0.18154072710E+02 -0.66097068917E+02  0.73986846911E+02  0.41800000000E+01 0.  1.
        -11    1    1    2    0    0 -0.48968309392E+02 -0.59367169279E+02 -0.44443436282E+03  0.45104795640E+03  0.00000000000E+00 0. -1.
         11    1    1    2    0    0 -0.23969681123E+02  0.32401765909E+02 -0.15978126791E+03  0.16478614512E+03  0.00000000000E+00 0.  1.
</event>
<event>
 7    1  0.2794945E-009  0.1420265E+03  0.7561462E-02  0.1210628E+00
          1   -1    0    0  501    0  0.00000000000E+00  0.00000000000E+00  0.33544105164E+03  0.33544105164E+03  0.00000000000E+00 0. -1.
         -1   -1    0    0    0  501 -0.00000000000E+00 -0.00000000000E+00 -0.10863125522E+03  0.10863125522E+03  0.00000000000E+00 0.  1.
         25    2    1    2    0    0 -0.64261157666E+02  0.10595594712E+03  0.99947301354E+01  0.17636344003E+03  0.12509200308E+03 0.  0.
          5    1    3    3  502    0  0.17226900749E+02  0.51583201516E+02  0.46561499205E+02  0.71714980278E+02  0.41800000000E+01 0.  1.
         -5    1    3    3    0  502 -0.81488058415E+02  0.54372745607E+02 -0.36566769069E+02  0.10464845976E+03  0.41800000000E+01 0.  1.
        -11    1    1    2    0    0  0.64052447416E+02 -0.67693687913E+02  0.71560333601E+02  0.11749907552E+03  0.00000000000E+00 0.  1.
         11    1    1    2    0    0  0.20871024975E+00 -0.38262259210E+02  0.14525473268E+03  0.15020979131E+03  0.00000000000E+00 0. -1.
</event>
<event>
 7    1  0.2794945E-009  0.9312988E+02  0.7561462E-02  0.1295444E+00
          1   -1    0    0  501    0  0.00000000000E+00  0.00000000000E+00  0.56927434325E+03  0.56927434325E+03  0.00000000000E+00 0. -1.
         -1   -1    0    0    0  501 -0.00000000000E+00 -0.00000000000E+00 -0.19824709692E+02  0.19824709692E+02  0.00000000000E+00 0.  1.
         25    2    1    2    0    0 -0.20077173626E+02 -0.19755643352E+02  0.41376959790E+03  0.43318225642E+03  0.12509280071E+03 0.  0.
          5    1    3    3  502    0 -0.54558173653E+02 -0.55764798183E+02  0.24534336041E+03  0.25748231769E+03  0.41800000000E+01 0. -1.
         -5    1    3    3    0  502  0.34481000028E+02  0.36009154831E+02  0.16842623749E+03  0.17569993873E+03  0.41800000000E+01 0. -1.
        -11    1    1    2    0    0  0.13976726410E+02  0.37137792619E+02  0.13104509867E+03  0.13692108094E+03  0.00000000000E+00 0. -1.
         11    1    1    2    0    0  0.61004472157E+01 -0.17382149268E+02  0.46349369958E+01  0.18995715579E+02  0.00000000000E+00 0.  1.
</event>
<event>
 7    1  0.2794945E-009  0.1247154E+03  0.7561462E-02  0.1235515E+00
          2   -1    0    0  501    0  0.00000000000E+00  0.00000000000E+00  0.10008084556E+04  0.10008084556E+04  0.00000000000E+00 0.  1.
         -2   -1    0    0    0  501 -0.00000000000E+00 -0.00000000000E+00 -0.18874345666E+02  0.18874345666E+02  0.00000000000E+00 0. -1.
         25    2    1    2    0    0  0.53157387166E+02  0.50225406209E+02  0.68643559074E+03  0.70156268076E+03  0.12509226819E+03 0.  0.
          5    1    3    3  502    0  0.79062352328E+02 -0.78739448696E+01  0.32878527314E+03  0.33827515841E+03  0.41800000000E+01 0. -1.
         -5    1    3    3    0  502 -0.25904965161E+02  0.58099351079E+02  0.35765031760E+03  0.36328752235E+03  0.41800000000E+01 0. -1.
        -11    1    1    2    0    0 -0.20820055882E+02 -0.66665383301E+02  0.11941847094E+03  0.13834203721E+03  0.00000000000E+00 0. -1.
         11    1    1    2    0    0 -0.32337331284E+02  0.16439977092E+02  0.17608004829E+03  0.17977808334E+03  0.00000000000E+00 0.  1.
</event>
<event>
 7    1  0.2839320E-009  0.8956140E+02  0.7561462E-02  0.1303917E+00
          2   -1    0    0  501    0  0.00000000000E+00  0.00000000000E+00  0.63998629595E+02  0.63998629595E+02  0.00000000000E+00 0.  1.
         -2   -1    0    0    0  501 -0.00000000000E+00 -0.00000000000E+00 -0.26364990910E+03  0.26364990910E+03  0.00000000000E+00 0. -1.
         25    2    1    2    0    0  0.56489999855E+02 -0.43196686695E+02 -0.10751930016E+03  0.17962300910E+03  0.12508777584E+03 0.  0.
          5    1    3    3  502    0  0.56206720400E+00 -0.21993097463E+01  0.27431353886E+02  0.27840697889E+02  0.41800000000E+01 0. -1.
         -5    1    3    3    0  502  0.55927932651E+02 -0.40997376949E+02 -0.13495065405E+03  0.15178231121E+03  0.41800000000E+01 0. -1.
        -11    1    1    2    0    0  0.15234480420E+01  0.46748510665E+02 -0.10704697849E+02  0.47982649983E+02  0.00000000000E+00 0.  1.
         11    1    1    2    0    0 -0.58013447897E+02 -0.35518239696E+01 -0.81427281491E+02  0.10004287961E+03  0.00000000000E+00 0. -1.
</event>
<event>
 7    1  0.2794945E-009  0.8682109E+02  0.7561462E-02  0.1310738E+00
          2   -1    0    0  501    0  0.00000000000E+00  0.00000000000E+00  0.26534930520E+02  0.26534930520E+02  0.00000000000E+00 0. -1.
         -2   -1    0    0    0  501 -0.00000000000E+00 -0.00000000000E+00 -0.56667565875E+03  0.56667565875E+03  0.00000000000E+00 0.  1.
         25    2    1    2    0    0 -0.14384028138E+02 -0.49883953152E+02 -0.35139568388E+03  0.37659170562E+03  0.12508827700E+03 0.  0.
          5    1    3    3  502    0 -0.31892068123E+00 -0.57640334801E+02 -0.55159270020E+02  0.79890721461E+02  0.41800000000E+01 0.  1.
         -5    1    3    3    0  502 -0.14065107457E+02  0.77563816485E+01 -0.29623641386E+03  0.29670098416E+03  0.41800000000E+01 0.  1.
        -11    1    1    2    0    0 -0.20129045746E+02  0.60000839505E+02 -0.15449194656E+03  0.16695221106E+03  0.00000000000E+00 0.  1.
         11    1    1    2    0    0  0.34513073884E+02 -0.10116886353E+02 -0.34253097781E+02  0.49666672588E+02  0.00000000000E+00 0. -1.
</event>
<event>
 7    1  0.2794945E-009  0.6054731E+02  0.7561462E-02  0.1395549E+00
          2   -1    0    0  501    0  0.00000000000E+00  0.00000000000E+00  0.17766301291E+03  0.17766301291E+03  0.00000000000E+00 0. -1.
         -2   -1    0    0    0  501 -0.00000000000E+00 -0.00000000000E+00 -0.10308058081E+03  0.10308058081E+03  0.00000000000E+00 0.  1.
         25    2    1    2    0    0 -0.35226549245E+02 -0.84218494368E+01 -0.32763655609E+02  0.13428195100E+03  0.12508536251E+03 0.  0.
          5    1    3    3  502    0  0.84919341571E+01 -0.13424285870E+02 -0.72808367988E+02  0.74638162128E+02  0.41800000000E+01 0.  1.
         -5    1    3    3    0  502 -0.43718483402E+02  0.50024364332E+01  0.40044712379E+02  0.59643788869E+02  0.41800000000E+01 0.  1.
        -11    1    1    2    0    0  0.35371927018E+02 -0.14002364310E+02  0.12939667279E+01  0.38064600052E+02  0.00000000000E+00 0.  1.
         11    1    1    2    0    0 -0.14537777342E+00  0.22424213747E+02  0.10605212098E+03  0.10839704268E+03  0.00000000000E+00 0. -1.
</event>
<event>
 7    1  0.2794945E-009  0.9167094E+02  0.7561462E-02  0.1298855E+00
          2   -1    0    0  501    0  0.00000000000E+00  0.00000000000E+00  0.48156369938E+03  0.48156369938E+03  0.00000000000E+00 0. -1.
         -2   -1    0    0    0  501 -0.00000000000E+00 -0.00000000000E+00 -0.26924580685E+02  0.26924580685E+02  0.00000000000E+00 0.  1.
         25    2    1    2    0    0 -0.29034466599E+02 -0.46209451789E+02  0.21625742600E+03  0.25572045367E+03  0.12508941778E+03 0.  0.
          5    1    3    3  502    0 -0.10834288432E+02 -0.69926419968E+02  0.49998367054E+02  0.86743271344E+02  0.41800000000E+01 0.  1.
         -5    1    3    3    0  502 -0.18200178168E+02  0.23716968179E+02  0.16625905895E+03  0.16897718233E+03  0.41800000000E+01 0.  1.
        -11    1    1    2    0    0  0.42908210874E+02  0.51843965403E+02  0.17152110004E+03  0.18425091334E+03  0.00000000000E+00 0.  1.
         11    1    1    2    0    0 -0.13873744274E+02 -0.56345136144E+01  0.66860592652E+02  0.68516913048E+02  0.00000000000E+00 0. -1.
</event>
<event>
 7    1  0.2794945E-009  0.9487375E+02  0.7561462E-02  0.1291461E+00
         -1   -1    0    0    0  501 -0.00000000000E+00  0.00000000000E+00  0.58518818648E+02  0.58518818648E+02  0.00000000000E+00 0.  1.
          1   -1    0    0  501    0  0.00000000000E+00 -0.00000000000E+00 -0.36618095434E+03  0.36618095434E+03  0.00000000000E+00 0. -1.
         25    2    1    2    0    0 -0.60625910336E+02 -0.46011616518E+01 -0.56555221907E+02  0.15014243043E+03  0.12509030577E+03 0.  0.
          5    1    3    3  502    0 -0.59736849125E+02  0.32919190722E+02 -0.80372623566E+02  0.10549594912E+03  0.41800000000E+01 0.  1.
         -5    1    3    3    0  502 -0.88906121046E+00 -0.37520352374E+02  0.23817401659E+02  0.44646481315E+02  0.41800000000E+01 0.  1.
        -11    1    1    2    0    0  0.20982047683E+02 -0.26114292942E+02 -0.20061249613E+03  0.20339020680E+03  0.00000000000E+00 0. -1.
         11    1    1    2    0    0  0.39643862653E+02  0.30715454594E+02 -0.50494417660E+02  0.71167135756E+02  0.00000000000E+00 0.  1.
</event>
<event>
 7    1  0.2794945E-009  0.1508745E+03  0.7561462E-02  0.1199402E+00
         -2   -1    0    0    0  501 -0.00000000000E+00  0.00000000000E+00  0.37627832521E+02  0.37627832521E+02  0.00000000000E+00 0.  1.
          2   -1    0    0  501    0  0.00000000000E+00 -0.00000000000E+00 -0.63767393648E+03  0.63767393648E+03  0.00000000000E+00 0. -1.
         25    2    1    2    0    0  0.84277322051E+02 -0.68212470185E+02 -0.37854653053E+03  0.41315951161E+03  0.12509075966E+03 0.  0.
          5    1    3    3  502    0  0.10679533252E+03 -0.17222627035E+02 -0.27394729927E+03  0.29456146575E+03  0.41800000000E+01 0.  1.
         -5    1    3    3    0  502 -0.22518010466E+02 -0.50989843150E+02 -0.10459923126E+03  0.11859804585E+03  0.41800000000E+01 0.  1.
        -11    1    1    2    0    0 -0.91308965483E+02  0.26192033775E+02 -0.17469288549E+03  0.19884907355E+03  0.00000000000E+00 0. -1.
         11    1    1    2    0    0  0.70316434320E+01  0.42020436411E+02 -0.46806687934E+02  0.63293183842E+02  0.00000000000E+00 0.  1.
</event>
<event>
 7    1  0.2794945E-009  0.1082142E+03  0.7561462E-02  0.1263913E+00
         -2   -1    0    0    0  501 -0.00000000000E+00  0.00000000000E+00  0.15288366799E+03  0.15288366799E+03  0.00000000000E+00 0.  1.
          2   -1    0    0  501    0  0.00000000000E+00 -0.00000000000E+00 -0.14050488913E+03  0.14050488913E+03  0.00000000000E+00 0. -1.
         25    2    1    2    0    0 -0.49720665152E+02 -0.79520018465E+02  0.37070217228E+02  0.16067650916E+03  0.12508861544E+03 0.  0.
          5    1    3    3  502    0 -0.61979755727E+02 -0.47348797885E+02 -0.31194969025E+02  0.84107058406E+02  0.41800000000E+01 0. -1.
         -5    1    3    3    0  502  0.12259090576E+02 -0.32171220580E+02  0.68265186253E+02  0.76569450759E+02  0.41800000000E+01 0. -1.
        -11    1    1    2    0    0  0.31288255821E+01  0.46328876895E+02 -0.51665863937E+02  0.69465933235E+02  0.00000000000E+00 0. -1.
         11    1    1    2    0    0  0.46591839570E+02  0.33191141570E+02  0.26974425568E+02  0.63246114726E+02  0.00000000000E+00 0.  1.
</event>
<event>
 7    1  0.2794945E-009  0.9796210E+02  0.7561462E-02  0.1284641E+00
          2   -1    0    0  501    0  0.00000000000E+00  0.00000000000E+00  0.63618054669E+03  0.63618054669E+03  0.00000000000E+00 0. -1.
         -2   -1    0    0    0  501 -0.00000000000E+00 -0.00000000000E+00 -0.20586140897E+02  0.20586140897E+02  0.00000000000E+00 0.  1.
         25    2    1    2    0    0 -0.83519677521E+01 -0.19520362862E+02  0.45125928726E+03  0.46875827705E+03  0.12509427659E+03 0.  0.
          5    1    3    3  502    0 -0.55488707055E+02 -0.38790913349E+02  0.17255052861E+03  0.18540466254E+03  0.41800000000E+01 0. -1.
         -5    1    3    3    0  502  0.47136739303E+02  0.19270550487E+02  0.27870875865E+03  0.28335361451E+03  0.41800000000E+01 0. -1.
        -11    1    1    2    0    0  0.36837238293E+02 -0.76593732171E+01  0.30295418079E+02  0.48305905226E+02  0.00000000000E+00 0.  1.
         11    1    1    2    0    0 -0.28485270541E+02  0.27179736079E+02  0.13403970045E+03  0.13970250530E+03  0.00000000000E+00 0. -1.
</event>
<event>
 7    1  0.2794945E-009  0.1373914E+03  0.7561462E-02  0.1216883E+00
         -2   -1    0    0    0  501 -0.00000000000E+00  0.00000000000E+00  0.94415840371E+02  0.94415840371E+02  0.00000000000E+00 0.  1.
          2   -1    0    0  501    0  0.00000000000E+00 -0.00000000000E+00 -0.29367267260E+03  0.29367267260E+03  0.00000000000E+00 0. -1.
         25    2    1    2    0    0 -0.10187218148E+03  0.43932954677E+02 -0.18135181457E+03  0.24666728438E+03  0.12509285620E+03 0.  0.
          5    1    3    3  502    0 -0.78042484414E+02  0.74512688169E+02 -0.70002469750E+02  0.12868794910E+03  0.41800000000E+01 0.  1.
         -5    1    3    3    0  502 -0.23829697062E+02 -0.30579733492E+02 -0.11134934482E+03  0.11797933528E+03  0.41800000000E+01 0.  1.
        -11    1    1    2    0    0  0.44524114895E+02 -0.53567575688E+02  0.19431705168E+02  0.72315096198E+02  0.00000000000E+00 0.  1.
         11    1    1    2    0    0  0.57348066581E+02  0.96346210113E+01 -0.37336722828E+02  0.69106132392E+02  0.00000000000E+00 0. -1.
</event>
<event>
 7    1  0.2794945E-009  0.1046581E+03  0.7561462E-02  0.1270795E+00
         -2   -1    0    0    0  501 -0.00000000000E+00  0.00000000000E+00  0.11672192545E+02  0.11672192545E+02  0.00000000000E+00 0.  1.
          2   -1    0    0  501    0  0.00000000000E+00 -0.00000000000E+00 -0.16083846665E+04  0.16083846665E+04  0.00000000000E+00 0. -1.
         25    2    1    2    0    0 -0.16399439098E+02 -0.62607251801E+02 -0.11865069413E+04  0.11948369152E+04  0.12509165720E+03 0.  0.
          5    1    3    3  502    0 -0.28643819306E+02  0.20499874260E+02 -0.71553914826E+03  0.71641779592E+03  0.41800000000E+01 0.  1.
         -5    1    3    3    0  502  0.12244380208E+02 -0.83107126060E+02 -0.47096779301E+03  0.47841911929E+03  0.41800000000E+01 0.  1.
        -11    1    1    2    0    0  0.13580474102E+02 -0.10131745097E+02 -0.12885297817E+02  0.21286437827E+02  0.00000000000E+00 0.  1.
         11    1    1    2    0    0  0.28189649966E+01  0.72738996897E+02 -0.39732023483E+03  0.40393350596E+03  0.00000000000E+00 0. -1.
</event>
<event>
 7    1  0.2794945E-009  0.1588441E+03  0.7561462E-02  0.1190008E+00
         -1   -1    0    0    0  501 -0.00000000000E+00  0.00000000000E+00  0.44603397226E+02  0.44603397226E+02  0.00000000000E+00 0.  1.
          1   -1    0    0  501    0  0.00000000000E+00 -0.00000000000E+00 -0.75021396552E+03  0.75021396552E+03  0.00000000000E+00 0. -1.
         25    2    1    2    0    0  0.12638910969E+03  0.83981686174E+02 -0.34641350771E+03  0.39834328586E+03  0.12509166403E+03 0.  0.
          5    1    3    3  502    0  0.12418612265E+03  0.55279735630E+02 -0.34309543812E+03  0.36906638195E+03  0.41800000000E+01 0. -1.
         -5    1    3    3    0  502  0.22029870467E+01  0.28701950544E+02 -0.33180695899E+01  0.29276903914E+02  0.41800000000E+01 0. -1.
        -11    1    1    2    0    0 -0.83009395579E+02 -0.45766961282E+02 -0.29607514562E+03  0.31087886122E+03  0.00000000000E+00 0.  1.
         11    1    1    2    0    0 -0.43379714113E+02 -0.38214724892E+02 -0.63121914966E+02  0.85595215661E+02  0.00000000000E+00 0. -1.
</event>
<event>
 7    1  0.2794945E-009  0.1419323E+03  0.7561462E-02  0.1210752E+00
          1   -1    0    0  501    0  0.00000000000E+00  0.00000000000E+00  0.49433338196E+03  0.49433338196E+03  0.00000000000E+00 0. -1.
         -1   -1    0    0    0  501 -0.00000000000E+00 -0.00000000000E+00 -0.51339002744E+02  0.51339002744E+02  0.00000000000E+00 0.  1.
         25    2    1    2    0    0 -0.90169727261E+02 -0.55436590329E+02  0.32052352031E+03  0.35998227013E+03  0.12509241573E+03 0.  0.
          5    1    3    3  502    0 -0.10942121577E+03 -0.74554901157E+02  0.23038092721E+03  0.26575229024E+03  0.41800000000E+01 0.  1.
         -5    1    3    3    0  502  0.19251488508E+02  0.19118310829E+02  0.90142593100E+02  0.94229979887E+02  0.41800000000E+01 0.  1.
        -11    1    1    2    0    0  0.11504764882E+02 -0.14618959760E+02 -0.60081201395E+01  0.19549197095E+02  0.00000000000E+00 0. -1.
         11    1    1    2    0    0  0.78664962378E+02  0.70055550089E+02  0.12847897904E+03  0.16614091748E+03  0.00000000000E+00 0.  1.
</event>
<event>
 7    1  0.2794945E-009  0.1201457E+03  0.7561462E-02  0.1242857E+00
         -3   -1    0    0    0  501 -0.00000000000E+00  0.00000000000E+00  0.84609986480E+02  0.84609986480E+02  0.00000000000E+00 0.  1.
          3   -1    0    0  501    0  0.00000000000E+00 -0.00000000000E+00 -0.20138844687E+03  0.20138844687E+03  0.00000000000E+00 0. -1.
         25    2    1    2    0    0  0.43139837326E+02 -0.52256682635E+02 -0.93001753484E+02  0.16996910604E+03  0.12509342274E+03 0.  0.
          5    1    3    3  502    0 -0.31704135149E+01  0.31833236066E+02 -0.60440724918E+02  0.68512481118E+02  0.41800000000E+01 0. -1.
         -5    1    3    3    0  502  0.46310250841E+02 -0.84089918701E+02 -0.32561028566E+02  0.10145662493E+03  0.41800000000E+01 0. -1.
        -11    1    1    2    0    0  0.22543830154E+02  0.38825835428E+02 -0.30161826347E-02  0.44896211241E+02  0.00000000000E+00 0.  1.
         11    1    1    2    0    0 -0.65683667480E+02  0.13430847208E+02 -0.23773690723E+02  0.71133116064E+02  0.00000000000E+00 0. -1.
</event>
<event>
 7    1  0.2794945E-009  0.1202638E+03  0.7561462E-02  0.1242662E+00
          4   -1    0    0  501    0  0.00000000000E+00  0.00000000000E+00  0.40725111314E+03  0.40725111314E+03  0.00000000000E+00 0. -1.
         -4   -1    0    0    0  501 -0.00000000000E+00 -0.00000000000E+00 -0.45941481115E+02  0.45941481115E+02  0.00000000000E+00 0.  1.
         25    2    1    2    0    0 -0.20551475556E+02  0.90433948763E+02  0.20101636085E+03  0.25427157116E+03  0.12508314169E+03 0.  0.
          5    1    3    3  502    0  0.38936390037E+02  0.44088723066E+02  0.27571313162E+02  0.65096141822E+02  0.41800000000E+01 0. -1.
         -5    1    3    3    0  502 -0.59487865592E+02  0.46345225698E+02  0.17344504769E+03  0.18917542934E+03  0.41800000000E+01 0. -1.
        -11    1    1    2    0    0 -0.15217991341E+02 -0.48931076827E+02  0.12127788845E+03  0.13165927148E+03  0.00000000000E+00 0.  1.
         11    1    1    2    0    0  0.35769466896E+02 -0.41502871936E+02  0.39015382727E+02  0.67261751615E+02  0.00000000000E+00 0. -1.
</event>
<event>
 7    1  0.2794945E-009  0.1097577E+03  0.7561462E-02  0.1261019E+00
          2   -1    0    0  501    0  0.00000000000E+00  0.00000000000E+00  0.10449410851E+04  0.10449410851E+04  0.00000000000E+00 0. -1.
         -2   -1    0    0    0  501 -0.00000000000E+00 -0.00000000000E+00 -0.14561547801E+02  0.14561547801E+02  0.00000000000E+00 0.  1.
         25    2    1    2    0    0  0.16530029515E+02  0.41896138406E+02  0.73342091138E+03  0.74537422069E+03  0.12509183561E+03 0.  0.
          5    1    3    3  502    0  0.28491897425E+02 -0.39915901073E+02  0.23183578678E+03  0.23700289409E+03  0.41800000000E+01 0.  1.
         -5    1    3    3    0  502 -0.11961867910E+02  0.81812039479E+02  0.50158512460E+03  0.50837132660E+03  0.41800000000E+01 0.  1.
        -11    1    1    2    0    0 -0.42174482618E+02 -0.45003532199E+02  0.26934200671E+03  0.27631344787E+03  0.00000000000E+00 0.  1.
         11    1    1    2    0    0  0.25644453103E+02  0.31073937928E+01  0.27616619200E+02  0.37814964329E+02  0.00000000000E+00 0. -1.
</event>
<event>
 7    1  0.2794945E-009  0.1039030E+03  0.7561462E-02  0.1272296E+00
          2   -1    0    0  501    0  0.00000000000E+00  0.00000000000E+00  0.10490694670E+03  0.10490694670E+03  0.00000000000E+00 0. -1.
         -2   -1    0    0    0  501 -0.00000000000E+00 -0.00000000000E+00 -0.17734942689E+03  0.17734942689E+03  0.00000000000E+00 0.  1.
         25    2    1    2    0    0 -0.44653572621E+02  0.37421986176E+02  0.25037307325E+02  0.14024726273E+03  0.12509229132E+03 0.  0.
          5    1    3    3  502    0  0.65258614781E+01  0.71877789667E+02  0.29865789614E+02  0.78220466022E+02  0.41800000000E+01 0. -1.
         -5    1    3    3    0  502 -0.51179434099E+02 -0.34455803491E+02 -0.48284822884E+01  0.62026796710E+02  0.41800000000E+01 0. -1.
        -11    1    1    2    0    0  0.53394234326E+02 -0.26278183747E+02 -0.10871092364E+03  0.12393366015E+03  0.00000000000E+00 0.  1.
         11    1    1    2    0    0 -0.87406617048E+01 -0.11143802430E+02  0.11231136118E+02  0.18075450703E+02  0.00000000000E+00 0. -1.
</event>
<event>
 7    1  0.2794945E-009  0.1251073E+03  0.7561462E-02  0.1234902E+00
          2   -1    0    0  501    0  0.00000000000E+00  0.00000000000E+00  0.57449862332E+03  0.57449862332E+03  0.00000000000E+00 0. -1.
         -2   -1    0    0    0  501 -0.00000000000E+00 -0.00000000000E+00 -0.43142188883E+02  0.43142188883E+02  0.00000000000E+00 0.  1.
         25    2    1    2    0    0 -0.10710714160E+03  0.29920819018E+02  0.30594815966E+03  0.34873493915E+03  0.12507832024E+03 0.  0.
          5    1    3    3  502    0 -0.13044790934E+02  0.26262486285E+02  0.21747518036E+03  0.21948305453E+03  0.41800000000E+01 0. -1.
         -5    1    3    3    0  502 -0.94062350663E+02  0.36583327331E+01  0.88472979303E+02  0.12925188462E+03  0.41800000000E+01 0. -1.
        -11    1    1    2    0    0  0.44853124763E+02  0.17462945342E+02  0.26014862772E+02  0.54713164285E+02  0.00000000000E+00 0.  1.
         11    1    1    2    0    0  0.62254016834E+02 -0.47383764360E+02  0.19939341200E+03  0.21419270876E+03  0.00000000000E+00 0. -1.
</event>
<event>
 7    1  0.2794945E-009  0.1386903E+03  0.7561462E-02  0.1215102E+00
         -2   -1    0    0    0  501 -0.00000000000E+00  0.00000000000E+00  0.59714677562E+02  0.59714677562E+02  0.00000000000E+00 0.  1.
          2   -1    0    0  501    0  0.00000000000E+00 -0.00000000000E+00 -0.41983575354E+03  0.41983575354E+03  0.00000000000E+00 0. -1.
         25    2    1    2    0    0  0.42694801226E+01  0.11193319920E+03 -0.23633839115E+03  0.28991627819E+03  0.12509333990E+03 0.  0.
          5    1    3    3  502    0  0.17076189252E+02  0.12798611389E+03 -0.13665353039E+03  0.18805238992E+03  0.41800000000E+01 0. -1.
         -5    1    3    3    0  502 -0.12806709129E+02 -0.16052914689E+02 -0.99684860761E+02  0.10186388827E+03  0.41800000000E+01 0. -1.
        -11    1    1    2    0    0 -0.18621939009E+02 -0.11132399804E+03 -0.67428441749E+02  0.13147776964E+03  0.00000000000E+00 0.  1.
         11    1    1    2    0    0  0.14352458887E+02 -0.60920115699E+00 -0.56354243085E+02  0.58156383277E+02  0.00000000000E+00 0. -1.
</event>
<event>
 7    1  0.2794945E-009  0.9652014E+02  0.7561462E-02  0.1287789E+00
         -2   -1    0    0    0  501 -0.00000000000E+00  0.00000000000E+00  0.86415570823E+02  0.86415570823E+02  0.00000000000E+00 0. -1.
          2   -1    0    0  501    0  0.00000000000E+00 -0.00000000000E+00 -0.18479478584E+03  0.18479478584E+03  0.00000000000E+00 0.  1.
         25    2    1    2    0    0  0.39643381997E+02  0.41023800649E+02 -0.10032406038E+02  0.13783219546E+03  0.12507004029E+03 0.  0.
          5    1    3    3  502    0  0.65543482227E+02  0.31720970867E+02 -0.50502174555E+02  0.88713640947E+02  0.41800000000E+01 0. -1.
         -5    1    3    3    0  502 -0.25900100230E+02  0.93028297814E+01  0.40469768517E+02  0.49118554515E+02  0.41800000000E+01 0. -1.
        -11    1    1    2    0    0 -0.18704433123E+02  0.20219820325E+02 -0.52756290438E+02  0.59514058282E+02  0.00000000000E+00 0.  1.
         11    1    1    2    0    0 -0.20938948874E+02 -0.61243620974E+02 -0.35590518540E+02  0.73864102918E+02  0.00000000000E+00 0. -1.
</event>
<event>
 7    1  0.2794945E-009  0.1145961E+03  0.7561462E-02  0.1252288E+00
         -1   -1    0    0    0  501 -0.00000000000E+00  0.00000000000E+00  0.29708670873E+02  0.29708670873E+02  0.00000000000E+00 0.  1.
          1   -1    0    0  501    0  0.00000000000E+00 -0.00000000000E+00 -0.93972375500E+03  0.93972375500E+03  0.00000000000E+00 0. -1.
         25    2    1    2    0    0 -0.76180685557E+02  0.10580196267E+02 -0.73849425572E+03  0.75295219333E+03  0.12509117591E+03 0.  0.
          5    1    3    3  502    0 -0.81333660503E+01 -0.23262054846E+02 -0.24799332250E+02  0.35210142275E+02  0.41800000000E+01 0.  1.
         -5    1    3    3    0  502 -0.68047319506E+02  0.33842251113E+02 -0.71369492347E+03  0.71774205105E+03  0.41800000000E+01 0.  1.
        -11    1    1    2    0    0  0.79778374695E+02 -0.46262084877E+02 -0.97361291664E+02  0.13410440217E+03  0.00000000000E+00 0.  1.
         11    1    1    2    0    0 -0.35976891378E+01  0.35681888610E+02 -0.74159536742E+02  0.82375830385E+02  0.00000000000E+00 0. -1.
</event>
<event>
 7    1  0.2794945E-009  0.6636245E+02  0.7561462E-02  0.1372919E+00
          1   -1    0    0  501    0  0.00000000000E+00  0.00000000000E+00  0.28968896514E+03  0.28968896514E+03  0.00000000000E+00 0. -1.
         -1   -1    0    0    0  501 -0.00000000000E+00 -0.00000000000E+00 -0.49443700589E+02  0.49443700589E+02  0.00000000000E+00 0.  1.
         25    2    1    2    0    0  0.72449232159E+00  0.42106960400E+02  0.93913383232E+02  0.16199169817E+03  0.12509222886E+03 0.  0.
          5    1    3    3  502    0  0.94218484763E+01  0.18232687873E+01  0.11502394546E+03  0.11549924661E+03  0.41800000000E+01 0. -1.
         -5    1    3    3    0  502 -0.86973561547E+01  0.40283691613E+02 -0.21110562231E+02  0.46492451557E+02  0.41800000000E+01 0. -1.
        -11    1    1    2    0    0 -0.33613500183E+02 -0.32043812496E+02  0.28720084766E+02  0.54603265313E+02  0.00000000000E+00 0.  1.
         11    1    1    2    0    0  0.32889007862E+02 -0.10063147904E+02  0.11761179656E+03  0.12253770225E+03  0.00000000000E+00 0. -1.
</event>
<event>
 7    1  0.2794945E-009  0.1674874E+03  0.7561462E-02  0.1180494E+00
          1   -1    0    0  501    0  0.00000000000E+00  0.00000000000E+00  0.34219831476E+03  0.34219831476E+03  0.00000000000E+00 0. -1.
         -1   -1    0    0    0  501 -0.00000000000E+00 -0.00000000000E+00 -0.95311764499E+02  0.95311764499E+02  0.00000000000E+00 0.  1.
         25    2    1    2    0    0 -0.88361485571E+01  0.13517860721E+03  0.19079816271E+03  0.26533489723E+03  0.12508930979E+03 0.  0.
          5    1    3    3  502    0 -0.49052583510E+02  0.24839310508E+02  0.10900230668E+03  0.12215614007E+03  0.41800000000E+01 0.  1.
         -5    1    3    3    0  502  0.40216434953E+02  0.11033929670E+03  0.81795856034E+02  0.14317875715E+03  0.41800000000E+01 0.  1.
        -11    1    1    2    0    0 -0.39880705017E+02 -0.74506327007E+02  0.22701577410E+02  0.87504428537E+02  0.00000000000E+00 0.  1.
         11    1    1    2    0    0  0.48716853574E+02 -0.60672280198E+02  0.33386810138E+02  0.84670753497E+02  0.00000000000E+00 0. -1.
</event>
<event>
 7    1  0.2794945E-009  0.1827030E+03  0.7561462E-02  0.1165212E+00
         -2   -1    0    0    0  501 -0.00000000000E+00  0.00000000000E+00  0.40961586087E+02  0.40961586087E+02  0.00000000000E+00 0.  1.
          2   -1    0    0  501    0  0.00000000000E+00 -0.00000000000E+00 -0.13670606635E+04  0.13670606635E+04  0.00000000000E+00 0. -1.
         25    2    1    2    0    0  0.12687066024E+03  0.74207149630E+02 -0.11294290995E+04  0.11458007145E+04  0.12508525520E+03 0.  0.
          5    1    3    3  502    0  0.64984903129E+02  0.10478616172E+03 -0.76145906471E+03  0.77138871974E+03  0.41800000000E+01 0.  1.
         -5    1    3    3    0  502  0.61885757115E+02 -0.30579012088E+02 -0.36797003480E+03  0.37441199477E+03  0.41800000000E+01 0.  1.
        -11    1    1    2    0    0  0.34116544191E+01  0.14739644844E+02 -0.11745012635E+02  0.19153115616E+02  0.00000000000E+00 0. -1.
         11    1    1    2    0    0 -0.13028231466E+03 -0.88946794474E+02 -0.18492496529E+03  0.24306841948E+03  0.00000000000E+00 0.  1.
</event>
<event>
 7    1  0.2794945E-009  0.3120592E+03  0.7561462E-02  0.1079363E+00
          2   -1    0    0  501    0  0.00000000000E+00  0.00000000000E+00  0.10799094811E+04  0.10799094811E+04  0.00000000000E+00 0. -1.
         -2   -1    0    0    0  501 -0.00000000000E+00 -0.00000000000E+00 -0.10192590010E+03  0.10192590010E+03  0.00000000000E+00 0.  1.
         25    2    1    2    0    0  0.30345035399E+03  0.44368862762E+02  0.61149509680E+03  0.69543112569E+03  0.12508990304E+03 0.  0.
          5    1    3    3  502    0  0.24054855805E+03  0.93856253276E+01  0.35462597563E+03  0.42863592212E+03  0.41800000000E+01 0.  1.
         -5    1    3    3    0  502  0.62901795944E+02  0.34983237434E+02  0.25686912117E+03  0.26679520357E+03  0.41800000000E+01 0.  1.
        -11    1    1    2    0    0 -0.19431965923E+03 -0.24092220406E+01  0.28061849264E+03  0.34133952704E+03  0.00000000000E+00 0. -1.
         11    1    1    2    0    0 -0.10913069477E+03 -0.41959640721E+02  0.85869991539E+02  0.14506472844E+03  0.00000000000E+00 0.  1.
</event>
<event>
 7    1  0.2794945E-009  0.1197086E+03  0.7561462E-02  0.1243579E+00
         -3   -1    0    0    0  501 -0.00000000000E+00  0.00000000000E+00  0.20032381290E+03  0.20032381290E+03  0.00000000000E+00 0.  1.
          3   -1    0    0  501    0  0.00000000000E+00 -0.00000000000E+00 -0.89981119021E+02  0.89981119021E+02  0.00000000000E+00 0. -1.
         25    2    1    2    0    0  0.54965084150E+02 -0.35147586284E+02  0.10912885143E+03  0.17835490838E+03  0.12507939011E+03 0.  0.
          5    1    3    3  502    0  0.46972480238E+02 -0.80322527211E+02  0.58916248562E+02  0.11021215460E+03  0.41800000000E+01 0.  1.
         -5    1    3    3    0  502  0.79926039118E+01  0.45174940927E+02  0.50212602869E+02  0.68142753774E+02  0.41800000000E+01 0.  1.
        -11    1    1    2    0    0  0.17385900793E+02  0.19609673366E+02  0.22936895020E+02  0.34826857295E+02  0.00000000000E+00 0.  1.
         11    1    1    2    0    0 -0.72350984943E+02  0.15537912918E+02 -0.21723052569E+02  0.77123166253E+02  0.00000000000E+00 0. -1.
</event>
<event>
 7    1  0.2794945E-009  0.1211406E+03  0.7561462E-02  0.1241227E+00
          1   -1    0    0  501    0  0.00000000000E+00  0.00000000000E+00  0.32145299430E+03  0.32145299430E+03  0.00000000000E+00 0. -1.
         -1   -1    0    0    0  501 -0.00000000000E+00 -0.00000000000E+00 -0.50671258275E+02  0.50671258275E+02  0.00000000000E+00 0.  1.
         25    2    1    2    0    0 -0.68814522991E+01  0.66142356691E+02  0.18382685476E+03  0.23207965340E+03  0.12508591950E+03 0.  0.
          5    1    3    3  502    0 -0.26353563021E+02 -0.31526843357E+02  0.43858269788E+02  0.60245102413E+02  0.41800000000E+01 0. -1.
         -5    1    3    3    0  502  0.19472110722E+02  0.97669200048E+02  0.13996858497E+03  0.17183455099E+03  0.41800000000E+01 0. -1.
        -11    1    1    2    0    0  0.39285287369E+02 -0.53817667666E+02  0.29342694425E+02  0.72805692585E+02  0.00000000000E+00 0.  1.
         11    1    1    2    0    0 -0.32403835070E+02 -0.12324689025E+02  0.57612186836E+02  0.67238906586E+02  0.00000000000E+00 0. -1.
</event>
<event>
 7    1  0.2794945E-009  0.1084026E+03  0.7561462E-02  0.1263557E+00
          2   -1    0    0  501    0  0.00000000000E+00  0.00000000000E+00  0.12129678659E+03  0.12129678659E+03  0.00000000000E+00 0. -1.
         -2   -1    0    0    0  501 -0.00000000000E+00 -0.00000000000E+00 -0.11557000168E+03  0.11557000168E+03  0.00000000000E+00 0.  1.
         25    2    1    2    0    0 -0.38342245990E+02  0.47504956354E+00 -0.25362455201E+02  0.13326602513E+03  0.12508487447E+03 0.  0.
          5    1    3    3  502    0 -0.61615482368E+02  0.47519532773E+02 -0.11050942267E+02  0.78703045605E+02  0.41800000000E+01 0. -1.
         -5    1    3    3    0  502  0.23273236378E+02 -0.47044483210E+02 -0.14311512934E+02  0.54562979523E+02  0.41800000000E+01 0. -1.
        -11    1    1    2    0    0  0.59885899021E+02  0.12365447654E+02 -0.30664280262E+01  0.61226041666E+02  0.00000000000E+00 0.  1.
         11    1    1    2    0    0 -0.21543653031E+02 -0.12840497217E+02  0.34155668132E+02  0.42374721477E+02  0.00000000000E+00 0. -1.
</event>
<event>
 7    1  0.2794945E-009  0.1487305E+03  0.7561462E-02  0.1202042E+00
         -2   -1    0    0    0  501 -0.00000000000E+00  0.00000000000E+00  0.15195125916E+03  0.15195125916E+03  0.00000000000E+00 0.  1.
          2   -1    0    0  501    0  0.00000000000E+00 -0.00000000000E+00 -0.16197174311E+03  0.16197174311E+03  0.00000000000E+00 0. -1.
         25    2    1    2    0    0 -0.39540636979E+02  0.10557529118E+03 -0.12208595861E+02  0.16883949964E+03  0.12509245678E+03 0.  0.
          5    1    3    3  502    0 -0.33974509471E+02 -0.13854739139E+02  0.23766019188E+02  0.43914885386E+02  0.41800000000E+01 0. -1.
         -5    1    3    3    0  502 -0.55661275085E+01  0.11943003032E+03 -0.35974615049E+02  0.12492461425E+03  0.41800000000E+01 0. -1.
        -11    1    1    2    0    0  0.61155160159E+02 -0.10209127802E+03  0.14628525235E+02  0.11990236200E+03  0.00000000000E+00 0.  1.
         11    1    1    2    0    0 -0.21614523180E+02 -0.34840131632E+01 -0.12440413328E+02  0.25181140637E+02  0.00000000000E+00 0. -1.
</event>
<event>
 7    1  0.2794945E-009  0.2014494E+03  0.7561462E-02  0.1148522E+00
          1   -1    0    0  501    0  0.00000000000E+00  0.00000000000E+00  0.55440745445E+03  0.55440745445E+03  0.00000000000E+00 0. -1.
         -1   -1    0    0    0  501 -0.00000000000E+00 -0.00000000000E+00 -0.11821570351E+03  0.11821570351E+03  0.00000000000E+00 0.  1.
         25    2    1    2    0    0 -0.18629624453E+03  0.67775975922E+02  0.38207831875E+03  0.44825419383E+03  0.12509239384E+03 0.  0.
          5    1    3    3  502    0 -0.10460427119E+03  0.22181321914E+02  0.84690288698E+02  0.13646971090E+03  0.41800000000E+01 0.  1.
         -5    1    3    3    0  502 -0.81691973334E+02  0.45594654008E+02  0.29738803005E+03  0.31178448293E+03  0.41800000000E+01 0.  1.
        -11    1    1    2    0    0  0.10746263246E+03 -0.59857769160E+02 -0.86192653774E+01  0.12331042795E+03  0.00000000000E+00 0.  1.
         11    1    1    2    0    0  0.78833612065E+02 -0.79182067617E+01  0.62732697578E+02  0.10105853618E+03  0.00000000000E+00 0. -1.
</event>
<event>
 7    1  0.2794945E-009  0.1343439E+03  0.7561462E-02  0.1221149E+00
          2   -1    0    0  501    0  0.00000000000E+00  0.00000000000E+00  0.72565723230E+03  0.72565723230E+03  0.00000000000E+00 0. -1.
         -2   -1    0    0    0  501 -0.00000000000E+00 -0.00000000000E+00 -0.55232958878E+02  0.55232958878E+02  0.00000000000E+00 0.  1.
         25    2    1    2    0    0  0.94596491569E+01 -0.11332461400E+03  0.58790417636E+03  0.61172683597E+03  0.12508576324E+03 0.  0.
          5    1    3    3  502    0 -0.11230079784E+02 -0.11074671831E+03  0.57733008484E+03  0.58797827304E+03  0.41800000000E+01 0. -1.
         -5    1    3    3    0  502  0.20689728940E+02 -0.25778956875E+01  0.10574091526E+02  0.23748562934E+02  0.41800000000E+01 0. -1.
        -11    1    1    2    0    0  0.32200057493E+02  0.36784048199E+02 -0.37822210720E+00  0.48888167857E+02  0.00000000000E+00 0.  1.
         11    1    1    2    0    0 -0.41659706650E+02  0.76540565800E+02  0.82898319169E+02  0.12027518735E+03  0.00000000000E+00 0. -1.
</event>
<event>
 7    1  0.2794945E-009  0.1767521E+03  0.7561462E-02  0.1170984E+00
          2   -1    0    0  501    0  0.00000000000E+00  0.00000000000E+00  0.28067981798E+03  0.28067981798E+03  0.00000000000E+00 0. -1.
         -2   -1    0    0    0  501 -0.00000000000E+00 -0.00000000000E+00 -0.11618602585E+03  0.11618602585E+03  0.00000000000E+00 0.  1.
         25    2    1    2    0    0 -0.11680630398E+03 -0.77444969286E+02  0.52322950394E+02  0.19500474485E+03  0.12509086080E+03 0.  0.
          5    1    3    3  502    0 -0.33696412549E+02  0.33052224887E+02  0.26487141082E+02  0.54285714800E+02  0.41800000000E+01 0. -1.
         -5    1    3    3    0  502 -0.83109891435E+02 -0.11049719417E+03  0.25835809311E+02  0.14071903005E+03  0.41800000000E+01 0. -1.
        -11    1    1    2    0    0  0.13274255172E+03  0.71568847617E+02  0.10202853222E+03  0.18207829737E+03  0.00000000000E+00 0. -1.
         11    1    1    2    0    0 -0.15936247732E+02  0.58761216691E+01  0.10142309515E+02  0.19782801620E+02  0.00000000000E+00 0.  1.
</event>
<event>
 7    1  0.2794945E-009  0.7560365E+02  0.7561462E-02  0.1342012E+00
          1   -1    0    0  501    0  0.00000000000E+00  0.00000000000E+00  0.22322164638E+03  0.22322164638E+03  0.00000000000E+00 0. -1.
         -1   -1    0    0    0  501 -0.00000000000E+00 -0.00000000000E+00 -0.11044940568E+03  0.11044940568E+03  0.00000000000E+00 0.  1.
         25    2    1    2    0    0  0.15348826118E+02 -0.24295787812E+02 -0.56231503175E+02  0.14012532833E+03  0.12508898402E+03 0.  0.
          5    1    3    3  502    0  0.80857569578E+01 -0.49018005226E+02 -0.86694592858E+02  0.10000784536E+03  0.41800000000E+01 0. -1.
         -5    1    3    3    0  502  0.72630691599E+01  0.24722217415E+02  0.30463089682E+02  0.40117482978E+02  0.41800000000E+01 0. -1.
        -11    1    1    2    0    0 -0.39963990304E+02 -0.96667234071E+00  0.29579963634E+02  0.49729560876E+02  0.00000000000E+00 0.  1.
         11    1    1    2    0    0  0.24615164186E+02  0.25262460153E+02  0.13942378024E+03  0.14381616285E+03  0.00000000000E+00 0. -1.
</event>
<event>
 7    1  0.2794945E-009  0.5497521E+02  0.7561462E-02  0.1420216E+00
         -1   -1    0    0    0  501 -0.00000000000E+00  0.00000000000E+00  0.72133521509E+02  0.72133521509E+02  0.00000000000E+00 0.  1.
          1   -1    0    0  501    0  0.00000000000E+00 -0.00000000000E+00 -0.21921529101E+03  0.21921529101E+03  0.00000000000E+00 0. -1.
         25    2    1    2    0    0  0.34616889009E+02  0.81801057993E+01 -0.14494673440E+03  0.19473575251E+03  0.12508882587E+03 0.  0.
          5    1    3    3  502    0  0.25501680060E+02 -0.22848957132E+02 -0.15641134259E+03  0.16016988175E+03  0.41800000000E+01 0. -1.
         -5    1    3    3    0  502  0.91152089483E+01  0.31029062932E+02  0.11464608191E+02  0.34565870762E+02  0.41800000000E+01 0. -1.
        -11    1    1    2    0    0 -0.12682949819E+02  0.85196413184E+01 -0.43949096883E+02  0.46529180318E+02  0.00000000000E+00 0. -1.
         11    1    1    2    0    0 -0.21933939190E+02 -0.16699747118E+02  0.41814061782E+02  0.50083879691E+02  0.00000000000E+00 0.  1.
</event>
<event>
 7    1  0.2794945E-009  0.1501248E+03  0.7561462E-02  0.1200320E+00
         -2   -1    0    0    0  501 -0.00000000000E+00  0.00000000000E+00  0.39791225025E+02  0.39791225025E+02  0.00000000000E+00 0.  1.
          2   -1    0    0  501    0  0.00000000000E+00 -0.00000000000E+00 -0.66902213073E+03  0.66902213073E+03  0.00000000000E+00 0. -1.
         25    2    1    2    0    0 -0.60123074932E+02 -0.89935438966E+02 -0.21620699263E+03  0.27220913999E+03  0.12509670223E+03 0.  0.
          5    1    3    3  502    0  0.36142189257E+01  0.27751108516E+02 -0.19941998333E+02  0.34617081041E+02  0.41800000000E+01 0.  1.
         -5    1    3    3    0  502 -0.63737293858E+02 -0.11768654748E+03 -0.19626499430E+03  0.23759205895E+03  0.41800000000E+01 0.  1.
        -11    1    1    2    0    0  0.32504390605E+02  0.10262985563E+03 -0.27606638822E+03  0.29631414644E+03  0.00000000000E+00 0.  1.
         11    1    1    2    0    0  0.27618684327E+02 -0.12694416669E+02 -0.13695752485E+03  0.14029006933E+03  0.00000000000E+00 0. -1.
</event>
<event>
 7    1  0.2794945E-009  0.1089955E+03  0.7561462E-02  0.1262442E+00
         -2   -1    0    0    0  501 -0.00000000000E+00  0.00000000000E+00  0.40484919991E+02  0.40484919991E+02  0.00000000000E+00 0.  1.
          2   -1    0    0  501    0  0.00000000000E+00 -0.00000000000E+00 -0.39054578394E+03  0.39054578394E+03  0.00000000000E+00 0. -1.
         25    2    1    2    0    0 -0.42778106247E+02 -0.42583231290E+02 -0.21988851187E+03  0.26008164098E+03  0.12509278301E+03 0.  0.
          5    1    3    3  502    0 -0.49058826695E+02 -0.68537978044E+02 -0.75655139347E+02  0.11333752874E+03  0.41800000000E+01 0. -1.
         -5    1    3    3    0  502  0.62807204478E+01  0.25954746754E+02 -0.14423337252E+03  0.14674411224E+03  0.41800000000E+01 0. -1.
        -11    1    1    2    0    0 -0.20666454744E+02  0.37633219588E+02 -0.76390588098E+02  0.87629238946E+02  0.00000000000E+00 0.  1.
         11    1    1    2    0    0  0.63444560992E+02  0.49500117016E+01 -0.53781763986E+02  0.83319824008E+02  0.00000000000E+00 0. -1.
</event>
<event>
 7    1  0.2794945E-009  0.1499337E+03  0.7561462E-02  0.1200555E+00
         -2   -1    0    0    0  501 -0.00000000000E+00  0.00000000000E+00  0.13539421347E+02  0.13539421347E+02  0.00000000000E+00 0.  1.
          2   -1    0    0  501    0  0.00000000000E+00 -0.00000000000E+00 -0.20038871063E+04  0.20038871063E+04  0.00000000000E+00 0. -1.
         25    2    1    2    0    0  0.83452358014E+02 -0.76366565592E+02 -0.14592153160E+04  0.14689293677E+04  0.12509196793E+03 0.  0.
          5    1    3    3  502    0 -0.33179698649E+02 -0.14168674730E+02 -0.33434944317E+03  0.33631631880E+03  0.41800000000E+01 0. -1.
         -5    1    3    3    0  502  0.11663205666E+03 -0.62197890863E+02 -0.11248658729E+04  0.11326130489E+04  0.41800000000E+01 0. -1.
        -11    1    1    2    0    0 -0.28834768411E+02  0.70744489327E+02 -0.38233831169E+03  0.38989589794E+03  0.00000000000E+00 0. -1.
         11    1    1    2    0    0 -0.54617589603E+02  0.56220762654E+01 -0.14879405724E+03  0.15860126199E+03  0.00000000000E+00 0.  1.
</event>
<event>
 7    1  0.2794945E-009  0.2676429E+03  0.7561462E-02  0.1102636E+00
         -1   -1    0    0    0  501 -0.00000000000E+00  0.00000000000E+00  0.96310660505E+03  0.96310660505E+03  0.00000000000E+00 0.  1.
          1   -1    0    0  501    0  0.00000000000E+00 -0.00000000000E+00 -0.81751954707E+02  0.81751954707E+02  0.00000000000E+00 0. -1.
         25    2    1    2    0    0 -0.24495311428E+03 -0.64381805669E+02  0.55114843792E+03  0.61931345542E+03  0.12505003136E+03 0.  0.
          5    1    3    3  502    0  0.34095557663E+01  0.17008982088E+02  0.64312328227E+02  0.66741879687E+02  0.41800000000E+01 0.  1.
         -5    1    3    3    0  502 -0.24836267005E+03 -0.81390787756E+02  0.48683610969E+03  0.55257157573E+03  0.41800000000E+01 0.  1.
        -11    1    1    2    0    0  0.12885254497E+03  0.53230550855E+02  0.11483579229E+03  0.18062040051E+03  0.00000000000E+00 0. -1.
         11    1    1    2    0    0  0.11610056931E+03  0.11151254814E+02  0.21537042014E+03  0.24492470383E+03  0.00000000000E+00 0.  1.
</event>
<event>
 7    1  0.2794945E-009  0.9038771E+02  0.7561462E-02  0.1301915E+00
         -2   -1    0    0    0  501 -0.00000000000E+00  0.00000000000E+00  0.16485505355E+03  0.16485505355E+03  0.00000000000E+00 0.  1.
          2   -1    0    0  501    0  0.00000000000E+00 -0.00000000000E+00 -0.75451117273E+02  0.75451117273E+02  0.00000000000E+00 0. -1.
         25    2    1    2    0    0 -0.42421058068E+01 -0.11130684091E+02  0.77581249929E+02  0.14766554313E+03  0.12507747478E+03 0.  0.
          5    1    3    3  502    0 -0.36059859417E+02 -0.56443591222E+02  0.58272832372E+02  0.88878500459E+02  0.41800000000E+01 0. -1.
         -5    1    3    3    0  502  0.31817753610E+02  0.45312907130E+02  0.19308417558E+02  0.58787042671E+02  0.41800000000E+01 0. -1.
        -11    1    1    2    0    0 -0.24179193756E+02 -0.60567852168E+01 -0.30147705627E+02  0.39117799177E+02  0.00000000000E+00 0. -1.
         11    1    1    2    0    0  0.28421299563E+02  0.17187469308E+02  0.41970391979E+02  0.53522828521E+02  0.00000000000E+00 0.  1.
</event>
<event>
 7    1  0.2794945E-009  0.5465312E+02  0.7561462E-02  0.1421746E+00
          2   -1    0    0  501    0  0.00000000000E+00  0.00000000000E+00  0.10305104913E+03  0.10305104913E+03  0.00000000000E+00 0. -1.
         -2   -1    0    0    0  501 -0.00000000000E+00 -0.00000000000E+00 -0.12082018034E+03  0.12082018034E+03  0.00000000000E+00 0.  1.
         25    2    1    2    0    0  0.53392401296E+01 -0.32656599194E+00  0.13075521349E+02  0.12586995988E+03  0.12507463136E+03 0.  0.
          5    1    3    3  502    0  0.27163043507E+02 -0.50978640433E+01  0.64145686721E+02  0.69971141732E+02  0.41800000000E+01 0.  1.
         -5    1    3    3    0  502 -0.21823803377E+02  0.47712980513E+01 -0.51070165372E+02  0.55898818146E+02  0.41800000000E+01 0.  1.
        -11    1    1    2    0    0  0.25091253305E+02  0.95234107506E+01  0.23084329646E+02  0.35399895762E+02  0.00000000000E+00 0. -1.
         11    1    1    2    0    0 -0.30430493435E+02 -0.91968447586E+01 -0.53928982203E+02  0.62601373832E+02  0.00000000000E+00 0.  1.
</event>
<event>
 7    1  0.2794945E-009  0.1238037E+03  0.7561462E-02  0.1236951E+00
          1   -1    0    0  501    0  0.00000000000E+00  0.00000000000E+00  0.61128838345E+02  0.61128838345E+02  0.00000000000E+00 0. -1.
         -1   -1    0    0    0  501 -0.00000000000E+00 -0.00000000000E+00 -0.27728074885E+03  0.27728074885E+03  0.00000000000E+00 0.  1.
         25    2    1    2    0    0 -0.44141755159E+01  0.71648523947E+02 -0.11320918574E+03  0.18334819815E+03  0.12508895274E+03 0.  0.
          5    1    3    3  502    0 -0.27567143371E+02 -0.27482423591E+02 -0.15265283127E+02  0.42020617190E+02  0.41800000000E+01 0.  1.
         -5    1    3    3    0  502  0.23152967855E+02  0.99130947538E+02 -0.97943902611E+02  0.14132758096E+03  0.41800000000E+01 0.  1.
        -11    1    1    2    0    0  0.41240869084E+02 -0.45488775273E+02 -0.27833387338E+02  0.67414652779E+02  0.00000000000E+00 0. -1.
         11    1    1    2    0    0 -0.36826693568E+02 -0.26159748674E+02 -0.75109337429E+02  0.87646736270E+02  0.00000000000E+00 0.  1.
</event>
<event>
 7    1  0.2794945E-009  0.1263232E+03  0.7561462E-02  0.1233016E+00
          2   -1    0    0  501    0  0.00000000000E+00  0.00000000000E+00  0.40522469063E+03  0.40522469063E+03  0.00000000000E+00 0. -1.
         -2   -1    0    0    0  501 -0.00000000000E+00 -0.00000000000E+00 -0.59172988111E+02  0.59172988111E+02  0.00000000000E+00 0.  1.
         25    2    1    2    0    0  0.15485028221E+01  0.10059102545E+03  0.11766538335E+03  0.19903290381E+03  0.12509197456E+03 0.  0.
          5    1    3    3  502    0 -0.31446397217E+02  0.83534123910E+02  0.13166263150E+03  0.15912054138E+03  0.41800000000E+01 0. -1.
         -5    1    3    3    0  502  0.32994900039E+02  0.17056901536E+02 -0.13997248155E+02  0.39912362427E+02  0.41800000000E+01 0. -1.
        -11    1    1    2    0    0 -0.20145749292E+02 -0.10490598293E+03  0.14666743942E+03  0.18144545807E+03  0.00000000000E+00 0.  1.
         11    1    1    2    0    0  0.18597246470E+02  0.43149574846E+01  0.81718879757E+02  0.83919316865E+02  0.00000000000E+00 0. -1.
</event>
<event>
 7    1  0.2794945E-009  0.1071279E+03  0.7561462E-02  0.1265983E+00
         -2   -1    0    0    0  501 -0.00000000000E+00  0.00000000000E+00  0.20904618988E+02  0.20904618988E+02  0.00000000000E+00 0.  1.
          2   -1    0    0  501    0  0.00000000000E+00 -0.00000000000E+00 -0.69081166729E+03  0.69081166729E+03  0.00000000000E+00 0. -1.
         25    2    1    2    0    0 -0.55585454096E+01 -0.43537028263E+02 -0.30006830023E+03  0.32805190589E+03  0.12510274935E+03 0.  0.
          5    1    3    3  502    0  0.27410389931E+02  0.24980797239E+02 -0.31316010945E+02  0.48718935214E+02  0.41800000000E+01 0.  1.
         -5    1    3    3    0  502 -0.32968935341E+02 -0.68517825502E+02 -0.26875228929E+03  0.27933297068E+03  0.41800000000E+01 0.  1.
        -11    1    1    2    0    0 -0.35131593682E+02 -0.70807680414E+01 -0.10377663098E+03  0.10979050637E+03  0.00000000000E+00 0. -1.
         11    1    1    2    0    0  0.40690139092E+02  0.50617796304E+02 -0.26606211708E+03  0.27387387402E+03  0.00000000000E+00 0.  1.
</event>
<event>
 7    1  0.2794945E-009  0.9944621E+02  0.7561462E-02  0.1281465E+00
         -2   -1    0    0    0  501 -0.00000000000E+00  0.00000000000E+00  0.31709412229E+03  0.31709412229E+03  0.00000000000E+00 0.  1.
          2   -1    0    0  501    0  0.00000000000E+00 -0.00000000000E+00 -0.58517144269E+02  0.58517144269E+02  0.00000000000E+00 0. -1.
         25    2    1    2    0    0 -0.29756337165E+01 -0.44962480230E+02  0.42952070829E+02  0.13972671927E+03  0.12509275225E+03 0.  0.
          5    1    3    3  502    0  0.15334181085E+02 -0.81124977651E+02  0.52428328284E+02  0.97890761132E+02  0.41800000000E+01 0.  1.
         -5    1    3    3    0  502 -0.18309814801E+02  0.36162497421E+02 -0.94762574549E+01  0.41835958136E+02  0.41800000000E+01 0.  1.
        -11    1    1    2    0    0 -0.23625756807E+02  0.46068638304E+00  0.13496992391E+02  0.27213184676E+02  0.00000000000E+00 0. -1.
         11    1    1    2    0    0  0.26601390523E+02  0.44501793847E+02  0.20212791480E+03  0.20867136261E+03  0.00000000000E+00 0.  1.
</event>
<event>
 7    1  0.2794945E-009  0.1744116E+03  0.7561462E-02  0.1173324E+00
          2   -1    0    0  501    0  0.00000000000E+00  0.00000000000E+00  0.11857154968E+04  0.11857154968E+04  0.00000000000E+00 0. -1.
         -2   -1    0    0    0  501 -0.00000000000E+00 -0.00000000000E+00 -0.34080005312E+02  0.34080005312E+02  0.00000000000E+00 0.  1.
         25    2    1    2    0    0 -0.11505507128E+03  0.10026459891E+03  0.82117551578E+03  0.84455108982E+03  0.12508659556E+03 0.  0.
          5    1    3    3  502    0  0.11525135116E+02  0.56234299145E+02  0.16317632974E+03  0.17302922334E+03  0.41800000000E+01 0.  1.
         -5    1    3    3    0  502 -0.12658020640E+03  0.44030299763E+02  0.65799918603E+03  0.67152186649E+03  0.41800000000E+01 0.  1.
        -11    1    1    2    0    0  0.99335358179E+02 -0.65379525828E+02  0.15339769989E+03  0.19409495128E+03  0.00000000000E+00 0. -1.
         11    1    1    2    0    0  0.15719713102E+02 -0.34885073081E+02  0.17706227580E+03  0.18114946098E+03  0.00000000000E+00 0.  1.
</event>
<event>
 7    1  0.2794945E-009  0.6997356E+02  0.7561462E-02  0.1360183E+00
         -1   -1    0    0    0  501 -0.00000000000E+00  0.00000000000E+00  0.74939028621E+02  0.74939028621E+02  0.00000000000E+00 0.  1.
          1   -1    0    0  501    0  0.00000000000E+00 -0.00000000000E+00 -0.16401565567E+03  0.16401565567E+03  0.00000000000E+00 0. -1.
         25    2    1    2    0    0 -0.39087860972E+01 -0.86386058791E+01 -0.63836552102E+02  0.14075883218E+03  0.12509212338E+03 0.  0.
          5    1    3    3  502    0 -0.39706633585E+02 -0.70703125945E+01  0.23078027183E+02  0.46654836936E+02  0.41800000000E+01 0. -1.
         -5    1    3    3    0  502  0.35797847488E+02 -0.15682932846E+01 -0.86914579285E+02  0.94103995243E+02  0.41800000000E+01 0. -1.
        -11    1    1    2    0    0  0.27007518256E+02  0.23548322793E+02  0.23065950680E+02  0.42614171698E+02  0.00000000000E+00 0.  1.
         11    1    1    2    0    0 -0.23098732159E+02 -0.14909716914E+02 -0.48306025629E+02  0.55581680416E+02  0.00000000000E+00 0. -1.
</event>
<event>
 7    1  0.2794945E-009  0.1088983E+03  0.7561462E-02  0.1262624E+00
          2   -1    0    0  501    0  0.00000000000E+00  0.00000000000E+00  0.77164012313E+02  0.77164012313E+02  0.00000000000E+00 0. -1.
         -2   -1    0    0    0  501 -0.00000000000E+00 -0.00000000000E+00 -0.16708053124E+03  0.16708053124E+03  0.00000000000E+00 0.  1.
         25    2    1    2    0    0 -0.21291550025E+02  0.14480801467E+01 -0.72450892547E+02  0.14612879927E+03  0.12509623139E+03 0.  0.
          5    1    3    3  502    0 -0.24444948340E+02 -0.57730655569E+02 -0.56780480065E+02  0.84686949456E+02  0.41800000000E+01 0. -1.
         -5    1    3    3    0  502  0.31533983150E+01  0.59178735716E+02 -0.15670412482E+02  0.61441849819E+02  0.41800000000E+01 0. -1.
        -11    1    1    2    0    0  0.28080349146E+02  0.42580474750E+02 -0.23054414305E+01  0.51057985647E+02  0.00000000000E+00 0. -1.
         11    1    1    2    0    0 -0.67887991216E+01 -0.44028554896E+02 -0.15160184951E+02  0.47057758633E+02  0.00000000000E+00 0.  1.
</event>
<event>
 7    1  0.2794945E-009  0.1467536E+03  0.7561462E-02  0.1204520E+00
         -1   -1    0    0    0  501 -0.00000000000E+00  0.00000000000E+00  0.15169139673E+03  0.15169139673E+03  0.00000000000E+00 0.  1.
          1   -1    0    0  501    0  0.00000000000E+00 -0.00000000000E+00 -0.16797194827E+03  0.16797194827E+03  0.00000000000E+00 0. -1.
         25    2    1    2    0    0  0.86819275011E+02  0.77975772820E+02  0.14587384654E+01  0.17107419417E+03  0.12508574792E+03 0.  0.
          5    1    3    3  502    0  0.79743230315E+02  0.11078411909E+03 -0.49373908727E+01  0.13665267671E+03  0.41800000000E+01 0.  1.
         -5    1    3    3    0  502  0.70760446957E+01 -0.32808346273E+02  0.63961293381E+01  0.34421517459E+02  0.41800000000E+01 0.  1.
        -11    1    1    2    0    0  0.21447228266E+01 -0.12443847912E+02  0.26666858254E+02  0.29505431974E+02  0.00000000000E+00 0.  1.
         11    1    1    2    0    0 -0.88963997837E+02 -0.65531924908E+02 -0.44406148255E+02  0.11908371885E+03  0.00000000000E+00 0. -1.
</event>
<event>
 7    1  0.2794945E-009  0.1319977E+03  0.7561462E-02  0.1224521E+00
         -2   -1    0    0    0  501 -0.00000000000E+00  0.00000000000E+00  0.26521715900E+03  0.26521715900E+03  0.00000000000E+00 0.  1.
          2   -1    0    0  501    0  0.00000000000E+00 -0.00000000000E+00 -0.70161137096E+02  0.70161137096E+02  0.00000000000E+00 0. -1.
         25    2    1    2    0    0  0.62300993858E+02  0.41406666440E+02  0.14643085461E+03  0.20660073688E+03  0.12508374569E+03 0.  0.
          5    1    3    3  502    0  0.57708342115E+02 -0.35793321479E+02  0.62333008161E+02  0.92272915412E+02  0.41800000000E+01 0. -1.
         -5    1    3    3    0  502  0.45926517432E+01  0.77199987918E+02  0.84097846449E+02  0.11432782147E+03  0.41800000000E+01 0. -1.
        -11    1    1    2    0    0 -0.38184538438E+02 -0.70829452137E+02  0.39577604981E+02  0.89673056610E+02  0.00000000000E+00 0.  1.
         11    1    1    2    0    0 -0.24116455420E+02  0.29422785698E+02  0.90475623135E+01  0.39104502606E+02  0.00000000000E+00 0. -1.
</event>
<event>
 7    1  0.2794945E-009  0.1284096E+03  0.7561462E-02  0.1229835E+00
         -1   -1    0    0    0  501 -0.00000000000E+00  0.00000000000E+00  0.29830796243E+03  0.29830796243E+03  0.00000000000E+00 0.  1.
          1   -1    0    0  501    0  0.00000000000E+00 -0.00000000000E+00 -0.67404675663E+02  0.67404675663E+02  0.00000000000E+00 0. -1.
         25    2    1    2    0    0 -0.74423605411E+02  0.43807225980E+02  0.87312576685E+02  0.17529606564E+03  0.12508908223E+03 0.  0.
          5    1    3    3  502    0 -0.36570407036E+02 -0.35185413748E+02  0.68926632244E+02  0.85695746942E+02  0.41800000000E+01 0.  1.
         -5    1    3    3    0  502 -0.37853198376E+02  0.78992639729E+02  0.18385944441E+02  0.89600318703E+02  0.41800000000E+01 0.  1.
        -11    1    1    2    0    0  0.55664494106E+02  0.14027119927E+02  0.38874800386E+02  0.69329258633E+02  0.00000000000E+00 0.  1.
         11    1    1    2    0    0  0.18759111305E+02 -0.57834345908E+02  0.10471590969E+03  0.12108731381E+03  0.00000000000E+00 0. -1.
</event>
<event>
 7    1  0.2794945E-009  0.9126995E+02  0.7561462E-02  0.1299805E+00
         -1   -1    0    0    0  501 -0.00000000000E+00  0.00000000000E+00  0.43393285962E+03  0.43393285962E+03  0.00000000000E+00 0.  1.
          1   -1    0    0  501    0  0.00000000000E+00 -0.00000000000E+00 -0.30156697178E+02  0.30156697178E+02  0.00000000000E+00 0. -1.
         25    2    1    2    0    0 -0.60056729571E+01 -0.11035087212E+02  0.31201955250E+03  0.33639682716E+03  0.12509509554E+03 0.  0.
          5    1    3    3  502    0 -0.38048932702E+02 -0.57530959602E+02  0.17103541337E+03  0.18446711799E+03  0.41800000000E+01 0. -1.
         -5    1    3    3    0  502  0.32043259745E+02  0.46495872390E+02  0.14098413913E+03  0.15192970918E+03  0.41800000000E+01 0. -1.
        -11    1    1    2    0    0 -0.29854221249E+01 -0.22193022165E+02  0.90518717293E+02  0.93247419044E+02  0.00000000000E+00 0.  1.
         11    1    1    2    0    0  0.89910950820E+01  0.33228109377E+02  0.12378926530E+01  0.34445310592E+02  0.00000000000E+00 0. -1.
</event>
<event>
 7    1  0.2794945E-009  0.1427146E+03  0.7561462E-02  0.1209722E+00
         -2   -1    0    0    0  501 -0.00000000000E+00  0.00000000000E+00  0.30507330226E+02  0.30507330226E+02  0.00000000000E+00 0.  1.
          2   -1    0    0  501    0  0.00000000000E+00 -0.00000000000E+00 -0.13607219342E+04  0.13607219342E+04  0.00000000000E+00 0. -1.
         25    2    1    2    0    0  0.72560712045E+02  0.40043636878E+01 -0.10831205149E+04  0.10927390949E+04  0.12509031928E+03 0.  0.
          5    1    3    3  502    0  0.28448550517E+02  0.58735854740E+02 -0.71197730951E+03  0.71497439276E+03  0.41800000000E+01 0. -1.
         -5    1    3    3    0  502  0.44112161528E+02 -0.54731491052E+02 -0.37114320535E+03  0.37776470214E+03  0.41800000000E+01 0. -1.
        -11    1    1    2    0    0 -0.29097595653E+02 -0.67019199543E+02 -0.54230348001E+02  0.90989965515E+02  0.00000000000E+00 0.  1.
         11    1    1    2    0    0 -0.43463116392E+02  0.63014835855E+02 -0.19286374114E+03  0.20750020402E+03  0.00000000000E+00 0. -1.
</event>
<event>
 7    1  0.2794945E-009  0.1210827E+03  0.7561462E-02  0.1241322E+00
         -1   -1    0    0    0  501 -0.00000000000E+00  0.00000000000E+00  0.14258389071E+02  0.14258389071E+02  0.00000000000E+00 0.  1.
          1   -1    0    0  501    0  0.00000000000E+00 -0.00000000000E+00 -0.16871917181E+04  0.16871917181E+04  0.00000000000E+00 0. -1.
         25    2    1    2    0    0  0.95007654632E+02 -0.45449685002E+02 -0.10955724878E+04  0.11077083288E+04  0.12508611933E+03 0.  0.
          5    1    3    3  502    0  0.67863054071E+02 -0.32614812444E+02 -0.10515892804E+04  0.10542896220E+04  0.41800000000E+01 0.  1.
         -5    1    3    3    0  502  0.27144600561E+02 -0.12834872558E+02 -0.43983207423E+02  0.53418706727E+02  0.41800000000E+01 0.  1.
        -11    1    1    2    0    0 -0.73285901324E+02  0.71592053031E+02 -0.47364387331E+03  0.48459752797E+03  0.00000000000E+00 0. -1.
         11    1    1    2    0    0 -0.21721753308E+02 -0.26142368029E+02 -0.10371696796E+03  0.10914425050E+03  0.00000000000E+00 0.  1.
</event>
<event>
 7    1  0.2794945E-009  0.1205801E+03  0.7561462E-02  0.1242143E+00
          1   -1    0    0  501    0  0.00000000000E+00  0.00000000000E+00  0.16311753743E+03  0.16311753743E+03  0.00000000000E+00 0. -1.
         -1   -1    0    0    0  501 -0.00000000000E+00 -0.00000000000E+00 -0.15314915643E+03  0.15314915643E+03  0.00000000000E+00 0.  1.
         25    2    1    2    0    0  0.81865973120E+02 -0.16181536384E+02  0.63122280328E+02  0.16307857347E+03  0.12508524764E+03 0.  0.
          5    1    3    3  502    0 -0.26445535224E+02  0.32371154412E+01  0.43565782751E+02  0.51237633399E+02  0.41800000000E+01 0.  1.
         -5    1    3    3    0  502  0.10831150834E+03 -0.19418651825E+02  0.19556497577E+02  0.11184094007E+03  0.41800000000E+01 0.  1.
        -11    1    1    2    0    0 -0.58398070117E+02 -0.19324866049E+02 -0.81458284909E+02  0.10207466493E+03  0.00000000000E+00 0.  1.
         11    1    1    2    0    0 -0.23467903003E+02  0.35506402433E+02  0.28304385584E+02  0.51113455453E+02  0.00000000000E+00 0. -1.
</event>
<event>
 7    1  0.2794945E-009  0.8075563E+02  0.7561462E-02  0.1326921E+00
          2   -1    0    0  501    0  0.00000000000E+00  0.00000000000E+00  0.90904931202E+03  0.90904931202E+03  0.00000000000E+00 0. -1.
         -2   -1    0    0    0  501 -0.00000000000E+00 -0.00000000000E+00 -0.14758195952E+02  0.14758195952E+02  0.00000000000E+00 0.  1.
         25    2    1    2    0    0 -0.36602429062E+02  0.68279586465E+01  0.53598926091E+03  0.55164989835E+03  0.12508702455E+03 0.  0.
          5    1    3    3  502    0 -0.34300563738E+02 -0.19965202158E+02  0.51682759252E+03  0.51836605865E+03  0.41800000000E+01 0. -1.
         -5    1    3    3    0  502 -0.23018653235E+01  0.26793160804E+02  0.19161668385E+02  0.33283839700E+02  0.41800000000E+01 0. -1.
        -11    1    1    2    0    0 -0.28238666267E+02  0.44108018250E+01  0.57137233149E+02  0.63886938080E+02  0.00000000000E+00 0.  1.
         11    1    1    2    0    0  0.64841095329E+02 -0.11238760472E+02  0.30116462201E+03  0.30827067154E+03  0.00000000000E+00 0. -1.
</event>
<event>
 7    1  0.2794945E-009  0.1831872E+03  0.7561462E-02  0.1164754E+00
         -1   -1    0    0    0  501 -0.00000000000E+00  0.00000000000E+00  0.82317249982E+02  0.82317249982E+02  0.00000000000E+00 0.  1.
          1   -1    0    0  501    0  0.00000000000E+00 -0.00000000000E+00 -0.43901701274E+03  0.43901701274E+03  0.00000000000E+00 0. -1.
         25    2    1    2    0    0 -0.39772259432E+02 -0.14727326800E+03 -0.20570122102E+03  0.28501142339E+03  0.12508905247E+03 0.  0.
          5    1    3    3  502    0 -0.42402476847E+02 -0.16631861961E+03 -0.20179864261E+03  0.26495285964E+03  0.41800000000E+01 0. -1.
         -5    1    3    3    0  502  0.26302174147E+01  0.19045351608E+02 -0.39025784068E+01  0.20058563751E+02  0.41800000000E+01 0. -1.
        -11    1    1    2    0    0 -0.14369030805E+02  0.10589821003E+03 -0.12222181966E+03  0.16235477552E+03  0.00000000000E+00 0. -1.
         11    1    1    2    0    0  0.54141290237E+02  0.41375057975E+02 -0.28776722090E+02  0.73968063820E+02  0.00000000000E+00 0.  1.
</event>
<event>
 7    1  0.2794945E-009  0.2571018E+03  0.7561462E-02  0.1108897E+00
         -2   -1    0    0    0  501 -0.00000000000E+00  0.00000000000E+00  0.30500566015E+03  0.30500566015E+03  0.00000000000E+00 0.  1.
          2   -1    0    0  501    0  0.00000000000E+00 -0.00000000000E+00 -0.25989034023E+03  0.25989034023E+03  0.00000000000E+00 0. -1.
         25    2    1    2    0    0 -0.11757667409E+03 -0.21199605081E+03 -0.68786066749E+02  0.28132937714E+03  0.12509234835E+03 0.  0.
          5    1    3    3  502    0 -0.11528399362E+03 -0.22765485157E+03 -0.70759369903E+02  0.26484238984E+03  0.41800000000E+01 0.  1.
         -5    1    3    3    0  502 -0.22926804754E+01  0.15658800759E+02  0.19733031542E+01  0.16486987303E+02  0.41800000000E+01 0.  1.
        -11    1    1    2    0    0  0.90507058678E+02  0.15420295350E+03  0.12583428536E+03  0.21864204973E+03  0.00000000000E+00 0.  1.
         11    1    1    2    0    0  0.27069615416E+02  0.57793097305E+02 -0.11932898685E+02  0.64924573513E+02  0.00000000000E+00 0. -1.
</event>
<event>
 7    1  0.2794945E-009  0.1077923E+03  0.7561462E-02  0.1264714E+00
         -2   -1    0    0    0  501 -0.00000000000E+00  0.00000000000E+00  0.18928865747E+03  0.18928865747E+03  0.00000000000E+00 0.  1.
          2   -1    0    0  501    0  0.00000000000E+00 -0.00000000000E+00 -0.76741157170E+02  0.76741157170E+02  0.00000000000E+00 0. -1.
         25    2    1    2    0    0 -0.22326470479E+02  0.49557453529E+02  0.62957748691E+02  0.15021866034E+03  0.12509018871E+03 0.  0.
          5    1    3    3  502    0 -0.68967772783E+02  0.26113542496E+02  0.64155700087E+02  0.97836072274E+02  0.41800000000E+01 0. -1.
         -5    1    3    3    0  502  0.46641302304E+02  0.23443911033E+02 -0.11979513964E+01  0.52382588068E+02  0.41800000000E+01 0. -1.
        -11    1    1    2    0    0  0.21411966846E+02 -0.67792373941E+02  0.94559609142E+01  0.71719547444E+02  0.00000000000E+00 0. -1.
         11    1    1    2    0    0  0.91450363294E+00  0.18234920413E+02  0.40133790690E+02  0.44091606849E+02  0.00000000000E+00 0.  1.
</event>
<event>
 7    1  0.2794945E-009  0.2938962E+03  0.7561462E-02  0.1088332E+00
         -2   -1    0    0    0  501 -0.00000000000E+00  0.00000000000E+00  0.11545927116E+03  0.11545927116E+03  0.00000000000E+00 0. -1.
          2   -1    0    0  501    0  0.00000000000E+00 -0.00000000000E+00 -0.86797644000E+03  0.86797644000E+03  0.00000000000E+00 0.  1.
         25    2    1    2    0    0 -0.14880595109E+03 -0.24566947144E+03 -0.26488786551E+03  0.41025593579E+03  0.12509057229E+03 0.  0.
          5    1    3    3  502    0 -0.10849275545E+02 -0.52289636351E+02 -0.12143313542E+03  0.13272298831E+03  0.41800000000E+01 0.  1.
         -5    1    3    3    0  502 -0.13795667555E+03 -0.19337983509E+03 -0.14345473009E+03  0.27753294748E+03  0.41800000000E+01 0.  1.
        -11    1    1    2    0    0  0.14700415556E+03  0.18661316993E+03 -0.42628125093E+03  0.48800655922E+03  0.00000000000E+00 0.  1.
         11    1    1    2    0    0  0.18017955289E+01  0.59056301511E+02 -0.61348052399E+02  0.85173216145E+02  0.00000000000E+00 0. -1.
</event>
<event>
 7    1  0.2794945E-009  0.1126741E+03  0.7561462E-02  0.1255697E+00
         -2   -1    0    0    0  501 -0.00000000000E+00  0.00000000000E+00  0.12888211847E+03  0.12888211847E+03  0.00000000000E+00 0.  1.
          2   -1    0    0  501    0  0.00000000000E+00 -0.00000000000E+00 -0.16119733620E+03  0.16119733620E+03  0.00000000000E+00 0. -1.
         25    2    1    2    0    0  0.71546050363E+02 -0.24326685434E+02  0.24470332144E+02  0.14818457092E+03  0.12509694223E+03 0.  0.
          5    1    3    3  502    0  0.18025667155E+02  0.22064611982E+02 -0.42024797911E+02  0.50944360019E+02  0.41800000000E+01 0. -1.
         -5    1    3    3    0  502  0.53520383208E+02 -0.46391297415E+02  0.66495130055E+02  0.97240210899E+02  0.41800000000E+01 0. -1.
        -11    1    1    2    0    0  0.23912838759E+02 -0.73601561515E+01 -0.27410676898E+02  0.37112544565E+02  0.00000000000E+00 0. -1.
         11    1    1    2    0    0 -0.95458889122E+02  0.31686841585E+02 -0.29374872979E+02  0.10478233918E+03  0.00000000000E+00 0.  1.
</event>
<event>
 7    1  0.2794945E-009  0.9291523E+02  0.7561462E-02  0.1295942E+00
          1   -1    0    0  501    0  0.00000000000E+00  0.00000000000E+00  0.12002989715E+03  0.12002989715E+03  0.00000000000E+00 0. -1.
         -1   -1    0    0    0  501 -0.00000000000E+00 -0.00000000000E+00 -0.12407949480E+03  0.12407949480E+03  0.00000000000E+00 0.  1.
         25    2    1    2    0    0 -0.10503379990E+02  0.28843863819E+02 -0.51887790468E+02  0.13886145351E+03  0.12509145055E+03 0.  0.
          5    1    3    3  502    0 -0.59767950290E+02  0.17666284719E+02  0.50033462688E+01  0.62664275082E+02  0.41800000000E+01 0.  1.
         -5    1    3    3    0  502  0.49264570300E+02  0.11177579100E+02 -0.56891136737E+02  0.76197178429E+02  0.41800000000E+01 0.  1.
        -11    1    1    2    0    0  0.22617981335E+02  0.15033124145E+02  0.52884552166E+02  0.59450347005E+02  0.00000000000E+00 0. -1.
         11    1    1    2    0    0 -0.12114601346E+02 -0.43876987964E+02 -0.50463593403E+01  0.45797591434E+02  0.00000000000E+00 0.  1.
</event>
<event>
 7    1  0.2794945E-009  0.7786194E+02  0.7561462E-02  0.1335231E+00
         -1   -1    0    0    0  501 -0.00000000000E+00  0.00000000000E+00  0.30017066363E+03  0.30017066363E+03  0.00000000000E+00 0.  1.
          1   -1    0    0  501    0  0.00000000000E+00 -0.00000000000E+00 -0.40312550421E+02  0.40312550421E+02  0.00000000000E+00 0. -1.
         25    2    1    2    0    0 -0.19364709565E+02 -0.92452334419E+01  0.15343293037E+03  0.19912149818E+03  0.12508893075E+03 0.  0.
          5    1    3    3  502    0 -0.34883349207E+01  0.27240049003E+02 -0.11010267228E+02  0.29881217088E+02  0.41800000000E+01 0. -1.
         -5    1    3    3    0  502 -0.15876374644E+02 -0.36485282445E+02  0.16444319760E+03  0.16924028109E+03  0.41800000000E+01 0. -1.
        -11    1    1    2    0    0  0.27649688614E+01 -0.37875926471E+02  0.23835524901E+02  0.44837072899E+02  0.00000000000E+00 0.  1.
         11    1    1    2    0    0  0.16599740703E+02  0.47121159913E+02  0.82589657931E+02  0.96524642968E+02  0.00000000000E+00 0. -1.
</event>
<event>
 7    1  0.4117897E-009  0.9138058E+02  0.7561462E-02  0.1299542E+00
         -2   -1    0    0    0  501 -0.00000000000E+00  0.00000000000E+00  0.37337695184E+02  0.37337695184E+02  0.00000000000E+00 0.  1.
          2   -1    0    0  501    0  0.00000000000E+00 -0.00000000000E+00 -0.41627574981E+03  0.41627574981E+03  0.00000000000E+00 0. -1.
         25    2    1    2    0    0 -0.48200756090E+02 -0.32562392777E+02 -0.17641477028E+03  0.22394793843E+03  0.12508751193E+03 0.  0.
          5    1    3    3  502    0 -0.50956118445E+02  0.13843978701E+02 -0.13757089566E+02  0.54725786122E+02  0.41800000000E+01 0. -1.
         -5    1    3    3    0  502  0.27553623551E+01 -0.46406371478E+02 -0.16265768071E+03  0.16922215231E+03  0.41800000000E+01 0. -1.
        -11    1    1    2    0    0  0.14179362335E+02 -0.17540628578E+02 -0.50490287941E+01  0.23113213946E+02  0.00000000000E+00 0.  1.
         11    1    1    2    0    0  0.34021393755E+02  0.50103021355E+02 -0.19747425555E+03  0.20655229262E+03  0.00000000000E+00 0. -1.
</event>
<event>
 7    1  0.2794945E-009  0.2028365E+03  0.7561462E-02  0.1147368E+00
         -2   -1    0    0    0  501 -0.00000000000E+00  0.00000000000E+00  0.11089328094E+03  0.11089328094E+03  0.00000000000E+00 0.  1.
          2   -1    0    0  501    0  0.00000000000E+00 -0.00000000000E+00 -0.53176312861E+03  0.53176312861E+03  0.00000000000E+00 0. -1.
         25    2    1    2    0    0  0.17516870971E+03 -0.51911359807E+02 -0.37038338027E+03  0.43151966914E+03  0.12508601174E+03 0.  0.
          5    1    3    3  502    0  0.19489226201E+03 -0.49386430984E+02 -0.33587115836E+03  0.39147020419E+03  0.41800000000E+01 0. -1.
         -5    1    3    3    0  502 -0.19723552298E+02 -0.25249288224E+01 -0.34512221916E+02  0.40049464945E+02  0.41800000000E+01 0. -1.
        -11    1    1    2    0    0 -0.68504858653E+02  0.82335183893E+01 -0.65213416370E+02  0.94939434161E+02  0.00000000000E+00 0. -1.
         11    1    1    2    0    0 -0.10666385106E+03  0.43677841417E+02  0.14726948974E+02  0.11619730625E+03  0.00000000000E+00 0.  1.
</event>
<event>
 7    1  0.2794945E-009  0.8685264E+02  0.7561462E-02  0.1310658E+00
         -1   -1    0    0    0  501 -0.00000000000E+00  0.00000000000E+00  0.40365415696E+02  0.40365415696E+02  0.00000000000E+00 0.  1.
          1   -1    0    0  501    0  0.00000000000E+00 -0.00000000000E+00 -0.41684284095E+03  0.41684284095E+03  0.00000000000E+00 0. -1.
         25    2    1    2    0    0  0.33704827308E+02 -0.37997963408E+02 -0.11737263293E+03  0.17889291394E+03  0.12508588685E+03 0.  0.
          5    1    3    3  502    0  0.12847420783E+02 -0.49343040745E+02 -0.13799160442E+03  0.14716979032E+03  0.41800000000E+01 0. -1.
         -5    1    3    3    0  502  0.20857406525E+02  0.11345077336E+02  0.20618971493E+02  0.31723123619E+02  0.41800000000E+01 0. -1.
        -11    1    1    2    0    0  0.28348558831E+02  0.16297083915E+02 -0.12135545371E+03  0.12568365796E+03  0.00000000000E+00 0.  1.
         11    1    1    2    0    0 -0.62053386139E+02  0.21700879493E+02 -0.13774933861E+03  0.15263168475E+03  0.00000000000E+00 0. -1.
</event>
<event>
 7    1  0.2794945E-009  0.1642070E+03  0.7561462E-02  0.1184027E+00
         -1   -1    0    0    0  501 -0.00000000000E+00  0.00000000000E+00  0.31919814279E+02  0.31919814279E+02  0.00000000000E+00 0.  1.
          1   -1    0    0  501    0  0.00000000000E+00 -0.00000000000E+00 -0.12456781478E+04  0.12456781478E+04  0.00000000000E+00 0. -1.
         25    2    1    2    0    0  0.13668541597E+03 -0.85892355234E+02 -0.77242108296E+03  0.79896330654E+03  0.12509051190E+03 0.  0.
          5    1    3    3  502    0  0.26322839694E+02 -0.31000623036E+01 -0.41422352958E+03  0.41509168522E+03  0.41800000000E+01 0. -1.
         -5    1    3    3    0  502  0.11036257627E+03 -0.82792292931E+02 -0.35819755338E+03  0.38387162133E+03  0.41800000000E+01 0. -1.
        -11    1    1    2    0    0 -0.65460050645E+02  0.25788595273E+02 -0.85146990823E+02  0.11045397197E+03  0.00000000000E+00 0.  1.
         11    1    1    2    0    0 -0.71225365322E+02  0.60103759961E+02 -0.35619025973E+03  0.36818068357E+03  0.00000000000E+00 0. -1.
</event>
<event>
 7    1  0.3091127E-009  0.9737287E+02  0.7561462E-02  0.1285919E+00
         -2   -1    0    0    0  501 -0.00000000000E+00  0.00000000000E+00  0.17436075648E+03  0.17436075648E+03  0.00000000000E+00 0.  1.
          2   -1    0    0  501    0  0.00000000000E+00 -0.00000000000E+00 -0.86709336601E+02  0.86709336601E+02  0.00000000000E+00 0. -1.
         25    2    1    2    0    0  0.54163763588E+02 -0.20542379485E+02  0.51613052365E+02  0.14719582406E+03  0.12508797227E+03 0.  0.
          5    1    3    3  502    0  0.67577796758E+02  0.37294091338E+02  0.20191964943E+02  0.79892400838E+02  0.41800000000E+01 0.  1.
         -5    1    3    3    0  502 -0.13414033170E+02 -0.57836470823E+02  0.31421087423E+02  0.67303423227E+02  0.41800000000E+01 0.  1.
        -11    1    1    2    0    0 -0.14188464044E+02  0.53449663065E+01  0.62011669553E+02  0.63838298360E+02  0.00000000000E+00 0.  1.
         11    1    1    2    0    0 -0.39975299544E+02  0.15197413178E+02 -0.25973302038E+02  0.50035970658E+02  0.00000000000E+00 0. -1.
</event>
<event>
 7    1  0.2794945E-009  0.6821253E+02  0.7561462E-02  0.1366279E+00
          1   -1    0    0  501    0  0.00000000000E+00  0.00000000000E+00  0.32920987851E+03  0.32920987851E+03  0.00000000000E+00 0. -1.
         -1   -1    0    0    0  501 -0.00000000000E+00 -0.00000000000E+00 -0.58685019086E+02  0.58685019086E+02  0.00000000000E+00 0.  1.
         25    2    1    2    0    0 -0.47572847132E+02  0.24201556081E+02  0.28488474060E+03  0.31568360063E+03  0.12509168309E+03 0.  0.
          5    1    3    3  502    0 -0.37158558649E+02  0.35257875567E+02  0.29333746214E+03  0.29780566712E+03  0.41800000000E+01 0.  1.
         -5    1    3    3    0  502 -0.10414288484E+02 -0.11056319486E+02 -0.84527215423E+01  0.17877933512E+02  0.41800000000E+01 0.  1.
        -11    1    1    2    0    0  0.33863641989E+02  0.75479930079E+01  0.18270611126E+00  0.34695126873E+02  0.00000000000E+00 0. -1.
         11    1    1    2    0    0  0.13709205143E+02 -0.31749549089E+02 -0.14542587292E+02  0.37516170089E+02  0.00000000000E+00 0.  1.
</event>
<event>
 7    1  0.2794945E-009  0.1008645E+03  0.7561462E-02  0.1278488E+00
          1   -1    0    0  501    0  0.00000000000E+00  0.00000000000E+00  0.53730179659E+03  0.53730179659E+03  0.00000000000E+00 0. -1.
         -1   -1    0    0    0  501 -0.00000000000E+00 -0.00000000000E+00 -0.22812998466E+02  0.22812998466E+02  0.00000000000E+00 0.  1.
         25    2    1    2    0    0  0.10098454968E+02 -0.19968261611E+02  0.26586885169E+03  0.29469571455E+03  0.12513435822E+03 0.  0.
          5    1    3    3  502    0  0.87519803892E+01  0.46365615430E+02  0.17984042427E+03  0.18597424030E+03  0.41800000000E+01 0.  1.
         -5    1    3    3    0  502  0.13464745790E+01 -0.66333877041E+02  0.86028427423E+02  0.10872147424E+03  0.41800000000E+01 0.  1.
        -11    1    1    2    0    0 -0.41032409046E+02 -0.12638828395E+02  0.78638741761E+02  0.89596039428E+02  0.00000000000E+00 0. -1.
         11    1    1    2    0    0  0.30933954078E+02  0.32607090006E+02  0.16998120467E+03  0.17582304108E+03  0.00000000000E+00 0.  1.
</event>
<event>
 7    1  0.2794945E-009  0.2529702E+03  0.7561462E-02  0.1111442E+00
          1   -1    0    0  501    0  0.00000000000E+00  0.00000000000E+00  0.13191605079E+04  0.13191605079E+04  0.00000000000E+00 0. -1.
         -1   -1    0    0    0  501 -0.00000000000E+00 -0.00000000000E+00 -0.93871389674E+02  0.93871389674E+02  0.00000000000E+00 0.  1.
         25    2    1    2    0    0  0.45911432852E+02 -0.23171046945E+03  0.14613298583E+03  0.30462978966E+03  0.12508740096E+03 0.  0.
          5    1    3    3  502    0  0.89378362577E+02 -0.15298779777E+03  0.94539076282E+02  0.20087027483E+03  0.41800000000E+01 0.  1.
         -5    1    3    3    0  502 -0.43466929725E+02 -0.78722671675E+02  0.51593909552E+02  0.10375951483E+03  0.41800000000E+01 0.  1.
        -11    1    1    2    0    0 -0.22748539221E+02  0.43823986898E+02  0.10510704814E+03  0.11612721229E+03  0.00000000000E+00 0.  1.
         11    1    1    2    0    0 -0.23162893631E+02  0.18788648255E+03  0.97404908425E+03  0.99227489563E+03  0.00000000000E+00 0. -1.
</event>
<event>
 7    1  0.2794945E-009  0.1350358E+03  0.7561462E-02  0.1220169E+00
          2   -1    0    0  501    0  0.00000000000E+00  0.00000000000E+00  0.40158723854E+03  0.40158723854E+03  0.00000000000E+00 0. -1.
         -2   -1    0    0    0  501 -0.00000000000E+00 -0.00000000000E+00 -0.63393026261E+02  0.63393026261E+02  0.00000000000E+00 0.  1.
         25    2    1    2    0    0 -0.99899567493E+02 -0.55215490482E+02  0.14878531859E+03  0.22541952048E+03  0.12509282637E+03 0.  0.
          5    1    3    3  502    0 -0.23265818947E+02  0.28766682377E+02  0.89921755352E+02  0.97325304170E+02  0.41800000000E+01 0. -1.
         -5    1    3    3    0  502 -0.76633748545E+02 -0.83982172859E+02  0.58863563236E+02  0.12809421631E+03  0.41800000000E+01 0. -1.
        -11    1    1    2    0    0  0.56779524543E+02  0.12023528273E+02  0.23205490065E+02  0.62505795000E+02  0.00000000000E+00 0.  1.
         11    1    1    2    0    0  0.43120042950E+02  0.43191962209E+02  0.16620340362E+03  0.17705494932E+03  0.00000000000E+00 0. -1.
</event>
<event>
 7    1  0.2794945E-009  0.1151918E+03  0.7561462E-02  0.1251247E+00
         -2   -1    0    0    0  501 -0.00000000000E+00  0.00000000000E+00  0.61708491585E+02  0.61708491585E+02  0.00000000000E+00 0. -1.
          2   -1    0    0  501    0  0.00000000000E+00 -0.00000000000E+00 -0.24157631107E+03  0.24157631107E+03  0.00000000000E+00 0.  1.
         25    2    1    2    0    0  0.48708560213E+02  0.21103223114E+02 -0.75803364482E+02  0.15561115416E+03  0.12510320287E+03 0.  0.
          5    1    3    3  502    0  0.31128687293E+02 -0.50992530367E+02 -0.46069082101E+02  0.75558361890E+02  0.41800000000E+01 0.  1.
         -5    1    3    3    0  502  0.17579872920E+02  0.72095753481E+02 -0.29734282381E+02  0.80052792272E+02  0.41800000000E+01 0.  1.
        -11    1    1    2    0    0  0.92191509985E+00 -0.42221782453E+02 -0.17572024258E+02  0.45741719223E+02  0.00000000000E+00 0. -1.
         11    1    1    2    0    0 -0.49630475313E+02  0.21118559338E+02 -0.86492430741E+02  0.10193192927E+03  0.00000000000E+00 0.  1.
</event>
<event>
 7    1  0.2794945E-009  0.9340660E+02  0.7561462E-02  0.1294806E+00
          1   -1    0    0  501    0  0.00000000000E+00  0.00000000000E+00  0.16704446827E+04  0.16704446827E+04  0.00000000000E+00 0. -1.
         -1   -1    0    0    0  501 -0.00000000000E+00 -0.00000000000E+00 -0.11833217231E+02  0.11833217231E+02  0.00000000000E+00 0.  1.
         25    2    1    2    0    0 -0.15741947318E+02 -0.12836439919E+02  0.14200473586E+04  0.14256908909E+04  0.12508969839E+03 0.  0.
          5    1    3    3  502    0  0.42320246964E+02  0.56312513283E+01  0.22311075622E+03  0.22719726282E+03  0.41800000000E+01 0. -1.
         -5    1    3    3    0  502 -0.58062194281E+02 -0.18467691248E+02  0.11969366024E+04  0.11984936281E+04  0.41800000000E+01 0. -1.
        -11    1    1    2    0    0 -0.13855468509E+02 -0.28683610073E+02  0.15846852967E+03  0.16163848053E+03  0.00000000000E+00 0.  1.
         11    1    1    2    0    0  0.29597415826E+02  0.41520049992E+02  0.80095577177E+02  0.94948528468E+02  0.00000000000E+00 0. -1.
</event>
<event>
 7    1  0.2794945E-009  0.9144439E+02  0.7561462E-02  0.1299391E+00
          3   -1    0    0  501    0  0.00000000000E+00  0.00000000000E+00  0.96202366636E+02  0.96202366636E+02  0.00000000000E+00 0. -1.
         -3   -1    0    0    0  501 -0.00000000000E+00 -0.00000000000E+00 -0.14396072162E+03  0.14396072162E+03  0.00000000000E+00 0.  1.
         25    2    1    2    0    0  0.29622722629E+02  0.35105814137E+02 -0.31280074584E+02  0.13687958690E+03  0.12509058462E+03 0.  0.
          5    1    3    3  502    0 -0.16915511724E+02  0.34163849948E+02  0.37556335887E+02  0.53677313135E+02  0.41800000000E+01 0. -1.
         -5    1    3    3    0  502  0.46538234352E+02  0.94196418909E+00 -0.68836410471E+02  0.83202273765E+02  0.41800000000E+01 0. -1.
        -11    1    1    2    0    0 -0.42829887557E+02 -0.57563753452E+02 -0.24829456382E+02  0.75924218033E+02  0.00000000000E+00 0.  1.
         11    1    1    2    0    0  0.13207164929E+02  0.22457939316E+02  0.83511759807E+01  0.27359283324E+02  0.00000000000E+00 0. -1.
</event>
<event>
 7    1  0.2794945E-009  0.1563693E+03  0.7561462E-02  0.1192858E+00
         -1   -1    0    0    0  501 -0.00000000000E+00  0.00000000000E+00  0.91256150223E+03  0.91256150223E+03  0.00000000000E+00 0.  1.
          1   -1    0    0  501    0  0.00000000000E+00 -0.00000000000E+00 -0.52099412852E+02  0.52099412852E+02  0.00000000000E+00 0. -1.
         25    2    1    2    0    0 -0.13457167781E+03 -0.40811747770E+02  0.72517758526E+03  0.74920344039E+03  0.12509248459E+03 0.  0.
          5    1    3    3  502    0 -0.43608589948E+02  0.18618449152E+02  0.67490527454E+02  0.82588131484E+02  0.41800000000E+01 0. -1.
         -5    1    3    3    0  502 -0.90963087865E+02 -0.59430196922E+02  0.65768705780E+03  0.66661530890E+03  0.41800000000E+01 0. -1.
        -11    1    1    2    0    0  0.43141666520E+02 -0.19004838049E+02  0.81781179451E+01  0.47846304690E+02  0.00000000000E+00 0.  1.
         11    1    1    2    0    0  0.91430011293E+02  0.59816585819E+02  0.12710638618E+03  0.16761117001E+03  0.00000000000E+00 0. -1.
</event>
<event>
 7    1  0.2794945E-009  0.1695070E+03  0.7561462E-02  0.1178363E+00
         -1   -1    0    0    0  501 -0.00000000000E+00  0.00000000000E+00  0.31149794002E+02  0.31149794002E+02  0.00000000000E+00 0.  1.
          1   -1    0    0  501    0  0.00000000000E+00 -0.00000000000E+00 -0.14909068846E+04  0.14909068846E+04  0.00000000000E+00 0. -1.
         25    2    1    2    0    0  0.13222249335E+03  0.89163253853E+02 -0.10903069573E+04  0.11089861430E+04  0.12509248794E+03 0.  0.
          5    1    3    3  502    0  0.11549638636E+03  0.77774755787E+02 -0.10730803598E+04  0.10820846819E+04  0.41800000000E+01 0.  1.
         -5    1    3    3    0  502  0.16726106992E+02  0.11388498066E+02 -0.17226597505E+02  0.26901461018E+02  0.41800000000E+01 0.  1.
        -11    1    1    2    0    0 -0.10493434342E+03 -0.22927118783E+02 -0.26935946961E+03  0.28998516009E+03  0.00000000000E+00 0. -1.
         11    1    1    2    0    0 -0.27288149933E+02 -0.66236135070E+02 -0.10009066362E+03  0.12308537549E+03  0.00000000000E+00 0.  1.
</event>
<event>
 7    1  0.2794945E-009  0.1280922E+03  0.7561462E-02  0.1230314E+00
          3   -1    0    0  501    0  0.00000000000E+00  0.00000000000E+00  0.30321062648E+03  0.30321062648E+03  0.00000000000E+00 0. -1.
         -3   -1    0    0    0  501 -0.00000000000E+00 -0.00000000000E+00 -0.63780238751E+02  0.63780238751E+02  0.00000000000E+00 0.  1.
         25    2    1    2    0    0 -0.60017022247E+02 -0.32320004321E+02  0.19535933973E+03  0.24178620517E+03  0.12509465117E+03 0.  0.
          5    1    3    3  502    0  0.35472269284E+02 -0.24154391935E+02  0.37903080510E+02  0.57409341139E+02  0.41800000000E+01 0. -1.
         -5    1    3    3    0  502 -0.95489291531E+02 -0.81656123863E+01  0.15745625922E+03  0.18437686403E+03  0.41800000000E+01 0. -1.
        -11    1    1    2    0    0  0.53689835506E+02 -0.25172209294E+02  0.20396836831E+02  0.62707810599E+02  0.00000000000E+00 0.  1.
         11    1    1    2    0    0  0.63271867410E+01  0.57492213614E+02  0.23674211172E+02  0.62496849464E+02  0.00000000000E+00 0. -1.
</event>
<event>
 7    1  0.2794945E-009  0.1332890E+03  0.7561462E-02  0.1222655E+00
          2   -1    0    0  501    0  0.00000000000E+00  0.00000000000E+00  0.36076567359E+03  0.36076567359E+03  0.00000000000E+00 0. -1.
         -2   -1    0    0    0  501 -0.00000000000E+00 -0.00000000000E+00 -0.54105349124E+02  0.54105349124E+02  0.00000000000E+00 0.  1.
         25    2    1    2    0    0  0.55736509272E+02  0.63720070812E+02  0.19294112818E+03  0.24502830624E+03  0.12508311647E+03 0.  0.
          5    1    3    3  502    0  0.27866525063E+02  0.10055650471E+03  0.12727839257E+03  0.16463722384E+03  0.41800000000E+01 0.  1.
         -5    1    3    3    0  502  0.27869984209E+02 -0.36836433897E+02  0.65662735605E+02  0.80391082398E+02  0.41800000000E+01 0.  1.
        -11    1    1    2    0    0  0.61323810686E+01 -0.52540217696E+02  0.19098829663E+02  0.56239184450E+02  0.00000000000E+00 0.  1.
         11    1    1    2    0    0 -0.61868890341E+02 -0.11179853117E+02  0.94620366620E+02  0.11360353202E+03  0.00000000000E+00 0. -1.
</event>
<event>
 7    1  0.2794945E-009  0.1021463E+03  0.7561462E-02  0.1275846E+00
         -1   -1    0    0    0  501 -0.00000000000E+00  0.00000000000E+00  0.14996979938E+02  0.14996979938E+02  0.00000000000E+00 0.  1.
          1   -1    0    0  501    0  0.00000000000E+00 -0.00000000000E+00 -0.20354549021E+04  0.20354549021E+04  0.00000000000E+00 0. -1.
         25    2    1    2    0    0 -0.27261465983E+02  0.55148132077E+02 -0.17726908227E+04  0.17781633511E+04  0.12509055128E+03 0.  0.
          5    1    3    3  502    0 -0.46171888974E+02  0.58853206789E+02 -0.17240597354E+04  0.17256868160E+04  0.41800000000E+01 0.  1.
         -5    1    3    3    0  502  0.18910422992E+02 -0.37050747120E+01 -0.48631087376E+02  0.52476535097E+02  0.41800000000E+01 0.  1.
        -11    1    1    2    0    0 -0.33245531378E+02 -0.27430529298E+02 -0.13072956656E+03  0.13765143975E+03  0.00000000000E+00 0.  1.
         11    1    1    2    0    0  0.60506997361E+02 -0.27717602779E+02 -0.11703753283E+03  0.13463709119E+03  0.00000000000E+00 0. -1.
</event>
<event>
 7    1  0.2794945E-009  0.8395030E+02  0.7561462E-02  0.1318201E+00
          1   -1    0    0  501    0  0.00000000000E+00  0.00000000000E+00  0.53082006127E+03  0.53082006127E+03  0.00000000000E+00 0. -1.
         -1   -1    0    0    0  501 -0.00000000000E+00 -0.00000000000E+00 -0.82487848540E+02  0.82487848540E+02  0.00000000000E+00 0.  1.
         25    2    1    2    0    0 -0.55896328369E+02  0.21160806678E+02 -0.12884628714E+02  0.13923164528E+03  0.12508900082E+03 0.  0.
          5    1    3    3  502    0 -0.39177607616E+02  0.19994886390E+02  0.54218341402E+02  0.69941270826E+02  0.41800000000E+01 0. -1.
         -5    1    3    3    0  502 -0.16718720753E+02  0.11659202873E+01 -0.67102970117E+02  0.69290374456E+02  0.41800000000E+01 0. -1.
        -11    1    1    2    0    0 -0.22377275437E+02 -0.16924115440E+02  0.77191755258E+02  0.82132424896E+02  0.00000000000E+00 0.  1.
         11    1    1    2    0    0  0.78273603806E+02 -0.42366912380E+01  0.38402508618E+03  0.39194383963E+03  0.00000000000E+00 0. -1.
</event>
<event>
 7    1  0.2794945E-009  0.1490436E+03  0.7561462E-02  0.1201653E+00
         -1   -1    0    0    0  501 -0.00000000000E+00  0.00000000000E+00  0.68193058437E+03  0.68193058437E+03  0.00000000000E+00 0.  1.
          1   -1    0    0  501    0  0.00000000000E+00 -0.00000000000E+00 -0.46736333171E+02  0.46736333171E+02  0.00000000000E+00 0. -1.
         25    2    1    2    0    0 -0.17018084819E+02 -0.12119843051E+03  0.47509062675E+03  0.50629238903E+03  0.12506880024E+03 0.  0.
          5    1    3    3  502    0 -0.69861558411E+02 -0.54202574785E+02  0.26922416345E+03  0.28340373858E+03  0.41800000000E+01 0. -1.
         -5    1    3    3    0  502  0.52843473593E+02 -0.66995855727E+02  0.20586646330E+03  0.22288865045E+03  0.41800000000E+01 0. -1.
        -11    1    1    2    0    0  0.35391337271E-01  0.73569492519E+02  0.15497264135E+03  0.17154880078E+03  0.00000000000E+00 0. -1.
         11    1    1    2    0    0  0.16982693481E+02  0.47628937992E+02  0.51309831000E+01  0.50825727735E+02  0.00000000000E+00 0.  1.
</event>
<event>
 7    1  0.2794945E-009  0.1213702E+03  0.7561462E-02  0.1240854E+00
          1   -1    0    0  501    0  0.00000000000E+00  0.00000000000E+00  0.47507603634E+03  0.47507603634E+03  0.00000000000E+00 0. -1.
         -1   -1    0    0    0  501 -0.00000000000E+00 -0.00000000000E+00 -0.50420584564E+02  0.50420584564E+02  0.00000000000E+00 0.  1.
         25    2    1    2    0    0 -0.81482041694E+02 -0.70925626603E+02  0.20318958980E+03  0.26192020841E+03  0.12508564484E+03 0.  0.
          5    1    3    3  502    0 -0.49355478553E+02 -0.83470682447E+02  0.20532788651E+03  0.22711303677E+03  0.41800000000E+01 0. -1.
         -5    1    3    3    0  502 -0.32126563141E+02  0.12545055844E+02 -0.21382967092E+01  0.34807171649E+02  0.41800000000E+01 0. -1.
        -11    1    1    2    0    0  0.37749636412E+02  0.49464886553E+02  0.36145771690E+02  0.71960592424E+02  0.00000000000E+00 0.  1.
         11    1    1    2    0    0  0.43732405282E+02  0.21460740050E+02  0.18532009028E+03  0.19161582006E+03  0.00000000000E+00 0. -1.
</event>
<event>
 7    1  0.2794945E-009  0.1156144E+03  0.7561462E-02  0.1250512E+00
         -1   -1    0    0    0  501 -0.00000000000E+00  0.00000000000E+00  0.45128684393E+03  0.45128684393E+03  0.00000000000E+00 0.  1.
          1   -1    0    0  501    0  0.00000000000E+00 -0.00000000000E+00 -0.33900514140E+02  0.33900514140E+02  0.00000000000E+00 0. -1.
         25    2    1    2    0    0  0.33196763218E+02 -0.49110219489E+02  0.24573080255E+03  0.28203768333E+03  0.12509112180E+03 0.  0.
          5    1    3    3  502    0 -0.20153385881E+02  0.28628309307E+02  0.11843772984E+03  0.12357470334E+03  0.41800000000E+01 0.  1.
         -5    1    3    3    0  502  0.53350149099E+02 -0.77738528797E+02  0.12729307271E+03  0.15846297999E+03  0.41800000000E+01 0.  1.
        -11    1    1    2    0    0 -0.57859539600E+02  0.15491155323E+02  0.63777975901E+02  0.87494756563E+02  0.00000000000E+00 0.  1.
         11    1    1    2    0    0  0.24662776383E+02  0.33619064166E+02  0.10787755134E+03  0.11565491817E+03  0.00000000000E+00 0. -1.
</event>
<event>
 7    1  0.2794945E-009  0.1177467E+03  0.7561462E-02  0.1246861E+00
         -3   -1    0    0    0  501 -0.00000000000E+00  0.00000000000E+00  0.25872895688E+03  0.25872895688E+03  0.00000000000E+00 0.  1.
          3   -1    0    0  501    0  0.00000000000E+00 -0.00000000000E+00 -0.85694606271E+02  0.85694606271E+02  0.00000000000E+00 0. -1.
         25    2    1    2    0    0  0.80445031347E+01  0.63569302955E+02  0.17403632408E+03  0.22370319931E+03  0.12509479994E+03 0.  0.
          5    1    3    3  502    0  0.34834326097E+02 -0.27454720599E+02  0.43442104942E+02  0.62224439247E+02  0.41800000000E+01 0.  1.
         -5    1    3    3    0  502 -0.26789822962E+02  0.91024023553E+02  0.13059421914E+03  0.16147876006E+03  0.41800000000E+01 0.  1.
        -11    1    1    2    0    0 -0.37667796060E+02 -0.51899576426E+02  0.34674769759E+02  0.72902459157E+02  0.00000000000E+00 0.  1.
         11    1    1    2    0    0  0.29623292925E+02 -0.11669726528E+02 -0.35676743231E+02  0.47817904686E+02  0.00000000000E+00 0. -1.
</event>
<event>
 7    1  0.2794945E-009  0.9077725E+02  0.7561462E-02  0.1300980E+00
          1   -1    0    0  501    0  0.00000000000E+00  0.00000000000E+00  0.90801375924E+02  0.90801375924E+02  0.00000000000E+00 0. -1.
         -1   -1    0    0    0  501 -0.00000000000E+00 -0.00000000000E+00 -0.18426870872E+03  0.18426870872E+03  0.00000000000E+00 0.  1.
         25    2    1    2    0    0  0.42924690079E+02 -0.16079318869E+02  0.28297458495E+01  0.13325233839E+03  0.12508838760E+03 0.  0.
          5    1    3    3  502    0  0.19666560958E+02  0.23956702182E+02  0.55063756046E+02  0.63326035951E+02  0.41800000000E+01 0.  1.
         -5    1    3    3    0  502  0.23258129121E+02 -0.40036021051E+02 -0.52234010196E+02  0.69926302440E+02  0.41800000000E+01 0.  1.
        -11    1    1    2    0    0  0.26783025382E+02 -0.11070490917E+02 -0.32025089597E+02  0.43191348456E+02  0.00000000000E+00 0. -1.
         11    1    1    2    0    0 -0.69707715460E+02  0.27149809786E+02 -0.64271989046E+02  0.98626397795E+02  0.00000000000E+00 0.  1.
</event>
<event>
 7    1  0.2794945E-009  0.1122323E+03  0.7561462E-02  0.1256491E+00
         -1   -1    0    0    0  501 -0.00000000000E+00  0.00000000000E+00  0.33530620105E+03  0.33530620105E+03  0.00000000000E+00 0.  1.
          1   -1    0    0  501    0  0.00000000000E+00 -0.00000000000E+00 -0.51860014363E+02  0.51860014363E+02  0.00000000000E+00 0. -1.
         25    2    1    2    0    0 -0.39089636472E+01 -0.61349506124E+02  0.21355885902E+03  0.25500300585E+03  0.12506040473E+03 0.  0.
          5    1    3    3  502    0 -0.96489712456E+01 -0.86005230467E+02  0.21231562081E+03  0.22931506177E+03  0.41800000000E+01 0. -1.
         -5    1    3    3    0  502  0.57400075984E+01  0.24655724344E+02  0.12432382105E+01  0.25687944087E+02  0.41800000000E+01 0. -1.
        -11    1    1    2    0    0  0.48278515000E+02  0.22831703247E+02  0.32301302599E+02  0.62413747150E+02  0.00000000000E+00 0. -1.
         11    1    1    2    0    0 -0.44369551353E+02  0.38517802877E+02  0.37586025068E+02  0.69749462407E+02  0.00000000000E+00 0.  1.
</event>
<event>
 7    1  0.2794945E-009  0.9367370E+02  0.7561462E-02  0.1294191E+00
          3   -1    0    0  501    0  0.00000000000E+00  0.00000000000E+00  0.66971838666E+02  0.66971838666E+02  0.00000000000E+00 0. -1.
         -3   -1    0    0    0  501 -0.00000000000E+00 -0.00000000000E+00 -0.19535873037E+03  0.19535873037E+03  0.00000000000E+00 0.  1.
         25    2    1    2    0    0  0.11279986637E+02  0.32668357429E+02 -0.60740533351E+02  0.14329040714E+03  0.12509304022E+03 0.  0.
          5    1    3    3  502    0  0.14856300617E+02  0.72720063153E+02 -0.69675024865E+02  0.10188718635E+03  0.41800000000E+01 0.  1.
         -5    1    3    3    0  502 -0.35763139798E+01 -0.40051705724E+02  0.89344915145E+01  0.41403220789E+02  0.41800000000E+01 0.  1.
        -11    1    1    2    0    0 -0.14417849706E+02  0.17295965116E+02 -0.65131829449E+02  0.68914294648E+02  0.00000000000E+00 0.  1.
         11    1    1    2    0    0  0.31378630686E+01 -0.49964322544E+02 -0.25145289095E+01  0.50125867250E+02  0.00000000000E+00 0. -1.
</event>
<event>
 7    1  0.2794945E-009  0.1130219E+03  0.7561462E-02  0.1255074E+00
          1   -1    0    0  501    0  0.00000000000E+00  0.00000000000E+00  0.98754965421E+02  0.98754965421E+02  0.00000000000E+00 0. -1.
         -1   -1    0    0    0  501 -0.00000000000E+00 -0.00000000000E+00 -0.13539964237E+03  0.13539964237E+03  0.00000000000E+00 0.  1.
         25    2    1    2    0    0  0.28511489967E+01  0.37205208044E+02 -0.31923296848E+02  0.13438151246E+03  0.12508771904E+03 0.  0.
          5    1    3    3  502    0  0.53143759699E+02  0.51344423540E+02 -0.20192890622E+01  0.74040927546E+02  0.41800000000E+01 0.  1.
         -5    1    3    3    0  502 -0.50292610703E+02 -0.14139215496E+02 -0.29904007786E+02  0.60340584914E+02  0.41800000000E+01 0.  1.
        -11    1    1    2    0    0  0.41030337708E+02  0.15731099724E+01 -0.33419312948E+01  0.41196259444E+02  0.00000000000E+00 0.  1.
         11    1    1    2    0    0 -0.43881486704E+02 -0.38778318016E+02 -0.13794488072E+01  0.58576835887E+02  0.00000000000E+00 0. -1.
</event>
<event>
 7    1  0.2794945E-009  0.1217283E+03  0.7561462E-02  0.1240273E+00
         -2   -1    0    0    0  501 -0.00000000000E+00  0.00000000000E+00  0.70578447033E+02  0.70578447033E+02  0.00000000000E+00 0.  1.
          2   -1    0    0  501    0  0.00000000000E+00 -0.00000000000E+00 -0.29221644403E+03  0.29221644403E+03  0.00000000000E+00 0. -1.
         25    2    1    2    0    0  0.75148877013E+02 -0.57749568342E+02 -0.11617707108E+03  0.19526449423E+03  0.12509494195E+03 0.  0.
          5    1    3    3  502    0  0.93445599134E+02 -0.77407904612E+02 -0.65986282556E+02  0.13818728444E+03  0.41800000000E+01 0. -1.
         -5    1    3    3    0  502 -0.18296722121E+02  0.19658336271E+02 -0.50190788527E+02  0.57077209797E+02  0.41800000000E+01 0. -1.
        -11    1    1    2    0    0 -0.50511931831E+02  0.41200711065E+02 -0.80268378360E+01  0.65676357810E+02  0.00000000000E+00 0.  1.
         11    1    1    2    0    0 -0.24636945182E+02  0.16548857277E+02 -0.97434088079E+02  0.10185403902E+03  0.00000000000E+00 0. -1.
</event>
<event>
 7    1  0.2794945E-009  0.1346705E+03  0.7561462E-02  0.1220686E+00
         -1   -1    0    0    0  501 -0.00000000000E+00  0.00000000000E+00  0.32869528841E+02  0.32869528841E+02  0.00000000000E+00 0.  1.
          1   -1    0    0  501    0  0.00000000000E+00 -0.00000000000E+00 -0.64084142571E+03  0.64084142571E+03  0.00000000000E+00 0. -1.
         25    2    1    2    0    0  0.24566923946E+02 -0.89400325846E+02 -0.37848685893E+03  0.40926241939E+03  0.12508986183E+03 0.  0.
          5    1    3    3  502    0  0.57507929218E+02 -0.97805715459E+02 -0.22527612854E+03  0.25226955106E+03  0.41800000000E+01 0.  1.
         -5    1    3    3    0  502 -0.32941005271E+02  0.84053896129E+01 -0.15321073038E+03  0.15699286833E+03  0.41800000000E+01 0.  1.
        -11    1    1    2    0    0 -0.52015298943E+02  0.72802778193E+02 -0.20630750381E+03  0.22487468057E+03  0.00000000000E+00 0. -1.
         11    1    1    2    0    0  0.27448374997E+02  0.16597547653E+02 -0.23177534133E+02  0.39573854583E+02  0.00000000000E+00 0.  1.
</event>
<event>
 7    1  0.2794945E-009  0.1764237E+03  0.7561462E-02  0.1171310E+00
          1   -1    0    0  501    0  0.00000000000E+00  0.00000000000E+00  0.18946838031E+03  0.18946838031E+03  0.00000000000E+00 0. -1.
         -1   -1    0    0    0  501 -0.00000000000E+00 -0.00000000000E+00 -0.18390741120E+03  0.18390741120E+03  0.00000000000E+00 0.  1.
         25    2    1    2    0    0  0.41409854484E+02  0.14531413017E+03  0.83240362096E+01  0.19633386799E+03  0.12508687248E+03 0.  0.
          5    1    3    3  502    0  0.68975369932E+01  0.14423933162E+03  0.39347394928E+02  0.14972725433E+03  0.41800000000E+01 0.  1.
         -5    1    3    3    0  502  0.34512317491E+02  0.10747985517E+01 -0.31023358719E+02  0.46606613658E+02  0.41800000000E+01 0.  1.
        -11    1    1    2    0    0 -0.53542669911E+02 -0.38128141741E+02  0.15756596778E+02  0.67593217380E+02  0.00000000000E+00 0. -1.
         11    1    1    2    0    0  0.12132815427E+02 -0.10718598843E+03 -0.18519663880E+02  0.10944870614E+03  0.00000000000E+00 0.  1.
</event>
<event>
 7    1  0.2794945E-009  0.1134069E+03  0.7561462E-02  0.1254388E+00
         -1   -1    0    0    0  501 -0.00000000000E+00  0.00000000000E+00  0.79263364693E+02  0.79263364693E+02  0.00000000000E+00 0.  1.
          1   -1    0    0  501    0  0.00000000000E+00 -0.00000000000E+00 -0.25482516677E+03  0.25482516677E+03  0.00000000000E+00 0. -1.
         25    2    1    2    0    0  0.10885558856E+02 -0.38283029884E+02 -0.19266902109E+03  0.23313449834E+03  0.12508499855E+03 0.  0.
          5    1    3    3  502    0 -0.56516576528E+02 -0.25779302974E+02 -0.99835808473E+02  0.11765779591E+03  0.41800000000E+01 0.  1.
         -5    1    3    3    0  502  0.67402135384E+02 -0.12503726909E+02 -0.92833212614E+02  0.11547670243E+03  0.41800000000E+01 0.  1.
        -11    1    1    2    0    0 -0.20923129474E+02 -0.24543931697E+02  0.18755676242E+02  0.37308944255E+02  0.00000000000E+00 0.  1.
         11    1    1    2    0    0  0.10037570618E+02  0.62826961581E+02 -0.16484572319E+01  0.63645088865E+02  0.00000000000E+00 0. -1.
</event>
<event>
 7    1  0.2794945E-009  0.1934501E+03  0.7561462E-02  0.1155386E+00
          1   -1    0    0  501    0  0.00000000000E+00  0.00000000000E+00  0.23769191906E+03  0.23769191906E+03  0.00000000000E+00 0. -1.
         -1   -1    0    0    0  501 -0.00000000000E+00 -0.00000000000E+00 -0.20160572157E+03  0.20160572157E+03  0.00000000000E+00 0.  1.
         25    2    1    2    0    0 -0.34672855592E+02  0.14574913008E+03  0.11852572757E+03  0.22834297248E+03  0.12508856523E+03 0.  0.
          5    1    3    3  502    0  0.39104335555E+02  0.99826531063E+01  0.23199916522E+02  0.46738752111E+02  0.41800000000E+01 0. -1.
         -5    1    3    3    0  502 -0.73777191148E+02  0.13576647698E+03  0.95325811051E+02  0.18160422037E+03  0.41800000000E+01 0. -1.
        -11    1    1    2    0    0  0.79131059401E+02 -0.81262316948E+02 -0.64928730675E+02  0.13069440992E+03  0.00000000000E+00 0. -1.
         11    1    1    2    0    0 -0.44458203808E+02 -0.64486813133E+02 -0.17510799412E+02  0.80260258223E+02  0.00000000000E+00 0.  1.
</event>
<event>
 7    1  0.2794945E-009  0.1005996E+03  0.7561462E-02  0.1279040E+00
         -1   -1    0    0    0  501 -0.00000000000E+00  0.00000000000E+00  0.82913382225E+02  0.82913382225E+02  0.00000000000E+00 0.  1.
          1   -1    0    0  501    0  0.00000000000E+00 -0.00000000000E+00 -0.23228117702E+03  0.23228117702E+03  0.00000000000E+00 0. -1.
         25    2    1    2    0    0 -0.16646125873E+02 -0.45878480948E+02  0.79043055549E+00  0.13427602779E+03  0.12508996098E+03 0.  0.
          5    1    3    3  502    0  0.14690057696E+02  0.32012146653E+02 -0.28244775892E+02  0.45341097181E+02  0.41800000000E+01 0.  1.
         -5    1    3    3    0  502 -0.31336183569E+02 -0.77890627601E+02  0.29035206447E+02  0.88934930608E+02  0.41800000000E+01 0.  1.
        -11    1    1    2    0    0  0.22162971890E+02  0.61356565978E+02 -0.15097471290E+03  0.16446637786E+03  0.00000000000E+00 0. -1.
         11    1    1    2    0    0 -0.55168460169E+01 -0.15478085030E+02  0.81648754423E+00  0.16452153600E+02  0.00000000000E+00 0.  1.
</event>
<event>
 7    1  0.2794945E-009  0.1289147E+03  0.7561462E-02  0.1229075E+00
         -1   -1    0    0    0  501 -0.00000000000E+00  0.00000000000E+00  0.10221216507E+03  0.10221216507E+03  0.00000000000E+00 0.  1.
          1   -1    0    0  501    0  0.00000000000E+00 -0.00000000000E+00 -0.24289694614E+03  0.24289694614E+03  0.00000000000E+00 0. -1.
         25    2    1    2    0    0  0.68670170602E+02  0.37835772721E+02 -0.16608615118E+03  0.22221170616E+03  0.12508514984E+03 0.  0.
          5    1    3    3  502    0  0.65136322157E+02  0.75899130684E+02 -0.15042686999E+03  0.18069071397E+03  0.41800000000E+01 0.  1.
         -5    1    3    3    0  502  0.35338484452E+01 -0.38063357963E+02 -0.15659281198E+02  0.41520992184E+02  0.41800000000E+01 0.  1.
        -11    1    1    2    0    0 -0.40717974336E+02 -0.67298322426E+02  0.92834612811E+01  0.79203537097E+02  0.00000000000E+00 0. -1.
         11    1    1    2    0    0 -0.27952196266E+02  0.29462549705E+02  0.16117908838E+02  0.43693867951E+02  0.00000000000E+00 0.  1.
</event>
<event>
 7    1  0.2794945E-009  0.9572838E+02  0.7561462E-02  0.1289544E+00
          2   -1    0    0  501    0  0.00000000000E+00  0.00000000000E+00  0.88062462995E+02  0.88062462995E+02  0.00000000000E+00 0. -1.
         -2   -1    0    0    0  501 -0.00000000000E+00 -0.00000000000E+00 -0.13448115526E+03  0.13448115526E+03  0.00000000000E+00 0.  1.
         25    2    1    2    0    0  0.77669692637E+01 -0.28604781665E+01 -0.14470629577E+02  0.12618592810E+03  0.12507989920E+03 0.  0.
          5    1    3    3  502    0 -0.17777870710E+02  0.43724329626E+02  0.30585770955E+02  0.56398860566E+02  0.41800000000E+01 0.  1.
         -5    1    3    3    0  502  0.25544839974E+02 -0.46584807793E+02 -0.45056400531E+02  0.69787067535E+02  0.41800000000E+01 0.  1.
        -11    1    1    2    0    0  0.41479425454E+02  0.18971073710E+01 -0.17169941033E+02  0.44932712220E+02  0.00000000000E+00 0.  1.
         11    1    1    2    0    0 -0.49246394717E+02  0.96337079545E+00 -0.14778121656E+02  0.51424977935E+02  0.00000000000E+00 0. -1.
</event>
<event>
 7    1  0.2794945E-009  0.2971640E+03  0.7561462E-02  0.1086667E+00
          3   -1    0    0  501    0  0.00000000000E+00  0.00000000000E+00  0.79419918799E+03  0.79419918799E+03  0.00000000000E+00 0. -1.
         -3   -1    0    0    0  501 -0.00000000000E+00 -0.00000000000E+00 -0.14254202521E+03  0.14254202521E+03  0.00000000000E+00 0.  1.
         25    2    1    2    0    0 -0.60632776751E+02 -0.28862876108E+03  0.16354456585E+03  0.35970970725E+03  0.12514532804E+03 0.  0.
          5    1    3    3  502    0 -0.12949643160E+02 -0.12797728811E+02  0.57309772789E+02  0.60277338842E+02  0.41800000000E+01 0. -1.
         -5    1    3    3    0  502 -0.47683133591E+02 -0.27583103227E+03  0.10623479306E+03  0.29943236840E+03  0.41800000000E+01 0. -1.
        -11    1    1    2    0    0  0.58766845470E+02  0.24217434088E+03  0.33834300502E+03  0.42021178298E+03  0.00000000000E+00 0.  1.
         11    1    1    2    0    0  0.18659312809E+01  0.46454420201E+02  0.14976959191E+03  0.15681972298E+03  0.00000000000E+00 0. -1.
</event>
<event>
 7    1  0.2794945E-009  0.1063114E+03  0.7561462E-02  0.1267557E+00
          1   -1    0    0  501    0  0.00000000000E+00  0.00000000000E+00  0.16294582219E+03  0.16294582219E+03  0.00000000000E+00 0.  1.
         -1   -1    0    0    0  501 -0.00000000000E+00 -0.00000000000E+00 -0.11720329973E+03  0.11720329973E+03  0.00000000000E+00 0. -1.
         25    2    1    2    0    0 -0.53835608062E+02 -0.14403898208E+02  0.93223795572E+02  0.16565954638E+03  0.12508662705E+03 0.  0.
          5    1    3    3  502    0 -0.37517801492E+02 -0.59520742152E+02  0.94006110931E+02  0.11749436356E+03  0.41800000000E+01 0.  1.
         -5    1    3    3    0  502 -0.16317806570E+02  0.45116843944E+02 -0.78231535917E+00  0.48165182820E+02  0.41800000000E+01 0.  1.
        -11    1    1    2    0    0  0.65314733352E+02 -0.10879120821E+02 -0.54602251299E+02  0.85824096323E+02  0.00000000000E+00 0. -1.
         11    1    1    2    0    0 -0.11479125290E+02  0.25283019029E+02  0.71209781937E+01  0.28665479223E+02  0.00000000000E+00 0.  1.
</event>
<event>
 7    1  0.2794945E-009  0.1120542E+03  0.7561462E-02  0.1256812E+00
          1   -1    0    0  501    0  0.00000000000E+00  0.00000000000E+00  0.44758447962E+02  0.44758447962E+02  0.00000000000E+00 0. -1.
         -1   -1    0    0    0  501 -0.00000000000E+00 -0.00000000000E+00 -0.44046705917E+03  0.44046705917E+03  0.00000000000E+00 0.  1.
         25    2    1    2    0    0  0.55206492965E+02  0.19925857707E+02 -0.33273678445E+03  0.36028576441E+03  0.12508903884E+03 0.  0.
          5    1    3    3  502    0  0.64772042730E+02 -0.39981073504E+02 -0.16191787026E+03  0.17896584274E+03  0.41800000000E+01 0.  1.
         -5    1    3    3    0  502 -0.95655497643E+01  0.59906931211E+02 -0.17081891419E+03  0.18131992167E+03  0.41800000000E+01 0.  1.
        -11    1    1    2    0    0 -0.20744556083E+01  0.20311760623E+02  0.12744359612E+02  0.24068437581E+02  0.00000000000E+00 0.  1.
         11    1    1    2    0    0 -0.53132037357E+02 -0.40237618331E+02 -0.75716186375E+02  0.10087130515E+03  0.00000000000E+00 0. -1.
</event>
<event>
 7    1  0.2794945E-009  0.1189243E+03  0.7561462E-02  0.1244882E+00
         -2   -1    0    0    0  501 -0.00000000000E+00  0.00000000000E+00  0.29565109616E+02  0.29565109616E+02  0.00000000000E+00 0.  1.
          2   -1    0    0  501    0  0.00000000000E+00 -0.00000000000E+00 -0.77965632357E+03  0.77965632357E+03  0.00000000000E+00 0. -1.
         25    2    1    2    0    0  0.86307233649E+02 -0.52449176650E+02 -0.48668167046E+03  0.51254857996E+03  0.12508854365E+03 0.  0.
          5    1    3    3  502    0  0.65253940398E+02 -0.50902763871E+02 -0.48378986023E+03  0.49083527723E+03  0.41800000000E+01 0.  1.
         -5    1    3    3    0  502  0.21053293251E+02 -0.15464127797E+01 -0.28918102210E+01  0.21713302732E+02  0.41800000000E+01 0.  1.
        -11    1    1    2    0    0 -0.97158086269E+02  0.19929105845E+02 -0.16559829141E+03  0.19302760710E+03  0.00000000000E+00 0.  1.
         11    1    1    2    0    0  0.10850852620E+02  0.32520070805E+02 -0.97811252092E+02  0.10364524612E+03  0.00000000000E+00 0. -1.
</event>
<event>
 7    1  0.2794945E-009  0.1127196E+03  0.7561462E-02  0.1255615E+00
         -2   -1    0    0    0  501 -0.00000000000E+00  0.00000000000E+00  0.12096506548E+03  0.12096506548E+03  0.00000000000E+00 0.  1.
          2   -1    0    0  501    0  0.00000000000E+00 -0.00000000000E+00 -0.16551761616E+03  0.16551761616E+03  0.00000000000E+00 0. -1.
         25    2    1    2    0    0  0.64094704637E+02  0.43058580402E+02  0.17488071877E+01  0.14701108223E+03  0.12508807882E+03 0.  0.
          5    1    3    3  502    0 -0.31211007724E+02  0.95154785315E+01 -0.26247921242E+02  0.42084404527E+02  0.41800000000E+01 0.  1.
         -5    1    3    3    0  502  0.95305712362E+02  0.33543101870E+02  0.27996728429E+02  0.10492667771E+03  0.41800000000E+01 0.  1.
        -11    1    1    2    0    0 -0.27401272050E+02 -0.47115008068E+02 -0.74999364872E+02  0.92712234502E+02  0.00000000000E+00 0. -1.
         11    1    1    2    0    0 -0.36693432587E+02  0.40564276662E+01  0.28698007003E+02  0.46759364906E+02  0.00000000000E+00 0.  1.
</event>
<event>
 7    1  0.2794945E-009  0.1071516E+03  0.7561462E-02  0.1265937E+00
         -2   -1    0    0    0  501 -0.00000000000E+00  0.00000000000E+00  0.54131026542E+02  0.54131026542E+02  0.00000000000E+00 0.  1.
          2   -1    0    0  501    0  0.00000000000E+00 -0.00000000000E+00 -0.26410341428E+03  0.26410341428E+03  0.00000000000E+00 0. -1.
         25    2    1    2    0    0  0.43221178848E+02 -0.59558804416E+01 -0.88057929214E+02  0.15907656065E+03  0.12509040905E+03 0.  0.
          5    1    3    3  502    0 -0.30480974493E+02  0.16400373307E+02 -0.72420540489E+02  0.80375799438E+02  0.41800000000E+01 0.  1.
         -5    1    3    3    0  502  0.73702153341E+02 -0.22356253748E+02 -0.15637388725E+02  0.78700761209E+02  0.41800000000E+01 0.  1.
        -11    1    1    2    0    0 -0.43640080149E+02 -0.38291496668E+02 -0.68283695201E+02  0.89629003914E+02  0.00000000000E+00 0. -1.
         11    1    1    2    0    0  0.41890130110E+00  0.44247377110E+02 -0.53630763328E+02  0.69528876264E+02  0.00000000000E+00 0.  1.
</event>
<event>
 7    1  0.2794945E-009  0.1097760E+03  0.7561462E-02  0.1260985E+00
         -1   -1    0    0    0  501 -0.00000000000E+00  0.00000000000E+00  0.11498149332E+03  0.11498149332E+03  0.00000000000E+00 0.  1.
          1   -1    0    0  501    0  0.00000000000E+00 -0.00000000000E+00 -0.18238281222E+03  0.18238281222E+03  0.00000000000E+00 0. -1.
         25    2    1    2    0    0  0.26214927387E+02  0.15732344913E+02  0.56787411790E+02  0.14073549462E+03  0.12508773007E+03 0.  0.
          5    1    3    3  502    0  0.74747695327E+02  0.71683746790E+01  0.16623449042E+02  0.77022172199E+02  0.41800000000E+01 0. -1.
         -5    1    3    3    0  502 -0.48532767940E+02  0.85639702338E+01  0.40163962749E+02  0.63713322419E+02  0.41800000000E+01 0. -1.
        -11    1    1    2    0    0  0.31344114632E+02  0.84342300259E+01 -0.50751132853E+02  0.60243400004E+02  0.00000000000E+00 0. -1.
         11    1    1    2    0    0 -0.57559042019E+02 -0.24166574939E+02 -0.73437597840E+02  0.96385410924E+02  0.00000000000E+00 0.  1.
</event>
<event>
 7    1  0.2794945E-009  0.1359960E+03  0.7561462E-02  0.1218821E+00
         -2   -1    0    0    0  501 -0.00000000000E+00  0.00000000000E+00  0.93929885761E+02  0.93929885761E+02  0.00000000000E+00 0.  1.
          2   -1    0    0  501    0  0.00000000000E+00 -0.00000000000E+00 -0.26117327839E+03  0.26117327839E+03  0.00000000000E+00 0. -1.
         25    2    1    2    0    0  0.84903213245E+02 -0.64457270910E+02 -0.48948266534E+02  0.17147903842E+03  0.12508330196E+03 0.  0.
          5    1    3    3  502    0  0.61902759288E+02 -0.85645200546E+02 -0.75745670451E+02  0.13008432256E+03  0.41800000000E+01 0. -1.
         -5    1    3    3    0  502  0.23000453958E+02  0.21187929636E+02  0.26797403917E+02  0.41394715861E+02  0.41800000000E+01 0. -1.
        -11    1    1    2    0    0  0.10699793417E+02  0.31969445470E+02 -0.91410413374E+01  0.34929781842E+02  0.00000000000E+00 0.  1.
         11    1    1    2    0    0 -0.95603006662E+02  0.32487825440E+02 -0.10915408476E+03  0.14869434389E+03  0.00000000000E+00 0. -1.
</event>
<event>
 7    1  0.3383261E-009  0.2157275E+03  0.7561462E-02  0.1137109E+00
          2   -1    0    0  501    0  0.00000000000E+00  0.00000000000E+00  0.52629034485E+03  0.52629034485E+03  0.00000000000E+00 0. -1.
         -2   -1    0    0    0  501 -0.00000000000E+00 -0.00000000000E+00 -0.12066578573E+03  0.12066578573E+03  0.00000000000E+00 0.  1.
         25    2    1    2    0    0  0.21358642392E+03 -0.39682010231E+01  0.30776480320E+03  0.39497147101E+03  0.12509349192E+03 0.  0.
          5    1    3    3  502    0  0.61523392101E+02  0.12803545846E+02  0.19487042511E+03  0.20479505254E+03  0.41800000000E+01 0. -1.
         -5    1    3    3    0  502  0.15206303181E+03 -0.16771746869E+02  0.11289437809E+03  0.19017641847E+03  0.41800000000E+01 0. -1.
        -11    1    1    2    0    0 -0.94325546378E+02  0.15595063561E+02 -0.25652020236E+01  0.95640446299E+02  0.00000000000E+00 0.  1.
         11    1    1    2    0    0 -0.11926087754E+03 -0.11626862538E+02  0.10042495795E+03  0.15634421327E+03  0.00000000000E+00 0. -1.
</event>
<event>
 7    1  0.2794945E-009  0.1864366E+03  0.7561462E-02  0.1161715E+00
         -4   -1    0    0    0  501 -0.00000000000E+00  0.00000000000E+00  0.20790958800E+03  0.20790958800E+03  0.00000000000E+00 0. -1.
          4   -1    0    0  501    0  0.00000000000E+00 -0.00000000000E+00 -0.20447477320E+03  0.20447477320E+03  0.00000000000E+00 0.  1.
         25    2    1    2    0    0 -0.18892742784E+02 -0.17323139029E+03 -0.15691612184E+02  0.21508104715E+03  0.12509028675E+03 0.  0.
          5    1    3    3  502    0  0.16814124292E+01  0.10193284093E+02  0.23801991781E+02  0.26281883515E+02  0.41800000000E+01 0. -1.
         -5    1    3    3    0  502 -0.20574155214E+02 -0.18342467438E+03 -0.39493603965E+02  0.18879916363E+03  0.41800000000E+01 0. -1.
        -11    1    1    2    0    0  0.26659524015E+02  0.15520514556E+03  0.45968553288E+02  0.16405022194E+03  0.00000000000E+00 0. -1.
         11    1    1    2    0    0 -0.77667812301E+01  0.18026244735E+02 -0.26842126306E+02  0.33253092105E+02  0.00000000000E+00 0.  1.
</event>
<event>
 7    1  0.2794945E-009  0.1018812E+03  0.7561462E-02  0.1276389E+00
          2   -1    0    0  501    0  0.00000000000E+00  0.00000000000E+00  0.34465082595E+02  0.34465082595E+02  0.00000000000E+00 0. -1.
         -2   -1    0    0    0  501 -0.00000000000E+00 -0.00000000000E+00 -0.69931706840E+03  0.69931706840E+03  0.00000000000E+00 0.  1.
         25    2    1    2    0    0 -0.36341860509E+02  0.93680544057E+02 -0.24042652756E+03  0.28904813910E+03  0.12508851427E+03 0.  0.
          5    1    3    3  502    0 -0.63918477606E+01  0.47290366580E+02 -0.22709159474E+03  0.23208899002E+03  0.41800000000E+01 0. -1.
         -5    1    3    3    0  502 -0.29950012748E+02  0.46390177478E+02 -0.13334932818E+02  0.56959149074E+02  0.41800000000E+01 0. -1.
        -11    1    1    2    0    0  0.27928618229E+02 -0.71669016498E+02 -0.40989510252E+03  0.41704969813E+03  0.00000000000E+00 0.  1.
         11    1    1    2    0    0  0.84132422792E+01 -0.22011527560E+02 -0.14530355733E+02  0.27684313770E+02  0.00000000000E+00 0. -1.
</event>
<event>
 7    1  0.2794945E-009  0.1082887E+03  0.7561462E-02  0.1263772E+00
          4   -1    0    0  501    0  0.00000000000E+00  0.00000000000E+00  0.25203898339E+03  0.25203898339E+03  0.00000000000E+00 0.  1.
         -4   -1    0    0    0  501 -0.00000000000E+00 -0.00000000000E+00 -0.77501676390E+02  0.77501676390E+02  0.00000000000E+00 0. -1.
         25    2    1    2    0    0  0.43452276858E+02  0.80369148462E+00  0.18638014269E+03  0.22863556113E+03  0.12509163016E+03 0.  0.
          5    1    3    3  502    0 -0.26321285126E+02 -0.29880522163E+02  0.18280590965E+02  0.44014861824E+02  0.41800000000E+01 0.  1.
         -5    1    3    3    0  502  0.69773561984E+02  0.30684213647E+02  0.16809955173E+03  0.18462069930E+03  0.41800000000E+01 0.  1.
        -11    1    1    2    0    0 -0.68713846341E+02  0.15095985896E+02 -0.88376551557E+01  0.70905469591E+02  0.00000000000E+00 0.  1.
         11    1    1    2    0    0  0.25261569483E+02 -0.15899677381E+02 -0.30051805425E+01  0.29999629059E+02  0.00000000000E+00 0. -1.
</event>
<event>
 7    1  0.2794945E-009  0.9792873E+02  0.7561462E-02  0.1284713E+00
         -2   -1    0    0    0  501 -0.00000000000E+00  0.00000000000E+00  0.14787754003E+02  0.14787754003E+02  0.00000000000E+00 0.  1.
          2   -1    0    0  501    0  0.00000000000E+00 -0.00000000000E+00 -0.99815001252E+03  0.99815001252E+03  0.00000000000E+00 0. -1.
         25    2    1    2    0    0 -0.52207893456E+02  0.14505141068E+01 -0.59079207485E+03  0.60614336392E+03  0.12508690495E+03 0.  0.
          5    1    3    3  502    0 -0.68400334968E+02 -0.18200686523E+02 -0.16524273670E+03  0.17981241683E+03  0.41800000000E+01 0. -1.
         -5    1    3    3    0  502  0.16192441512E+02  0.19651200630E+02 -0.42554933815E+03  0.42633094709E+03  0.41800000000E+01 0. -1.
        -11    1    1    2    0    0  0.13796826756E+02  0.40193932441E+02 -0.97868878771E+02  0.10669686999E+03  0.00000000000E+00 0.  1.
         11    1    1    2    0    0  0.38411066700E+02 -0.41644446547E+02 -0.29470130490E+03  0.30009753261E+03  0.00000000000E+00 0. -1.
</event>
<event>
 7    1  0.2794945E-009  0.8977621E+02  0.7561462E-02  0.1303395E+00
         -1   -1    0    0    0  501 -0.00000000000E+00  0.00000000000E+00  0.11115554665E+03  0.11115554665E+03  0.00000000000E+00 0.  1.
          1   -1    0    0  501    0  0.00000000000E+00 -0.00000000000E+00 -0.12607593639E+03  0.12607593639E+03  0.00000000000E+00 0. -1.
         25    2    1    2    0    0 -0.10166680318E+02  0.60251427137E+01 -0.53573738044E+02  0.13659091816E+03  0.12508904741E+03 0.  0.
          5    1    3    3  502    0 -0.31069738952E+02 -0.44187621934E+02  0.75077932411E+01  0.54696562690E+02  0.41800000000E+01 0. -1.
         -5    1    3    3    0  502  0.20903058634E+02  0.50212764647E+02 -0.61081531285E+02  0.81894355470E+02  0.41800000000E+01 0. -1.
        -11    1    1    2    0    0  0.34042540157E+02  0.16649737347E+02  0.52643173145E+02  0.64864566389E+02  0.00000000000E+00 0.  1.
         11    1    1    2    0    0 -0.23875859839E+02 -0.22674880060E+02 -0.13989824843E+02  0.35775998490E+02  0.00000000000E+00 0. -1.
</event>
<event>
 7    1  0.2794945E-009  0.1062147E+03  0.7561462E-02  0.1267745E+00
          4   -1    0    0  501    0  0.00000000000E+00  0.00000000000E+00  0.14321087237E+03  0.14321087237E+03  0.00000000000E+00 0. -1.
         -4   -1    0    0    0  501 -0.00000000000E+00 -0.00000000000E+00 -0.11598876532E+03  0.11598876532E+03  0.00000000000E+00 0.  1.
         25    2    1    2    0    0 -0.51735200589E+02 -0.28240083492E+02  0.54267356549E+02  0.14854478084E+03  0.12508626077E+03 0.  0.
          5    1    3    3  502    0  0.11757423511E+02 -0.63426939508E+02  0.34115754793E+02  0.73092891501E+02  0.41800000000E+01 0.  1.
         -5    1    3    3    0  502 -0.63492624100E+02  0.35186856016E+02  0.20151601756E+02  0.75451889338E+02  0.41800000000E+01 0.  1.
        -11    1    1    2    0    0  0.26472827620E+02 -0.10786665720E+02  0.27030645993E+02  0.39342325584E+02  0.00000000000E+00 0. -1.
         11    1    1    2    0    0  0.25262372969E+02  0.39026749212E+02 -0.54075895497E+02  0.71312531268E+02  0.00000000000E+00 0.  1.
</event>
<event>
 7    1  0.2794945E-009  0.1574577E+03  0.7561462E-02  0.1191597E+00
          3   -1    0    0  501    0  0.00000000000E+00  0.00000000000E+00  0.32156215195E+03  0.32156215195E+03  0.00000000000E+00 0. -1.
         -3   -1    0    0    0  501 -0.00000000000E+00 -0.00000000000E+00 -0.89852961757E+02  0.89852961757E+02  0.00000000000E+00 0.  1.
         25    2    1    2    0    0 -0.17545608917E+02  0.11287567177E+03  0.48042996732E+02  0.17608105736E+03  0.12509054143E+03 0.  0.
          5    1    3    3  502    0 -0.27547549066E+02 -0.20106934574E+02  0.19949583823E+02  0.39731782898E+02  0.41800000000E+01 0. -1.
         -5    1    3    3    0  502  0.10001940149E+02  0.13298260634E+03  0.28093412909E+02  0.13634927446E+03  0.41800000000E+01 0. -1.
        -11    1    1    2    0    0  0.51145668562E+02 -0.34050131844E+02  0.75835285068E+02  0.97602670827E+02  0.00000000000E+00 0.  1.
         11    1    1    2    0    0 -0.33600059644E+02 -0.78825539927E+02  0.10783090839E+03  0.13773138552E+03  0.00000000000E+00 0. -1.
</event>
<event>
 7    1  0.2794945E-009  0.1094962E+03  0.7561462E-02  0.1261506E+00
          3   -1    0    0  501    0  0.00000000000E+00  0.00000000000E+00  0.74143543090E+03  0.74143543090E+03  0.00000000000E+00 0. -1.
         -3   -1    0    0    0  501 -0.00000000000E+00 -0.00000000000E+00 -0.16564054341E+02  0.16564054341E+02  0.00000000000E+00 0.  1.
         25    2    1    2    0    0  0.14271320088E+01 -0.23413300771E+02  0.40697183241E+03  0.42640710331E+03  0.12508687389E+03 0.  0.
          5    1    3    3  502    0  0.16425986136E+02 -0.72494076846E+02  0.27001103930E+03  0.28008684000E+03  0.41800000000E+01 0. -1.
         -5    1    3    3    0  502 -0.14998854127E+02  0.49080776075E+02  0.13696079310E+03  0.14632026330E+03  0.41800000000E+01 0. -1.
        -11    1    1    2    0    0  0.44113846859E+02  0.15919788405E+02  0.18712390677E+03  0.19291145023E+03  0.00000000000E+00 0.  1.
         11    1    1    2    0    0 -0.45540978868E+02  0.74935123653E+01  0.13077563739E+03  0.13868093170E+03  0.00000000000E+00 0. -1.
</event>
<event>
 7    1  0.2794945E-009  0.9719856E+02  0.7561462E-02  0.1286300E+00
         -1   -1    0    0    0  501 -0.00000000000E+00  0.00000000000E+00  0.94591971219E+02  0.94591971219E+02  0.00000000000E+00 0.  1.
          1   -1    0    0  501    0  0.00000000000E+00 -0.00000000000E+00 -0.22997611435E+03  0.22997611435E+03  0.00000000000E+00 0. -1.
         25    2    1    2    0    0  0.15931135960E+01 -0.40737062653E+02 -0.17437092604E+03  0.21843564450E+03  0.12508742805E+03 0.  0.
          5    1    3    3  502    0 -0.29773238568E+02 -0.55420031509E+02 -0.17231854198E+03  0.18349108408E+03  0.41800000000E+01 0. -1.
         -5    1    3    3    0  502  0.31366352164E+02  0.14682968855E+02 -0.20523840579E+01  0.34944560418E+02  0.41800000000E+01 0. -1.
        -11    1    1    2    0    0 -0.82188036631E+01  0.67954961267E+02  0.37572437593E+02  0.78084016041E+02  0.00000000000E+00 0.  1.
         11    1    1    2    0    0  0.66256900671E+01 -0.27217898614E+02  0.14143453153E+01  0.28048425027E+02  0.00000000000E+00 0. -1.
</event>
<event>
 7    1  0.2794945E-009  0.2293879E+03  0.7561462E-02  0.1127071E+00
          1   -1    0    0  501    0  0.00000000000E+00  0.00000000000E+00  0.11259493412E+04  0.11259493412E+04  0.00000000000E+00 0. -1.
         -1   -1    0    0    0  501 -0.00000000000E+00 -0.00000000000E+00 -0.49545538161E+02  0.49545538161E+02  0.00000000000E+00 0.  1.
         25    2    1    2    0    0  0.19755602823E+03 -0.55072406786E+02  0.62886174345E+03  0.67318307264E+03  0.12508797959E+03 0.  0.
          5    1    3    3  502    0  0.13407743343E+03 -0.91625471618E+02  0.48849128681E+03  0.51479432290E+03  0.41800000000E+01 0. -1.
         -5    1    3    3    0  502  0.63478594800E+02  0.36553064831E+02  0.14037045664E+03  0.15838874974E+03  0.41800000000E+01 0. -1.
        -11    1    1    2    0    0  0.42002994966E+01  0.17164547720E+02  0.73959942328E+02  0.76041681224E+02  0.00000000000E+00 0.  1.
         11    1    1    2    0    0 -0.20175632772E+03  0.37907859067E+02  0.37358211730E+03  0.42627012553E+03  0.00000000000E+00 0. -1.
</event>
<event>
 7    1  0.2794945E-009  0.1361289E+03  0.7561462E-02  0.1218635E+00
         -3   -1    0    0    0  501 -0.00000000000E+00  0.00000000000E+00  0.10725014468E+04  0.10725014468E+04  0.00000000000E+00 0.  1.
          3   -1    0    0  501    0  0.00000000000E+00 -0.00000000000E+00 -0.19007812685E+02  0.19007812685E+02  0.00000000000E+00 0. -1.
         25    2    1    2    0    0  0.40532597465E+02 -0.82502173372E+02  0.63784628277E+03  0.65646203061E+03  0.12508004283E+03 0.  0.
          5    1    3    3  502    0  0.79056406862E+02 -0.61779119145E+02  0.31448431915E+03  0.33012790615E+03  0.41800000000E+01 0.  1.
         -5    1    3    3    0  502 -0.38523809397E+02 -0.20723054227E+02  0.32336196363E+03  0.32633412446E+03  0.41800000000E+01 0.  1.
        -11    1    1    2    0    0  0.28582408818E+02  0.25583902301E+02  0.10662660218E+03  0.11331691155E+03  0.00000000000E+00 0. -1.
         11    1    1    2    0    0 -0.69115006283E+02  0.56918271071E+02  0.30902074916E+03  0.32173031733E+03  0.00000000000E+00 0.  1.
</event>
<event>
 6    1  0.2794945E-009  0.8173181E+02  0.7561462E-02  0.1324207E+00
          2   -1    0    0  501    0  0.00000000000E+00  0.00000000000E+00  0.45684549611E+03  0.45684549611E+03  0.00000000000E+00 0.  1.
         -2   -1    0    0    0  501 -0.00000000000E+00 -0.00000000000E+00 -0.30442458214E+02  0.30442458214E+02  0.00000000000E+00 0. -1.
          5    1    1    2  502    0 -0.21983002551E+02  0.43131687628E+02  0.20919585954E+03  0.21476492947E+03  0.41800000000E+01 0. -1.
         -5    1    1    2    0  502  0.53167533330E+02 -0.73908096222E+01  0.36562573282E+02  0.65082292770E+02  0.41800000000E+01 0. -1.
        -11    1    1    2    0    0 -0.25029479109E+01 -0.32010701468E+02  0.17506400622E+03  0.17798414545E+03  0.00000000000E+00 0.  1.
         11    1    1    2    0    0 -0.28681582868E+02 -0.37301765383E+01  0.55805988470E+01  0.29456586637E+02  0.00000000000E+00 0. -1.
</event>
<event>
 7    1  0.2794945E-009  0.1049507E+03  0.7561462E-02  0.1270217E+00
         -2   -1    0    0    0  501 -0.00000000000E+00  0.00000000000E+00  0.13880643211E+02  0.13880643211E+02  0.00000000000E+00 0.  1.
          2   -1    0    0  501    0  0.00000000000E+00 -0.00000000000E+00 -0.14369425816E+04  0.14369425816E+04  0.00000000000E+00 0. -1.
         25    2    1    2    0    0 -0.19871614913E+02  0.82456287830E+01 -0.12298902439E+04  0.12364234539E+04  0.12510025556E+03 0.  0.
          5    1    3    3  502    0  0.48918417177E+02 -0.19160797177E+02 -0.53085378334E+03  0.53346355019E+03  0.41800000000E+01 0.  1.
         -5    1    3    3    0  502 -0.68790032091E+02  0.27406425960E+02 -0.69903646051E+03  0.70295990371E+03  0.41800000000E+01 0.  1.
        -11    1    1    2    0    0 -0.20172804444E+02 -0.30991263883E+02 -0.13626116735E+03  0.14118961082E+03  0.00000000000E+00 0. -1.
         11    1    1    2    0    0  0.40044419357E+02  0.22745635100E+02 -0.56910527218E+02  0.73210160129E+02  0.00000000000E+00 0.  1.
</event>
<event>
 7    1  0.2794945E-009  0.1080222E+03  0.7561462E-02  0.1264277E+00
         -2   -1    0    0    0  501 -0.00000000000E+00  0.00000000000E+00  0.77155999711E+02  0.77155999711E+02  0.00000000000E+00 0.  1.
          2   -1    0    0  501    0  0.00000000000E+00 -0.00000000000E+00 -0.26940253840E+03  0.26940253840E+03  0.00000000000E+00 0. -1.
         25    2    1    2    0    0 -0.13867622345E+02  0.61619602752E+01 -0.21703328881E+03  0.25096086214E+03  0.12509046795E+03 0.  0.
          5    1    3    3  502    0 -0.53024945930E+02  0.44256031876E+02 -0.14297689354E+03  0.15883987451E+03  0.41800000000E+01 0.  1.
         -5    1    3    3    0  502  0.39157323586E+02 -0.38094071601E+02 -0.74056395271E+02  0.92120987631E+02  0.41800000000E+01 0.  1.
        -11    1    1    2    0    0  0.48392145129E+02  0.16078378718E+02  0.17334523176E+02  0.53859072273E+02  0.00000000000E+00 0.  1.
         11    1    1    2    0    0 -0.34524522785E+02 -0.22240338993E+02  0.74522269461E+01  0.41738603696E+02  0.00000000000E+00 0. -1.
</event>
<event>
 7    1  0.2794945E-009  0.1822651E+03  0.7561462E-02  0.1165629E+00
          1   -1    0    0  501    0  0.00000000000E+00  0.00000000000E+00  0.55859343541E+03  0.55859343541E+03  0.00000000000E+00 0. -1.
         -1   -1    0    0    0  501 -0.00000000000E+00 -0.00000000000E+00 -0.76102691975E+02  0.76102691975E+02  0.00000000000E+00 0.  1.
         25    2    1    2    0    0  0.17505507430E+03  0.23638935979E+01  0.27388829121E+03  0.34829973391E+03  0.12509213223E+03 0.  0.
          5    1    3    3  502    0  0.12605930718E+03  0.11163114985E+02  0.84000807380E+02  0.15195121620E+03  0.41800000000E+01 0.  1.
         -5    1    3    3    0  502  0.48995767124E+02 -0.87992213870E+01  0.18988748383E+03  0.19634851771E+03  0.41800000000E+01 0.  1.
        -11    1    1    2    0    0 -0.14196851036E+03 -0.29692358976E+02  0.19143819431E+03  0.24017759337E+03  0.00000000000E+00 0. -1.
         11    1    1    2    0    0 -0.33086563945E+02  0.27328465378E+02  0.17164257916E+02  0.46218800108E+02  0.00000000000E+00 0.  1.
</event>
<event>
 7    1  0.2794945E-009  0.1658831E+03  0.7561462E-02  0.1182210E+00
          1   -1    0    0  501    0  0.00000000000E+00  0.00000000000E+00  0.97789149291E+03  0.97789149291E+03  0.00000000000E+00 0. -1.
         -1   -1    0    0    0  501 -0.00000000000E+00 -0.00000000000E+00 -0.33417631513E+02  0.33417631513E+02  0.00000000000E+00 0.  1.
         25    2    1    2    0    0  0.87782291751E+02 -0.11294987439E+03  0.54814621241E+03  0.58015114145E+03  0.12509065466E+03 0.  0.
          5    1    3    3  502    0  0.23406295277E+02  0.20643368816E+02  0.40669375455E+02  0.51434169912E+02  0.41800000000E+01 0.  1.
         -5    1    3    3    0  502  0.64375996474E+02 -0.13359324320E+03  0.50747683695E+03  0.52871697154E+03  0.41800000000E+01 0.  1.
        -11    1    1    2    0    0 -0.76544943658E+02  0.58534154394E+02  0.14738714971E+03  0.17609187242E+03  0.00000000000E+00 0. -1.
         11    1    1    2    0    0 -0.11237348093E+02  0.54415719993E+02  0.24894049928E+03  0.25506611056E+03  0.00000000000E+00 0.  1.
</event>
<event>
 7    1  0.2956049E-009  0.2753035E+03  0.7561462E-02  0.1098282E+00
          1   -1    0    0  501    0  0.00000000000E+00  0.00000000000E+00  0.11180819644E+04  0.11180819644E+04  0.00000000000E+00 0. -1.
         -1   -1    0    0    0  501 -0.00000000000E+00 -0.00000000000E+00 -0.87753606796E+02  0.87753606796E+02  0.00000000000E+00 0.  1.
         25    2    1    2    0    0 -0.25177193422E+03 -0.64698769777E+02  0.26226089193E+03  0.38987497202E+03  0.12508669275E+03 0.  0.
          5    1    3    3  502    0 -0.13491620658E+03  0.29685366841E+02  0.12449828675E+03  0.18601317052E+03  0.41800000000E+01 0.  1.
         -5    1    3    3    0  502 -0.11685572763E+03 -0.94384136618E+02  0.13776260518E+03  0.20386180150E+03  0.41800000000E+01 0.  1.
        -11    1    1    2    0    0  0.17030365456E+03  0.27261269733E+02  0.37445311940E+03  0.41226405399E+03  0.00000000000E+00 0.  1.
         11    1    1    2    0    0  0.81468279657E+02  0.37437500044E+02  0.39361434629E+03  0.40369654520E+03  0.00000000000E+00 0. -1.
</event>
<event>
 7    1  0.2794945E-009  0.8366616E+02  0.7561462E-02  0.1318958E+00
         -1   -1    0    0    0  501 -0.00000000000E+00  0.00000000000E+00  0.67422841782E+02  0.67422841782E+02  0.00000000000E+00 0.  1.
          1   -1    0    0  501    0  0.00000000000E+00 -0.00000000000E+00 -0.18531741630E+03  0.18531741630E+03  0.00000000000E+00 0. -1.
         25    2    1    2    0    0 -0.20734627748E+02 -0.12892197524E+02 -0.10213540145E+03  0.16332606509E+03  0.12509048631E+03 0.  0.
          5    1    3    3  502    0  0.29870761250E+02 -0.10906920777E+02 -0.10754185182E+03  0.11222274989E+03  0.41800000000E+01 0.  1.
         -5    1    3    3    0  502 -0.50605388998E+02 -0.19852767468E+01  0.54064503720E+01  0.51103315206E+02  0.41800000000E+01 0.  1.
        -11    1    1    2    0    0 -0.36014264838E+01  0.44447427662E+02  0.43017578820E+01  0.44800102894E+02  0.00000000000E+00 0.  1.
         11    1    1    2    0    0  0.24336054232E+02 -0.31555230138E+02 -0.20060930954E+02  0.44614090099E+02  0.00000000000E+00 0. -1.
</event>
<event>
 7    1  0.2794945E-009  0.9680348E+02  0.7561462E-02  0.1287165E+00
         -2   -1    0    0    0  501 -0.00000000000E+00  0.00000000000E+00  0.41040514586E+02  0.41040514586E+02  0.00000000000E+00 0. -1.
          2   -1    0    0  501    0  0.00000000000E+00 -0.00000000000E+00 -0.41186215351E+03  0.41186215351E+03  0.00000000000E+00 0.  1.
         25    2    1    2    0    0 -0.14192339716E+02  0.37304034748E+02 -0.15712435758E+03  0.20476535895E+03  0.12509106670E+03 0.  0.
          5    1    3    3  502    0 -0.25230775950E+02  0.49536907030E+02 -0.17284394122E+03  0.18161221773E+03  0.41800000000E+01 0.  1.
         -5    1    3    3    0  502  0.11038436235E+02 -0.12232872282E+02  0.15719583639E+02  0.23153141225E+02  0.41800000000E+01 0.  1.
        -11    1    1    2    0    0  0.53127714427E+02  0.15416668241E+02 -0.13388667994E+03  0.14486500877E+03  0.00000000000E+00 0.  1.
         11    1    1    2    0    0 -0.38935374711E+02 -0.52720702988E+02 -0.79810601404E+02  0.10327230037E+03  0.00000000000E+00 0. -1.
</event>
<event>
 7    1  0.2794945E-009  0.1166345E+03  0.7561462E-02  0.1248755E+00
         -1   -1    0    0    0  501 -0.00000000000E+00  0.00000000000E+00  0.97957784999E+03  0.97957784999E+03  0.00000000000E+00 0.  1.
          1   -1    0    0  501    0  0.00000000000E+00 -0.00000000000E+00 -0.20239022280E+02  0.20239022280E+02  0.00000000000E+00 0. -1.
         25    2    1    2    0    0  0.28428378089E+02  0.84928985322E+02  0.53550222005E+03  0.55716456486E+03  0.12509444204E+03 0.  0.
          5    1    3    3  502    0 -0.60409013453E+01 -0.84476047743E+01  0.31503232632E+03  0.31523117477E+03  0.41800000000E+01 0. -1.
         -5    1    3    3    0  502  0.34469279434E+02  0.93376590096E+02  0.22046989372E+03  0.24193339009E+03  0.41800000000E+01 0. -1.
        -11    1    1    2    0    0  0.21899021728E+02  0.20147598517E+01  0.37543922228E+02  0.43510602227E+02  0.00000000000E+00 0. -1.
         11    1    1    2    0    0 -0.50327399817E+02 -0.86943745174E+02  0.38629268544E+03  0.39914170519E+03  0.00000000000E+00 0.  1.
</event>
<event>
 7    1  0.2794945E-009  0.1019177E+03  0.7561462E-02  0.1276314E+00
          4   -1    0    0  501    0  0.00000000000E+00  0.00000000000E+00  0.13225134236E+03  0.13225134236E+03  0.00000000000E+00 0. -1.
         -4   -1    0    0    0  501 -0.00000000000E+00 -0.00000000000E+00 -0.10339356542E+03  0.10339356542E+03  0.00000000000E+00 0.  1.
         25    2    1    2    0    0 -0.41046021649E+02  0.14242258360E+02  0.79278566657E+01  0.13265695752E+03  0.12508956651E+03 0.  0.
          5    1    3    3  502    0 -0.71281784689E+02 -0.12334605745E+02  0.38388827270E+02  0.82002498660E+02  0.41800000000E+01 0. -1.
         -5    1    3    3    0  502  0.30235763040E+02  0.26576864105E+02 -0.30460970604E+02  0.50654458860E+02  0.41800000000E+01 0. -1.
        -11    1    1    2    0    0  0.20709151887E+02 -0.47556741293E+02 -0.10443031057E+02  0.52910958335E+02  0.00000000000E+00 0.  1.
         11    1    1    2    0    0  0.20336869762E+02  0.33314482933E+02  0.31372951334E+02  0.50076991925E+02  0.00000000000E+00 0. -1.
</event>
<event>
 7    1  0.2794945E-009  0.9141701E+02  0.7561462E-02  0.1299456E+00
          2   -1    0    0  501    0  0.00000000000E+00  0.00000000000E+00  0.15857266459E+02  0.15857266459E+02  0.00000000000E+00 0. -1.
         -2   -1    0    0    0  501 -0.00000000000E+00 -0.00000000000E+00 -0.91404681950E+03  0.91404681950E+03  0.00000000000E+00 0.  1.
         25    2    1    2    0    0  0.41123599576E+02  0.27982959658E+02 -0.51622714049E+03  0.53349063062E+03  0.12509035097E+03 0.  0.
          5    1    3    3  502    0  0.57986271744E+02  0.31467497657E+02 -0.12111696205E+03  0.13798333963E+03  0.41800000000E+01 0. -1.
         -5    1    3    3    0  502 -0.16862672168E+02 -0.34845379987E+01 -0.39511017844E+03  0.39550729099E+03  0.41800000000E+01 0. -1.
        -11    1    1    2    0    0  0.11352596001E+02 -0.42961639096E+02 -0.24467514063E+03  0.24867751871E+03  0.00000000000E+00 0. -1.
         11    1    1    2    0    0 -0.52476195578E+02  0.14978679438E+02 -0.13728727192E+03  0.14773593663E+03  0.00000000000E+00 0.  1.
</event>
<event>
 7    1  0.2794945E-009  0.2825174E+03  0.7561462E-02  0.1094322E+00
          2   -1    0    0  501    0  0.00000000000E+00  0.00000000000E+00  0.60535675148E+03  0.60535675148E+03  0.00000000000E+00 0. -1.
         -2   -1    0    0    0  501 -0.00000000000E+00 -0.00000000000E+00 -0.16456158204E+03  0.16456158204E+03  0.00000000000E+00 0.  1.
         25    2    1    2    0    0  0.20726228034E+03 -0.17384626539E+03  0.77679895875E+02  0.30799733779E+03  0.12509203421E+03 0.  0.
          5    1    3    3  502    0  0.19491535259E+02 -0.74830167860E+02 -0.10395916333E+02  0.78134636654E+02  0.41800000000E+01 0. -1.
         -5    1    3    3    0  502  0.18777074508E+03 -0.99016097531E+02  0.88075812208E+02  0.22986270114E+03  0.41800000000E+01 0. -1.
        -11    1    1    2    0    0 -0.10243019910E+03  0.53115860961E+02  0.93722709741E+02  0.14865122500E+03  0.00000000000E+00 0.  1.
         11    1    1    2    0    0 -0.10483208124E+03  0.12073040443E+03  0.26939256383E+03  0.31326977074E+03  0.00000000000E+00 0. -1.
</event>
<event>
 7    1  0.4128936E-009  0.7938113E+02  0.7561462E-02  0.1330817E+00
          1   -1    0    0  501    0  0.00000000000E+00  0.00000000000E+00  0.92096504482E+02  0.92096504482E+02  0.00000000000E+00 0. -1.
         -1   -1    0    0    0  501 -0.00000000000E+00 -0.00000000000E+00 -0.14289946007E+03  0.14289946007E+03  0.00000000000E+00 0.  1.
         25    2    1    2    0    0  0.17715418656E+02  0.23323570069E+02 -0.53266726001E+02  0.13907572748E+03  0.12508752494E+03 0.  0.
          5    1    3    3  502    0 -0.52747138880E+02  0.21051190541E+02 -0.31993897135E+02  0.65318413461E+02  0.41800000000E+01 0. -1.
         -5    1    3    3    0  502  0.70462557536E+02  0.22723795279E+01 -0.21272828866E+02  0.73757314019E+02  0.41800000000E+01 0. -1.
        -11    1    1    2    0    0 -0.67982807207E+01 -0.17597980667E+02 -0.43986796802E+02  0.47861715778E+02  0.00000000000E+00 0.  1.
         11    1    1    2    0    0 -0.10917137936E+02 -0.57255894024E+01  0.46450567213E+02  0.48058521295E+02  0.00000000000E+00 0. -1.
</event>
<event>
 7    1  0.2794945E-009  0.6865111E+02  0.7561462E-02  0.1364741E+00
         -1   -1    0    0    0  501 -0.00000000000E+00  0.00000000000E+00  0.16465299124E+03  0.16465299124E+03  0.00000000000E+00 0.  1.
          1   -1    0    0  501    0  0.00000000000E+00 -0.00000000000E+00 -0.97565786006E+02  0.97565786006E+02  0.00000000000E+00 0. -1.
         25    2    1    2    0    0 -0.37348570519E+01  0.53921820719E+02 -0.30510567639E+00  0.13626765017E+03  0.12508903824E+03 0.  0.
          5    1    3    3  502    0 -0.10201103744E+02  0.26375092402E+02  0.61690565396E+02  0.67991957434E+02  0.41800000000E+01 0.  1.
         -5    1    3    3    0  502  0.64662466916E+01  0.27546728316E+02 -0.61995671072E+02  0.68275692738E+02  0.41800000000E+01 0.  1.
        -11    1    1    2    0    0  0.48559978352E+01  0.12640691385E+02 -0.14879497802E+02  0.20118828209E+02  0.00000000000E+00 0. -1.
         11    1    1    2    0    0 -0.11211407833E+01 -0.66562512104E+02  0.82271808713E+02  0.10583229887E+03  0.00000000000E+00 0.  1.
</event>
<event>
 7    1  0.2794945E-009  0.9648220E+02  0.7561462E-02  0.1287872E+00
          2   -1    0    0  501    0  0.00000000000E+00  0.00000000000E+00  0.34993565811E+03  0.34993565811E+03  0.00000000000E+00 0.  1.
         -2   -1    0    0    0  501 -0.00000000000E+00 -0.00000000000E+00 -0.40593559776E+02  0.40593559776E+02  0.00000000000E+00 0. -1.
         25    2    1    2    0    0  0.45725772316E+02  0.13910738408E+02  0.19080913556E+03  0.23311090821E+03  0.12509282320E+03 0.  0.
          5    1    3    3  502    0 -0.84212093672E+01 -0.42417674718E+02  0.11985000886E+03  0.12748204940E+03  0.41800000000E+01 0. -1.
         -5    1    3    3    0  502  0.54146981683E+02  0.56328413125E+02  0.70959126695E+02  0.10562885880E+03  0.41800000000E+01 0. -1.
        -11    1    1    2    0    0 -0.34174333964E+02 -0.33931406807E+02  0.13702396396E+02  0.50069762700E+02  0.00000000000E+00 0. -1.
         11    1    1    2    0    0 -0.11551438351E+02  0.20020668400E+02  0.10483056638E+03  0.10734854698E+03  0.00000000000E+00 0.  1.
</event>
<event>
 7    1  0.2794945E-009  0.1132127E+03  0.7561462E-02  0.1254734E+00
         -1   -1    0    0    0  501 -0.00000000000E+00  0.00000000000E+00  0.14207416555E+03  0.14207416555E+03  0.00000000000E+00 0.  1.
          1   -1    0    0  501    0  0.00000000000E+00 -0.00000000000E+00 -0.17864741063E+03  0.17864741063E+03  0.00000000000E+00 0. -1.
         25    2    1    2    0    0 -0.96641965239E+02 -0.35180455928E+02  0.33405987479E+02  0.16535237837E+03  0.12509242626E+03 0.  0.
          5    1    3    3  502    0 -0.48823270597E+02  0.13050307006E+02 -0.40495203148E+02  0.64894962384E+02  0.41800000000E+01 0.  1.
         -5    1    3    3    0  502 -0.47818694642E+02 -0.48230762935E+02  0.73901190627E+02  0.10045741599E+03  0.41800000000E+01 0.  1.
        -11    1    1    2    0    0  0.57525395414E+02  0.37191317169E+02 -0.88606170779E+02  0.11199740484E+03  0.00000000000E+00 0.  1.
         11    1    1    2    0    0  0.39116569825E+02 -0.20108612408E+01  0.18626938223E+02  0.43371792969E+02  0.00000000000E+00 0. -1.
</event>
<event>
 7    1  0.2794945E-009  0.1130224E+03  0.7561462E-02  0.1255073E+00
          1   -1    0    0  501    0  0.00000000000E+00  0.00000000000E+00  0.33680770459E+03  0.33680770459E+03  0.00000000000E+00 0. -1.
         -1   -1    0    0    0  501 -0.00000000000E+00 -0.00000000000E+00 -0.67068778320E+02  0.67068778320E+02  0.00000000000E+00 0.  1.
         25    2    1    2    0    0  0.35881555099E+02 -0.33857226541E+02  0.26844772825E+03  0.30024976093E+03  0.12510770700E+03 0.  0.
          5    1    3    3  502    0  0.68501662824E+02  0.11198022794E+02  0.92829580319E+02  0.11598567544E+03  0.41800000000E+01 0. -1.
         -5    1    3    3    0  502 -0.32620107726E+02 -0.45055249335E+02  0.17561814793E+03  0.18426408550E+03  0.41800000000E+01 0. -1.
        -11    1    1    2    0    0 -0.37310391661E+02 -0.23014411485E+02  0.12624689455E+02  0.45619198215E+02  0.00000000000E+00 0. -1.
         11    1    1    2    0    0  0.14288365627E+01  0.56871638026E+02 -0.11333491431E+02  0.58007523768E+02  0.00000000000E+00 0.  1.
</event>
<event>
 7    1  0.2794945E-009  0.7205787E+02  0.7561462E-02  0.1353232E+00
          1   -1    0    0  501    0  0.00000000000E+00  0.00000000000E+00  0.18285601001E+03  0.18285601001E+03  0.00000000000E+00 0. -1.
         -1   -1    0    0    0  501 -0.00000000000E+00 -0.00000000000E+00 -0.65998619182E+02  0.65998619182E+02  0.00000000000E+00 0.  1.
         25    2    1    2    0    0  0.85194566144E+01  0.72958855080E+01  0.44916613896E+02  0.13338095930E+03  0.12508863663E+03 0.  0.
          5    1    3    3  502    0 -0.15823171520E+02 -0.48487816361E+02  0.50778717644E+02  0.72092937643E+02  0.41800000000E+01 0.  1.
         -5    1    3    3    0  502  0.24342628134E+02  0.55783701869E+02 -0.58621037488E+01  0.61288021661E+02  0.41800000000E+01 0.  1.
        -11    1    1    2    0    0  0.10050051819E+02 -0.87249801074E+01 -0.18692594526E+02  0.22946501031E+02  0.00000000000E+00 0.  1.
         11    1    1    2    0    0 -0.18569508433E+02  0.14290945994E+01  0.90633371461E+02  0.92527168860E+02  0.00000000000E+00 0. -1.
</event>
<event>
 7    1  0.2794945E-009  0.1829162E+03  0.7561462E-02  0.1165010E+00
          1   -1    0    0  501    0  0.00000000000E+00  0.00000000000E+00  0.43291143697E+02  0.43291143697E+02  0.00000000000E+00 0. -1.
         -1   -1    0    0    0  501 -0.00000000000E+00 -0.00000000000E+00 -0.12156858985E+04  0.12156858985E+04  0.00000000000E+00 0.  1.
         25    2    1    2    0    0  0.15843099577E+03 -0.54757167821E+02 -0.29554498256E+03  0.36206659722E+03  0.12508659502E+03 0.  0.
          5    1    3    3  502    0  0.15289846422E+03 -0.64548582603E+02 -0.30468774196E+03  0.34698206348E+03  0.41800000000E+01 0.  1.
         -5    1    3    3    0  502  0.55325315584E+01  0.97914147816E+01  0.91427593940E+01  0.15084533742E+02  0.41800000000E+01 0.  1.
        -11    1    1    2    0    0 -0.39103653884E+02 -0.23022978014E+02 -0.24957594343E+03  0.25366770548E+03  0.00000000000E+00 0. -1.
         11    1    1    2    0    0 -0.11932734189E+03  0.77780145835E+02 -0.62727382879E+03  0.64324273948E+03  0.00000000000E+00 0.  1.
</event>
<event>
 7    1  0.2794945E-009  0.3403967E+03  0.7561462E-02  0.1066627E+00
          1   -1    0    0  501    0  0.00000000000E+00  0.00000000000E+00  0.11601973683E+04  0.11601973683E+04  0.00000000000E+00 0. -1.
         -1   -1    0    0    0  501 -0.00000000000E+00 -0.00000000000E+00 -0.13082270082E+03  0.13082270082E+03  0.00000000000E+00 0.  1.
         25    2    1    2    0    0  0.32239767497E+03  0.66630374032E+02  0.22718566179E+03  0.41909408531E+03  0.12508660939E+03 0.  0.
          5    1    3    3  502    0  0.18607162625E+03 -0.15130421102E+02  0.82656456922E+02  0.20420857477E+03  0.41800000000E+01 0.  1.
         -5    1    3    3    0  502  0.13632604872E+03  0.81760795134E+02  0.14452920487E+03  0.21488551054E+03  0.41800000000E+01 0.  1.
        -11    1    1    2    0    0 -0.66808401460E+02 -0.40486815802E+02  0.12238608179E+03  0.14519262301E+03  0.00000000000E+00 0.  1.
         11    1    1    2    0    0 -0.25558927351E+03 -0.26143558230E+02  0.67980292393E+03  0.72673336084E+03  0.00000000000E+00 0. -1.
</event>
<event>
 7    1  0.2794945E-009  0.1038881E+03  0.7561462E-02  0.1272326E+00
         -2   -1    0    0    0  501 -0.00000000000E+00  0.00000000000E+00  0.23624757651E+02  0.23624757651E+02  0.00000000000E+00 0.  1.
          2   -1    0    0  501    0  0.00000000000E+00 -0.00000000000E+00 -0.52948492359E+03  0.52948492359E+03  0.00000000000E+00 0. -1.
         25    2    1    2    0    0  0.26124428563E+02  0.13834100852E+01 -0.30265302940E+03  0.32852785774E+03  0.12508915826E+03 0.  0.
          5    1    3    3  502    0 -0.96432074900E+01 -0.49232942259E+02 -0.61368926907E+02  0.79375636337E+02  0.41800000000E+01 0.  1.
         -5    1    3    3    0  502  0.35767636053E+02  0.50616352344E+02 -0.24128410249E+03  0.24915222140E+03  0.41800000000E+01 0.  1.
        -11    1    1    2    0    0  0.31483719306E+02 -0.16791323124E+02 -0.67505500097E+02  0.76355521457E+02  0.00000000000E+00 0. -1.
         11    1    1    2    0    0 -0.57608147869E+02  0.15407913039E+02 -0.13570163645E+03  0.14822630205E+03  0.00000000000E+00 0.  1.
</event>
<event>
 7    1  0.2794945E-009  0.1635329E+03  0.7561462E-02  0.1184765E+00
         -1   -1    0    0    0  501 -0.00000000000E+00  0.00000000000E+00  0.24279609006E+02  0.24279609006E+02  0.00000000000E+00 0. -1.
          1   -1    0    0  501    0  0.00000000000E+00 -0.00000000000E+00 -0.13492167582E+04  0.13492167582E+04  0.00000000000E+00 0.  1.
         25    2    1    2    0    0  0.59153504465E+02  0.12619332469E+03 -0.85171336091E+03  0.87205877519E+03  0.12508783297E+03 0.  0.
          5    1    3    3  502    0  0.35068213550E+02 -0.65658698812E+01 -0.37150158406E+03  0.37323422888E+03  0.41800000000E+01 0.  1.
         -5    1    3    3    0  502  0.24085290915E+02  0.13275919457E+03 -0.48021177685E+03  0.49882454631E+03  0.41800000000E+01 0.  1.
        -11    1    1    2    0    0  0.64496115903E+01 -0.68461865337E+02 -0.12773857341E+03  0.14507159484E+03  0.00000000000E+00 0. -1.
         11    1    1    2    0    0 -0.65603116055E+02 -0.57731459353E+02 -0.34548521484E+03  0.35636599713E+03  0.00000000000E+00 0.  1.
</event>
<event>
 7    1  0.2794945E-009  0.8929194E+02  0.7561462E-02  0.1304575E+00
          2   -1    0    0  501    0  0.00000000000E+00  0.00000000000E+00  0.11508345908E+03  0.11508345908E+03  0.00000000000E+00 0. -1.
         -2   -1    0    0    0  501 -0.00000000000E+00 -0.00000000000E+00 -0.12620136208E+03  0.12620136208E+03  0.00000000000E+00 0.  1.
         25    2    1    2    0    0  0.36548202765E+01  0.15695136535E+02 -0.57207114464E+02  0.13849028826E+03  0.12508881234E+03 0.  0.
          5    1    3    3  502    0  0.29982491548E+01  0.69344764405E+02 -0.46413133566E+02  0.83602256045E+02  0.41800000000E+01 0. -1.
         -5    1    3    3    0  502  0.65657112171E+00 -0.53649627870E+02 -0.10793980898E+02  0.54888032210E+02  0.41800000000E+01 0. -1.
        -11    1    1    2    0    0  0.23782044079E+02 -0.32635635185E+00 -0.19042423256E+02  0.30468114685E+02  0.00000000000E+00 0.  1.
         11    1    1    2    0    0 -0.27436864355E+02 -0.15368780183E+02  0.65131634728E+02  0.72326418218E+02  0.00000000000E+00 0. -1.
</event>
<event>
 7    1  0.2794945E-009  0.1333202E+03  0.7561462E-02  0.1222611E+00
         -1   -1    0    0    0  501 -0.00000000000E+00  0.00000000000E+00  0.10649079125E+03  0.10649079125E+03  0.00000000000E+00 0.  1.
          1   -1    0    0  501    0  0.00000000000E+00 -0.00000000000E+00 -0.60058328723E+03  0.60058328723E+03  0.00000000000E+00 0. -1.
         25    2    1    2    0    0  0.90652119339E+02  0.15955808139E+02  0.37749797186E+02  0.15982625847E+03  0.12508793369E+03 0.  0.
          5    1    3    3  502    0  0.17197271643E+02  0.59102204127E+02  0.41662086926E+02  0.74444735016E+02  0.41800000000E+01 0. -1.
         -5    1    3    3    0  502  0.73454847696E+02 -0.43146395988E+02 -0.39122897406E+01  0.85381523457E+02  0.41800000000E+01 0. -1.
        -11    1    1    2    0    0 -0.92103161821E+02  0.10911319651E+02 -0.47958072408E+03  0.48846670329E+03  0.00000000000E+00 0.  1.
         11    1    1    2    0    0  0.14510424821E+01 -0.26867127790E+02 -0.52261569078E+02  0.58781116717E+02  0.00000000000E+00 0. -1.
</event>
<event>
 6    1  0.2794945E-009  0.9793211E+02  0.7561462E-02  0.1284706E+00
         -2   -1    0    0    0  501 -0.00000000000E+00  0.00000000000E+00  0.12188059655E+03  0.12188059655E+03  0.00000000000E+00 0.  1.
          2   -1    0    0  501    0  0.00000000000E+00 -0.00000000000E+00 -0.12107523643E+03  0.12107523643E+03  0.00000000000E+00 0. -1.
          5    1    1    2  502    0  0.20415940082E+02  0.86510466460E+02  0.22527416833E+02  0.91792310821E+02  0.41800000000E+01 0. -1.
         -5    1    1    2    0  502  0.11669340523E+02 -0.41821057332E+02 -0.11802102990E+02  0.45187790160E+02  0.41800000000E+01 0. -1.
        -11    1    1    2    0    0 -0.32541693522E+02 -0.19235238111E+02  0.36808718108E+02  0.52762088010E+02  0.00000000000E+00 0.  1.
         11    1    1    2    0    0  0.45641291734E+00 -0.25454171018E+02 -0.46728671836E+02  0.53213643988E+02  0.00000000000E+00 0. -1.
</event>
<event>
 7    1  0.2794945E-009  0.2132787E+03  0.7561462E-02  0.1138996E+00
         -1   -1    0    0    0  501 -0.00000000000E+00  0.00000000000E+00  0.40649036215E+03  0.40649036215E+03  0.00000000000E+00 0.  1.
          1   -1    0    0  501    0  0.00000000000E+00 -0.00000000000E+00 -0.12339625705E+03  0.12339625705E+03  0.00000000000E+00 0. -1.
         25    2    1    2    0    0 -0.10988156006E+03 -0.16170697642E+03  0.13519601146E+03  0.26860593916E+03  0.12509230820E+03 0.  0.
          5    1    3    3  502    0  0.53109935788E+01 -0.99361686702E+02  0.73404612087E+02  0.12372009098E+03  0.41800000000E+01 0. -1.
         -5    1    3    3    0  502 -0.11519255364E+03 -0.62345289721E+02  0.61791399370E+02  0.14488584817E+03  0.41800000000E+01 0. -1.
        -11    1    1    2    0    0  0.85163286934E+02  0.11534741316E+03  0.53098319995E+02  0.15289618291E+03  0.00000000000E+00 0. -1.
         11    1    1    2    0    0  0.24718273130E+02  0.46359563267E+02  0.94799773649E+02  0.10838449712E+03  0.00000000000E+00 0.  1.
</event>
<event>
 7    1  0.2794945E-009  0.1617405E+03  0.7561462E-02  0.1186746E+00
          1   -1    0    0  501    0  0.00000000000E+00  0.00000000000E+00  0.18755068971E+03  0.18755068971E+03  0.00000000000E+00 0. -1.
         -1   -1    0    0    0  501 -0.00000000000E+00 -0.00000000000E+00 -0.16340476263E+03  0.16340476263E+03  0.00000000000E+00 0.  1.
         25    2    1    2    0    0 -0.71904053020E+02  0.11665356849E+03  0.14898818255E+02  0.18613816016E+03  0.12508873651E+03 0.  0.
          5    1    3    3  502    0  0.66772249289E+01  0.10562128999E+03  0.12386777942E+02  0.10663651767E+03  0.41800000000E+01 0. -1.
         -5    1    3    3    0  502 -0.78581277949E+02  0.11032278498E+02  0.25120403132E+01  0.79501642496E+02  0.41800000000E+01 0. -1.
        -11    1    1    2    0    0  0.33208031772E+02 -0.38127139960E+02 -0.39912095288E+02  0.64416050220E+02  0.00000000000E+00 0.  1.
         11    1    1    2    0    0  0.38696021249E+02 -0.78526428528E+02  0.49159204107E+02  0.10040124196E+03  0.00000000000E+00 0. -1.
</event>
<event>
 7    1  0.2794945E-009  0.1444350E+03  0.7561462E-02  0.1207483E+00
          1   -1    0    0  501    0  0.00000000000E+00  0.00000000000E+00  0.15853654764E+04  0.15853654764E+04  0.00000000000E+00 0. -1.
         -1   -1    0    0    0  501 -0.00000000000E+00 -0.00000000000E+00 -0.15794736010E+02  0.15794736010E+02  0.00000000000E+00 0.  1.
         25    2    1    2    0    0  0.52659701628E+02  0.91812661592E+02  0.10682549945E+04  0.10807493915E+04  0.12509158582E+03 0.  0.
          5    1    3    3  502    0  0.85254399604E+02  0.88522220871E+02  0.95149466652E+03  0.95940818688E+03  0.41800000000E+01 0.  1.
         -5    1    3    3    0  502 -0.32594697975E+02  0.32904407208E+01  0.11676032799E+03  0.12134120457E+03  0.41800000000E+01 0.  1.
        -11    1    1    2    0    0 -0.61628304061E+02 -0.26730768382E+02  0.17295703244E+03  0.18554437989E+03  0.00000000000E+00 0.  1.
         11    1    1    2    0    0  0.89686024322E+01 -0.65081893211E+02  0.32835871346E+03  0.33486644108E+03  0.00000000000E+00 0. -1.
</event>
<event>
 7    1  0.2794945E-009  0.1888061E+03  0.7561462E-02  0.1159543E+00
         -2   -1    0    0    0  501 -0.00000000000E+00  0.00000000000E+00  0.18433328615E+03  0.18433328615E+03  0.00000000000E+00 0.  1.
          2   -1    0    0  501    0  0.00000000000E+00 -0.00000000000E+00 -0.42550163077E+03  0.42550163077E+03  0.00000000000E+00 0. -1.
         25    2    1    2    0    0 -0.19205290636E+02 -0.16116013863E+03 -0.34113475227E+03  0.39794625931E+03  0.12508745990E+03 0.  0.
          5    1    3    3  502    0 -0.49949832527E+02 -0.14575365546E+02 -0.61226509415E+02  0.80458591247E+02  0.41800000000E+01 0.  1.
         -5    1    3    3    0  502  0.30744541890E+02 -0.14658477308E+03 -0.27990824285E+03  0.31748766806E+03  0.41800000000E+01 0.  1.
        -11    1    1    2    0    0  0.24820242398E+02  0.14366884186E+02  0.48289898645E+02  0.56163743688E+02  0.00000000000E+00 0.  1.
         11    1    1    2    0    0 -0.56149517618E+01  0.14679325444E+03  0.51676509005E+02  0.15572491392E+03  0.00000000000E+00 0. -1.
</event>
<event>
 7    1  0.2794945E-009  0.1039711E+03  0.7561462E-02  0.1272160E+00
         -1   -1    0    0    0  501 -0.00000000000E+00  0.00000000000E+00  0.26800933595E+03  0.26800933595E+03  0.00000000000E+00 0.  1.
          1   -1    0    0  501    0  0.00000000000E+00 -0.00000000000E+00 -0.58536030953E+02  0.58536030953E+02  0.00000000000E+00 0. -1.
         25    2    1    2    0    0  0.27095643014E+02  0.47141136459E+02  0.11803791079E+03  0.18038174031E+03  0.12509261864E+03 0.  0.
          5    1    3    3  502    0  0.52144817680E+02  0.95505968409E+01 -0.79645415413E+00  0.53182728871E+02  0.41800000000E+01 0.  1.
         -5    1    3    3    0  502 -0.25049174666E+02  0.37590539618E+02  0.11883436494E+03  0.12719901144E+03  0.41800000000E+01 0.  1.
        -11    1    1    2    0    0 -0.37664316206E+02 -0.72625721214E+02  0.48436002803E+02  0.95074404887E+02  0.00000000000E+00 0. -1.
         11    1    1    2    0    0  0.10568673192E+02  0.25484584755E+02  0.42999391410E+02  0.51089221709E+02  0.00000000000E+00 0.  1.
</event>
<event>
 7    1  0.2794945E-009  0.1105638E+03  0.7561462E-02  0.1259529E+00
         -3   -1    0    0    0  501 -0.00000000000E+00  0.00000000000E+00  0.13336702552E+03  0.13336702552E+03  0.00000000000E+00 0.  1.
          3   -1    0    0  501    0  0.00000000000E+00 -0.00000000000E+00 -0.13374510125E+03  0.13374510125E+03  0.00000000000E+00 0. -1.
         25    2    1    2    0    0  0.60837893714E+02 -0.25571107936E+02  0.41081291303E+02  0.14727604016E+03  0.12508968238E+03 0.  0.
          5    1    3    3  502    0  0.91482038228E+01  0.41904675232E+02  0.44709014616E+02  0.62097180511E+02  0.41800000000E+01 0.  1.
         -5    1    3    3    0  502  0.51689689892E+02 -0.67475783167E+02 -0.36277233129E+01  0.85178859652E+02  0.41800000000E+01 0.  1.
        -11    1    1    2    0    0 -0.53922123981E+02  0.46304241172E+02 -0.58554349343E+02  0.92088490226E+02  0.00000000000E+00 0.  1.
         11    1    1    2    0    0 -0.69157697332E+01 -0.20733133237E+02  0.17094982314E+02  0.27747596385E+02  0.00000000000E+00 0. -1.
</event>
<event>
 7    1  0.2794945E-009  0.7884750E+02  0.7561462E-02  0.1332354E+00
          1   -1    0    0  501    0  0.00000000000E+00  0.00000000000E+00  0.41081495361E+03  0.41081495361E+03  0.00000000000E+00 0. -1.
         -1   -1    0    0    0  501 -0.00000000000E+00 -0.00000000000E+00 -0.41587695481E+02  0.41587695481E+02  0.00000000000E+00 0.  1.
         25    2    1    2    0    0  0.13294779309E+02  0.57902707144E+02  0.27355397846E+03  0.30660707698E+03  0.12508655352E+03 0.  0.
          5    1    3    3  502    0  0.39919674075E+02  0.85362743504E+01  0.23466903215E+03  0.23822987934E+03  0.41800000000E+01 0.  1.
         -5    1    3    3    0  502 -0.26624894766E+02  0.49366432793E+02  0.38884946305E+02  0.68377197640E+02  0.41800000000E+01 0.  1.
        -11    1    1    2    0    0 -0.11152027252E+02 -0.24216221785E+02 -0.14652342551E+02  0.30421772657E+02  0.00000000000E+00 0.  1.
         11    1    1    2    0    0 -0.21427520569E+01 -0.33686485359E+02  0.11032562223E+03  0.11537379946E+03  0.00000000000E+00 0. -1.
</event>
<event>
 7    1  0.2794945E-009  0.1341209E+03  0.7561462E-02  0.1221466E+00
         -2   -1    0    0    0  501 -0.00000000000E+00  0.00000000000E+00  0.25167797510E+02  0.25167797510E+02  0.00000000000E+00 0.  1.
          2   -1    0    0  501    0  0.00000000000E+00 -0.00000000000E+00 -0.77880965988E+03  0.77880965988E+03  0.00000000000E+00 0. -1.
         25    2    1    2    0    0  0.82767306224E+02  0.15515801189E+02 -0.43583733436E+03  0.46118640825E+03  0.12509018374E+03 0.  0.
          5    1    3    3  502    0  0.51980074400E+02  0.65217373741E+02 -0.32785351271E+03  0.33832031002E+03  0.41800000000E+01 0.  1.
         -5    1    3    3    0  502  0.30787231824E+02 -0.49701572552E+02 -0.10798382164E+03  0.12286609823E+03  0.41800000000E+01 0.  1.
        -11    1    1    2    0    0  0.11939485970E+01  0.30403908544E+02 -0.10775894637E+03  0.11197237914E+03  0.00000000000E+00 0.  1.
         11    1    1    2    0    0 -0.83961254821E+02 -0.45919709733E+02 -0.21004558165E+03  0.23081867001E+03  0.00000000000E+00 0. -1.
</event>
<event>
 7    1  0.2794945E-009  0.1141105E+03  0.7561462E-02  0.1253142E+00
         -1   -1    0    0    0  501 -0.00000000000E+00  0.00000000000E+00  0.24349515238E+02  0.24349515238E+02  0.00000000000E+00 0.  1.
          1   -1    0    0  501    0  0.00000000000E+00 -0.00000000000E+00 -0.65809485625E+03  0.65809485625E+03  0.00000000000E+00 0. -1.
         25    2    1    2    0    0  0.34869657613E+02 -0.55249001325E+02 -0.39816473083E+03  0.42244784803E+03  0.12513467246E+03 0.  0.
          5    1    3    3  502    0  0.72055326068E+02  0.26032992632E+01 -0.20881304480E+03  0.22095046336E+03  0.41800000000E+01 0.  1.
         -5    1    3    3    0  502 -0.37185668455E+02 -0.57852300588E+02 -0.18935168604E+03  0.20149738467E+03  0.41800000000E+01 0.  1.
        -11    1    1    2    0    0 -0.19220369981E+02  0.65585098518E+02 -0.23070985189E+03  0.24061974884E+03  0.00000000000E+00 0. -1.
         11    1    1    2    0    0 -0.15649287632E+02 -0.10336097193E+02 -0.48707582820E+01  0.19376774623E+02  0.00000000000E+00 0.  1.
</event>
<event>
 7    1  0.2794945E-009  0.1022522E+03  0.7561462E-02  0.1275630E+00
         -1   -1    0    0    0  501 -0.00000000000E+00  0.00000000000E+00  0.17498923243E+03  0.17498923243E+03  0.00000000000E+00 0.  1.
          1   -1    0    0  501    0  0.00000000000E+00 -0.00000000000E+00 -0.11057402724E+03  0.11057402724E+03  0.00000000000E+00 0. -1.
         25    2    1    2    0    0  0.10158646981E+02 -0.30897993587E+02  0.11795965409E+03  0.17498396430E+03  0.12508806358E+03 0.  0.
          5    1    3    3  502    0 -0.21032231515E+01  0.47378723469E+02  0.28838600019E+02  0.55662413137E+02  0.41800000000E+01 0. -1.
         -5    1    3    3    0  502  0.12261870133E+02 -0.78276717056E+02  0.89121054074E+02  0.11932155116E+03  0.41800000000E+01 0. -1.
        -11    1    1    2    0    0 -0.54039477710E+00 -0.22898124991E+02 -0.50958048203E+02  0.55868943352E+02  0.00000000000E+00 0. -1.
         11    1    1    2    0    0 -0.96182522043E+01  0.53796118578E+02 -0.25864006934E+01  0.54710352019E+02  0.00000000000E+00 0.  1.
</event>
<event>
 7    1  0.2794945E-009  0.1130627E+03  0.7561462E-02  0.1255001E+00
         -2   -1    0    0    0  501 -0.00000000000E+00  0.00000000000E+00  0.53066151302E+02  0.53066151302E+02  0.00000000000E+00 0.  1.
          2   -1    0    0  501    0  0.00000000000E+00 -0.00000000000E+00 -0.32303219411E+03  0.32303219411E+03  0.00000000000E+00 0. -1.
         25    2    1    2    0    0 -0.61747648628E+01 -0.64858118731E+02 -0.10574418890E+03  0.17628765102E+03  0.12510315396E+03 0.  0.
          5    1    3    3  502    0  0.29899316804E+02  0.18260382329E+02  0.21295325909E+01  0.35347107621E+02  0.41800000000E+01 0. -1.
         -5    1    3    3    0  502 -0.36074081667E+02 -0.83118501060E+02 -0.10787372149E+03  0.14094054340E+03  0.41800000000E+01 0. -1.
        -11    1    1    2    0    0  0.28260953427E+02 -0.33343034461E+01 -0.10741062128E+02  0.30416598819E+02  0.00000000000E+00 0.  1.
         11    1    1    2    0    0 -0.22086188564E+02  0.68192422177E+02 -0.15348079178E+03  0.16939409557E+03  0.00000000000E+00 0. -1.
</event>
<event>
 7    1  0.2794945E-009  0.1272149E+03  0.7561462E-02  0.1231648E+00
          3   -1    0    0  501    0  0.00000000000E+00  0.00000000000E+00  0.10815441151E+03  0.10815441151E+03  0.00000000000E+00 0.  1.
         -3   -1    0    0    0  501 -0.00000000000E+00 -0.00000000000E+00 -0.20586333193E+03  0.20586333193E+03  0.00000000000E+00 0. -1.
         25    2    1    2    0    0 -0.42827163895E+02 -0.55015691664E+02  0.26170922964E+02  0.14557925949E+03  0.12509001275E+03 0.  0.
          5    1    3    3  502    0  0.37996869834E+02  0.77073828957E+01  0.17738557195E+02  0.42840339397E+02  0.41800000000E+01 0. -1.
         -5    1    3    3    0  502 -0.80824033729E+02 -0.62723074560E+02  0.84323657687E+01  0.10273892010E+03  0.41800000000E+01 0. -1.
        -11    1    1    2    0    0  0.51124231569E+02 -0.59907285093E+01 -0.44966528802E+02  0.68348844863E+02  0.00000000000E+00 0. -1.
         11    1    1    2    0    0 -0.82970676739E+01  0.61006420173E+02 -0.78913314580E+02  0.10008963909E+03  0.00000000000E+00 0.  1.
</event>
<event>
 7    1  0.2794945E-009  0.1044357E+03  0.7561462E-02  0.1271235E+00
         -1   -1    0    0    0  501 -0.00000000000E+00  0.00000000000E+00  0.63033821872E+03  0.63033821872E+03  0.00000000000E+00 0.  1.
          1   -1    0    0  501    0  0.00000000000E+00 -0.00000000000E+00 -0.22823878892E+02  0.22823878892E+02  0.00000000000E+00 0. -1.
         25    2    1    2    0    0  0.26994826390E+02  0.45925034058E+02  0.33254051916E+03  0.35925652353E+03  0.12507687002E+03 0.  0.
          5    1    3    3  502    0  0.65597926299E+02 -0.94420590829E+01  0.13473616926E+03  0.15021167771E+03  0.41800000000E+01 0. -1.
         -5    1    3    3    0  502 -0.38603099909E+02  0.55367093141E+02  0.19780434990E+03  0.20904484582E+03  0.41800000000E+01 0. -1.
        -11    1    1    2    0    0 -0.40845356548E+02 -0.45271934420E+02  0.27320589144E+03  0.27992740186E+03  0.00000000000E+00 0.  1.
         11    1    1    2    0    0  0.13850530158E+02 -0.65309963747E+00  0.17679292357E+01  0.13978172219E+02  0.00000000000E+00 0. -1.
</event>
<event>
 7    1  0.2794945E-009  0.1018716E+03  0.7561462E-02  0.1276409E+00
         -2   -1    0    0    0  501 -0.00000000000E+00  0.00000000000E+00  0.45184474069E+02  0.45184474069E+02  0.00000000000E+00 0. -1.
          2   -1    0    0  501    0  0.00000000000E+00 -0.00000000000E+00 -0.30681244680E+03  0.30681244680E+03  0.00000000000E+00 0.  1.
         25    2    1    2    0    0 -0.12668629324E+02 -0.28293019172E+02 -0.82052639555E+02  0.15277757437E+03  0.12508941789E+03 0.  0.
          5    1    3    3  502    0 -0.42100462969E+02 -0.64676181943E+02 -0.69998894436E+02  0.10427260002E+03  0.41800000000E+01 0.  1.
         -5    1    3    3    0  502  0.29431833645E+02  0.36383162771E+02 -0.12053745118E+02  0.48504974346E+02  0.41800000000E+01 0.  1.
        -11    1    1    2    0    0  0.31036237467E+02  0.44987309382E+02 -0.15473486175E+03  0.16410357547E+03  0.00000000000E+00 0.  1.
         11    1    1    2    0    0 -0.18367608143E+02 -0.16694290209E+02 -0.24840471428E+02  0.35115771033E+02  0.00000000000E+00 0. -1.
</event>
<event>
 7    1  0.2794945E-009  0.9454566E+02  0.7561462E-02  0.1292203E+00
         -4   -1    0    0    0  501 -0.00000000000E+00  0.00000000000E+00  0.50370281800E+02  0.50370281800E+02  0.00000000000E+00 0.  1.
          4   -1    0    0  501    0  0.00000000000E+00 -0.00000000000E+00 -0.33244705437E+03  0.33244705437E+03  0.00000000000E+00 0. -1.
         25    2    1    2    0    0  0.46540360642E+02  0.25362639165E+02 -0.22382630284E+03  0.26182966572E+03  0.12508913372E+03 0.  0.
          5    1    3    3  502    0  0.68680374905E+02 -0.18442250159E+02 -0.68299991281E+02  0.98688761756E+02  0.41800000000E+01 0. -1.
         -5    1    3    3    0  502 -0.22140014262E+02  0.43804889324E+02 -0.15552631156E+03  0.16314090397E+03  0.41800000000E+01 0. -1.
        -11    1    1    2    0    0 -0.20731528384E+02  0.11414423873E+02 -0.70543046798E+02  0.74407034567E+02  0.00000000000E+00 0. -1.
         11    1    1    2    0    0 -0.25808832259E+02 -0.36777063039E+02  0.12292577066E+02  0.46580635883E+02  0.00000000000E+00 0.  1.
</event>
<event>
 7    1  0.2794945E-009  0.1028077E+03  0.7561462E-02  0.1274500E+00
          2   -1    0    0  501    0  0.00000000000E+00  0.00000000000E+00  0.18972450530E+03  0.18972450530E+03  0.00000000000E+00 0. -1.
         -2   -1    0    0    0  501 -0.00000000000E+00 -0.00000000000E+00 -0.57165597826E+02  0.57165597826E+02  0.00000000000E+00 0.  1.
         25    2    1    2    0    0 -0.55525419036E+01 -0.52952070610E+01  0.62279900225E+02  0.13995003895E+03  0.12509339507E+03 0.  0.
          5    1    3    3  502    0 -0.52418842100E+02  0.35095122396E+02  0.28686013667E+02  0.69424508664E+02  0.41800000000E+01 0. -1.
         -5    1    3    3    0  502  0.46866300197E+02 -0.40390329457E+02  0.33593886558E+02  0.70525530284E+02  0.41800000000E+01 0. -1.
        -11    1    1    2    0    0 -0.11852852984E+02 -0.34752166904E+02  0.28184684583E+02  0.46288007879E+02  0.00000000000E+00 0.  1.
         11    1    1    2    0    0  0.17405394887E+02  0.40047373965E+02  0.42094322667E+02  0.60652056300E+02  0.00000000000E+00 0. -1.
</event>
<event>
 7    1  0.2794945E-009  0.1128917E+03  0.7561462E-02  0.1255307E+00
          3   -1    0    0  501    0  0.00000000000E+00  0.00000000000E+00  0.21179069273E+02  0.21179069273E+02  0.00000000000E+00 0. -1.
         -3   -1    0    0    0  501 -0.00000000000E+00 -0.00000000000E+00 -0.70965102803E+03  0.70965102803E+03  0.00000000000E+00 0.  1.
         25    2    1    2    0    0 -0.44085667167E+02 -0.32149720913E+02 -0.33367486841E+03  0.36050108833E+03  0.12507983961E+03 0.  0.
          5    1    3    3  502    0 -0.33104143610E+02  0.38187278255E+02 -0.22408997359E+03  0.22975626479E+03  0.41800000000E+01 0. -1.
         -5    1    3    3    0  502 -0.10981523557E+02 -0.70336999167E+02 -0.10958489482E+03  0.13074482354E+03  0.41800000000E+01 0. -1.
        -11    1    1    2    0    0  0.58013034941E+01 -0.30114389528E+02 -0.14369268162E+03  0.14692895674E+03  0.00000000000E+00 0.  1.
         11    1    1    2    0    0  0.38284363673E+02  0.62264110440E+02 -0.21110440873E+03  0.22340005223E+03  0.00000000000E+00 0. -1.
</event>
<event>
 7    1  0.2794945E-009  0.1826777E+03  0.7561462E-02  0.1165236E+00
          2   -1    0    0  501    0  0.00000000000E+00  0.00000000000E+00  0.77659222162E+03  0.77659222162E+03  0.00000000000E+00 0. -1.
         -2   -1    0    0    0  501 -0.00000000000E+00 -0.00000000000E+00 -0.47391121955E+02  0.47391121955E+02  0.00000000000E+00 0.  1.
         25    2    1    2    0    0 -0.10234565554E+03 -0.10633870508E+03  0.49755576736E+03  0.53384659775E+03  0.12509154603E+03 0.  0.
          5    1    3    3  502    0  0.25794337021E+02 -0.36365671684E+02  0.15767950007E+03  0.16391493843E+03  0.41800000000E+01 0.  1.
         -5    1    3    3    0  502 -0.12813999256E+03 -0.69973033400E+02  0.33987626729E+03  0.36993165932E+03  0.41800000000E+01 0.  1.
        -11    1    1    2    0    0  0.28122074399E+02 -0.15303224330E+02  0.37494423823E+02  0.49303869638E+02  0.00000000000E+00 0.  1.
         11    1    1    2    0    0  0.74223581140E+02  0.12164192941E+03  0.19415090848E+03  0.24083287618E+03  0.00000000000E+00 0. -1.
</event>
<event>
 7    1  0.2794945E-009  0.2326576E+03  0.7561462E-02  0.1124783E+00
          1   -1    0    0  501    0  0.00000000000E+00  0.00000000000E+00  0.54145722291E+02  0.54145722291E+02  0.00000000000E+00 0. -1.
         -1   -1    0    0    0  501 -0.00000000000E+00 -0.00000000000E+00 -0.11928795620E+04  0.11928795620E+04  0.00000000000E+00 0.  1.
         25    2    1    2    0    0  0.21082134920E+03 -0.50718333930E+02 -0.40118657869E+03  0.47288062832E+03  0.12508967602E+03 0.  0.
          5    1    3    3  502    0  0.20573111868E+03 -0.99707729465E+01 -0.35865430088E+03  0.41361224527E+03  0.41800000000E+01 0. -1.
         -5    1    3    3    0  502  0.50902305212E+01 -0.40747560983E+02 -0.42532277817E+02  0.59268383048E+02  0.41800000000E+01 0. -1.
        -11    1    1    2    0    0 -0.16466591235E+03  0.29763561558E+02 -0.66441580526E+03  0.68516355315E+03  0.00000000000E+00 0.  1.
         11    1    1    2    0    0 -0.46155436850E+02  0.20954772371E+02 -0.73131455705E+02  0.88981102767E+02  0.00000000000E+00 0. -1.
</event>
<event>
 7    1  0.2794945E-009  0.1073075E+03  0.7561462E-02  0.1265639E+00
          2   -1    0    0  501    0  0.00000000000E+00  0.00000000000E+00  0.27292606168E+03  0.27292606168E+03  0.00000000000E+00 0.  1.
         -2   -1    0    0    0  501 -0.00000000000E+00 -0.00000000000E+00 -0.50684636969E+02  0.50684636969E+02  0.00000000000E+00 0. -1.
         25    2    1    2    0    0 -0.26778253297E+01 -0.45255623737E+02  0.14241863173E+03  0.19489807776E+03  0.12508777646E+03 0.  0.
          5    1    3    3  502    0  0.35233612090E+02 -0.66053642695E+02  0.43077927699E+02  0.86473529991E+02  0.41800000000E+01 0.  1.
         -5    1    3    3    0  502 -0.37911437420E+02  0.20798018958E+02  0.99340704035E+02  0.10842454777E+03  0.41800000000E+01 0.  1.
        -11    1    1    2    0    0 -0.35980549051E+02  0.44892546081E+02  0.66238720591E+02  0.87735447279E+02  0.00000000000E+00 0.  1.
         11    1    1    2    0    0  0.38658374381E+02  0.36307765602E+00  0.13584072390E+02  0.40977173619E+02  0.00000000000E+00 0. -1.
</event>
<event>
 7    1  0.2794945E-009  0.9691988E+02  0.7561462E-02  0.1286910E+00
         -1   -1    0    0    0  501 -0.00000000000E+00  0.00000000000E+00  0.17248972016E+03  0.17248972016E+03  0.00000000000E+00 0.  1.
          1   -1    0    0  501    0  0.00000000000E+00 -0.00000000000E+00 -0.10499564016E+03  0.10499564016E+03  0.00000000000E+00 0. -1.
         25    2    1    2    0    0 -0.69559658432E+02 -0.22243802247E+02  0.73024128704E+02  0.16222024813E+03  0.12509817229E+03 0.  0.
          5    1    3    3  502    0 -0.25384893669E+02  0.26569203907E+02  0.87225647262E+02  0.94742289201E+02  0.41800000000E+01 0. -1.
         -5    1    3    3    0  502 -0.44174764764E+02 -0.48813006154E+02 -0.14201518558E+02  0.67477958928E+02  0.41800000000E+01 0. -1.
        -11    1    1    2    0    0  0.10518997788E+02 -0.17003496133E+02  0.29931642344E+02  0.35995435942E+02  0.00000000000E+00 0.  1.
         11    1    1    2    0    0  0.59040660645E+02  0.39247298380E+02 -0.35461691052E+02  0.79269676243E+02  0.00000000000E+00 0. -1.
</event>
<event>
 7    1  0.2855864E-009  0.1414823E+03  0.7561462E-02  0.1211348E+00
         -4   -1    0    0    0  501 -0.00000000000E+00  0.00000000000E+00  0.45832288935E+02  0.45832288935E+02  0.00000000000E+00 0.  1.
          4   -1    0    0  501    0  0.00000000000E+00 -0.00000000000E+00 -0.47054664238E+03  0.47054664238E+03  0.00000000000E+00 0. -1.
         25    2    1    2    0    0  0.41624703543E+02  0.89300856383E+02 -0.22425230000E+03  0.27503414659E+03  0.12508968319E+03 0.  0.
          5    1    3    3  502    0  0.80307852097E+02  0.30262247786E+02 -0.14731463720E+03  0.17054099063E+03  0.41800000000E+01 0. -1.
         -5    1    3    3    0  502 -0.38683148554E+02  0.59038608597E+02 -0.76937662797E+02  0.10449315597E+03  0.41800000000E+01 0. -1.
        -11    1    1    2    0    0  0.23670524872E+02 -0.29222818921E+02 -0.26323841802E+02  0.45904373872E+02  0.00000000000E+00 0.  1.
         11    1    1    2    0    0 -0.65295228415E+02 -0.60078037462E+02 -0.17413821164E+03  0.19544041085E+03  0.00000000000E+00 0. -1.
</event>
<event>
 7    1  0.2794945E-009  0.1327953E+03  0.7561462E-02  0.1223366E+00
          3   -1    0    0  501    0  0.00000000000E+00  0.00000000000E+00  0.24145761129E+03  0.24145761129E+03  0.00000000000E+00 0. -1.
         -3   -1    0    0    0  501 -0.00000000000E+00 -0.00000000000E+00 -0.11473892877E+03  0.11473892877E+03  0.00000000000E+00 0.  1.
         25    2    1    2    0    0  0.31469536503E+02  0.10056317636E+03 -0.63385384855E+01  0.16368082086E+03  0.12509176583E+03 0.  0.
          5    1    3    3  502    0  0.51615012837E+02  0.35225568891E+02 -0.51961206728E+02  0.81378066200E+02  0.41800000000E+01 0.  1.
         -5    1    3    3    0  502 -0.20145476334E+02  0.65337607473E+02  0.45622668242E+02  0.82302754659E+02  0.41800000000E+01 0.  1.
        -11    1    1    2    0    0  0.22744256003E+02 -0.66865261191E+02  0.94374796590E+02  0.11787648861E+03  0.00000000000E+00 0.  1.
         11    1    1    2    0    0 -0.54213792506E+02 -0.33697915173E+02  0.38682424411E+02  0.74639230591E+02  0.00000000000E+00 0. -1.
</event>
<event>
 7    1  0.2794945E-009  0.2166695E+03  0.7561462E-02  0.1136391E+00
          1   -1    0    0  501    0  0.00000000000E+00  0.00000000000E+00  0.57866237323E+02  0.57866237323E+02  0.00000000000E+00 0. -1.
         -1   -1    0    0    0  501 -0.00000000000E+00 -0.00000000000E+00 -0.86525733754E+03  0.86525733754E+03  0.00000000000E+00 0.  1.
         25    2    1    2    0    0 -0.32897896857E+02  0.19154601496E+03 -0.39764519052E+03  0.45993591352E+03  0.12508876663E+03 0.  0.
          5    1    3    3  502    0  0.46002962279E+02  0.88793268163E+02 -0.19880239734E+03  0.22257668925E+03  0.41800000000E+01 0.  1.
         -5    1    3    3    0  502 -0.78900859136E+02  0.10275274680E+03 -0.19884279318E+03  0.23735922427E+03  0.41800000000E+01 0.  1.
        -11    1    1    2    0    0 -0.61400798383E+01 -0.13372004535E+03 -0.18845074488E+03  0.23115456810E+03  0.00000000000E+00 0. -1.
         11    1    1    2    0    0  0.39037976695E+02 -0.57825969608E+02 -0.22129516482E+03  0.23203309324E+03  0.00000000000E+00 0.  1.
</event>
<event>
 7    1  0.3596780E-009  0.1082717E+03  0.7561462E-02  0.1263804E+00
          2   -1    0    0  501    0  0.00000000000E+00  0.00000000000E+00  0.36054293095E+03  0.36054293095E+03  0.00000000000E+00 0. -1.
         -2   -1    0    0    0  501 -0.00000000000E+00 -0.00000000000E+00 -0.47633231067E+02  0.47633231067E+02  0.00000000000E+00 0.  1.
         25    2    1    2    0    0 -0.56344733201E+02 -0.47447040607E+02  0.17017285331E+03  0.22368017816E+03  0.12509225186E+03 0.  0.
          5    1    3    3  502    0 -0.40746147037E+02  0.37080672547E+02  0.92550555026E+02  0.10778822946E+03  0.41800000000E+01 0. -1.
         -5    1    3    3    0  502 -0.15598586164E+02 -0.84527713154E+02  0.77622298282E+02  0.11589194869E+03  0.41800000000E+01 0. -1.
        -11    1    1    2    0    0  0.37317586222E+02  0.21526531278E+02  0.53683704991E+01  0.43414435296E+02  0.00000000000E+00 0.  1.
         11    1    1    2    0    0  0.19027146979E+02  0.25920509329E+02  0.13736847608E+03  0.14108154856E+03  0.00000000000E+00 0. -1.
</event>
<event>
 6    1  0.2794945E-009  0.8883910E+02  0.7561462E-02  0.1305688E+00
          3   -1    0    0  501    0  0.00000000000E+00  0.00000000000E+00  0.25687350922E+02  0.25687350922E+02  0.00000000000E+00 0. -1.
         -3   -1    0    0    0  501 -0.00000000000E+00 -0.00000000000E+00 -0.61603443272E+03  0.61603443272E+03  0.00000000000E+00 0.  1.
          5    1    1    2  502    0 -0.26469414455E+02 -0.55308372271E+01 -0.33385471621E+03  0.33497412437E+03  0.41800000000E+01 0.  1.
         -5    1    1    2    0  502  0.39849289614E+02  0.51336268747E+02 -0.10279471335E+03  0.12168649828E+03  0.41800000000E+01 0.  1.
        -11    1    1    2    0    0 -0.39327939323E+02 -0.44247917066E+02 -0.14661988109E+03  0.15812006358E+03  0.00000000000E+00 0.  1.
         11    1    1    2    0    0  0.25948064164E+02 -0.15575144543E+01 -0.70777711491E+01  0.26941097409E+02  0.00000000000E+00 0. -1.
</event>
<event>
 7    1  0.2794945E-009  0.1520139E+03  0.7561462E-02  0.1198020E+00
         -2   -1    0    0    0  501 -0.00000000000E+00  0.00000000000E+00  0.10131300579E+03  0.10131300579E+03  0.00000000000E+00 0.  1.
          2   -1    0    0  501    0  0.00000000000E+00 -0.00000000000E+00 -0.31441990278E+03  0.31441990278E+03  0.00000000000E+00 0. -1.
         25    2    1    2    0    0 -0.33697175070E+02 -0.10250560463E+03 -0.59588052171E+01  0.16530828839E+03  0.12509366197E+03 0.  0.
          5    1    3    3  502    0  0.39171005860E+02 -0.77045572200E+02  0.74512854222E+01  0.86852645038E+02  0.41800000000E+01 0.  1.
         -5    1    3    3    0  502 -0.72868180930E+02 -0.25460032429E+02 -0.13410090639E+02  0.78455643355E+02  0.41800000000E+01 0.  1.
        -11    1    1    2    0    0 -0.29762647998E+02  0.48308901093E+02 -0.73369725090E+02  0.92750642588E+02  0.00000000000E+00 0.  1.
         11    1    1    2    0    0  0.63459823068E+02  0.54196703536E+02 -0.13377836668E+03  0.15767397759E+03  0.00000000000E+00 0. -1.
</event>
<event>
 7    1  0.2794945E-009  0.3059584E+03  0.7561462E-02  0.1082299E+00
          2   -1    0    0  501    0  0.00000000000E+00  0.00000000000E+00  0.19446260729E+04  0.19446260729E+04  0.00000000000E+00 0. -1.
         -2   -1    0    0    0  501 -0.00000000000E+00 -0.00000000000E+00 -0.56108867303E+02  0.56108867303E+02  0.00000000000E+00 0.  1.
         25    2    1    2    0    0  0.18312341415E+03 -0.23222207663E+03  0.66086036989E+03  0.73474145658E+03  0.12508917556E+03 0.  0.
          5    1    3    3  502    0  0.17796401416E+03 -0.23611806392E+03  0.55726376300E+03  0.63085917953E+03  0.41800000000E+01 0.  1.
         -5    1    3    3    0  502  0.51593999916E+01  0.38959872977E+01  0.10359660689E+03  0.10388227705E+03  0.41800000000E+01 0.  1.
        -11    1    1    2    0    0 -0.56537869268E+02  0.14264457326E+03  0.56879640269E+03  0.58912931743E+03  0.00000000000E+00 0. -1.
         11    1    1    2    0    0 -0.12658554488E+03  0.89577503365E+02  0.65886043305E+03  0.67686416623E+03  0.00000000000E+00 0.  1.
</event>
<event>
 7    1  0.2794945E-009  0.9586646E+02  0.7561462E-02  0.1289236E+00
         -3   -1    0    0    0  501 -0.00000000000E+00  0.00000000000E+00  0.13995627122E+03  0.13995627122E+03  0.00000000000E+00 0.  1.
          3   -1    0    0  501    0  0.00000000000E+00 -0.00000000000E+00 -0.28456075446E+03  0.28456075446E+03  0.00000000000E+00 0. -1.
         25    2    1    2    0    0  0.55854651286E+02  0.26517200562E+02 -0.24091856075E+03  0.27840759355E+03  0.12508449641E+03 0.  0.
          5    1    3    3  502    0 -0.14665298676E+02  0.25316077379E+02 -0.24079052106E+01  0.29652068504E+02  0.41800000000E+01 0. -1.
         -5    1    3    3    0  502  0.70519949962E+02  0.12011231829E+01 -0.23851065553E+03  0.24875552505E+03  0.41800000000E+01 0. -1.
        -11    1    1    2    0    0 -0.58240450243E+02  0.63369455242E+01  0.96820369437E+02  0.11316488352E+03  0.00000000000E+00 0.  1.
         11    1    1    2    0    0  0.23857989567E+01 -0.32854146086E+02 -0.50629193857E+00  0.32944548612E+02  0.00000000000E+00 0. -1.
</event>
<event>
 7    1  0.2794945E-009  0.1718248E+03  0.7561462E-02  0.1175958E+00
         -1   -1    0    0    0  501 -0.00000000000E+00  0.00000000000E+00  0.42610709744E+03  0.42610709744E+03  0.00000000000E+00 0.  1.
          1   -1    0    0  501    0  0.00000000000E+00 -0.00000000000E+00 -0.13942070509E+03  0.13942070509E+03  0.00000000000E+00 0. -1.
         25    2    1    2    0    0 -0.88193790668E+02 -0.12943602160E+03 -0.27762349985E+02  0.20236132939E+03  0.12509009215E+03 0.  0.
          5    1    3    3  502    0 -0.92897473439E+02 -0.81684880952E+02 -0.66541472147E+02  0.14052615509E+03  0.41800000000E+01 0.  1.
         -5    1    3    3    0  502  0.47036827713E+01 -0.47751140653E+02  0.38779122162E+02  0.61835174302E+02  0.41800000000E+01 0.  1.
        -11    1    1    2    0    0  0.10035651590E+03  0.11116635272E+03  0.30393522184E+03  0.33883035185E+03  0.00000000000E+00 0.  1.
         11    1    1    2    0    0 -0.12162725227E+02  0.18269668883E+02  0.10513520500E+02  0.24336121288E+02  0.00000000000E+00 0. -1.
</event>
<event>
 7    1  0.2794945E-009  0.8537278E+02  0.7561462E-02  0.1314461E+00
         -1   -1    0    0    0  501 -0.00000000000E+00  0.00000000000E+00  0.89603082482E+03  0.89603082482E+03  0.00000000000E+00 0.  1.
          1   -1    0    0  501    0  0.00000000000E+00 -0.00000000000E+00 -0.14908357493E+02  0.14908357493E+02  0.00000000000E+00 0. -1.
         25    2    1    2    0    0  0.90102804473E+01 -0.49784197718E+01  0.37048268146E+03  0.39116641833E+03  0.12509108584E+03 0.  0.
          5    1    3    3  502    0  0.19175119269E+02 -0.35914168375E+02  0.35018471144E+03  0.35256817386E+03  0.41800000000E+01 0. -1.
         -5    1    3    3    0  502 -0.10164838821E+02  0.30935748603E+02  0.20297970013E+02  0.38598244475E+02  0.41800000000E+01 0. -1.
        -11    1    1    2    0    0 -0.46425457469E+00  0.50585681607E+02  0.27162053055E+03  0.27629122196E+03  0.00000000000E+00 0.  1.
         11    1    1    2    0    0 -0.85460258726E+01 -0.45607261835E+02  0.23901925532E+03  0.24348154202E+03  0.00000000000E+00 0. -1.
</event>
<event>
 7    1  0.2794945E-009  0.9681766E+02  0.7561462E-02  0.1287134E+00
          2   -1    0    0  501    0  0.00000000000E+00  0.00000000000E+00  0.44675482226E+03  0.44675482226E+03  0.00000000000E+00 0. -1.
         -2   -1    0    0    0  501 -0.00000000000E+00 -0.00000000000E+00 -0.41381349693E+02  0.41381349693E+02  0.00000000000E+00 0.  1.
         25    2    1    2    0    0  0.70209502388E+02  0.10210452498E+02  0.29523431700E+03  0.32840162514E+03  0.12510274936E+03 0.  0.
          5    1    3    3  502    0  0.39662942489E+02 -0.17696205387E+02  0.28112051307E+03  0.28448641437E+03  0.41800000000E+01 0.  1.
         -5    1    3    3    0  502  0.30546559899E+02  0.27906657885E+02  0.14113803926E+02  0.43915210773E+02  0.41800000000E+01 0.  1.
        -11    1    1    2    0    0 -0.63058226319E+02 -0.42044832369E+02  0.48463102204E+02  0.89959880562E+02  0.00000000000E+00 0.  1.
         11    1    1    2    0    0 -0.71512760689E+01  0.31834379871E+02  0.61676053362E+02  0.69774666245E+02  0.00000000000E+00 0. -1.
</event>
<event>
 7    1  0.2794945E-009  0.8619910E+02  0.7561462E-02  0.1312326E+00
          1   -1    0    0  501    0  0.00000000000E+00  0.00000000000E+00  0.74916216310E+03  0.74916216310E+03  0.00000000000E+00 0. -1.
         -1   -1    0    0    0  501 -0.00000000000E+00 -0.00000000000E+00 -0.20221179387E+02  0.20221179387E+02  0.00000000000E+00 0.  1.
         25    2    1    2    0    0 -0.38636615593E+02 -0.69828260737E+01  0.55530294889E+03  0.57057049904E+03  0.12509109244E+03 0.  0.
          5    1    3    3  502    0 -0.30501025411E+02 -0.38331286202E+02  0.52060957847E+03  0.52292581276E+03  0.41800000000E+01 0.  1.
         -5    1    3    3    0  502 -0.81355901818E+01  0.31348460129E+02  0.34693370416E+02  0.47644686282E+02  0.41800000000E+01 0.  1.
        -11    1    1    2    0    0 -0.70672876021E+00 -0.33860828102E+02  0.10181162641E+03  0.10729707553E+03  0.00000000000E+00 0.  1.
         11    1    1    2    0    0  0.39343344353E+02  0.40843654175E+02  0.71826408412E+02  0.91515767913E+02  0.00000000000E+00 0. -1.
</event>
<event>
 7    1  0.2794945E-009  0.1184811E+03  0.7561462E-02  0.1245624E+00
         -2   -1    0    0    0  501 -0.00000000000E+00  0.00000000000E+00  0.14276737041E+03  0.14276737041E+03  0.00000000000E+00 0.  1.
          2   -1    0    0  501    0  0.00000000000E+00 -0.00000000000E+00 -0.14021785338E+03  0.14021785338E+03  0.00000000000E+00 0. -1.
         25    2    1    2    0    0  0.28097663286E+02  0.85892628264E+02 -0.22685431029E+01  0.15433665573E+03  0.12509050620E+03 0.  0.
          5    1    3    3  502    0 -0.36740471401E+02  0.31446423822E+01 -0.27446893743E+02  0.46157939627E+02  0.41800000000E+01 0.  1.
         -5    1    3    3    0  502  0.64838134687E+02  0.82747985882E+02  0.25178350640E+02  0.10817871610E+03  0.41800000000E+01 0.  1.
        -11    1    1    2    0    0 -0.28979297127E+02 -0.43663537778E+02  0.45945924952E+02  0.69694563726E+02  0.00000000000E+00 0.  1.
         11    1    1    2    0    0  0.88163384195E+00 -0.42229090486E+02 -0.41127864820E+02  0.58954004327E+02  0.00000000000E+00 0. -1.
</event>
<event>
 7    1  0.2794945E-009  0.1162459E+03  0.7561462E-02  0.1249422E+00
         -1   -1    0    0    0  501 -0.00000000000E+00  0.00000000000E+00  0.31680404426E+03  0.31680404426E+03  0.00000000000E+00 0.  1.
          1   -1    0    0  501    0  0.00000000000E+00 -0.00000000000E+00 -0.57360757695E+02  0.57360757695E+02  0.00000000000E+00 0. -1.
         25    2    1    2    0    0 -0.41794205227E+01 -0.77319979180E+02  0.13389311473E+03  0.19892876668E+03  0.12509772702E+03 0.  0.
          5    1    3    3  502    0 -0.43085032271E+02 -0.38281366030E+02  0.13146217380E+03  0.14360208401E+03  0.41800000000E+01 0. -1.
         -5    1    3    3    0  502  0.38905611748E+02 -0.39038613150E+02  0.24309409274E+01  0.55326682676E+02  0.41800000000E+01 0. -1.
        -11    1    1    2    0    0  0.46699469812E+02  0.52224415419E+02  0.54721776265E+02  0.88897147559E+02  0.00000000000E+00 0.  1.
         11    1    1    2    0    0 -0.42520049289E+02  0.25095563761E+02  0.70828395576E+02  0.86338887715E+02  0.00000000000E+00 0. -1.
</event>
<event>
 7    1  0.2794945E-009  0.1161310E+03  0.7561462E-02  0.1249620E+00
          2   -1    0    0  501    0  0.00000000000E+00  0.00000000000E+00  0.93400482581E+03  0.93400482581E+03  0.00000000000E+00 0. -1.
         -2   -1    0    0    0  501 -0.00000000000E+00 -0.00000000000E+00 -0.21597872987E+02  0.21597872987E+02  0.00000000000E+00 0.  1.
         25    2    1    2    0    0 -0.14484349007E+01 -0.75769045675E+02  0.67401291226E+03  0.68969813148E+03  0.12508821056E+03 0.  0.
          5    1    3    3  502    0 -0.60253132403E+02 -0.44002041489E+02  0.43964489624E+03  0.44595036361E+03  0.41800000000E+01 0. -1.
         -5    1    3    3    0  502  0.58804697502E+02 -0.31767004186E+02  0.23436801602E+03  0.24374776786E+03  0.41800000000E+01 0. -1.
        -11    1    1    2    0    0  0.22016163517E+02  0.15605665442E+02  0.99251909739E+01  0.28753393987E+02  0.00000000000E+00 0.  1.
         11    1    1    2    0    0 -0.20567728616E+02  0.60163380233E+02  0.22846884959E+03  0.23715117333E+03  0.00000000000E+00 0. -1.
</event>
<event>
 7    1  0.2794945E-009  0.1546227E+03  0.7561462E-02  0.1194905E+00
          2   -1    0    0  501    0  0.00000000000E+00  0.00000000000E+00  0.50098330389E+03  0.50098330389E+03  0.00000000000E+00 0.  1.
         -2   -1    0    0    0  501 -0.00000000000E+00 -0.00000000000E+00 -0.63121326646E+02  0.63121326646E+02  0.00000000000E+00 0. -1.
         25    2    1    2    0    0 -0.13779178670E+03  0.50792672590E+01  0.27487787607E+03  0.33201127139E+03  0.12514496450E+03 0.  0.
          5    1    3    3  502    0 -0.95931230358E+02  0.29564409991E+02  0.26352706252E+03  0.28202985725E+03  0.41800000000E+01 0.  1.
         -5    1    3    3    0  502 -0.41860556343E+02 -0.24485142732E+02  0.11350813548E+02  0.49981414147E+02  0.41800000000E+01 0.  1.
        -11    1    1    2    0    0  0.75537113275E+02 -0.43281159866E+02  0.59578861204E+02  0.10549291438E+03  0.00000000000E+00 0.  1.
         11    1    1    2    0    0  0.62254673425E+02  0.38201892607E+02  0.10340523997E+03  0.12660044477E+03  0.00000000000E+00 0. -1.
</event>
<event>
 7    1  0.2794945E-009  0.1036647E+03  0.7561462E-02  0.1272773E+00
         -2   -1    0    0    0  501 -0.00000000000E+00  0.00000000000E+00  0.27735816046E+03  0.27735816046E+03  0.00000000000E+00 0.  1.
          2   -1    0    0  501    0  0.00000000000E+00 -0.00000000000E+00 -0.13036172782E+03  0.13036172782E+03  0.00000000000E+00 0. -1.
         25    2    1    2    0    0 -0.22300106139E+02 -0.78079503383E+02  0.21914120348E+03  0.26507256781E+03  0.12508755158E+03 0.  0.
          5    1    3    3  502    0 -0.39004818799E+02 -0.75033173541E+02  0.57176164145E+02  0.10216623301E+03  0.41800000000E+01 0. -1.
         -5    1    3    3    0  502  0.16704712659E+02 -0.30463298424E+01  0.16196503934E+03  0.16290633480E+03  0.41800000000E+01 0. -1.
        -11    1    1    2    0    0 -0.23220730938E+02  0.16027526098E+02  0.10140662463E+02  0.29981944122E+02  0.00000000000E+00 0.  1.
         11    1    1    2    0    0  0.45520837078E+02  0.62051977285E+02 -0.82285433304E+02  0.11266537635E+03  0.00000000000E+00 0. -1.
</event>
<event>
 7    1  0.2794945E-009  0.6055046E+02  0.7561462E-02  0.1395536E+00
          4   -1    0    0  501    0  0.00000000000E+00  0.00000000000E+00  0.61935034696E+03  0.61935034696E+03  0.00000000000E+00 0. -1.
         -4   -1    0    0    0  501 -0.00000000000E+00 -0.00000000000E+00 -0.34731933531E+02  0.34731933531E+02  0.00000000000E+00 0.  1.
         25    2    1    2    0    0  0.21846625777E+02  0.22641793443E+01  0.53272466733E+03  0.54765175514E+03  0.12507786441E+03 0.  0.
          5    1    3    3  502    0  0.10632186042E+02 -0.15432935959E+02  0.54711582992E+01  0.19965592039E+02  0.41800000000E+01 0.  1.
         -5    1    3    3    0  502  0.11214439735E+02  0.17697115303E+02  0.52725350903E+03  0.52768616310E+03  0.41800000000E+01 0.  1.
        -11    1    1    2    0    0  0.18073431018E+02  0.25969922640E+02  0.47854450663E+02  0.57368408022E+02  0.00000000000E+00 0. -1.
         11    1    1    2    0    0 -0.39920056795E+02 -0.28234101984E+02  0.40392954434E+01  0.49062117331E+02  0.00000000000E+00 0.  1.
</event>
<event>
 7    1  0.2794945E-009  0.9471036E+02  0.7561462E-02  0.1291830E+00
          1   -1    0    0  501    0  0.00000000000E+00  0.00000000000E+00  0.14062429968E+03  0.14062429968E+03  0.00000000000E+00 0. -1.
         -1   -1    0    0    0  501 -0.00000000000E+00 -0.00000000000E+00 -0.10783439484E+03  0.10783439484E+03  0.00000000000E+00 0.  1.
         25    2    1    2    0    0  0.31292474568E+02  0.36321866538E+02  0.51652065200E+02  0.14357570506E+03  0.12509016864E+03 0.  0.
          5    1    3    3  502    0  0.19317173405E+02  0.75904448332E+02  0.62871129837E+02  0.10052308109E+03  0.41800000000E+01 0.  1.
         -5    1    3    3    0  502  0.11975301163E+02 -0.39582581794E+02 -0.11219064637E+02  0.43052623971E+02  0.41800000000E+01 0.  1.
        -11    1    1    2    0    0 -0.35326772596E+02 -0.25613847109E+01 -0.48309675075E+02  0.59902973712E+02  0.00000000000E+00 0.  1.
         11    1    1    2    0    0  0.40342980279E+01 -0.33760481827E+02  0.29447514708E+02  0.44980015744E+02  0.00000000000E+00 0. -1.
</event>
<event>
 7    1  0.2794945E-009  0.6724196E+02  0.7561462E-02  0.1369731E+00
          2   -1    0    0  501    0  0.00000000000E+00  0.00000000000E+00  0.12704007439E+03  0.12704007439E+03  0.00000000000E+00 0. -1.
         -2   -1    0    0    0  501 -0.00000000000E+00 -0.00000000000E+00 -0.13154102336E+03  0.13154102336E+03  0.00000000000E+00 0.  1.
         25    2    1    2    0    0 -0.18719870679E+02 -0.19459296492E+02 -0.68335557130E+02  0.14507556460E+03  0.12509225915E+03 0.  0.
          5    1    3    3  502    0 -0.21697236702E+02  0.18309721196E+02 -0.94554079520E+02  0.98812763977E+02  0.41800000000E+01 0. -1.
         -5    1    3    3    0  502  0.29773660222E+01 -0.37769017687E+02  0.26218522391E+02  0.46262800627E+02  0.41800000000E+01 0. -1.
        -11    1    1    2    0    0 -0.17736816604E+02 -0.10388056259E+02 -0.12312426639E+02  0.23960430418E+02  0.00000000000E+00 0.  1.
         11    1    1    2    0    0  0.36456687283E+02  0.29847352751E+02  0.76147034797E+02  0.89545102726E+02  0.00000000000E+00 0. -1.
</event>
<event>
 7    1  0.2794945E-009  0.2102292E+03  0.7561462E-02  0.1141385E+00
          2   -1    0    0  501    0  0.00000000000E+00  0.00000000000E+00  0.13816903866E+04  0.13816903866E+04  0.00000000000E+00 0. -1.
         -2   -1    0    0    0  501 -0.00000000000E+00 -0.00000000000E+00 -0.42406408696E+02  0.42406408696E+02  0.00000000000E+00 0.  1.
         25    2    1    2    0    0 -0.20302871599E+03  0.14435509777E+02  0.90431240366E+03  0.93533848937E+03  0.12509245705E+03 0.  0.
          5    1    3    3  502    0 -0.14945717779E+02  0.10752043194E+02  0.33915122421E+03  0.33967632563E+03  0.41800000000E+01 0.  1.
         -5    1    3    3    0  502 -0.18808299821E+03  0.36834665825E+01  0.56516117945E+03  0.59566216373E+03  0.41800000000E+01 0.  1.
        -11    1    1    2    0    0  0.90228048964E+02  0.25482490102E+02  0.26335191365E+03  0.27954371491E+03  0.00000000000E+00 0. -1.
         11    1    1    2    0    0  0.11280066702E+03 -0.39917999879E+02  0.17161966059E+03  0.20921459102E+03  0.00000000000E+00 0.  1.
</event>
<event>
 7    1  0.2794945E-009  0.8141266E+02  0.7561462E-02  0.1325090E+00
         -2   -1    0    0    0  501 -0.00000000000E+00  0.00000000000E+00  0.46535771996E+02  0.46535771996E+02  0.00000000000E+00 0. -1.
          2   -1    0    0  501    0  0.00000000000E+00 -0.00000000000E+00 -0.37194536913E+03  0.37194536913E+03  0.00000000000E+00 0.  1.
         25    2    1    2    0    0 -0.79168740132E+01  0.47591304508E+02 -0.28781834253E+03  0.31751339135E+03  0.12509095184E+03 0.  0.
          5    1    3    3  502    0 -0.17907678841E+02  0.75487336654E+02 -0.96601214132E+02  0.12396890710E+03  0.41800000000E+01 0.  1.
         -5    1    3    3    0  502  0.99908048280E+01 -0.27896032145E+02 -0.19121712840E+03  0.19354448425E+03  0.41800000000E+01 0.  1.
        -11    1    1    2    0    0  0.17755997348E+02 -0.26072955160E+02 -0.60375823282E+02  0.68119853710E+02  0.00000000000E+00 0.  1.
         11    1    1    2    0    0 -0.98391233343E+01 -0.21518349348E+02  0.22784568671E+02  0.32847896069E+02  0.00000000000E+00 0. -1.
</event>
<event>
 7    1  0.2794945E-009  0.1817367E+03  0.7561462E-02  0.1166133E+00
          2   -1    0    0  501    0  0.00000000000E+00  0.00000000000E+00  0.12135477880E+04  0.12135477880E+04  0.00000000000E+00 0. -1.
         -2   -1    0    0    0  501 -0.00000000000E+00 -0.00000000000E+00 -0.38886506559E+02  0.38886506559E+02  0.00000000000E+00 0.  1.
         25    2    1    2    0    0 -0.10166208791E+03  0.13746044132E+03  0.38925290290E+03  0.44316584553E+03  0.12509033209E+03 0.  0.
          5    1    3    3  502    0 -0.20429806047E+02  0.48433423918E+02  0.26431635971E+03  0.26952510817E+03  0.41800000000E+01 0.  1.
         -5    1    3    3    0  502 -0.81232281867E+02  0.89027017400E+02  0.12493654319E+03  0.17364073736E+03  0.41800000000E+01 0.  1.
        -11    1    1    2    0    0  0.57887352250E+02 -0.14563495139E+02  0.16974497831E+03  0.17993442862E+03  0.00000000000E+00 0.  1.
         11    1    1    2    0    0  0.43774735664E+02 -0.12289694618E+03  0.61566340028E+03  0.62933402045E+03  0.00000000000E+00 0. -1.
</event>
<event>
 7    1  0.2794945E-009  0.9105746E+02  0.7561462E-02  0.1300311E+00
          1   -1    0    0  501    0  0.00000000000E+00  0.00000000000E+00  0.48550201200E+03  0.48550201200E+03  0.00000000000E+00 0. -1.
         -1   -1    0    0    0  501 -0.00000000000E+00 -0.00000000000E+00 -0.44222477472E+02  0.44222477472E+02  0.00000000000E+00 0.  1.
         25    2    1    2    0    0  0.70667520495E+02 -0.27717302573E+02  0.34149189061E+03  0.37152361405E+03  0.12510370548E+03 0.  0.
          5    1    3    3  502    0  0.71849369984E+02 -0.10446763814E+02  0.75116036588E+02  0.10455313574E+03  0.41800000000E+01 0.  1.
         -5    1    3    3    0  502 -0.11818494885E+01 -0.17270538759E+02  0.26637585402E+03  0.26697047830E+03  0.41800000000E+01 0.  1.
        -11    1    1    2    0    0 -0.64923565854E+02  0.17086909536E+01  0.11466052230E+02  0.65950431247E+02  0.00000000000E+00 0.  1.
         11    1    1    2    0    0 -0.57439546411E+01  0.26008611620E+02  0.88321591690E+02  0.92250444183E+02  0.00000000000E+00 0. -1.
</event>
<event>
 7    1  0.2794945E-009  0.9882732E+02  0.7561462E-02  0.1282781E+00
          2   -1    0    0  501    0  0.00000000000E+00  0.00000000000E+00  0.26513085936E+03  0.26513085936E+03  0.00000000000E+00 0.  1.
         -2   -1    0    0    0  501 -0.00000000000E+00 -0.00000000000E+00 -0.70547324195E+02  0.70547324195E+02  0.00000000000E+00 0. -1.
         25    2    1    2    0    0  0.17054602251E+02  0.39624691743E+02  0.20448859006E+02  0.13390487862E+03  0.12510549561E+03 0.  0.
          5    1    3    3  502    0  0.65154444144E+02  0.38081234391E+02 -0.10832589214E+02  0.76355087542E+02  0.41800000000E+01 0.  1.
         -5    1    3    3    0  502 -0.48099841894E+02  0.15434573511E+01  0.31281448220E+02  0.57549791082E+02  0.41800000000E+01 0.  1.
        -11    1    1    2    0    0 -0.34631265281E+02 -0.43664912696E+02  0.17505751301E+03  0.18371467551E+03  0.00000000000E+00 0.  1.
         11    1    1    2    0    0  0.17576663031E+02  0.40402209533E+01 -0.92283685463E+00  0.18058629420E+02  0.00000000000E+00 0. -1.
</event>
<event>
 7    1  0.2794945E-009  0.9003443E+02  0.7561462E-02  0.1302768E+00
          2   -1    0    0  501    0  0.00000000000E+00  0.00000000000E+00  0.20424568432E+03  0.20424568432E+03  0.00000000000E+00 0. -1.
         -2   -1    0    0    0  501 -0.00000000000E+00 -0.00000000000E+00 -0.64610712751E+02  0.64610712751E+02  0.00000000000E+00 0.  1.
         25    2    1    2    0    0  0.16231588330E+02 -0.33661453283E+02  0.74395114980E+02  0.15026237157E+03  0.12509032449E+03 0.  0.
          5    1    3    3  502    0  0.24716441823E+02  0.39259735402E+02  0.58939304058E+02  0.75123520173E+02  0.41800000000E+01 0. -1.
         -5    1    3    3    0  502 -0.84848534934E+01 -0.72921188685E+02  0.15455810922E+02  0.75138851397E+02  0.41800000000E+01 0. -1.
        -11    1    1    2    0    0 -0.25883048926E+02  0.10035252669E+01 -0.16041238842E+02  0.30467369894E+02  0.00000000000E+00 0.  1.
         11    1    1    2    0    0  0.96514605960E+01  0.32657928016E+02  0.81281095430E+02  0.88126655606E+02  0.00000000000E+00 0. -1.
</event>
<event>
 7    1  0.2794945E-009  0.8783175E+02  0.7561462E-02  0.1308189E+00
          3   -1    0    0  501    0  0.00000000000E+00  0.00000000000E+00  0.15624671253E+03  0.15624671253E+03  0.00000000000E+00 0. -1.
         -3   -1    0    0    0  501 -0.00000000000E+00 -0.00000000000E+00 -0.84032783661E+02  0.84032783661E+02  0.00000000000E+00 0.  1.
         25    2    1    2    0    0 -0.30870901109E+02 -0.28873163052E+01  0.20226241434E+02  0.13045066262E+03  0.12508767088E+03 0.  0.
          5    1    3    3  502    0 -0.23617218773E+02 -0.43142354119E+02  0.56919954055E+02  0.75341816485E+02  0.41800000000E+01 0. -1.
         -5    1    3    3    0  502 -0.72536823360E+01  0.40255037814E+02 -0.36693712621E+02  0.55108846139E+02  0.41800000000E+01 0. -1.
        -11    1    1    2    0    0  0.22096139739E+02  0.40730993589E+02  0.18141867593E+01  0.46373963640E+02  0.00000000000E+00 0.  1.
         11    1    1    2    0    0  0.87747613707E+01 -0.37843677284E+02  0.50173500671E+02  0.63454869924E+02  0.00000000000E+00 0. -1.
</event>
<event>
 7    1  0.2794945E-009  0.1316043E+03  0.7561462E-02  0.1225094E+00
          1   -1    0    0  501    0  0.00000000000E+00  0.00000000000E+00  0.24743291411E+03  0.24743291411E+03  0.00000000000E+00 0. -1.
         -1   -1    0    0    0  501 -0.00000000000E+00 -0.00000000000E+00 -0.97435208058E+02  0.97435208058E+02  0.00000000000E+00 0.  1.
         25    2    1    2    0    0 -0.98957984456E+01  0.85258334310E+02  0.11100782224E+02  0.15210238790E+03  0.12507996899E+03 0.  0.
          5    1    3    3  502    0  0.17805133172E+02 -0.16251226652E+02 -0.30306329893E+02  0.38949597771E+02  0.41800000000E+01 0. -1.
         -5    1    3    3    0  502 -0.27700931618E+02  0.10150956096E+03  0.41407112117E+02  0.11315279013E+03  0.41800000000E+01 0. -1.
        -11    1    1    2    0    0  0.56066839480E+02 -0.40787525087E+02  0.66553790469E+02  0.96106814107E+02  0.00000000000E+00 0.  1.
         11    1    1    2    0    0 -0.46171041034E+02 -0.44470809223E+02  0.72343133354E+02  0.96658920160E+02  0.00000000000E+00 0. -1.
</event>
<event>
 7    1  0.2794945E-009  0.8658155E+02  0.7561462E-02  0.1311348E+00
          2   -1    0    0  501    0  0.00000000000E+00  0.00000000000E+00  0.53703358201E+03  0.53703358201E+03  0.00000000000E+00 0. -1.
         -2   -1    0    0    0  501 -0.00000000000E+00 -0.00000000000E+00 -0.22332991132E+02  0.22332991132E+02  0.00000000000E+00 0.  1.
         25    2    1    2    0    0 -0.75749613514E+01 -0.10239666293E+02  0.26717383081E+03  0.29528290978E+03  0.12509160696E+03 0.  0.
          5    1    3    3  502    0 -0.45474488212E+02  0.26874492516E+02  0.21243639885E+03  0.21894488663E+03  0.41800000000E+01 0.  1.
         -5    1    3    3    0  502  0.37899526861E+02 -0.37114158809E+02  0.54737431960E+02  0.76338023146E+02  0.41800000000E+01 0.  1.
        -11    1    1    2    0    0 -0.29193937682E+02  0.18530936705E+01  0.25288439021E+02  0.38668140655E+02  0.00000000000E+00 0.  1.
         11    1    1    2    0    0  0.36768899034E+02  0.83865726222E+01  0.22223832105E+03  0.22541552271E+03  0.00000000000E+00 0. -1.
</event>
<event>
 7    1  0.2794945E-009  0.1871004E+03  0.7561462E-02  0.1161103E+00
          3   -1    0    0  501    0  0.00000000000E+00  0.00000000000E+00  0.78943986017E+03  0.78943986017E+03  0.00000000000E+00 0. -1.
         -3   -1    0    0    0  501 -0.00000000000E+00 -0.00000000000E+00 -0.57209198118E+02  0.57209198118E+02  0.00000000000E+00 0.  1.
         25    2    1    2    0    0 -0.10980795006E+03 -0.10914270999E+03  0.18997696616E+03  0.27514849462E+03  0.12508209054E+03 0.  0.
          5    1    3    3  502    0 -0.56543088345E+02 -0.12821046756E+03  0.15257328172E+03  0.20719827105E+03  0.41800000000E+01 0. -1.
         -5    1    3    3    0  502 -0.53264861720E+02  0.19067757564E+02  0.37403684439E+02  0.67950223562E+02  0.41800000000E+01 0. -1.
        -11    1    1    2    0    0  0.12093924811E+03  0.77252233509E+02  0.39052605710E+03  0.41605866244E+03  0.00000000000E+00 0.  1.
         11    1    1    2    0    0 -0.11131298048E+02  0.31890476486E+02  0.15172763879E+03  0.15544190123E+03  0.00000000000E+00 0. -1.
</event>
<event>
 7    1  0.2794945E-009  0.1273304E+03  0.7561462E-02  0.1231472E+00
         -1   -1    0    0    0  501 -0.00000000000E+00  0.00000000000E+00  0.14837374422E+03  0.14837374422E+03  0.00000000000E+00 0.  1.
          1   -1    0    0  501    0  0.00000000000E+00 -0.00000000000E+00 -0.14174471746E+03  0.14174471746E+03  0.00000000000E+00 0. -1.
         25    2    1    2    0    0 -0.49828282511E+02 -0.58368891590E+02  0.60063499692E+02  0.15856552076E+03  0.12508243336E+03 0.  0.
          5    1    3    3  502    0  0.27582239976E+02 -0.49776471291E+02 -0.46039642202E+01  0.57246361830E+02  0.41800000000E+01 0.  1.
         -5    1    3    3    0  502 -0.77410522487E+02 -0.85924202989E+01  0.64667463912E+02  0.10131915893E+03  0.41800000000E+01 0.  1.
        -11    1    1    2    0    0 -0.25777565115E+02  0.31308984167E+01 -0.17225165089E+02  0.31160739730E+02  0.00000000000E+00 0. -1.
         11    1    1    2    0    0  0.75605847626E+02  0.55237993173E+02 -0.36209307836E+02  0.10039220119E+03  0.00000000000E+00 0.  1.
</event>
<event>
 7    1  0.2794945E-009  0.1675924E+03  0.7561462E-02  0.1180382E+00
          2   -1    0    0  501    0  0.00000000000E+00  0.00000000000E+00  0.30807078537E+03  0.30807078537E+03  0.00000000000E+00 0. -1.
         -2   -1    0    0    0  501 -0.00000000000E+00 -0.00000000000E+00 -0.11051612606E+03  0.11051612606E+03  0.00000000000E+00 0.  1.
         25    2    1    2    0    0  0.42724103903E+02  0.13733108368E+03  0.58640875655E+02  0.19942822282E+03  0.12509071972E+03 0.  0.
          5    1    3    3  502    0  0.86748778865E+02  0.10216764444E+03  0.42561017325E+02  0.14068578749E+03  0.41800000000E+01 0. -1.
         -5    1    3    3    0  502 -0.44024674962E+02  0.35163439239E+02  0.16079858330E+02  0.58742435330E+02  0.41800000000E+01 0. -1.
        -11    1    1    2    0    0 -0.36875729631E+02 -0.95805458017E+02  0.37286102559E+02  0.10921885673E+03  0.00000000000E+00 0.  1.
         11    1    1    2    0    0 -0.58483742724E+01 -0.41525625664E+02  0.10162768110E+03  0.10993983188E+03  0.00000000000E+00 0. -1.
</event>
<event>
 7    1  0.3463511E-009  0.1590965E+03  0.7561462E-02  0.1189721E+00
         -1   -1    0    0    0  501 -0.00000000000E+00  0.00000000000E+00  0.86300898129E+02  0.86300898129E+02  0.00000000000E+00 0.  1.
          1   -1    0    0  501    0  0.00000000000E+00 -0.00000000000E+00 -0.40279332439E+03  0.40279332439E+03  0.00000000000E+00 0. -1.
         25    2    1    2    0    0  0.83718987116E+02 -0.12495324192E+03 -0.18890428712E+03  0.27194712306E+03  0.12509287181E+03 0.  0.
          5    1    3    3  502    0  0.74576495024E+02 -0.63625287295E+02 -0.18532638324E+03  0.20969781000E+03  0.41800000000E+01 0.  1.
         -5    1    3    3    0  502  0.91424920916E+01 -0.61327954629E+02 -0.35779038835E+01  0.62249313063E+02  0.41800000000E+01 0.  1.
        -11    1    1    2    0    0 -0.18376937903E+02  0.70544697039E+02 -0.10731757389E+03  0.12973560727E+03  0.00000000000E+00 0. -1.
         11    1    1    2    0    0 -0.65342049212E+02  0.54408544885E+02 -0.20270565247E+02  0.87411492192E+02  0.00000000000E+00 0.  1.
</event>
<event>
 7    1  0.2794945E-009  0.2912350E+03  0.7561462E-02  0.1089706E+00
          2   -1    0    0  501    0  0.00000000000E+00  0.00000000000E+00  0.23187088382E+03  0.23187088382E+03  0.00000000000E+00 0. -1.
         -2   -1    0    0    0  501 -0.00000000000E+00 -0.00000000000E+00 -0.53078783705E+03  0.53078783705E+03  0.00000000000E+00 0.  1.
         25    2    1    2    0    0 -0.21828362041E+03 -0.18453466492E+03  0.35729778936E+02  0.31404615702E+03  0.12509032794E+03 0.  0.
          5    1    3    3  502    0 -0.11964177209E+03 -0.12110465394E+03  0.80613813848E+02  0.18840528182E+03  0.41800000000E+01 0. -1.
         -5    1    3    3    0  502 -0.98641848314E+02 -0.63430010976E+02 -0.44884034912E+02  0.12564087520E+03  0.41800000000E+01 0. -1.
        -11    1    1    2    0    0  0.21550683950E+02  0.55554324323E+02 -0.99617273881E+02  0.11607892223E+03  0.00000000000E+00 0. -1.
         11    1    1    2    0    0  0.19673293646E+03  0.12898034060E+03 -0.23502945828E+03  0.33253364162E+03  0.00000000000E+00 0.  1.
</event>
<event>
 7    1  0.2794945E-009  0.1290003E+03  0.7561462E-02  0.1228947E+00
          2   -1    0    0  501    0  0.00000000000E+00  0.00000000000E+00  0.31221147964E+02  0.31221147964E+02  0.00000000000E+00 0. -1.
         -2   -1    0    0    0  501 -0.00000000000E+00 -0.00000000000E+00 -0.63019536275E+03  0.63019536275E+03  0.00000000000E+00 0.  1.
         25    2    1    2    0    0  0.28611897247E+02  0.80399397027E+02 -0.26477648660E+03  0.30501948536E+03  0.12509034689E+03 0.  0.
          5    1    3    3  502    0 -0.43188099190E+02  0.51757009387E+02 -0.16814483691E+03  0.18120198263E+03  0.41800000000E+01 0. -1.
         -5    1    3    3    0  502  0.71799996437E+02  0.28642387640E+02 -0.96631649695E+02  0.12381750272E+03  0.41800000000E+01 0. -1.
        -11    1    1    2    0    0  0.23213963586E+02 -0.43894575956E+02 -0.22241652202E+03  0.22789192871E+03  0.00000000000E+00 0.  1.
         11    1    1    2    0    0 -0.51825860833E+02 -0.36504821070E+02 -0.11178120617E+03  0.12850509665E+03  0.00000000000E+00 0. -1.
</event>
<event>
 7    1  0.2794945E-009  0.8234002E+02  0.7561462E-02  0.1322539E+00
         -2   -1    0    0    0  501 -0.00000000000E+00  0.00000000000E+00  0.12950650013E+02  0.12950650013E+02  0.00000000000E+00 0.  1.
          2   -1    0    0  501    0  0.00000000000E+00 -0.00000000000E+00 -0.12639936550E+04  0.12639936550E+04  0.00000000000E+00 0. -1.
         25    2    1    2    0    0  0.58428918109E+01  0.15624466751E+02 -0.10189284198E+04  0.10267137590E+04  0.12509098639E+03 0.  0.
          5    1    3    3  502    0  0.44336167648E+02  0.58342765857E+01 -0.90266982759E+03  0.90378649281E+03  0.41800000000E+01 0. -1.
         -5    1    3    3    0  502 -0.38493275837E+02  0.97901901649E+01 -0.11625859226E+03  0.12292726623E+03  0.41800000000E+01 0. -1.
        -11    1    1    2    0    0 -0.41943310842E+02 -0.52734362944E+01 -0.56045309173E+02  0.70200620617E+02  0.00000000000E+00 0.  1.
         11    1    1    2    0    0  0.36100419031E+02 -0.10351030456E+02 -0.17606927598E+03  0.18002992538E+03  0.00000000000E+00 0. -1.
</event>
<event>
 7    1  0.2794945E-009  0.1571038E+03  0.7561462E-02  0.1192006E+00
         -2   -1    0    0    0  501 -0.00000000000E+00  0.00000000000E+00  0.56468614843E+02  0.56468614843E+02  0.00000000000E+00 0.  1.
          2   -1    0    0  501    0  0.00000000000E+00 -0.00000000000E+00 -0.81388673169E+03  0.81388673169E+03  0.00000000000E+00 0. -1.
         25    2    1    2    0    0 -0.12517805171E+03  0.23045969131E+02 -0.47691716694E+03  0.50921421296E+03  0.12509384172E+03 0.  0.
          5    1    3    3  502    0 -0.49997110070E+01 -0.41470833581E+02 -0.10912128731E+03  0.11691772702E+03  0.41800000000E+01 0.  1.
         -5    1    3    3    0  502 -0.12017834070E+03  0.64516802712E+02 -0.36779587963E+03  0.39229648594E+03  0.41800000000E+01 0.  1.
        -11    1    1    2    0    0  0.46361999801E+02  0.14340235658E+02 -0.26877732673E+03  0.27312328489E+03  0.00000000000E+00 0. -1.
         11    1    1    2    0    0  0.78816051906E+02 -0.37386204789E+02 -0.11723623175E+02  0.88017848683E+02  0.00000000000E+00 0.  1.
</event>
<event>
 7    1  0.2794945E-009  0.2935751E+03  0.7561462E-02  0.1088497E+00
          3   -1    0    0  501    0  0.00000000000E+00  0.00000000000E+00  0.46441712173E+03  0.46441712173E+03  0.00000000000E+00 0. -1.
         -3   -1    0    0    0  501 -0.00000000000E+00 -0.00000000000E+00 -0.24964086819E+03  0.24964086819E+03  0.00000000000E+00 0.  1.
         25    2    1    2    0    0  0.50731264246E+02 -0.27856776313E+03  0.26997344079E+03  0.41073996637E+03  0.12509197181E+03 0.  0.
          5    1    3    3  502    0  0.10337464235E+02 -0.20236554127E+03  0.25050481865E+03  0.32222478494E+03  0.41800000000E+01 0. -1.
         -5    1    3    3    0  502  0.40393800011E+02 -0.76202221857E+02  0.19468622141E+02  0.88515181429E+02  0.41800000000E+01 0.  1.
        -11    1    1    2    0    0  0.10320419438E+02  0.19157022054E+03 -0.31335770384E+02  0.19439030572E+03  0.00000000000E+00 0.  1.
         11    1    1    2    0    0 -0.61051683684E+02  0.86997542594E+02 -0.23861416859E+02  0.10892771783E+03  0.00000000000E+00 0. -1.
</event>
<event>
 7    1  0.2794945E-009  0.6150743E+02  0.7561462E-02  0.1391612E+00
         -2   -1    0    0    0  501 -0.00000000000E+00  0.00000000000E+00  0.20186571327E+02  0.20186571327E+02  0.00000000000E+00 0.  1.
          2   -1    0    0  501    0  0.00000000000E+00 -0.00000000000E+00 -0.55432646039E+03  0.55432646039E+03  0.00000000000E+00 0. -1.
         25    2    1    2    0    0 -0.22387965262E+02 -0.34305113397E+02 -0.33581191656E+03  0.36068680530E+03  0.12508903398E+03 0.  0.
          5    1    3    3  502    0 -0.37206760425E+02 -0.16627260098E+02 -0.33472072644E+03  0.33721839497E+03  0.41800000000E+01 0. -1.
         -5    1    3    3    0  502  0.14818795164E+02 -0.17677853299E+02 -0.10911901142E+01  0.23468410326E+02  0.41800000000E+01 0. -1.
        -11    1    1    2    0    0  0.34770374918E+01  0.38971941612E+02 -0.18750351449E+03  0.19154234511E+03  0.00000000000E+00 0. -1.
         11    1    1    2    0    0  0.18910927770E+02 -0.46668282147E+01 -0.10824458008E+02  0.22283881302E+02  0.00000000000E+00 0.  1.
</event>
<event>
 7    1  0.2794945E-009  0.2058077E+03  0.7561462E-02  0.1144930E+00
         -1   -1    0    0    0  501 -0.00000000000E+00  0.00000000000E+00  0.93953042390E+02  0.93953042390E+02  0.00000000000E+00 0.  1.
          1   -1    0    0  501    0  0.00000000000E+00 -0.00000000000E+00 -0.51389859882E+03  0.51389859882E+03  0.00000000000E+00 0. -1.
         25    2    1    2    0    0  0.14706902271E+03 -0.99977571285E+02 -0.31216605015E+03  0.38042062727E+03  0.12508956226E+03 0.  0.
          5    1    3    3  502    0 -0.14271914645E+02 -0.33928059617E+02 -0.25829073163E+02  0.45159873754E+02  0.41800000000E+01 0.  1.
         -5    1    3    3    0  502  0.16134093735E+03 -0.66049511668E+02 -0.28633697699E+03  0.33526075352E+03  0.41800000000E+01 0.  1.
        -11    1    1    2    0    0 -0.14921409245E+03  0.61087002129E+02 -0.84125408634E+02  0.18186135266E+03  0.00000000000E+00 0.  1.
         11    1    1    2    0    0  0.21450697398E+01  0.38890569156E+02 -0.23654097642E+02  0.45569661275E+02  0.00000000000E+00 0. -1.
</event>
<event>
 7    1  0.2794945E-009  0.2587193E+03  0.7561462E-02  0.1107915E+00
         -1   -1    0    0    0  501 -0.00000000000E+00  0.00000000000E+00  0.42391603014E+02  0.42391603014E+02  0.00000000000E+00 0.  1.
          1   -1    0    0  501    0  0.00000000000E+00 -0.00000000000E+00 -0.17188576290E+04  0.17188576290E+04  0.00000000000E+00 0. -1.
         25    2    1    2    0    0 -0.12087478450E+03 -0.21202450716E+03 -0.73888224538E+03  0.78813717615E+03  0.12509248869E+03 0.  0.
          5    1    3    3  502    0 -0.13645212769E+03 -0.21479451867E+03 -0.65569765885E+03  0.70335820222E+03  0.41800000000E+01 0.  1.
         -5    1    3    3    0  502  0.15577343191E+02  0.27700115178E+01 -0.83184586529E+02  0.84778973931E+02  0.41800000000E+01 0.  1.
        -11    1    1    2    0    0  0.47388478773E+02  0.51286465863E+02 -0.14337272533E+03  0.15947321991E+03  0.00000000000E+00 0.  1.
         11    1    1    2    0    0  0.73486305729E+02  0.16073804129E+03 -0.79421105530E+03  0.81363883597E+03  0.00000000000E+00 0. -1.
</event>
<event>
 7    1  0.2794945E-009  0.1144301E+03  0.7561462E-02  0.1252579E+00
         -2   -1    0    0    0  501 -0.00000000000E+00  0.00000000000E+00  0.31291218893E+02  0.31291218893E+02  0.00000000000E+00 0.  1.
          2   -1    0    0  501    0  0.00000000000E+00 -0.00000000000E+00 -0.44861856509E+03  0.44861856509E+03  0.00000000000E+00 0. -1.
         25    2    1    2    0    0  0.12234845107E+02 -0.47052666637E+02 -0.22326055229E+03  0.26050651401E+03  0.12511884255E+03 0.  0.
          5    1    3    3  502    0 -0.22768767032E+02  0.32896420337E+02 -0.36498788270E+02  0.54315975259E+02  0.41800000000E+01 0. -1.
         -5    1    3    3    0  502  0.35003612139E+02 -0.79949086973E+02 -0.18676176402E+03  0.20619053875E+03  0.41800000000E+01 0. -1.
        -11    1    1    2    0    0  0.34763733599E+02  0.12903735187E-01 -0.52071729807E+02  0.62609762700E+02  0.00000000000E+00 0. -1.
         11    1    1    2    0    0 -0.46998578706E+02  0.47039762901E+02 -0.14199506410E+03  0.15679350728E+03  0.00000000000E+00 0.  1.
</event>
<event>
 7    1  0.2794945E-009  0.9416666E+02  0.7561462E-02  0.1293064E+00
          1   -1    0    0  501    0  0.00000000000E+00  0.00000000000E+00  0.43824075148E+03  0.43824075148E+03  0.00000000000E+00 0. -1.
         -1   -1    0    0    0  501 -0.00000000000E+00 -0.00000000000E+00 -0.45259882521E+02  0.45259882521E+02  0.00000000000E+00 0.  1.
         25    2    1    2    0    0  0.15518703936E+02  0.75920947926E+02  0.29495514512E+03  0.32961893599E+03  0.12508111298E+03 0.  0.
          5    1    3    3  502    0  0.11666416327E+02 -0.51668587350E+01  0.21560681066E+03  0.21602446830E+03  0.41800000000E+01 0.  1.
         -5    1    3    3    0  502  0.38522876088E+01  0.81087806662E+02  0.79348334456E+02  0.11359446769E+03  0.41800000000E+01 0.  1.
        -11    1    1    2    0    0 -0.16905280171E+02  0.76387460996E+00  0.70329570752E+02  0.72336854537E+02  0.00000000000E+00 0. -1.
         11    1    1    2    0    0  0.13865762349E+01 -0.76684822536E+02  0.27696153084E+02  0.81544843471E+02  0.00000000000E+00 0.  1.
</event>
<event>
 7    1  0.2794945E-009  0.1103592E+03  0.7561462E-02  0.1259906E+00
          1   -1    0    0  501    0  0.00000000000E+00  0.00000000000E+00  0.95382393912E+02  0.95382393912E+02  0.00000000000E+00 0.  1.
         -1   -1    0    0    0  501 -0.00000000000E+00 -0.00000000000E+00 -0.27747407650E+03  0.27747407650E+03  0.00000000000E+00 0. -1.
         25    2    1    2    0    0 -0.30094820312E+02 -0.38796069808E+02  0.30396587693E+02  0.13777407560E+03  0.12508760979E+03 0.  0.
          5    1    3    3  502    0 -0.90488759297E+01  0.38589190112E+02 -0.18301813595E+02  0.43857000923E+02  0.41800000000E+01 0. -1.
         -5    1    3    3    0  502 -0.21045944383E+02 -0.77385259921E+02  0.48698401288E+02  0.93917074677E+02  0.41800000000E+01 0. -1.
        -11    1    1    2    0    0  0.37116534147E+02  0.64224106321E+02 -0.15593482354E+03  0.17267901474E+03  0.00000000000E+00 0. -1.
         11    1    1    2    0    0 -0.70217138346E+01 -0.25428036512E+02 -0.56553446745E+02  0.62403380075E+02  0.00000000000E+00 0.  1.
</event>
<event>
 7    1  0.2794945E-009  0.2024870E+03  0.7561462E-02  0.1147657E+00
         -2   -1    0    0    0  501 -0.00000000000E+00  0.00000000000E+00  0.24415020277E+02  0.24415020277E+02  0.00000000000E+00 0.  1.
          2   -1    0    0  501    0  0.00000000000E+00 -0.00000000000E+00 -0.22598157596E+04  0.22598157596E+04  0.00000000000E+00 0. -1.
         25    2    1    2    0    0  0.14560943946E+03  0.10765253738E+03 -0.16558249122E+04  0.16703880516E+04  0.12509566569E+03 0.  0.
          5    1    3    3  502    0  0.14823141477E+02 -0.22666856577E+02 -0.41401880632E+03  0.41492475980E+03  0.41800000000E+01 0. -1.
         -5    1    3    3    0  502  0.13078629798E+03  0.13031939395E+03 -0.12418061059E+04  0.12554632918E+04  0.41800000000E+01 0. -1.
        -11    1    1    2    0    0 -0.98030820260E+02 -0.31258059422E+02 -0.21544178099E+03  0.23875147957E+03  0.00000000000E+00 0. -1.
         11    1    1    2    0    0 -0.47578619200E+02 -0.76394477954E+02 -0.36413404615E+03  0.37509124867E+03  0.00000000000E+00 0.  1.
</event>
<event>
 7    1  0.2794945E-009  0.2902922E+03  0.7561462E-02  0.1090197E+00
          2   -1    0    0  501    0  0.00000000000E+00  0.00000000000E+00  0.20365374345E+03  0.20365374345E+03  0.00000000000E+00 0. -1.
         -2   -1    0    0    0  501 -0.00000000000E+00 -0.00000000000E+00 -0.45109777217E+03  0.45109777217E+03  0.00000000000E+00 0.  1.
         25    2    1    2    0    0  0.62184799743E+02  0.27105352482E+03 -0.69759353519E+02  0.31281354965E+03  0.12509591043E+03 0.  0.
          5    1    3    3  502    0  0.71868062447E+02  0.27970074706E+03 -0.57520650636E+02  0.29448875013E+03  0.41800000000E+01 0.  1.
         -5    1    3    3    0  502 -0.96832627040E+01 -0.86472222431E+01 -0.12238702883E+02  0.18324799518E+02  0.41800000000E+01 0.  1.
        -11    1    1    2    0    0 -0.31661281754E+02 -0.14770144053E+03 -0.43639548941E+02  0.15723410104E+03  0.00000000000E+00 0.  1.
         11    1    1    2    0    0 -0.30523517989E+02 -0.12335208428E+03 -0.13404512625E+03  0.18470386493E+03  0.00000000000E+00 0. -1.
</event>
<event>
 7    1  0.2794945E-009  0.1561629E+03  0.7561462E-02  0.1193098E+00
         -2   -1    0    0    0  501 -0.00000000000E+00  0.00000000000E+00  0.47408110348E+02  0.47408110348E+02  0.00000000000E+00 0. -1.
          2   -1    0    0  501    0  0.00000000000E+00 -0.00000000000E+00 -0.78302285365E+03  0.78302285365E+03  0.00000000000E+00 0.  1.
         25    2    1    2    0    0 -0.46668202608E+02 -0.13984223972E+03 -0.25828954854E+03  0.32263738458E+03  0.12509043887E+03 0.  0.
          5    1    3    3  502    0  0.53883449369E+01 -0.61328697763E+01  0.12883320329E+02  0.15814509020E+02  0.41800000000E+01 0. -1.
         -5    1    3    3    0  502 -0.52056547545E+02 -0.13370936994E+03 -0.27117286887E+03  0.30682287556E+03  0.41800000000E+01 0. -1.
        -11    1    1    2    0    0  0.27372334185E+02  0.11279700227E+02 -0.30769708544E+02  0.42699546599E+02  0.00000000000E+00 0. -1.
         11    1    1    2    0    0  0.19295868424E+02  0.12856253949E+03 -0.44655548622E+03  0.46509403283E+03  0.00000000000E+00 0.  1.
</event>
<event>
 7    1  0.2794945E-009  0.1416399E+03  0.7561462E-02  0.1211139E+00
         -1   -1    0    0    0  501 -0.00000000000E+00  0.00000000000E+00  0.20133431676E+03  0.20133431676E+03  0.00000000000E+00 0.  1.
          1   -1    0    0  501    0  0.00000000000E+00 -0.00000000000E+00 -0.11134250925E+03  0.11134250925E+03  0.00000000000E+00 0. -1.
         25    2    1    2    0    0  0.84450606703E+02  0.14774312233E+02  0.98042443092E+02  0.18059661539E+03  0.12511047746E+03 0.  0.
          5    1    3    3  502    0  0.99975391266E+01 -0.51008280124E+02  0.30933839817E+02  0.60631429767E+02  0.41800000000E+01 0. -1.
         -5    1    3    3    0  502  0.74453067576E+02  0.65782592357E+02  0.67108603275E+02  0.11996518563E+03  0.41800000000E+01 0. -1.
        -11    1    1    2    0    0 -0.97224420451E+02 -0.38643011535E+02 -0.88535513041E+01  0.10499645538E+03  0.00000000000E+00 0.  1.
         11    1    1    2    0    0  0.12773813748E+02  0.23868699303E+02  0.80291571805E+00  0.27083755237E+02  0.00000000000E+00 0. -1.
</event>
<event>
 7    1  0.2794945E-009  0.1321999E+03  0.7561462E-02  0.1224227E+00
         -2   -1    0    0    0  501 -0.00000000000E+00  0.00000000000E+00  0.33622819712E+02  0.33622819712E+02  0.00000000000E+00 0.  1.
          2   -1    0    0  501    0  0.00000000000E+00 -0.00000000000E+00 -0.55225522109E+03  0.55225522109E+03  0.00000000000E+00 0. -1.
         25    2    1    2    0    0 -0.72332123769E+02 -0.39352831626E+02 -0.28202830883E+03  0.31931343282E+03  0.12506206424E+03 0.  0.
          5    1    3    3  502    0 -0.40065664603E+02 -0.79990616345E+02 -0.22461949259E+03  0.24181634568E+03  0.41800000000E+01 0. -1.
         -5    1    3    3    0  502 -0.32266459166E+02  0.40637784719E+02 -0.57408816237E+02  0.77497087143E+02  0.41800000000E+01 0. -1.
        -11    1    1    2    0    0  0.76940122569E+02  0.62532826831E+02 -0.19077316021E+03  0.21499891987E+03  0.00000000000E+00 0.  1.
         11    1    1    2    0    0 -0.46079988004E+01 -0.23179995205E+02 -0.45830932344E+02  0.51565688109E+02  0.00000000000E+00 0. -1.
</event>
<event>
 7    1  0.2794945E-009  0.1051287E+03  0.7561462E-02  0.1269866E+00
          1   -1    0    0  501    0  0.00000000000E+00  0.00000000000E+00  0.14057277311E+03  0.14057277311E+03  0.00000000000E+00 0. -1.
         -1   -1    0    0    0  501 -0.00000000000E+00 -0.00000000000E+00 -0.13961550064E+03  0.13961550064E+03  0.00000000000E+00 0.  1.
         25    2    1    2    0    0  0.28201241970E+02  0.84166586029E+02  0.24604674500E+01  0.15340196391E+03  0.12508710716E+03 0.  0.
          5    1    3    3  502    0  0.68896574066E+01  0.40771393653E+02 -0.60816120519E+02  0.73660347777E+02  0.41800000000E+01 0. -1.
         -5    1    3    3    0  502  0.21311584563E+02  0.43395192376E+02  0.63276587969E+02  0.79741616129E+02  0.41800000000E+01 0. -1.
        -11    1    1    2    0    0 -0.48746283897E+02 -0.86706334504E+02  0.14631427737E+02  0.10053987922E+03  0.00000000000E+00 0. -1.
         11    1    1    2    0    0  0.20545041927E+02  0.25397484750E+01 -0.16134622714E+02  0.26246430619E+02  0.00000000000E+00 0.  1.
</event>
<event>
 7    1  0.2794945E-009  0.8319066E+02  0.7561462E-02  0.1320233E+00
          2   -1    0    0  501    0  0.00000000000E+00  0.00000000000E+00  0.33878657319E+03  0.33878657319E+03  0.00000000000E+00 0.  1.
         -2   -1    0    0    0  501 -0.00000000000E+00 -0.00000000000E+00 -0.51931562631E+02  0.51931562631E+02  0.00000000000E+00 0. -1.
         25    2    1    2    0    0 -0.44643674725E+02  0.65648003611E+02  0.17775710255E+03  0.23140196895E+03  0.12508623288E+03 0.  0.
          5    1    3    3  502    0 -0.43766425195E+01  0.29854210403E+02 -0.13014077853E+02  0.33125028316E+02  0.41800000000E+01 0. -1.
         -5    1    3    3    0  502 -0.40267032205E+02  0.35793793208E+02  0.19077118041E+03  0.19827694064E+03  0.41800000000E+01 0. -1.
        -11    1    1    2    0    0  0.31849230001E+02 -0.29034560583E+02 -0.45581231552E+00  0.43099732305E+02  0.00000000000E+00 0. -1.
         11    1    1    2    0    0  0.12794444724E+02 -0.36613443029E+02  0.10955372032E+03  0.11621643457E+03  0.00000000000E+00 0.  1.
</event>
<event>
 7    1  0.2794945E-009  0.1215867E+03  0.7561462E-02  0.1240502E+00
          3   -1    0    0  501    0  0.00000000000E+00  0.00000000000E+00  0.50281071946E+02  0.50281071946E+02  0.00000000000E+00 0. -1.
         -3   -1    0    0    0  501 -0.00000000000E+00 -0.00000000000E+00 -0.51315172067E+03  0.51315172067E+03  0.00000000000E+00 0.  1.
         25    2    1    2    0    0 -0.82334811605E+02 -0.43467147394E+02 -0.38113036055E+03  0.41179486704E+03  0.12508495786E+03 0.  0.
          5    1    3    3  502    0 -0.10922052287E+03 -0.16668101593E+02 -0.32963620747E+03  0.34768441136E+03  0.41800000000E+01 0.  1.
         -5    1    3    3    0  502  0.26885711268E+02 -0.26799045801E+02 -0.51494153081E+02  0.64110455682E+02  0.41800000000E+01 0.  1.
        -11    1    1    2    0    0  0.53914480652E+02  0.19802583834E+02 -0.96107589858E+02  0.11196241503E+03  0.00000000000E+00 0.  1.
         11    1    1    2    0    0  0.28420330953E+02  0.23664563560E+02  0.14367301680E+02  0.39675510551E+02  0.00000000000E+00 0. -1.
</event>
<event>
 7    1  0.2794945E-009  0.1181910E+03  0.7561462E-02  0.1246112E+00
         -1   -1    0    0    0  501 -0.00000000000E+00  0.00000000000E+00  0.16451640741E+03  0.16451640741E+03  0.00000000000E+00 0.  1.
          1   -1    0    0  501    0  0.00000000000E+00 -0.00000000000E+00 -0.12852314420E+03  0.12852314420E+03  0.00000000000E+00 0. -1.
         25    2    1    2    0    0 -0.73855082164E+02 -0.14202157491E+02  0.83070494090E+02  0.16794183769E+03  0.12508988536E+03 0.  0.
          5    1    3    3  502    0  0.11207653806E+02  0.24890734860E+02 -0.15720060827E+02  0.31776609292E+02  0.41800000000E+01 0. -1.
         -5    1    3    3    0  502 -0.85062735970E+02 -0.39092892350E+02  0.98790554916E+02  0.13616522839E+03  0.41800000000E+01 0. -1.
        -11    1    1    2    0    0  0.90209005645E+02 -0.43650788682E+01 -0.30544014918E+02  0.95339684603E+02  0.00000000000E+00 0.  1.
         11    1    1    2    0    0 -0.16353923481E+02  0.18567236359E+02 -0.16533215957E+02  0.29758029322E+02  0.00000000000E+00 0. -1.
</event>
<event>
 7    1  0.2794945E-009  0.1422541E+03  0.7561462E-02  0.1210328E+00
          1   -1    0    0  501    0  0.00000000000E+00  0.00000000000E+00  0.15227946850E+03  0.15227946850E+03  0.00000000000E+00 0. -1.
         -1   -1    0    0    0  501 -0.00000000000E+00 -0.00000000000E+00 -0.18662804301E+03  0.18662804301E+03  0.00000000000E+00 0.  1.
         25    2    1    2    0    0 -0.43588222431E+02  0.11397959638E+03  0.23122349073E+02  0.17627853385E+03  0.12509275337E+03 0.  0.
          5    1    3    3  502    0 -0.55811090104E+02  0.40713382082E+02  0.61482843915E+02  0.92574671239E+02  0.41800000000E+01 0.  1.
         -5    1    3    3    0  502  0.12222867673E+02  0.73266214296E+02 -0.38360494842E+02  0.83703862611E+02  0.41800000000E+01 0.  1.
        -11    1    1    2    0    0  0.24154761227E+02 -0.11851116995E+03 -0.69336696555E+02  0.13941279490E+03  0.00000000000E+00 0.  1.
         11    1    1    2    0    0  0.19433461204E+02  0.45315735737E+01  0.11865772978E+02  0.23216182757E+02  0.00000000000E+00 0. -1.
</event>
<event>
 7    1  0.2794945E-009  0.6840713E+02  0.7561462E-02  0.1365595E+00
          4   -1    0    0  501    0  0.00000000000E+00  0.00000000000E+00  0.19971226464E+03  0.19971226464E+03  0.00000000000E+00 0. -1.
         -4   -1    0    0    0  501 -0.00000000000E+00 -0.00000000000E+00 -0.64212263961E+02  0.64212263961E+02  0.00000000000E+00 0.  1.
         25    2    1    2    0    0 -0.13693744540E+02  0.21298271395E+02  0.10342499180E+03  0.16427374383E+03  0.12509196208E+03 0.  0.
          5    1    3    3  502    0  0.17851057433E+02 -0.23266216050E+02  0.10539582758E+03  0.10947935847E+03  0.41800000000E+01 0.  1.
         -5    1    3    3    0  502 -0.31544801973E+02  0.44564487444E+02 -0.19708357733E+01  0.54794385354E+02  0.41800000000E+01 0.  1.
        -11    1    1    2    0    0 -0.14715682644E+02 -0.18857036651E+02  0.56976665802E+02  0.61793847533E+02  0.00000000000E+00 0. -1.
         11    1    1    2    0    0  0.28409427185E+02 -0.24412347438E+01 -0.24901656925E+02  0.37856937246E+02  0.00000000000E+00 0.  1.
</event>
<event>
 7    1  0.2794945E-009  0.1314736E+03  0.7561462E-02  0.1225285E+00
          2   -1    0    0  501    0  0.00000000000E+00  0.00000000000E+00  0.13063137529E+03  0.13063137529E+03  0.00000000000E+00 0. -1.
         -2   -1    0    0    0  501 -0.00000000000E+00 -0.00000000000E+00 -0.20722920011E+03  0.20722920011E+03  0.00000000000E+00 0.  1.
         25    2    1    2    0    0  0.89965714321E+02 -0.79119599134E+02 -0.56662494610E+01  0.17330082736E+03  0.12508928676E+03 0.  0.
          5    1    3    3  502    0  0.10473653265E+02  0.28705559262E+01  0.46317856450E+02  0.47757237464E+02  0.41800000000E+01 0.  1.
         -5    1    3    3    0  502  0.79492061056E+02 -0.81990155061E+02 -0.51984105911E+02  0.12554358990E+03  0.41800000000E+01 0.  1.
        -11    1    1    2    0    0 -0.44339446025E+02 -0.15390695225E+01  0.51444056503E+01  0.44663409166E+02  0.00000000000E+00 0. -1.
         11    1    1    2    0    0 -0.45626268295E+02  0.80658668657E+02 -0.76075981015E+02  0.11989633887E+03  0.00000000000E+00 0.  1.
</event>
<event>
 7    1  0.2794945E-009  0.5618668E+02  0.7561462E-02  0.1414569E+00
         -1   -1    0    0    0  501 -0.00000000000E+00  0.00000000000E+00  0.46786904836E+02  0.46786904836E+02  0.00000000000E+00 0.  1.
          1   -1    0    0  501    0  0.00000000000E+00 -0.00000000000E+00 -0.26259418451E+03  0.26259418451E+03  0.00000000000E+00 0. -1.
         25    2    1    2    0    0  0.62412710318E+01 -0.21352873628E+02 -0.12079423137E+03  0.17531034294E+03  0.12509025275E+03 0.  0.
          5    1    3    3  502    0  0.18147996936E+02 -0.29504557175E+02  0.15508742125E+02  0.38181961306E+02  0.41800000000E+01 0.  1.
         -5    1    3    3    0  502 -0.11906725904E+02  0.81516835473E+01 -0.13630297350E+03  0.13712838164E+03  0.41800000000E+01 0.  1.
        -11    1    1    2    0    0 -0.28343884592E+02 -0.42230106490E+01 -0.96068127001E+02  0.10025115779E+03  0.00000000000E+00 0. -1.
         11    1    1    2    0    0  0.22102613560E+02  0.25575884277E+02  0.10550787000E+01  0.33819588611E+02  0.00000000000E+00 0.  1.
</event>
<event>
 7    1  0.2794945E-009  0.7302127E+02  0.7561462E-02  0.1350110E+00
          1   -1    0    0  501    0  0.00000000000E+00  0.00000000000E+00  0.66300328219E+02  0.66300328219E+02  0.00000000000E+00 0. -1.
         -1   -1    0    0    0  501 -0.00000000000E+00 -0.00000000000E+00 -0.23181679751E+03  0.23181679751E+03  0.00000000000E+00 0.  1.
         25    2    1    2    0    0  0.12939142461E+02 -0.33724481078E+02 -0.10991369959E+03  0.17038539731E+03  0.12508157429E+03 0.  0.
          5    1    3    3  502    0  0.22350784392E+02  0.20609112862E+02  0.14718447362E+02  0.34035249208E+02  0.41800000000E+01 0. -1.
         -5    1    3    3    0  502 -0.94116419310E+01 -0.54333593940E+02 -0.12463214695E+03  0.13635014810E+03  0.41800000000E+01 0. -1.
        -11    1    1    2    0    0  0.42503857372E+00  0.43495917957E+02 -0.84152184745E+02  0.94729434359E+02  0.00000000000E+00 0.  1.
         11    1    1    2    0    0 -0.13364181035E+02 -0.97714368792E+01  0.28549415046E+02  0.33002294055E+02  0.00000000000E+00 0. -1.
</event>
<event>
 7    1  0.2794945E-009  0.8586029E+02  0.7561462E-02  0.1313198E+00
          1   -1    0    0  501    0  0.00000000000E+00  0.00000000000E+00  0.21505162510E+03  0.21505162510E+03  0.00000000000E+00 0. -1.
         -1   -1    0    0    0  501 -0.00000000000E+00 -0.00000000000E+00 -0.71328752286E+02  0.71328752286E+02  0.00000000000E+00 0.  1.
         25    2    1    2    0    0 -0.42448951870E+00  0.43142060922E+02  0.30676633120E+02  0.13583145812E+03  0.12509081335E+03 0.  0.
          5    1    3    3  502    0  0.10964085890E+02 -0.40979294552E+02  0.27605557196E+02  0.50784377021E+02  0.41800000000E+01 0.  1.
         -5    1    3    3    0  502 -0.11388575409E+02  0.84121355474E+02  0.30710759243E+01  0.85047081102E+02  0.41800000000E+01 0.  1.
        -11    1    1    2    0    0  0.47899920564E+01 -0.22500777923E+02  0.12445540847E+03  0.12656372991E+03  0.00000000000E+00 0. -1.
         11    1    1    2    0    0 -0.43655025377E+01 -0.20641282999E+02 -0.11409168775E+02  0.23985189355E+02  0.00000000000E+00 0.  1.
</event>
<event>
 7    1  0.2794945E-009  0.1772619E+03  0.7561462E-02  0.1170480E+00
         -1   -1    0    0    0  501 -0.00000000000E+00  0.00000000000E+00  0.50840323717E+02  0.50840323717E+02  0.00000000000E+00 0.  1.
          1   -1    0    0  501    0  0.00000000000E+00 -0.00000000000E+00 -0.13749311759E+04  0.13749311759E+04  0.00000000000E+00 0. -1.
         25    2    1    2    0    0  0.14960024922E+03  0.25718613771E+02 -0.11820488208E+04  0.11983033314E+04  0.12509907125E+03 0.  0.
          5    1    3    3  502    0  0.32371474105E+02  0.65041003218E+02 -0.46491353667E+03  0.47057445045E+03  0.41800000000E+01 0. -1.
         -5    1    3    3    0  502  0.11722877512E+03 -0.39322389447E+02 -0.71713528412E+03  0.72772888095E+03  0.41800000000E+01 0. -1.
        -11    1    1    2    0    0 -0.11714550392E+03 -0.85394544696E+00 -0.51197625994E+02  0.12784754679E+03  0.00000000000E+00 0.  1.
         11    1    1    2    0    0 -0.32454745298E+02 -0.24864668324E+02 -0.90844405371E+02  0.99620621411E+02  0.00000000000E+00 0. -1.
</event>
<event>
 7    1  0.2794945E-009  0.9909611E+02  0.7561462E-02  0.1282208E+00
         -2   -1    0    0    0  501 -0.00000000000E+00  0.00000000000E+00  0.10343291612E+03  0.10343291612E+03  0.00000000000E+00 0.  1.
          2   -1    0    0  501    0  0.00000000000E+00 -0.00000000000E+00 -0.15344546324E+03  0.15344546324E+03  0.00000000000E+00 0. -1.
         25    2    1    2    0    0 -0.14503139549E+02  0.43960470995E+02  0.17561336885E+02  0.13453121947E+03  0.12508950552E+03 0.  0.
          5    1    3    3  502    0  0.52462179640E+02  0.31172752603E+02  0.24466980426E+02  0.65879635159E+02  0.41800000000E+01 0.  1.
         -5    1    3    3    0  502 -0.66965319189E+02  0.12787718392E+02 -0.69056435411E+01  0.68651584311E+02  0.41800000000E+01 0.  1.
        -11    1    1    2    0    0  0.19005239065E+02  0.49215867031E+01  0.16064603709E+02  0.25367156324E+02  0.00000000000E+00 0.  1.
         11    1    1    2    0    0 -0.45020995167E+01 -0.48882057698E+02 -0.83638487718E+02  0.96980003571E+02  0.00000000000E+00 0. -1.
</event>
<event>
 7    1  0.2794945E-009  0.1232263E+03  0.7561462E-02  0.1237868E+00
         -1   -1    0    0    0  501 -0.00000000000E+00  0.00000000000E+00  0.37536610137E+02  0.37536610137E+02  0.00000000000E+00 0.  1.
          1   -1    0    0  501    0  0.00000000000E+00 -0.00000000000E+00 -0.43145177282E+03  0.43145177282E+03  0.00000000000E+00 0. -1.
         25    2    1    2    0    0  0.44876885830E+02 -0.49223990637E+02 -0.20497317037E+03  0.24919563272E+03  0.12509007419E+03 0.  0.
          5    1    3    3  502    0  0.44800124803E+02  0.33179003835E+02 -0.57417673025E+02  0.80138374412E+02  0.41800000000E+01 0. -1.
         -5    1    3    3    0  502  0.76761027005E-01 -0.82402994472E+02 -0.14755549735E+03  0.16905725831E+03  0.41800000000E+01 0. -1.
        -11    1    1    2    0    0 -0.39028381654E+01 -0.23900440744E+02 -0.20831643245E+02  0.31944022505E+02  0.00000000000E+00 0.  1.
         11    1    1    2    0    0 -0.40974047665E+02  0.73124431381E+02 -0.16811034907E+03  0.18784872773E+03  0.00000000000E+00 0. -1.
</event>
<event>
 7    1  0.2794945E-009  0.7036838E+02  0.7561462E-02  0.1358845E+00
          3   -1    0    0  501    0  0.00000000000E+00  0.00000000000E+00  0.36369604583E+02  0.36369604583E+02  0.00000000000E+00 0. -1.
         -3   -1    0    0    0  501 -0.00000000000E+00 -0.00000000000E+00 -0.45179039074E+03  0.45179039074E+03  0.00000000000E+00 0.  1.
         25    2    1    2    0    0  0.12060481123E+02  0.32129598115E+02 -0.12172849554E+03  0.17788364584E+03  0.12508796326E+03 0.  0.
          5    1    3    3  502    0  0.27102170573E+02  0.26390035805E+02 -0.14464438159E+03  0.14956748031E+03  0.41800000000E+01 0. -1.
         -5    1    3    3    0  502 -0.15041689449E+02  0.57395623102E+01  0.22915886054E+02  0.28316165536E+02  0.41800000000E+01 0. -1.
        -11    1    1    2    0    0  0.60912448868E+01  0.25192126730E+02 -0.29233453109E+02  0.39068418117E+02  0.00000000000E+00 0. -1.
         11    1    1    2    0    0 -0.18151726010E+02 -0.57321724845E+02 -0.26445883751E+03  0.27120793136E+03  0.00000000000E+00 0.  1.
</event>
<event>
 7    1  0.2794945E-009  0.2004987E+03  0.7561462E-02  0.1149319E+00
         -1   -1    0    0    0  501 -0.00000000000E+00  0.00000000000E+00  0.12372590894E+03  0.12372590894E+03  0.00000000000E+00 0.  1.
          1   -1    0    0  501    0  0.00000000000E+00 -0.00000000000E+00 -0.62397665181E+03  0.62397665181E+03  0.00000000000E+00 0. -1.
         25    2    1    2    0    0  0.15627282449E+03 -0.10760813192E+03 -0.26036738662E+02  0.22874980516E+03  0.12509139007E+03 0.  0.
          5    1    3    3  502    0  0.68806863955E+02 -0.58193489023E+02  0.49582932472E+02  0.10294079019E+03  0.41800000000E+01 0. -1.
         -5    1    3    3    0  502  0.87465960536E+02 -0.49414642898E+02 -0.75619671134E+02  0.12580901497E+03  0.41800000000E+01 0. -1.
        -11    1    1    2    0    0 -0.79291327995E+02  0.10709720572E+03 -0.28213408797E+03  0.31202014320E+03  0.00000000000E+00 0.  1.
         11    1    1    2    0    0 -0.76981496495E+02  0.51092620105E+00 -0.19207991624E+03  0.20693261239E+03  0.00000000000E+00 0. -1.
</event>
<event>
 7    1  0.2794945E-009  0.9165060E+02  0.7561462E-02  0.1298903E+00
         -1   -1    0    0    0  501 -0.00000000000E+00  0.00000000000E+00  0.63404129226E+02  0.63404129226E+02  0.00000000000E+00 0.  1.
          1   -1    0    0  501    0  0.00000000000E+00 -0.00000000000E+00 -0.23528882499E+03  0.23528882499E+03  0.00000000000E+00 0. -1.
         25    2    1    2    0    0 -0.33815049334E+02 -0.22511223274E+02 -0.14083272338E+03  0.19269525658E+03  0.12508954072E+03 0.  0.
          5    1    3    3  502    0 -0.44059442374E+02 -0.43861067842E+02 -0.14341795433E+02  0.63938933607E+02  0.41800000000E+01 0.  1.
         -5    1    3    3    0  502  0.10244393039E+02  0.21349844568E+02 -0.12649092795E+03  0.12875632297E+03  0.41800000000E+01 0.  1.
        -11    1    1    2    0    0  0.58610035909E+02  0.35935143450E+02 -0.73088337654E+01  0.69136747790E+02  0.00000000000E+00 0.  1.
         11    1    1    2    0    0 -0.24794986575E+02 -0.13423920176E+02 -0.23743138614E+02  0.36860949843E+02  0.00000000000E+00 0. -1.
</event>
<event>
 7    1  0.2794945E-009  0.1132440E+03  0.7561462E-02  0.1254678E+00
          2   -1    0    0  501    0  0.00000000000E+00  0.00000000000E+00  0.12850796517E+03  0.12850796517E+03  0.00000000000E+00 0. -1.
         -2   -1    0    0    0  501 -0.00000000000E+00 -0.00000000000E+00 -0.16173977355E+03  0.16173977355E+03  0.00000000000E+00 0.  1.
         25    2    1    2    0    0 -0.93692071862E+02 -0.15601832460E+02 -0.21894665140E+02  0.15858347882E+03  0.12509085453E+03 0.  0.
          5    1    3    3  502    0 -0.79502608493E+02 -0.46809294657E+02 -0.57651809351E+02  0.10887138442E+03  0.41800000000E+01 0.  1.
         -5    1    3    3    0  502 -0.14189463369E+02  0.31207462197E+02  0.35757144211E+02  0.49712094400E+02  0.41800000000E+01 0.  1.
        -11    1    1    2    0    0  0.77357008614E+02  0.50981647703E+00 -0.46352860709E+02  0.90182894112E+02  0.00000000000E+00 0.  1.
         11    1    1    2    0    0  0.16335063248E+02  0.15092015983E+02  0.35015717476E+02  0.41481365794E+02  0.00000000000E+00 0. -1.
</event>
<event>
 7    1  0.2926224E-009  0.9462069E+02  0.7561462E-02  0.1292033E+00
         -3   -1    0    0    0  501 -0.00000000000E+00  0.00000000000E+00  0.14374217991E+02  0.14374217991E+02  0.00000000000E+00 0.  1.
          3   -1    0    0  501    0  0.00000000000E+00 -0.00000000000E+00 -0.99500569613E+03  0.99500569613E+03  0.00000000000E+00 0. -1.
         25    2    1    2    0    0 -0.15092571364E+02 -0.30342132095E+02 -0.71081600926E+03  0.72253344027E+03  0.12508694015E+03 0.  0.
          5    1    3    3  502    0 -0.28503596145E+02  0.34419250763E+02 -0.12190006571E+03  0.12990087850E+03  0.41800000000E+01 0. -1.
         -5    1    3    3    0  502  0.13411024780E+02 -0.64761382858E+02 -0.58891594355E+03  0.59263256176E+03  0.41800000000E+01 0. -1.
        -11    1    1    2    0    0 -0.21078238912E+02 -0.10486936913E+02 -0.19245783051E+02  0.30408356856E+02  0.00000000000E+00 0.  1.
         11    1    1    2    0    0  0.36170810276E+02  0.40829069008E+02 -0.25056968583E+03  0.25643811700E+03  0.00000000000E+00 0. -1.
</event>
<event>
 7    1  0.2794945E-009  0.2140054E+03  0.7561462E-02  0.1138433E+00
         -3   -1    0    0    0  501 -0.00000000000E+00  0.00000000000E+00  0.18090222002E+03  0.18090222002E+03  0.00000000000E+00 0.  1.
          3   -1    0    0  501    0  0.00000000000E+00 -0.00000000000E+00 -0.34538786718E+03  0.34538786718E+03  0.00000000000E+00 0. -1.
         25    2    1    2    0    0 -0.17679975359E+03 -0.99986881007E+02 -0.18654972811E+03  0.30282722963E+03  0.12509196897E+03 0.  0.
          5    1    3    3  502    0 -0.14622240006E+03 -0.65375217699E+02 -0.19834632553E+03  0.25497773750E+03  0.41800000000E+01 0.  1.
         -5    1    3    3    0  502 -0.30577353539E+02 -0.34611663308E+02  0.11796597419E+02  0.47849492129E+02  0.41800000000E+01 0.  1.
        -11    1    1    2    0    0  0.12582980004E+03  0.11265525437E+03  0.79489373039E+01  0.16907847444E+03  0.00000000000E+00 0.  1.
         11    1    1    2    0    0  0.50969953552E+02 -0.12668373359E+02  0.14115143651E+02  0.54384383135E+02  0.00000000000E+00 0. -1.
</event>
<event>
 7    1  0.2794945E-009  0.2629449E+03  0.7561462E-02  0.1105387E+00
         -1   -1    0    0    0  501 -0.00000000000E+00  0.00000000000E+00  0.60110378576E+02  0.60110378576E+02  0.00000000000E+00 0. -1.
          1   -1    0    0  501    0  0.00000000000E+00 -0.00000000000E+00 -0.13695207068E+04  0.13695207068E+04  0.00000000000E+00 0.  1.
         25    2    1    2    0    0  0.16838797873E+03 -0.17623217592E+03 -0.93096624253E+03  0.97043996318E+03  0.12507312343E+03 0.  0.
          5    1    3    3  502    0  0.67222853080E+02 -0.15558569989E+03 -0.53557688887E+03  0.56177032520E+03  0.41800000000E+01 0.  1.
         -5    1    3    3    0  502  0.10116512565E+03 -0.20646476031E+02 -0.39538935366E+03  0.40866963798E+03  0.41800000000E+01 0.  1.
        -11    1    1    2    0    0  0.31045616498E+01  0.22475058788E+02 -0.10265566140E+02  0.24902779338E+02  0.00000000000E+00 0. -1.
         11    1    1    2    0    0 -0.17149254038E+03  0.15375711713E+03 -0.36817851954E+03  0.43428834284E+03  0.00000000000E+00 0.  1.
</event>
<event>
 7    1  0.2794945E-009  0.1022186E+03  0.7561462E-02  0.1275698E+00
         -2   -1    0    0    0  501 -0.00000000000E+00  0.00000000000E+00  0.48103407946E+02  0.48103407946E+02  0.00000000000E+00 0.  1.
          2   -1    0    0  501    0  0.00000000000E+00 -0.00000000000E+00 -0.36245635659E+03  0.36245635659E+03  0.00000000000E+00 0. -1.
         25    2    1    2    0    0 -0.59263189569E+02  0.52498786887E+01 -0.24476415795E+03  0.28124150033E+03  0.12509037383E+03 0.  0.
          5    1    3    3  502    0 -0.39912066863E+02  0.39492782924E+02 -0.31857387516E+02  0.64691719127E+02  0.41800000000E+01 0. -1.
         -5    1    3    3    0  502 -0.19351122707E+02 -0.34242904235E+02 -0.21290677044E+03  0.21654978120E+03  0.41800000000E+01 0. -1.
        -11    1    1    2    0    0  0.83678273964E+02 -0.77515216864E+01 -0.58457601429E+02  0.10236909097E+03  0.00000000000E+00 0. -1.
         11    1    1    2    0    0 -0.24415084395E+02  0.25016429977E+01 -0.11131189265E+02  0.26949173237E+02  0.00000000000E+00 0.  1.
</event>
<event>
 7    1  0.2794945E-009  0.1033399E+03  0.7561462E-02  0.1273425E+00
         -1   -1    0    0    0  501 -0.00000000000E+00  0.00000000000E+00  0.15470453589E+03  0.15470453589E+03  0.00000000000E+00 0.  1.
          1   -1    0    0  501    0  0.00000000000E+00 -0.00000000000E+00 -0.11871219309E+03  0.11871219309E+03  0.00000000000E+00 0. -1.
         25    2    1    2    0    0 -0.67750622500E+02 -0.33514021688E+01  0.68513444294E+02  0.15793229239E+03  0.12508852139E+03 0.  0.
          5    1    3    3  502    0 -0.89901167453E+01 -0.35823745027E+02 -0.23483153135E+02  0.43966962460E+02  0.41800000000E+01 0. -1.
         -5    1    3    3    0  502 -0.58760505755E+02  0.32472342858E+02  0.91996597429E+02  0.11396532993E+03  0.41800000000E+01 0. -1.
        -11    1    1    2    0    0  0.30199906331E+02  0.39767506661E+02 -0.38196853264E+02  0.62868819996E+02  0.00000000000E+00 0. -1.
         11    1    1    2    0    0  0.37550716169E+02 -0.36416104492E+02  0.56757517706E+01  0.52615616592E+02  0.00000000000E+00 0.  1.
</event>
<event>
 7    1  0.2794945E-009  0.1459624E+03  0.7561462E-02  0.1205524E+00
         -3   -1    0    0    0  501 -0.00000000000E+00  0.00000000000E+00  0.97602040714E+02  0.97602040714E+02  0.00000000000E+00 0.  1.
          3   -1    0    0  501    0  0.00000000000E+00 -0.00000000000E+00 -0.38101902429E+03  0.38101902429E+03  0.00000000000E+00 0. -1.
         25    2    1    2    0    0  0.11393704441E+03 -0.48051244346E+02 -0.24251597241E+02  0.17756315184E+03  0.12509980316E+03 0.  0.
          5    1    3    3  502    0  0.24093018158E+02  0.32680623732E+02 -0.38197115941E+02  0.55901598883E+02  0.41800000000E+01 0.  1.
         -5    1    3    3    0  502  0.89844026251E+02 -0.80731868078E+02  0.13945518700E+02  0.12166155296E+03  0.41800000000E+01 0.  1.
        -11    1    1    2    0    0 -0.29879038467E+02  0.33589927033E+02 -0.24124908140E+02  0.51020107120E+02  0.00000000000E+00 0.  1.
         11    1    1    2    0    0 -0.84058005942E+02  0.14461317313E+02 -0.23504047820E+03  0.25003780605E+03  0.00000000000E+00 0. -1.
</event>
<event>
 7    1  0.2794945E-009  0.2218026E+03  0.7561462E-02  0.1132546E+00
         -2   -1    0    0    0  501 -0.00000000000E+00  0.00000000000E+00  0.16367160779E+03  0.16367160779E+03  0.00000000000E+00 0.  1.
          2   -1    0    0  501    0  0.00000000000E+00 -0.00000000000E+00 -0.33532023171E+03  0.33532023171E+03  0.00000000000E+00 0. -1.
         25    2    1    2    0    0  0.18532876879E+03  0.82067803598E+02 -0.42719761170E+02  0.24197960144E+03  0.12508905863E+03 0.  0.
          5    1    3    3  502    0  0.19806904338E+03  0.92246150804E+02 -0.49087234038E+02  0.22398153323E+03  0.41800000000E+01 0. -1.
         -5    1    3    3    0  502 -0.12740274589E+02 -0.10178347206E+02  0.63674728685E+01  0.17998068207E+02  0.41800000000E+01 0. -1.
        -11    1    1    2    0    0 -0.14049870438E+03 -0.38399901684E+02 -0.45249099536E+02  0.15251858703E+03  0.00000000000E+00 0.  1.
         11    1    1    2    0    0 -0.44830064412E+02 -0.43667901914E+02 -0.83679763214E+02  0.10449365102E+03  0.00000000000E+00 0. -1.
</event>
<event>
 7    1  0.2794945E-009  0.1453972E+03  0.7561462E-02  0.1206246E+00
          1   -1    0    0  501    0  0.00000000000E+00  0.00000000000E+00  0.57189337371E+03  0.57189337371E+03  0.00000000000E+00 0. -1.
         -1   -1    0    0    0  501 -0.00000000000E+00 -0.00000000000E+00 -0.38968840506E+02  0.38968840506E+02  0.00000000000E+00 0.  1.
         25    2    1    2    0    0 -0.49839923365E+02  0.84051429888E+02  0.34414942039E+03  0.37899235272E+03  0.12509084315E+03 0.  0.
          5    1    3    3  502    0  0.34911505567E+02 -0.46600968057E+01  0.65128365550E+02  0.74160003522E+02  0.41800000000E+01 0. -1.
         -5    1    3    3    0  502 -0.84751428932E+02  0.88711526694E+02  0.27902105484E+03  0.30483234920E+03  0.41800000000E+01 0. -1.
        -11    1    1    2    0    0  0.61807515984E+02 -0.16512832119E+02  0.70949262148E+02  0.95533452026E+02  0.00000000000E+00 0. -1.
         11    1    1    2    0    0 -0.11967592619E+02 -0.67538597769E+02  0.11782585067E+03  0.13633640947E+03  0.00000000000E+00 0.  1.
</event>
<event>
 7    1  0.2794945E-009  0.9052492E+02  0.7561462E-02  0.1301585E+00
         -2   -1    0    0    0  501 -0.00000000000E+00  0.00000000000E+00  0.95835052678E+02  0.95835052678E+02  0.00000000000E+00 0. -1.
          2   -1    0    0  501    0  0.00000000000E+00 -0.00000000000E+00 -0.18909855642E+03  0.18909855642E+03  0.00000000000E+00 0.  1.
         25    2    1    2    0    0  0.20745465040E+02  0.55880161677E+02  0.39805493570E+01  0.13862424513E+03  0.12509144565E+03 0.  0.
          5    1    3    3  502    0  0.34170517664E+02  0.47663456113E+02 -0.53125432906E+02  0.79241487540E+02  0.41800000000E+01 0.  1.
         -5    1    3    3    0  502 -0.13425052624E+02  0.82167055640E+01  0.57105982263E+02  0.59382757586E+02  0.41800000000E+01 0.  1.
        -11    1    1    2    0    0  0.32278012116E+02 -0.53390036518E+01 -0.47828119846E+02  0.57947425086E+02  0.00000000000E+00 0.  1.
         11    1    1    2    0    0 -0.53023477156E+02 -0.50541158025E+02 -0.49415933250E+02  0.88361938883E+02  0.00000000000E+00 0. -1.
</event>
<event>
 7    1  0.2794945E-009  0.2786166E+03  0.7561462E-02  0.1096447E+00
          2   -1    0    0  501    0  0.00000000000E+00  0.00000000000E+00  0.42014956252E+03  0.42014956252E+03  0.00000000000E+00 0. -1.
         -2   -1    0    0    0  501 -0.00000000000E+00 -0.00000000000E+00 -0.20735893932E+03  0.20735893932E+03  0.00000000000E+00 0.  1.
         25    2    1    2    0    0 -0.29947414843E+02  0.26673343240E+03  0.16891502072E+03  0.34091469517E+03  0.12508786329E+03 0.  0.
          5    1    3    3  502    0 -0.65800603845E+01  0.26459346286E+03  0.17369217478E+03  0.31660613033E+03  0.41800000000E+01 0.  1.
         -5    1    3    3    0  502 -0.23367354458E+02  0.21399695450E+01 -0.47771540573E+01  0.24308564847E+02  0.41800000000E+01 0.  1.
        -11    1    1    2    0    0  0.20241320771E+02 -0.12530704243E+03 -0.24390934800E+02  0.12925356339E+03  0.00000000000E+00 0.  1.
         11    1    1    2    0    0  0.97060940721E+01 -0.14142638997E+03  0.68266537273E+02  0.15734024328E+03  0.00000000000E+00 0. -1.
</event>
<event>
 7    1  0.2794945E-009  0.1047965E+03  0.7561462E-02  0.1270521E+00
          1   -1    0    0  501    0  0.00000000000E+00  0.00000000000E+00  0.46889249509E+02  0.46889249509E+02  0.00000000000E+00 0. -1.
         -1   -1    0    0    0  501 -0.00000000000E+00 -0.00000000000E+00 -0.32277998306E+03  0.32277998306E+03  0.00000000000E+00 0.  1.
         25    2    1    2    0    0  0.38115742197E+02 -0.17418615955E+02 -0.93769949154E+02  0.16185296801E+03  0.12508941563E+03 0.  0.
          5    1    3    3  502    0 -0.39368622336E+02 -0.32537361928E+02 -0.49487664394E+02  0.71239523251E+02  0.41800000000E+01 0.  1.
         -5    1    3    3    0  502  0.77484364533E+02  0.15118745972E+02 -0.44282284760E+02  0.90613444755E+02  0.41800000000E+01 0.  1.
        -11    1    1    2    0    0 -0.55823060859E+02  0.23502198253E+02 -0.17882653406E+03  0.18880544678E+03  0.00000000000E+00 0.  1.
         11    1    1    2    0    0  0.17707318663E+02 -0.60835822979E+01 -0.32942503356E+01  0.19010817791E+02  0.00000000000E+00 0. -1.
</event>
<event>
 7    1  0.2794945E-009  0.2269234E+03  0.7561462E-02  0.1128824E+00
          1   -1    0    0  501    0  0.00000000000E+00  0.00000000000E+00  0.90048077421E+03  0.90048077421E+03  0.00000000000E+00 0. -1.
         -1   -1    0    0    0  501 -0.00000000000E+00 -0.00000000000E+00 -0.67387043598E+02  0.67387043598E+02  0.00000000000E+00 0.  1.
         25    2    1    2    0    0  0.86531479623E+02  0.19148692076E+03  0.56425301664E+03  0.61496706123E+03  0.12509229320E+03 0.  0.
          5    1    3    3  502    0  0.97439300609E+02  0.12896365455E+03  0.49591904303E+03  0.52161212710E+03  0.41800000000E+01 0.  1.
         -5    1    3    3    0  502 -0.10907820986E+02  0.62523266210E+02  0.68333973610E+02  0.93354934125E+02  0.41800000000E+01 0.  1.
        -11    1    1    2    0    0  0.53113302676E+01 -0.95704553082E+02  0.10876137098E+03  0.14497105755E+03  0.00000000000E+00 0.  1.
         11    1    1    2    0    0 -0.91842809891E+02 -0.95782367678E+02  0.16007934299E+03  0.20792969903E+03  0.00000000000E+00 0. -1.
</event>
<event>
 7    1  0.2794945E-009  0.1270697E+03  0.7561462E-02  0.1231870E+00
          4   -1    0    0  501    0  0.00000000000E+00  0.00000000000E+00  0.44838135402E+02  0.44838135402E+02  0.00000000000E+00 0. -1.
         -4   -1    0    0    0  501 -0.00000000000E+00 -0.00000000000E+00 -0.48679182832E+03  0.48679182832E+03  0.00000000000E+00 0.  1.
         25    2    1    2    0    0 -0.78648350600E+02  0.50613437335E+02 -0.17856017923E+03  0.23723102385E+03  0.12509011943E+03 0.  0.
          5    1    3    3  502    0 -0.69062759685E+02 -0.17053907840E+02 -0.37716111570E+02  0.80625541982E+02  0.41800000000E+01 0.  1.
         -5    1    3    3    0  502 -0.95855909146E+01  0.67667345175E+02 -0.14084406766E+03  0.15660548187E+03  0.41800000000E+01 0.  1.
        -11    1    1    2    0    0  0.18187948555E+02  0.16160201821E+02 -0.13727772259E+03  0.13941709620E+03  0.00000000000E+00 0.  1.
         11    1    1    2    0    0  0.60460402045E+02 -0.66773639156E+02 -0.12611579110E+03  0.15498184367E+03  0.00000000000E+00 0. -1.
</event>
<event>
 7    1  0.3832250E-009  0.1443715E+03  0.7561462E-02  0.1207565E+00
          2   -1    0    0  501    0  0.00000000000E+00  0.00000000000E+00  0.10064458339E+04  0.10064458339E+04  0.00000000000E+00 0. -1.
         -2   -1    0    0    0  501 -0.00000000000E+00 -0.00000000000E+00 -0.29787893826E+02  0.29787893826E+02  0.00000000000E+00 0.  1.
         25    2    1    2    0    0 -0.47800183106E+02 -0.12274850246E+03  0.43400073126E+03  0.47048479045E+03  0.12508897213E+03 0.  0.
          5    1    3    3  502    0 -0.39646727235E+02 -0.55183833532E+02  0.37247763733E+03  0.37864783266E+03  0.41800000000E+01 0. -1.
         -5    1    3    3    0  502 -0.81534558713E+01 -0.67564668923E+02  0.61523093925E+02  0.91836957786E+02  0.41800000000E+01 0. -1.
        -11    1    1    2    0    0  0.69128694595E+02  0.94543983653E+02  0.32990377402E+03  0.35007690780E+03  0.00000000000E+00 0.  1.
         11    1    1    2    0    0 -0.21328511488E+02  0.28204518802E+02  0.21275343481E+03  0.21567202950E+03  0.00000000000E+00 0. -1.
</event>
<event>
 7    1  0.2794945E-009  0.9492189E+02  0.7561462E-02  0.1291352E+00
         -1   -1    0    0    0  501 -0.00000000000E+00  0.00000000000E+00  0.47536778940E+03  0.47536778940E+03  0.00000000000E+00 0. -1.
          1   -1    0    0  501    0  0.00000000000E+00 -0.00000000000E+00 -0.30052954774E+02  0.30052954774E+02  0.00000000000E+00 0.  1.
         25    2    1    2    0    0  0.27088832538E+02 -0.41954729956E+02  0.27383067278E+03  0.30516430385E+03  0.12509200924E+03 0.  0.
          5    1    3    3  502    0  0.52289916589E+02 -0.44046730760E+02  0.63901259351E+02  0.93676001271E+02  0.41800000000E+01 0. -1.
         -5    1    3    3    0  502 -0.25201084051E+02  0.20920008042E+01  0.20992941343E+03  0.21148830258E+03  0.41800000000E+01 0. -1.
        -11    1    1    2    0    0  0.24953270479E+02  0.35330480755E+02  0.40904596855E+02  0.59532298980E+02  0.00000000000E+00 0.  1.
         11    1    1    2    0    0 -0.52042103017E+02  0.66242492011E+01  0.13057956499E+03  0.14072414135E+03  0.00000000000E+00 0. -1.
</event>
<event>
 7    1  0.2794945E-009  0.1165732E+03  0.7561462E-02  0.1248860E+00
         -2   -1    0    0    0  501 -0.00000000000E+00  0.00000000000E+00  0.22016304207E+02  0.22016304207E+02  0.00000000000E+00 0. -1.
          2   -1    0    0  501    0  0.00000000000E+00 -0.00000000000E+00 -0.87307220606E+03  0.87307220606E+03  0.00000000000E+00 0.  1.
         25    2    1    2    0    0  0.67782520169E+02 -0.59906025356E+02 -0.55807005744E+03  0.57902828268E+03  0.12509340997E+03 0.  0.
          5    1    3    3  502    0  0.79751811150E+02 -0.76125084015E+02 -0.29176870990E+03  0.31193241619E+03  0.41800000000E+01 0.  1.
         -5    1    3    3    0  502 -0.11969290981E+02  0.16219058659E+02 -0.26630134755E+03  0.26709586649E+03  0.41800000000E+01 0.  1.
        -11    1    1    2    0    0 -0.42304571978E+02  0.61602585117E+01 -0.49456183122E+02  0.65372315579E+02  0.00000000000E+00 0. -1.
         11    1    1    2    0    0 -0.25477948191E+02  0.53745766845E+02 -0.24352966129E+03  0.25068791201E+03  0.00000000000E+00 0.  1.
</event>
<event>
 7    1  0.2794945E-009  0.9425000E+02  0.7561462E-02  0.1292874E+00
         -1   -1    0    0    0  501 -0.00000000000E+00  0.00000000000E+00  0.74182809249E+02  0.74182809249E+02  0.00000000000E+00 0.  1.
          1   -1    0    0  501    0  0.00000000000E+00 -0.00000000000E+00 -0.19947522189E+03  0.19947522189E+03  0.00000000000E+00 0. -1.
         25    2    1    2    0    0 -0.37718614696E+02 -0.18643859514E+02 -0.35840039019E+02  0.13675859963E+03  0.12509244096E+03 0.  0.
          5    1    3    3  502    0  0.87007450668E+01  0.38083991496E+02 -0.48330846999E+02  0.62285122980E+02  0.41800000000E+01 0.  1.
         -5    1    3    3    0  502 -0.46419359762E+02 -0.56727851010E+02  0.12490807980E+02  0.74473476654E+02  0.41800000000E+01 0.  1.
        -11    1    1    2    0    0 -0.12701259865E+02  0.21847992399E+02 -0.82031156306E+02  0.85835699909E+02  0.00000000000E+00 0.  1.
         11    1    1    2    0    0  0.50419874561E+02 -0.32041328854E+01 -0.74212173186E+01  0.51063731598E+02  0.00000000000E+00 0. -1.
</event>
<event>
 7    1  0.2794945E-009  0.1284078E+03  0.7561462E-02  0.1229838E+00
          1   -1    0    0  501    0  0.00000000000E+00  0.00000000000E+00  0.16674224136E+03  0.16674224136E+03  0.00000000000E+00 0. -1.
         -1   -1    0    0    0  501 -0.00000000000E+00 -0.00000000000E+00 -0.13946310627E+03  0.13946310627E+03  0.00000000000E+00 0.  1.
         25    2    1    2    0    0  0.26008989518E+02  0.62752347526E+02  0.96225647439E+02  0.17181516180E+03  0.12508696952E+03 0.  0.
          5    1    3    3  502    0 -0.31256683669E+02  0.76217546236E+02  0.46592567465E+02  0.94733491286E+02  0.41800000000E+01 0. -1.
         -5    1    3    3    0  502  0.57265673187E+02 -0.13465198709E+02  0.49633079974E+02  0.77081670516E+02  0.41800000000E+01 0. -1.
        -11    1    1    2    0    0 -0.42171188690E+02 -0.80791640353E+02 -0.54594892001E+02  0.10623700174E+03  0.00000000000E+00 0.  1.
         11    1    1    2    0    0  0.16162199172E+02  0.18039292827E+02 -0.14351620340E+02  0.28153184085E+02  0.00000000000E+00 0. -1.
</event>
<event>
 7    1  0.2794945E-009  0.2534301E+03  0.7561462E-02  0.1111156E+00
          2   -1    0    0  501    0  0.00000000000E+00  0.00000000000E+00  0.80581351087E+03  0.80581351087E+03  0.00000000000E+00 0. -1.
         -2   -1    0    0    0  501 -0.00000000000E+00 -0.00000000000E+00 -0.11222453414E+03  0.11222453414E+03  0.00000000000E+00 0.  1.
         25    2    1    2    0    0 -0.92612515993E+02 -0.22655354343E+03  0.14223289400E+03  0.30949469394E+03  0.12511268234E+03 0.  0.
          5    1    3    3  502    0 -0.69316835052E+01 -0.11114731302E+03  0.12038554483E+03  0.16404854535E+03  0.41800000000E+01 0. -1.
         -5    1    3    3    0  502 -0.85680832488E+02 -0.11540623042E+03  0.21847349164E+02  0.14544614859E+03  0.41800000000E+01 0. -1.
        -11    1    1    2    0    0  0.45182645789E+02  0.44219315853E+02  0.20148433907E+03  0.21116997482E+03  0.00000000000E+00 0.  1.
         11    1    1    2    0    0  0.47429870204E+02  0.18233422758E+03  0.34987174367E+03  0.39737337625E+03  0.00000000000E+00 0. -1.
</event>
<event>
 7    1  0.2794945E-009  0.2171078E+03  0.7561462E-02  0.1136058E+00
         -2   -1    0    0    0  501 -0.00000000000E+00  0.00000000000E+00  0.63954491375E+03  0.63954491375E+03  0.00000000000E+00 0.  1.
          2   -1    0    0  501    0  0.00000000000E+00 -0.00000000000E+00 -0.77766441709E+02  0.77766441709E+02  0.00000000000E+00 0. -1.
         25    2    1    2    0    0  0.12391983736E+03  0.14454007153E+03  0.22809829564E+03  0.32237269333E+03  0.12508941828E+03 0.  0.
          5    1    3    3  502    0 -0.44073140288E+01 -0.18767784858E+02  0.15079609736E+02  0.24829844848E+02  0.41800000000E+01 0. -1.
         -5    1    3    3    0  502  0.12832715139E+03  0.16330785638E+03  0.21301868590E+03  0.29754284848E+03  0.41800000000E+01 0. -1.
        -11    1    1    2    0    0 -0.68089232008E+02 -0.21116881793E+02  0.15593481310E+03  0.17145766868E+03  0.00000000000E+00 0.  1.
         11    1    1    2    0    0 -0.55830605353E+02 -0.12342318973E+03  0.17774536331E+03  0.22348099345E+03  0.00000000000E+00 0. -1.
</event>
<event>
 7    1  0.2794945E-009  0.8510467E+02  0.7561462E-02  0.1315159E+00
          2   -1    0    0  501    0  0.00000000000E+00  0.00000000000E+00  0.18400147513E+03  0.18400147513E+03  0.00000000000E+00 0. -1.
         -2   -1    0    0    0  501 -0.00000000000E+00 -0.00000000000E+00 -0.71661495128E+02  0.71661495128E+02  0.00000000000E+00 0.  1.
         25    2    1    2    0    0  0.17286867946E+02  0.71429893997E+01  0.30016799434E+02  0.12999767497E+03  0.12509408119E+03 0.  0.
          5    1    3    3  502    0  0.32801380996E+02  0.53291110568E+02 -0.13966932409E+02  0.64252787190E+02  0.41800000000E+01 0. -1.
         -5    1    3    3    0  502 -0.15514513050E+02 -0.46148121168E+02  0.43983731843E+02  0.65744887781E+02  0.41800000000E+01 0. -1.
        -11    1    1    2    0    0 -0.37732518118E+02 -0.52165895507E+01 -0.27097458898E+01  0.38187674096E+02  0.00000000000E+00 0.  1.
         11    1    1    2    0    0  0.20445650172E+02 -0.19263998491E+01  0.85032926462E+02  0.87477621196E+02  0.00000000000E+00 0. -1.
</event>
<event>
 7    1  0.2794945E-009  0.9169216E+02  0.7561462E-02  0.1298805E+00
          2   -1    0    0  501    0  0.00000000000E+00  0.00000000000E+00  0.16383069888E+03  0.16383069888E+03  0.00000000000E+00 0. -1.
         -2   -1    0    0    0  501 -0.00000000000E+00 -0.00000000000E+00 -0.90687318209E+02  0.90687318209E+02  0.00000000000E+00 0.  1.
         25    2    1    2    0    0 -0.34573449090E+02  0.25649847115E+02  0.87216862076E+01  0.13257876983E+03  0.12509126413E+03 0.  0.
          5    1    3    3  502    0 -0.36607166135E+02  0.65246745183E+02  0.37128052654E+02  0.83625277658E+02  0.41800000000E+01 0.  1.
         -5    1    3    3    0  502  0.20337170444E+01 -0.39596898068E+02 -0.28406366446E+02  0.48953492177E+02  0.41800000000E+01 0.  1.
        -11    1    1    2    0    0 -0.12079312642E+02  0.46632902142E+01  0.65023310111E+02  0.66299976827E+02  0.00000000000E+00 0. -1.
         11    1    1    2    0    0  0.46652761732E+02 -0.30313137329E+02 -0.60161565129E+00  0.55639270424E+02  0.00000000000E+00 0.  1.
</event>
<event>
 7    1  0.2794945E-009  0.1236014E+03  0.7561462E-02  0.1237271E+00
          1   -1    0    0  501    0  0.00000000000E+00  0.00000000000E+00  0.45115244968E+03  0.45115244968E+03  0.00000000000E+00 0. -1.
         -1   -1    0    0    0  501 -0.00000000000E+00 -0.00000000000E+00 -0.45078797745E+02  0.45078797745E+02  0.00000000000E+00 0.  1.
         25    2    1    2    0    0  0.19957439777E+02 -0.70559465305E+02  0.31887305979E+03  0.35029238303E+03  0.12509111801E+03 0.  0.
          5    1    3    3  502    0  0.65674886058E+02 -0.28848505918E+02  0.10230530157E+03  0.12501709516E+03  0.41800000000E+01 0.  1.
         -5    1    3    3    0  502 -0.45717446281E+02 -0.41710959387E+02  0.21656775821E+03  0.22527528787E+03  0.41800000000E+01 0.  1.
        -11    1    1    2    0    0 -0.44272204503E+02  0.76414085230E+02  0.51130067237E+02  0.10204618704E+03  0.00000000000E+00 0.  1.
         11    1    1    2    0    0  0.24314764726E+02 -0.58546199246E+01  0.36070524912E+02  0.43892677357E+02  0.00000000000E+00 0. -1.
</event>
<event>
 7    1  0.2794945E-009  0.1615382E+03  0.7561462E-02  0.1186971E+00
          1   -1    0    0  501    0  0.00000000000E+00  0.00000000000E+00  0.38723181059E+03  0.38723181059E+03  0.00000000000E+00 0. -1.
         -1   -1    0    0    0  501 -0.00000000000E+00 -0.00000000000E+00 -0.84429978300E+02  0.84429978300E+02  0.00000000000E+00 0.  1.
         25    2    1    2    0    0  0.15640840480E+03  0.10478650807E+02  0.14634545914E+03  0.24826634442E+03  0.12508314494E+03 0.  0.
          5    1    3    3  502    0  0.78623984331E+02  0.32575399647E+02  0.14392921715E+03  0.16726021501E+03  0.41800000000E+01 0. -1.
         -5    1    3    3    0  502  0.77784420473E+02 -0.22096748840E+02  0.24162419812E+01  0.81006129416E+02  0.41800000000E+01 0. -1.
        -11    1    1    2    0    0 -0.11505942877E+03 -0.10628548821E+02  0.96401664133E+02  0.15048228815E+03  0.00000000000E+00 0. -1.
         11    1    1    2    0    0 -0.41348976033E+02  0.14989801394E+00  0.60054709025E+02  0.72913156320E+02  0.00000000000E+00 0.  1.
</event>
<event>
 7    1  0.2794945E-009  0.2008886E+03  0.7561462E-02  0.1148991E+00
          1   -1    0    0  501    0  0.00000000000E+00  0.00000000000E+00  0.89471467463E+03  0.89471467463E+03  0.00000000000E+00 0. -1.
         -1   -1    0    0    0  501 -0.00000000000E+00 -0.00000000000E+00 -0.51126658916E+02  0.51126658916E+02  0.00000000000E+00 0.  1.
         25    2    1    2    0    0  0.39371176118E+02 -0.17940357739E+03  0.43938418575E+03  0.49238405200E+03  0.12509140212E+03 0.  0.
          5    1    3    3  502    0  0.54935039307E+02 -0.19062697662E+03  0.36499118008E+03  0.41544257931E+03  0.41800000000E+01 0. -1.
         -5    1    3    3    0  502 -0.15563863189E+02  0.11223399234E+02  0.74393005667E+02  0.76941472691E+02  0.41800000000E+01 0. -1.
        -11    1    1    2    0    0 -0.32854789031E+02  0.15557191606E+03  0.39709893080E+03  0.42774948167E+03  0.00000000000E+00 0. -1.
         11    1    1    2    0    0 -0.65163870869E+01  0.23831661328E+02  0.71048991619E+01  0.25707799875E+02  0.00000000000E+00 0.  1.
</event>
<event>
 7    1  0.2794945E-009  0.9179619E+02  0.7561462E-02  0.1298559E+00
         -1   -1    0    0    0  501 -0.00000000000E+00  0.00000000000E+00  0.18123767932E+02  0.18123767932E+02  0.00000000000E+00 0.  1.
          1   -1    0    0  501    0  0.00000000000E+00 -0.00000000000E+00 -0.55531233302E+03  0.55531233302E+03  0.00000000000E+00 0. -1.
         25    2    1    2    0    0  0.10206123614E+02 -0.25151507796E+02 -0.42443663925E+03  0.44331765207E+03  0.12508923454E+03 0.  0.
          5    1    3    3  502    0 -0.45429931625E+02 -0.40490866018E+02 -0.29927125030E+03  0.30542452844E+03  0.41800000000E+01 0.  1.
         -5    1    3    3    0  502  0.55636055239E+02  0.15339358222E+02 -0.12516538895E+03  0.13789312363E+03  0.41800000000E+01 0.  1.
        -11    1    1    2    0    0  0.12569414746E+02 -0.14385097192E+02 -0.28606711081E+02  0.34398621006E+02  0.00000000000E+00 0.  1.
         11    1    1    2    0    0 -0.22775538360E+02  0.39536604988E+02 -0.84145214760E+02  0.95719827875E+02  0.00000000000E+00 0. -1.
</event>
<event>
 7    1  0.2794945E-009  0.1225258E+03  0.7561462E-02  0.1238988E+00
         -2   -1    0    0    0  501 -0.00000000000E+00  0.00000000000E+00  0.14289992645E+02  0.14289992645E+02  0.00000000000E+00 0. -1.
          2   -1    0    0  501    0  0.00000000000E+00 -0.00000000000E+00 -0.11936414789E+04  0.11936414789E+04  0.00000000000E+00 0.  1.
         25    2    1    2    0    0  0.33855234524E+02 -0.60709509335E+02 -0.55826354948E+03  0.57631393702E+03  0.12509093451E+03 0.  0.
          5    1    3    3  502    0  0.23143331705E+02  0.30551619351E+02 -0.74521388610E+02  0.83904260963E+02  0.41800000000E+01 0. -1.
         -5    1    3    3    0  502  0.10711902819E+02 -0.91261128686E+02 -0.48374216087E+03  0.49240967606E+03  0.41800000000E+01 0. -1.
        -11    1    1    2    0    0 -0.49512375841E+02 -0.23220497932E+01 -0.29299905741E+03  0.29716210210E+03  0.00000000000E+00 0. -1.
         11    1    1    2    0    0  0.15657141317E+02  0.63031559129E+02 -0.32808887934E+03  0.33445543240E+03  0.00000000000E+00 0.  1.
</event>
<event>
 7    1  0.2794945E-009  0.8694685E+02  0.7561462E-02  0.1310418E+00
          1   -1    0    0  501    0  0.00000000000E+00  0.00000000000E+00  0.11090292942E+03  0.11090292942E+03  0.00000000000E+00 0. -1.
         -1   -1    0    0    0  501 -0.00000000000E+00 -0.00000000000E+00 -0.19169622150E+03  0.19169622150E+03  0.00000000000E+00 0.  1.
         25    2    1    2    0    0  0.76573997344E+02  0.11976396380E+02  0.16538883247E+02  0.14807915883E+03  0.12508753528E+03 0.  0.
          5    1    3    3  502    0  0.45737925434E+01 -0.17430339408E+02  0.57271420642E+02  0.60184917815E+02  0.41800000000E+01 0. -1.
         -5    1    3    3    0  502  0.72000204800E+02  0.29406735787E+02 -0.40732537395E+02  0.87894241015E+02  0.41800000000E+01 0. -1.
        -11    1    1    2    0    0 -0.34914520301E+02 -0.50781950303E+01  0.12039743425E+02  0.37279581735E+02  0.00000000000E+00 0. -1.
         11    1    1    2    0    0 -0.41659477042E+02 -0.68982013494E+01 -0.10937191876E+03  0.11724041036E+03  0.00000000000E+00 0.  1.
</event>
<event>
 7    1  0.2794945E-009  0.1090291E+03  0.7561462E-02  0.1262378E+00
          1   -1    0    0  501    0  0.00000000000E+00  0.00000000000E+00  0.17031461676E+03  0.17031461676E+03  0.00000000000E+00 0. -1.
         -1   -1    0    0    0  501 -0.00000000000E+00 -0.00000000000E+00 -0.74205551007E+02  0.74205551007E+02  0.00000000000E+00 0.  1.
         25    2    1    2    0    0 -0.27004306986E+02  0.63377082098E+01  0.75396546193E+02  0.14866746435E+03  0.12509187279E+03 0.  0.
          5    1    3    3  502    0 -0.62128862113E+02  0.42344704560E+02  0.58778910702E+02  0.95527494760E+02  0.41800000000E+01 0.  1.
         -5    1    3    3    0  502  0.35124555127E+02 -0.36006996350E+02  0.16617635491E+02  0.53139969593E+02  0.41800000000E+01 0.  1.
        -11    1    1    2    0    0  0.59383758704E+02 -0.54121965091E+00  0.55896411462E+01  0.59648703294E+02  0.00000000000E+00 0.  1.
         11    1    1    2    0    0 -0.32379451718E+02 -0.57964885589E+01  0.15122878413E+02  0.36204000120E+02  0.00000000000E+00 0. -1.
</event>
<event>
 7    1  0.2794945E-009  0.1328741E+03  0.7561462E-02  0.1223252E+00
          1   -1    0    0  501    0  0.00000000000E+00  0.00000000000E+00  0.44077852227E+03  0.44077852227E+03  0.00000000000E+00 0. -1.
         -1   -1    0    0    0  501 -0.00000000000E+00 -0.00000000000E+00 -0.46611582457E+02  0.46611582457E+02  0.00000000000E+00 0.  1.
         25    2    1    2    0    0 -0.95011645525E+02 -0.10620399865E+02  0.25553726165E+03  0.30015085813E+03  0.12510491544E+03 0.  0.
          5    1    3    3  502    0 -0.97315229072E+02  0.40933476305E+02  0.17382375923E+03  0.20341576872E+03  0.41800000000E+01 0.  1.
         -5    1    3    3    0  502  0.23035835475E+01 -0.51553876170E+02  0.81713502420E+02  0.96735089410E+02  0.41800000000E+01 0.  1.
        -11    1    1    2    0    0  0.31528042040E+02 -0.20509701479E+02  0.99625862455E+02  0.10648933167E+03  0.00000000000E+00 0.  1.
         11    1    1    2    0    0  0.63483603485E+02  0.31130101344E+02  0.39003815714E+02  0.80749914931E+02  0.00000000000E+00 0. -1.
</event>
<event>
 7    1  0.2794945E-009  0.1484860E+03  0.7561462E-02  0.1202346E+00
         -1   -1    0    0    0  501 -0.00000000000E+00  0.00000000000E+00  0.11839037696E+02  0.11839037696E+02  0.00000000000E+00 0.  1.
          1   -1    0    0  501    0  0.00000000000E+00 -0.00000000000E+00 -0.25858570994E+04  0.25858570994E+04  0.00000000000E+00 0. -1.
         25    2    1    2    0    0 -0.28471624073E+02  0.10020896772E+03 -0.20283675208E+04  0.20348893635E+04  0.12508977412E+03 0.  0.
          5    1    3    3  502    0 -0.70060880688E+02  0.98144346897E+02 -0.14520898130E+04  0.14570940729E+04  0.41800000000E+01 0.  1.
         -5    1    3    3    0  502  0.41589256615E+02  0.20646208245E+01 -0.57627770780E+03  0.57779529059E+03  0.41800000000E+01 0.  1.
        -11    1    1    2    0    0 -0.29890457041E+02 -0.45693582901E+02 -0.28547744993E+03  0.29065222752E+03  0.00000000000E+00 0. -1.
         11    1    1    2    0    0  0.58362081113E+02 -0.54515384821E+02 -0.26017309091E+03  0.27215454603E+03  0.00000000000E+00 0.  1.
</event>
<event>
 7    1  0.2794945E-009  0.7973174E+02  0.7561462E-02  0.1329814E+00
          2   -1    0    0  501    0  0.00000000000E+00  0.00000000000E+00  0.59036202282E+02  0.59036202282E+02  0.00000000000E+00 0.  1.
         -2   -1    0    0    0  501 -0.00000000000E+00 -0.00000000000E+00 -0.23656321466E+03  0.23656321466E+03  0.00000000000E+00 0. -1.
         25    2    1    2    0    0  0.45136414280E+02  0.16423727316E+02 -0.11577218654E+03  0.17707988370E+03  0.12508817419E+03 0.  0.
          5    1    3    3  502    0 -0.12585727370E+02 -0.22533019001E+02 -0.10286065537E+03  0.10613163667E+03  0.41800000000E+01 0. -1.
         -5    1    3    3    0  502  0.57722141650E+02  0.38956746317E+02 -0.12911531168E+02  0.70948247035E+02  0.41800000000E+01 0. -1.
        -11    1    1    2    0    0 -0.27540773172E+01 -0.20767835159E+02  0.18310968015E+02  0.27824080735E+02  0.00000000000E+00 0.  1.
         11    1    1    2    0    0 -0.42382336963E+02  0.43441078433E+01 -0.80065793861E+02  0.90695452510E+02  0.00000000000E+00 0. -1.
</event>
<event>
 7    1  0.2883115E-009  0.1674888E+03  0.7561462E-02  0.1180492E+00
          3   -1    0    0  501    0  0.00000000000E+00  0.00000000000E+00  0.13912447833E+04  0.13912447833E+04  0.00000000000E+00 0. -1.
         -3   -1    0    0    0  501 -0.00000000000E+00 -0.00000000000E+00 -0.25512799678E+02  0.25512799678E+02  0.00000000000E+00 0.  1.
         25    2    1    2    0    0 -0.11361350843E+03  0.10360778181E+03  0.70444488398E+03  0.73180057734E+03  0.12508752410E+03 0.  0.
          5    1    3    3  502    0 -0.58340869615E+02  0.10954038221E+03  0.31852063217E+03  0.34187076201E+03  0.41800000000E+01 0. -1.
         -5    1    3    3    0  502 -0.55272638812E+02 -0.59326003936E+01  0.38592425181E+03  0.38992981533E+03  0.41800000000E+01 0. -1.
        -11    1    1    2    0    0  0.16640093869E+02 -0.25901446064E+02  0.35671943922E+02  0.47119690315E+02  0.00000000000E+00 0.  1.
         11    1    1    2    0    0  0.96973414559E+02 -0.77706335750E+02  0.62561515569E+03  0.63783731529E+03  0.00000000000E+00 0. -1.
</event>
<event>
 7    1  0.2794945E-009  0.6573281E+02  0.7561462E-02  0.1375236E+00
         -1   -1    0    0    0  501 -0.00000000000E+00  0.00000000000E+00  0.12039887605E+03  0.12039887605E+03  0.00000000000E+00 0.  1.
          1   -1    0    0  501    0  0.00000000000E+00 -0.00000000000E+00 -0.95684659423E+02  0.95684659423E+02  0.00000000000E+00 0. -1.
         25    2    1    2    0    0 -0.22285167065E+00 -0.35675799490E+00  0.10115474533E+02  0.12549913656E+03  0.12509010158E+03 0.  0.
          5    1    3    3  502    0  0.18116147911E+02 -0.13780888081E+02 -0.53244598440E+02  0.58056587520E+02  0.41800000000E+01 0. -1.
         -5    1    3    3    0  502 -0.18338999582E+02  0.13424130086E+02  0.63360072973E+02  0.67442549043E+02  0.41800000000E+01 0. -1.
        -11    1    1    2    0    0 -0.31909400364E+02 -0.27929362469E+02 -0.64282916368E+01  0.42890349181E+02  0.00000000000E+00 0.  1.
         11    1    1    2    0    0  0.32132252035E+02  0.28286120464E+02  0.21027033726E+02  0.47694049723E+02  0.00000000000E+00 0. -1.
</event>
<event>
 7    1  0.2794945E-009  0.1148257E+03  0.7561462E-02  0.1251886E+00
         -1   -1    0    0    0  501 -0.00000000000E+00  0.00000000000E+00  0.23078847397E+02  0.23078847397E+02  0.00000000000E+00 0.  1.
          1   -1    0    0  501    0  0.00000000000E+00 -0.00000000000E+00 -0.70311160741E+03  0.70311160741E+03  0.00000000000E+00 0. -1.
         25    2    1    2    0    0 -0.37148907111E+02 -0.54484973537E+02 -0.36407983639E+03  0.39057779708E+03  0.12509290416E+03 0.  0.
          5    1    3    3  502    0  0.18565716785E+02  0.17445852407E+02 -0.21007686339E+03  0.21165728086E+03  0.41800000000E+01 0. -1.
         -5    1    3    3    0  502 -0.55714623896E+02 -0.71930825944E+02 -0.15400297299E+03  0.17892051623E+03  0.41800000000E+01 0. -1.
        -11    1    1    2    0    0  0.24018582055E+01 -0.25465944147E+02 -0.60128817374E+02  0.65343384615E+02  0.00000000000E+00 0.  1.
         11    1    1    2    0    0  0.34747048905E+02  0.79950917683E+02 -0.25582410625E+03  0.27026927311E+03  0.00000000000E+00 0. -1.
</event>
<event>
 7    1  0.2794945E-009  0.1537441E+03  0.7561462E-02  0.1195946E+00
          1   -1    0    0  501    0  0.00000000000E+00  0.00000000000E+00  0.39675285678E+03  0.39675285678E+03  0.00000000000E+00 0. -1.
         -1   -1    0    0    0  501 -0.00000000000E+00 -0.00000000000E+00 -0.73708074684E+02  0.73708074684E+02  0.00000000000E+00 0.  1.
         25    2    1    2    0    0 -0.55152585654E+01 -0.13119152989E+03  0.16956828877E+03  0.24827938404E+03  0.12509041685E+03 0.  0.
          5    1    3    3  502    0  0.45890629636E+02 -0.90148306141E+02  0.14723551296E+03  0.17868529784E+03  0.41800000000E+01 0. -1.
         -5    1    3    3    0  502 -0.51405888202E+02 -0.41043223752E+02  0.22332775817E+02  0.69594086196E+02  0.41800000000E+01 0. -1.
        -11    1    1    2    0    0  0.27181850979E+02  0.86403393236E+02  0.14607741618E+03  0.17188080434E+03  0.00000000000E+00 0. -1.
         11    1    1    2    0    0 -0.21666592414E+02  0.44788136658E+02  0.73990771437E+01  0.50300743083E+02  0.00000000000E+00 0.  1.
</event>
<event>
 7    1  0.2794945E-009  0.1419653E+03  0.7561462E-02  0.1210709E+00
          1   -1    0    0  501    0  0.00000000000E+00  0.00000000000E+00  0.86474581639E+02  0.86474581639E+02  0.00000000000E+00 0. -1.
         -1   -1    0    0    0  501 -0.00000000000E+00 -0.00000000000E+00 -0.33517026059E+03  0.33517026059E+03  0.00000000000E+00 0.  1.
         25    2    1    2    0    0  0.75869882087E+01  0.10226344243E+03 -0.31172352895E+02  0.16472504388E+03  0.12508897013E+03 0.  0.
          5    1    3    3  502    0 -0.45450383366E+02  0.98260200285E+02 -0.18899189111E+02  0.10997934378E+03  0.41800000000E+01 0. -1.
         -5    1    3    3    0  502  0.53037371574E+02  0.40032421487E+01 -0.12273163784E+02  0.54745700109E+02  0.41800000000E+01 0. -1.
        -11    1    1    2    0    0 -0.35592223953E+02 -0.37633868260E+02 -0.38503882764E+02  0.64541950963E+02  0.00000000000E+00 0. -1.
         11    1    1    2    0    0  0.28005235745E+02 -0.64629574174E+02 -0.17901944329E+03  0.19237784738E+03  0.00000000000E+00 0.  1.
</event>
<event>
 7    1  0.2794945E-009  0.1095308E+03  0.7561462E-02  0.1261441E+00
         -2   -1    0    0    0  501 -0.00000000000E+00  0.00000000000E+00  0.12959897788E+02  0.12959897788E+02  0.00000000000E+00 0.  1.
          2   -1    0    0  501    0  0.00000000000E+00 -0.00000000000E+00 -0.11387390028E+04  0.11387390028E+04  0.00000000000E+00 0. -1.
         25    2    1    2    0    0 -0.45853285793E+02 -0.10321049458E+01 -0.73896326241E+03  0.75087693458E+03  0.12508348664E+03 0.  0.
          5    1    3    3  502    0 -0.75243168894E+02 -0.29088438911E+02 -0.32438808304E+03  0.33429443992E+03  0.41800000000E+01 0. -1.
         -5    1    3    3    0  502  0.29389883101E+02  0.28056333965E+02 -0.41457517937E+03  0.41658249466E+03  0.41800000000E+01 0. -1.
        -11    1    1    2    0    0 -0.15141392023E+02  0.27149442150E+02 -0.62686215718E+02  0.69970819650E+02  0.00000000000E+00 0.  1.
         11    1    1    2    0    0  0.60994677817E+02 -0.26117337204E+02 -0.32412962691E+03  0.33085114639E+03  0.00000000000E+00 0. -1.
</event>
<event>
 7    1  0.2794945E-009  0.1337992E+03  0.7561462E-02  0.1221925E+00
          1   -1    0    0  501    0  0.00000000000E+00  0.00000000000E+00  0.57166966860E+03  0.57166966860E+03  0.00000000000E+00 0. -1.
         -1   -1    0    0    0  501 -0.00000000000E+00 -0.00000000000E+00 -0.44434784037E+02  0.44434784037E+02  0.00000000000E+00 0.  1.
         25    2    1    2    0    0 -0.80366043512E+02 -0.11639352871E+02  0.37758668726E+03  0.40597437655E+03  0.12509721236E+03 0.  0.
          5    1    3    3  502    0  0.89511596703E+01 -0.31083979377E+02  0.23357159350E+02  0.40116908234E+02  0.41800000000E+01 0.  1.
         -5    1    3    3    0  502 -0.89317203182E+02  0.19444626506E+02  0.35422952791E+03  0.36585746832E+03  0.41800000000E+01 0.  1.
        -11    1    1    2    0    0 -0.15448088766E+02  0.40553067120E+02  0.24324605303E+02  0.49748177077E+02  0.00000000000E+00 0. -1.
         11    1    1    2    0    0  0.95814132278E+02 -0.28913714249E+02  0.12532359200E+03  0.16038189900E+03  0.00000000000E+00 0.  1.
</event>
<event>
 7    1  0.2794945E-009  0.8958245E+02  0.7561462E-02  0.1303866E+00
          1   -1    0    0  501    0  0.00000000000E+00  0.00000000000E+00  0.16033324707E+03  0.16033324707E+03  0.00000000000E+00 0. -1.
         -1   -1    0    0    0  501 -0.00000000000E+00 -0.00000000000E+00 -0.10583374213E+03  0.10583374213E+03  0.00000000000E+00 0.  1.
         25    2    1    2    0    0 -0.54263975544E+01 -0.16144102769E+02  0.10113449095E+03  0.16176078155E+03  0.12509311470E+03 0.  0.
          5    1    3    3  502    0  0.21383254832E+02 -0.54956514152E+02  0.97809818059E+02  0.11428777250E+03  0.41800000000E+01 0.  1.
         -5    1    3    3    0  502 -0.26809652386E+02  0.38812411383E+02  0.33246728909E+01  0.47473009050E+02  0.41800000000E+01 0.  1.
        -11    1    1    2    0    0  0.11076208685E+02  0.43432891042E+02 -0.58852800554E+02  0.73978041041E+02  0.00000000000E+00 0.  1.
         11    1    1    2    0    0 -0.56498111308E+01 -0.27288788273E+02  0.12217814545E+02  0.30428166614E+02  0.00000000000E+00 0. -1.
</event>
<event>
 7    1  0.2794945E-009  0.7563656E+02  0.7561462E-02  0.1341911E+00
          1   -1    0    0  501    0  0.00000000000E+00  0.00000000000E+00  0.21014587613E+03  0.21014587613E+03  0.00000000000E+00 0. -1.
         -1   -1    0    0    0  501 -0.00000000000E+00 -0.00000000000E+00 -0.58933225619E+02  0.58933225619E+02  0.00000000000E+00 0.  1.
         25    2    1    2    0    0  0.12447464085E+02 -0.24050761209E+02  0.10590813600E+03  0.16612297726E+03  0.12508769654E+03 0.  0.
          5    1    3    3  502    0 -0.34587296695E+02 -0.15286154727E+02  0.11146220194E+03  0.11777623903E+03  0.41800000000E+01 0. -1.
         -5    1    3    3    0  502  0.47034760780E+02 -0.87646064821E+01 -0.55540659445E+01  0.48346738224E+02  0.41800000000E+01 0. -1.
        -11    1    1    2    0    0 -0.55435884484E+01 -0.19927714162E+02  0.53796795399E+02  0.57636276422E+02  0.00000000000E+00 0. -1.
         11    1    1    2    0    0 -0.69038756365E+01  0.43978475371E+02 -0.84922808820E+01  0.45319848073E+02  0.00000000000E+00 0.  1.
</event>
<event>
 7    1  0.3090418E-009  0.1531305E+03  0.7561462E-02  0.1196678E+00
          2   -1    0    0  501    0  0.00000000000E+00  0.00000000000E+00  0.97909631058E+03  0.97909631058E+03  0.00000000000E+00 0. -1.
         -2   -1    0    0    0  501 -0.00000000000E+00 -0.00000000000E+00 -0.37676825142E+02  0.37676825142E+02  0.00000000000E+00 0.  1.
         25    2    1    2    0    0 -0.11883964564E+03  0.86174837713E+02  0.33807267585E+03  0.38921641683E+03  0.12508925190E+03 0.  0.
          5    1    3    3  502    0  0.58026931732E+01  0.12860364524E+01 -0.85297685863E+01  0.11205109993E+02  0.41800000000E+01 0.  1.
         -5    1    3    3    0  502 -0.12464233882E+03  0.84888801260E+02  0.34660244444E+03  0.37801130684E+03  0.41800000000E+01 0.  1.
        -11    1    1    2    0    0  0.87358990295E+02 -0.51980700335E+02  0.53707694600E+03  0.54661250655E+03  0.00000000000E+00 0. -1.
         11    1    1    2    0    0  0.31480655349E+02 -0.34194137378E+02  0.66269863589E+02  0.80944212346E+02  0.00000000000E+00 0.  1.
</event>
<event>
 7    1  0.2794945E-009  0.1069968E+03  0.7561462E-02  0.1266235E+00
         -4   -1    0    0    0  501 -0.00000000000E+00  0.00000000000E+00  0.49455745082E+02  0.49455745082E+02  0.00000000000E+00 0.  1.
          4   -1    0    0  501    0  0.00000000000E+00 -0.00000000000E+00 -0.33072511806E+03  0.33072511806E+03  0.00000000000E+00 0. -1.
         25    2    1    2    0    0  0.44011882316E+01 -0.23745664541E+02 -0.64447004187E+02  0.14278879194E+03  0.12510793626E+03 0.  0.
          5    1    3    3  502    0 -0.16411251195E+02 -0.70741771334E+02 -0.52904062889E+02  0.89944647687E+02  0.41800000000E+01 0.  1.
         -5    1    3    3    0  502  0.20812439426E+02  0.46996106793E+02 -0.11542941297E+02  0.52844144258E+02  0.41800000000E+01 0.  1.
        -11    1    1    2    0    0  0.23509622780E+02  0.47522354758E+02 -0.81798530111E+02  0.97478593001E+02  0.00000000000E+00 0.  1.
         11    1    1    2    0    0 -0.27910811011E+02 -0.23776690218E+02 -0.13502383868E+03  0.13991347820E+03  0.00000000000E+00 0. -1.
</event>
<event>
 7    1  0.2794945E-009  0.1051638E+03  0.7561462E-02  0.1269797E+00
          1   -1    0    0  501    0  0.00000000000E+00  0.00000000000E+00  0.96265142109E+02  0.96265142109E+02  0.00000000000E+00 0. -1.
         -1   -1    0    0    0  501 -0.00000000000E+00 -0.00000000000E+00 -0.20238459366E+03  0.20238459366E+03  0.00000000000E+00 0.  1.
         25    2    1    2    0    0  0.56350247390E+02  0.37078706994E+02 -0.59197379775E+02  0.15394933786E+03  0.12508352394E+03 0.  0.
          5    1    3    3  502    0  0.58306837127E+02 -0.30610127748E+02 -0.55123671632E+02  0.85981153462E+02  0.41800000000E+01 0.  1.
         -5    1    3    3    0  502 -0.19565897370E+01  0.67688834742E+02 -0.40737081433E+01  0.67968184397E+02  0.41800000000E+01 0.  1.
        -11    1    1    2    0    0  0.19881196401E+01 -0.13381148654E+02  0.37222182780E+02  0.39604275652E+02  0.00000000000E+00 0. -1.
         11    1    1    2    0    0 -0.58338367030E+02 -0.23697558340E+02 -0.84144254554E+02  0.10509612226E+03  0.00000000000E+00 0.  1.
</event>
<event>
 7    1  0.2794945E-009  0.1452066E+03  0.7561462E-02  0.1206490E+00
         -3   -1    0    0    0  501 -0.00000000000E+00  0.00000000000E+00  0.46734842737E+03  0.46734842737E+03  0.00000000000E+00 0. -1.
          3   -1    0    0  501    0  0.00000000000E+00 -0.00000000000E+00 -0.58931675127E+02  0.58931675127E+02  0.00000000000E+00 0.  1.
         25    2    1    2    0    0  0.29179052101E+02  0.11647157730E+03  0.15918693757E+03  0.23538136688E+03  0.12508741497E+03 0.  0.
          5    1    3    3  502    0  0.58663343342E+02  0.12497147574E+03  0.10707501845E+03  0.17476209422E+03  0.41800000000E+01 0. -1.
         -5    1    3    3    0  502 -0.29484291242E+02 -0.84998984422E+01  0.52111919121E+02  0.60619272661E+02  0.41800000000E+01 0. -1.
        -11    1    1    2    0    0 -0.18551666733E+02 -0.39678030427E+02  0.18597913179E+02  0.47585636612E+02  0.00000000000E+00 0.  1.
         11    1    1    2    0    0 -0.10627385368E+02 -0.76793546869E+02  0.23063190150E+03  0.24331309901E+03  0.00000000000E+00 0. -1.
</event>
<event>
 7    1  0.2794945E-009  0.1196972E+03  0.7561462E-02  0.1243597E+00
         -3   -1    0    0    0  501 -0.00000000000E+00  0.00000000000E+00  0.68542432064E+02  0.68542432064E+02  0.00000000000E+00 0.  1.
          3   -1    0    0  501    0  0.00000000000E+00 -0.00000000000E+00 -0.30985864936E+03  0.30985864936E+03  0.00000000000E+00 0. -1.
         25    2    1    2    0    0  0.78733676712E+02  0.11343002640E+02 -0.19705566039E+03  0.24659658423E+03  0.12510510183E+03 0.  0.
          5    1    3    3  502    0  0.53187534581E+02  0.57464994346E+02 -0.57155917358E+02  0.97033039213E+02  0.41800000000E+01 0.  1.
         -5    1    3    3    0  502  0.25546142132E+02 -0.46121991706E+02 -0.13989974304E+03  0.14956354502E+03  0.41800000000E+01 0.  1.
        -11    1    1    2    0    0 -0.22689907293E+02 -0.39362453783E+02 -0.51561530114E+02  0.68722820435E+02  0.00000000000E+00 0. -1.
         11    1    1    2    0    0 -0.56043769419E+02  0.28019451144E+02  0.73009732097E+01  0.63081676761E+02  0.00000000000E+00 0.  1.
</event>
<event>
 7    1  0.2794945E-009  0.1855582E+03  0.7561462E-02  0.1162530E+00
         -1   -1    0    0    0  501 -0.00000000000E+00  0.00000000000E+00  0.43162218122E+03  0.43162218122E+03  0.00000000000E+00 0.  1.
          1   -1    0    0  501    0  0.00000000000E+00 -0.00000000000E+00 -0.10982898565E+03  0.10982898565E+03  0.00000000000E+00 0. -1.
         25    2    1    2    0    0 -0.11971291350E+03  0.11196357274E+03  0.28293243456E+03  0.35009361126E+03  0.12509097026E+03 0.  0.
          5    1    3    3  502    0 -0.39987500161E+02 -0.25045743983E+02  0.57999244015E+02  0.74884405367E+02  0.41800000000E+01 0.  1.
         -5    1    3    3    0  502 -0.79725413338E+02  0.13700931673E+03  0.22493319054E+03  0.27520920589E+03  0.41800000000E+01 0.  1.
        -11    1    1    2    0    0  0.31470931944E+02 -0.17920386853E+02 -0.28295875708E+02  0.45958855561E+02  0.00000000000E+00 0. -1.
         11    1    1    2    0    0  0.88241981555E+02 -0.94043185891E+02  0.67156636714E+02  0.14539870005E+03  0.00000000000E+00 0.  1.
</event>
<event>
 7    1  0.2794945E-009  0.9582681E+02  0.7561462E-02  0.1289325E+00
         -1   -1    0    0    0  501 -0.00000000000E+00  0.00000000000E+00  0.17268916427E+03  0.17268916427E+03  0.00000000000E+00 0.  1.
          1   -1    0    0  501    0  0.00000000000E+00 -0.00000000000E+00 -0.11171317522E+03  0.11171317522E+03  0.00000000000E+00 0. -1.
         25    2    1    2    0    0  0.54846695768E+01 -0.80187179523E+02  0.66274294470E+02  0.16279163052E+03  0.12509503387E+03 0.  0.
          5    1    3    3  502    0  0.29841890621E+02 -0.77011050582E+02 -0.92981389879E+01  0.83217595112E+02  0.41800000000E+01 0.  1.
         -5    1    3    3    0  502 -0.24357221044E+02 -0.31761289411E+01  0.75572433457E+02  0.79574035406E+02  0.41800000000E+01 0.  1.
        -11    1    1    2    0    0  0.70622261888E+01  0.58968328127E+02 -0.45251452039E+02  0.74664802099E+02  0.00000000000E+00 0. -1.
         11    1    1    2    0    0 -0.12546895766E+02  0.21218851397E+02  0.39953146616E+02  0.46945906877E+02  0.00000000000E+00 0.  1.
</event>
<event>
 7    1  0.2794945E-009  0.1028439E+03  0.7561462E-02  0.1274427E+00
         -1   -1    0    0    0  501 -0.00000000000E+00  0.00000000000E+00  0.12175226268E+02  0.12175226268E+02  0.00000000000E+00 0. -1.
          1   -1    0    0  501    0  0.00000000000E+00 -0.00000000000E+00 -0.15062768545E+04  0.15062768545E+04  0.00000000000E+00 0.  1.
         25    2    1    2    0    0  0.46426419646E+02 -0.68075279415E+02 -0.86829429252E+03  0.88111996939E+03  0.12509103057E+03 0.  0.
          5    1    3    3  502    0 -0.16176495539E+01 -0.95568207757E+01 -0.10957306195E+01  0.10612381401E+02  0.41800000000E+01 0.  1.
         -5    1    3    3    0  502  0.48044069200E+02 -0.58518458639E+02 -0.86719856190E+03  0.87050758799E+03  0.41800000000E+01 0.  1.
        -11    1    1    2    0    0  0.18456689552E+02  0.47935093705E+02 -0.22329816869E+03  0.22912986435E+03  0.00000000000E+00 0. -1.
         11    1    1    2    0    0 -0.64883109199E+02  0.20140185710E+02 -0.40250916704E+03  0.40820224705E+03  0.00000000000E+00 0.  1.
</event>
<event>
 7    1  0.2794945E-009  0.1856095E+03  0.7561462E-02  0.1162482E+00
          2   -1    0    0  501    0  0.00000000000E+00  0.00000000000E+00  0.91399818826E+03  0.91399818826E+03  0.00000000000E+00 0. -1.
         -2   -1    0    0    0  501 -0.00000000000E+00 -0.00000000000E+00 -0.48163130211E+02  0.48163130211E+02  0.00000000000E+00 0.  1.
         25    2    1    2    0    0 -0.80201382293E+02  0.15963797157E+03  0.48360688050E+03  0.53050941496E+03  0.12509228915E+03 0.  0.
          5    1    3    3  502    0 -0.40655724635E+02  0.56688663632E+02  0.57975277128E+02  0.90802520273E+02  0.41800000000E+01 0. -1.
         -5    1    3    3    0  502 -0.39545657658E+02  0.10294930794E+03  0.42563160337E+03  0.43970689468E+03  0.41800000000E+01 0. -1.
        -11    1    1    2    0    0  0.44084320560E+02 -0.23165316042E+02  0.49509443909E+02  0.70222818391E+02  0.00000000000E+00 0.  1.
         11    1    1    2    0    0  0.36117061733E+02 -0.13647265553E+03  0.33271873365E+03  0.36142908513E+03  0.00000000000E+00 0. -1.
</event>
<event>
 7    1  0.2794945E-009  0.1110056E+03  0.7561462E-02  0.1258719E+00
          1   -1    0    0  501    0  0.00000000000E+00  0.00000000000E+00  0.17899453255E+02  0.17899453255E+02  0.00000000000E+00 0. -1.
         -1   -1    0    0    0  501 -0.00000000000E+00 -0.00000000000E+00 -0.75814648229E+03  0.75814648229E+03  0.00000000000E+00 0.  1.
         25    2    1    2    0    0  0.24635923304E+02  0.34663218418E+02 -0.46447320392E+03  0.48289954188E+03  0.12509253760E+03 0.  0.
          5    1    3    3  502    0  0.62081127055E+02  0.58884752238E+02 -0.33950630193E+03  0.35014779998E+03  0.41800000000E+01 0.  1.
         -5    1    3    3    0  502 -0.37445203751E+02 -0.24221533820E+02 -0.12496690199E+03  0.13275174190E+03  0.41800000000E+01 0.  1.
        -11    1    1    2    0    0 -0.39958448336E+02 -0.53813157132E+02 -0.24382297659E+03  0.25286790501E+03  0.00000000000E+00 0.  1.
         11    1    1    2    0    0  0.15322525032E+02  0.19149938713E+02 -0.31950848525E+02  0.40278488645E+02  0.00000000000E+00 0. -1.
</event>
<event>
 7    1  0.2794945E-009  0.9338490E+02  0.7561462E-02  0.1294856E+00
          2   -1    0    0  501    0  0.00000000000E+00  0.00000000000E+00  0.72403544777E+03  0.72403544777E+03  0.00000000000E+00 0. -1.
         -2   -1    0    0    0  501 -0.00000000000E+00 -0.00000000000E+00 -0.20751767394E+02  0.20751767394E+02  0.00000000000E+00 0.  1.
         25    2    1    2    0    0  0.47208490766E+02  0.26607879842E+02  0.44503656195E+03  0.46544809310E+03  0.12509102697E+03 0.  0.
          5    1    3    3  502    0 -0.13027754768E+02  0.17400157884E+02  0.70608918638E+01  0.23233951076E+02  0.41800000000E+01 0.  1.
         -5    1    3    3    0  502  0.60236245533E+02  0.92077219574E+01  0.43797567008E+03  0.44221414202E+03  0.41800000000E+01 0.  1.
        -11    1    1    2    0    0  0.11221428880E+02  0.23847609893E+02  0.40584321747E+02  0.48391281606E+02  0.00000000000E+00 0.  1.
         11    1    1    2    0    0 -0.58429919646E+02 -0.50455489735E+02  0.21766279668E+03  0.23094784046E+03  0.00000000000E+00 0. -1.
</event>
<event>
 7    1  0.2794945E-009  0.1122317E+03  0.7561462E-02  0.1256492E+00
          1   -1    0    0  501    0  0.00000000000E+00  0.00000000000E+00  0.60612291240E+03  0.60612291240E+03  0.00000000000E+00 0. -1.
         -1   -1    0    0    0  501 -0.00000000000E+00 -0.00000000000E+00 -0.22790083473E+02  0.22790083473E+02  0.00000000000E+00 0.  1.
         25    2    1    2    0    0 -0.25046509158E+02  0.37016271111E+02  0.36611379714E+03  0.38946580875E+03  0.12508705681E+03 0.  0.
          5    1    3    3  502    0  0.33470171380E+02  0.53631389958E+02  0.25466934552E+03  0.26243194605E+03  0.41800000000E+01 0. -1.
         -5    1    3    3    0  502 -0.58516680538E+02 -0.16615118846E+02  0.11144445162E+03  0.12703386270E+03  0.41800000000E+01 0. -1.
        -11    1    1    2    0    0 -0.19951272626E+02  0.19495649388E+02  0.49212826036E+02  0.56568859551E+02  0.00000000000E+00 0.  1.
         11    1    1    2    0    0  0.44997781785E+02 -0.56511920499E+02  0.16800620575E+03  0.18287832757E+03  0.00000000000E+00 0. -1.
</event>
<event>
 7    1  0.2794945E-009  0.1698954E+03  0.7561462E-02  0.1177957E+00
          3   -1    0    0  501    0  0.00000000000E+00  0.00000000000E+00  0.92211547152E+02  0.92211547152E+02  0.00000000000E+00 0. -1.
         -3   -1    0    0    0  501 -0.00000000000E+00 -0.00000000000E+00 -0.40407461058E+03  0.40407461058E+03  0.00000000000E+00 0.  1.
         25    2    1    2    0    0  0.63894596922E+02  0.13433092511E+03 -0.23779361961E+03  0.30711411322E+03  0.12508379614E+03 0.  0.
          5    1    3    3  502    0 -0.52298917503E+01  0.11436594132E+03 -0.18567173283E+03  0.21817054126E+03  0.41800000000E+01 0.  1.
         -5    1    3    3    0  502  0.69124488673E+02  0.19964983788E+02 -0.52121886780E+02  0.88943571962E+02  0.41800000000E+01 0.  1.
        -11    1    1    2    0    0 -0.35156503594E+02 -0.11007080037E+03 -0.11434446897E+02  0.11611333866E+03  0.00000000000E+00 0. -1.
         11    1    1    2    0    0 -0.28738093329E+02 -0.24260124735E+02 -0.62634996919E+02  0.73058705842E+02  0.00000000000E+00 0.  1.
</event>
<event>
 7    1  0.2794945E-009  0.8369001E+02  0.7561462E-02  0.1318894E+00
         -2   -1    0    0    0  501 -0.00000000000E+00  0.00000000000E+00  0.19664772620E+02  0.19664772620E+02  0.00000000000E+00 0.  1.
          2   -1    0    0  501    0  0.00000000000E+00 -0.00000000000E+00 -0.64975404302E+03  0.64975404302E+03  0.00000000000E+00 0. -1.
         25    2    1    2    0    0  0.14474621340E+02  0.25801637255E+02 -0.33040824344E+03  0.35453149670E+03  0.12509090964E+03 0.  0.
          5    1    3    3  502    0  0.18474010537E+02  0.46382619586E+02 -0.32933702563E+03  0.33312608021E+03  0.41800000000E+01 0. -1.
         -5    1    3    3    0  502 -0.39993891968E+01 -0.20580982331E+02 -0.10712178092E+01  0.21405416493E+02  0.41800000000E+01 0. -1.
        -11    1    1    2    0    0  0.32055645473E+02  0.13703383626E+02 -0.90490241576E+02  0.96973351751E+02  0.00000000000E+00 0. -1.
         11    1    1    2    0    0 -0.46530266813E+02 -0.39505020881E+02 -0.20919078539E+03  0.21791396719E+03  0.00000000000E+00 0.  1.
</event>
<event>
 7    1  0.2794945E-009  0.3215692E+03  0.7561462E-02  0.1074929E+00
         -1   -1    0    0    0  501 -0.00000000000E+00  0.00000000000E+00  0.23969391646E+03  0.23969391646E+03  0.00000000000E+00 0.  1.
          1   -1    0    0  501    0  0.00000000000E+00 -0.00000000000E+00 -0.58111128987E+03  0.58111128987E+03  0.00000000000E+00 0. -1.
         25    2    1    2    0    0  0.26279563158E+03  0.15517234129E+03 -0.37600260346E+03  0.50016550121E+03  0.12509025267E+03 0.  0.
          5    1    3    3  502    0  0.15022477874E+02 -0.19303387144E+02 -0.15768955470E+02  0.29401155645E+02  0.41800000000E+01 0. -1.
         -5    1    3    3    0  502  0.24777315371E+03  0.17447572843E+03 -0.36023364799E+03  0.47076434556E+03  0.41800000000E+01 0. -1.
        -11    1    1    2    0    0 -0.18029782638E+03 -0.61652056548E+02  0.44053187774E+02  0.19557342771E+03  0.00000000000E+00 0.  1.
         11    1    1    2    0    0 -0.82497805205E+02 -0.93520284741E+02 -0.94679577249E+01  0.12506627741E+03  0.00000000000E+00 0. -1.
</event>
<event>
 7    1  0.2794945E-009  0.7734814E+02  0.7561462E-02  0.1336750E+00
         -1   -1    0    0    0  501 -0.00000000000E+00  0.00000000000E+00  0.53253098134E+02  0.53253098134E+02  0.00000000000E+00 0.  1.
          1   -1    0    0  501    0  0.00000000000E+00 -0.00000000000E+00 -0.24899510838E+03  0.24899510838E+03  0.00000000000E+00 0. -1.
         25    2    1    2    0    0 -0.32660061607E+02 -0.14319933208E+02 -0.89492982576E+02  0.15789094459E+03  0.12509522909E+03 0.  0.
          5    1    3    3  502    0  0.17506301840E+02 -0.35586812836E+01 -0.10304002321E+03  0.10466065928E+03  0.41800000000E+01 0.  1.
         -5    1    3    3    0  502 -0.50166363447E+02 -0.10761251924E+02  0.13547040638E+02  0.53230285313E+02  0.41800000000E+01 0.  1.
        -11    1    1    2    0    0  0.57716102978E+02  0.15586925481E+02 -0.36054810823E+02  0.69814398030E+02  0.00000000000E+00 0.  1.
         11    1    1    2    0    0 -0.25056041371E+02 -0.12669922737E+01 -0.70194216844E+02  0.74542863891E+02  0.00000000000E+00 0. -1.
</event>
<event>
 7    1  0.2794945E-009  0.8944773E+02  0.7561462E-02  0.1304195E+00
         -3   -1    0    0    0  501 -0.00000000000E+00  0.00000000000E+00  0.89281171508E+02  0.89281171508E+02  0.00000000000E+00 0.  1.
          3   -1    0    0  501    0  0.00000000000E+00 -0.00000000000E+00 -0.15771628318E+03  0.15771628318E+03  0.00000000000E+00 0. -1.
         25    2    1    2    0    0  0.21362562368E+02 -0.20744839576E+02 -0.79071605738E+02  0.15095266276E+03  0.12509068758E+03 0.  0.
          5    1    3    3  502    0  0.13582875625E+01 -0.56070904800E+02  0.60359415341E+01  0.56565858081E+02  0.41800000000E+01 0. -1.
         -5    1    3    3    0  502  0.20004274806E+02  0.35326065224E+02 -0.85107547272E+02  0.94386804679E+02  0.41800000000E+01 0. -1.
        -11    1    1    2    0    0  0.15310701762E+02 -0.21183507791E+02  0.27406048320E+02  0.37871494231E+02  0.00000000000E+00 0.  1.
         11    1    1    2    0    0 -0.36673264130E+02  0.41928347367E+02 -0.16769554251E+02  0.58173297694E+02  0.00000000000E+00 0. -1.
</event>
<event>
 7    1  0.2794945E-009  0.8790725E+02  0.7561462E-02  0.1308000E+00
         -1   -1    0    0    0  501 -0.00000000000E+00  0.00000000000E+00  0.88927022847E+02  0.88927022847E+02  0.00000000000E+00 0.  1.
          1   -1    0    0  501    0  0.00000000000E+00 -0.00000000000E+00 -0.20117658455E+03  0.20117658455E+03  0.00000000000E+00 0. -1.
         25    2    1    2    0    0 -0.98162194511E+01  0.63278881127E+02 -0.11167344116E+02  0.14102114853E+03  0.12514663318E+03 0.  0.
          5    1    3    3  502    0  0.28827805656E+01  0.77666180995E-01 -0.59891580520E+02  0.60106491106E+02  0.41800000000E+01 0.  1.
         -5    1    3    3    0  502 -0.12699000017E+02  0.63201214946E+02  0.48724236405E+02  0.80914657419E+02  0.41800000000E+01 0.  1.
        -11    1    1    2    0    0  0.36637573871E+02  0.82583515715E+00 -0.18179630413E+02  0.40908346151E+02  0.00000000000E+00 0. -1.
         11    1    1    2    0    0 -0.26821354420E+02 -0.64104716284E+02 -0.82902587176E+02  0.10817411272E+03  0.00000000000E+00 0.  1.
</event>
<event>
 7    1  0.2794945E-009  0.9448380E+02  0.7561462E-02  0.1292343E+00
          1   -1    0    0  501    0  0.00000000000E+00  0.00000000000E+00  0.42120618351E+03  0.42120618351E+03  0.00000000000E+00 0. -1.
         -1   -1    0    0    0  501 -0.00000000000E+00 -0.00000000000E+00 -0.36998732285E+02  0.36998732285E+02  0.00000000000E+00 0.  1.
         25    2    1    2    0    0 -0.26807918809E+02 -0.47962913780E+02  0.15829059254E+03  0.20909777113E+03  0.12508741182E+03 0.  0.
          5    1    3    3  502    0  0.11485891354E+02 -0.46307935201E+02  0.18004521872E+01  0.47927701706E+02  0.41800000000E+01 0. -1.
         -5    1    3    3    0  502 -0.38293810163E+02 -0.16549785791E+01  0.15649014036E+03  0.16117006943E+03  0.41800000000E+01 0. -1.
        -11    1    1    2    0    0  0.72346795681E+01 -0.25492104237E+02  0.84444609111E+02  0.88504688999E+02  0.00000000000E+00 0.  1.
         11    1    1    2    0    0  0.19573239240E+02  0.73455018017E+02  0.14147224957E+03  0.16060245567E+03  0.00000000000E+00 0. -1.
</event>
<event>
 7    1  0.2794945E-009  0.9403238E+02  0.7561462E-02  0.1293370E+00
          3   -1    0    0  501    0  0.00000000000E+00  0.00000000000E+00  0.52077208907E+02  0.52077208907E+02  0.00000000000E+00 0. -1.
         -3   -1    0    0    0  501 -0.00000000000E+00 -0.00000000000E+00 -0.26734913340E+03  0.26734913340E+03  0.00000000000E+00 0.  1.
         25    2    1    2    0    0 -0.42356213693E+02  0.19309470803E+02 -0.11507301748E+03  0.17623130398E+03  0.12509503848E+03 0.  0.
          5    1    3    3  502    0 -0.61379030470E+00 -0.33666319213E+02 -0.10187896018E+03  0.10738059748E+03  0.41800000000E+01 0.  1.
         -5    1    3    3    0  502 -0.41742423388E+02  0.52975790016E+02 -0.13194057296E+02  0.68850706504E+02  0.41800000000E+01 0.  1.
        -11    1    1    2    0    0  0.14936046581E+02  0.28082235890E+02 -0.77776659104E+02  0.84029198267E+02  0.00000000000E+00 0.  1.
         11    1    1    2    0    0  0.27420167112E+02 -0.47391706693E+02 -0.22422247909E+02  0.59165840051E+02  0.00000000000E+00 0. -1.
</event>
<event>
 7    1  0.2794945E-009  0.7670701E+02  0.7561462E-02  0.1338665E+00
         -2   -1    0    0    0  501 -0.00000000000E+00  0.00000000000E+00  0.68694421489E+02  0.68694421489E+02  0.00000000000E+00 0.  1.
          2   -1    0    0  501    0  0.00000000000E+00 -0.00000000000E+00 -0.17562533267E+03  0.17562533267E+03  0.00000000000E+00 0. -1.
         25    2    1    2    0    0 -0.88823649098E+01 -0.19418567983E+02 -0.42069264627E+02  0.13369462039E+03  0.12509377006E+03 0.  0.
          5    1    3    3  502    0 -0.30443210502E+02 -0.26917640857E+02  0.34634369316E+02  0.53557076030E+02  0.41800000000E+01 0.  1.
         -5    1    3    3    0  502  0.21560845592E+02  0.74990728746E+01 -0.76703633942E+02  0.80137544363E+02  0.41800000000E+01 0.  1.
        -11    1    1    2    0    0 -0.33090504033E+01  0.53271539808E+02 -0.34579000360E+02  0.63596493881E+02  0.00000000000E+00 0.  1.
         11    1    1    2    0    0  0.12191415313E+02 -0.33852971825E+02 -0.30282646193E+02  0.47028639883E+02  0.00000000000E+00 0. -1.
</event>
<event>
 7    1  0.2794945E-009  0.8753832E+02  0.7561462E-02  0.1308925E+00
         -1   -1    0    0    0  501 -0.00000000000E+00  0.00000000000E+00  0.34970176360E+03  0.34970176360E+03  0.00000000000E+00 0.  1.
          1   -1    0    0  501    0  0.00000000000E+00 -0.00000000000E+00 -0.38635296618E+02  0.38635296618E+02  0.00000000000E+00 0. -1.
         25    2    1    2    0    0 -0.96785218565E+01  0.10678228661E+02  0.24419143062E+03  0.27474408378E+03  0.12508860231E+03 0.  0.
          5    1    3    3  502    0  0.48087099893E+02 -0.97549680093E+01  0.46487533722E+02  0.67720689369E+02  0.41800000000E+01 0. -1.
         -5    1    3    3    0  502 -0.57765621750E+02  0.20433196670E+02  0.19770389690E+03  0.20702339441E+03  0.41800000000E+01 0. -1.
        -11    1    1    2    0    0 -0.11894066060E+02 -0.31967401877E+02  0.74848016669E+02  0.82253323273E+02  0.00000000000E+00 0.  1.
         11    1    1    2    0    0  0.21572587916E+02  0.21289173217E+02 -0.79729803103E+01  0.31339653168E+02  0.00000000000E+00 0. -1.
</event>
<event>
 7    1  0.2794945E-009  0.1170981E+03  0.7561462E-02  0.1247963E+00
          1   -1    0    0  501    0  0.00000000000E+00  0.00000000000E+00  0.46982364756E+03  0.46982364756E+03  0.00000000000E+00 0. -1.
         -1   -1    0    0    0  501 -0.00000000000E+00 -0.00000000000E+00 -0.33149728855E+02  0.33149728855E+02  0.00000000000E+00 0.  1.
         25    2    1    2    0    0 -0.28631977340E+02  0.52283027080E+02  0.21597773584E+03  0.25660767949E+03  0.12509122171E+03 0.  0.
          5    1    3    3  502    0 -0.46870048782E+02 -0.28894335298E+02  0.82974156637E+02  0.99668787265E+02  0.41800000000E+01 0.  1.
         -5    1    3    3    0  502  0.18238071441E+02  0.81177362378E+02  0.13300357920E+03  0.15693889222E+03  0.41800000000E+01 0.  1.
        -11    1    1    2    0    0 -0.23575987123E+02 -0.31806051572E+02  0.15505947707E+03  0.16003403861E+03  0.00000000000E+00 0. -1.
         11    1    1    2    0    0  0.52207964463E+02 -0.20476975509E+02  0.65636705801E+02  0.86331658317E+02  0.00000000000E+00 0.  1.
</event>
<event>
 7    1  0.2794945E-009  0.1016212E+03  0.7561462E-02  0.1276923E+00
         -2   -1    0    0    0  501 -0.00000000000E+00  0.00000000000E+00  0.14044895778E+02  0.14044895778E+02  0.00000000000E+00 0.  1.
          2   -1    0    0  501    0  0.00000000000E+00 -0.00000000000E+00 -0.84662870445E+03  0.84662870445E+03  0.00000000000E+00 0. -1.
         25    2    1    2    0    0  0.22099627982E+02  0.69315367512E+00 -0.58652634043E+03  0.60012262166E+03  0.12508053004E+03 0.  0.
          5    1    3    3  502    0 -0.45560664709E+02 -0.27667943052E+02 -0.23728090167E+03  0.24323031870E+03  0.41800000000E+01 0. -1.
         -5    1    3    3    0  502  0.67660292691E+02  0.28361096728E+02 -0.34924543876E+03  0.35689230296E+03  0.41800000000E+01 0. -1.
        -11    1    1    2    0    0 -0.15114360978E+02 -0.36659885887E+02 -0.18615906953E+03  0.19033546782E+03  0.00000000000E+00 0. -1.
         11    1    1    2    0    0 -0.69852670040E+01  0.35966732212E+02 -0.59898398711E+02  0.70215510746E+02  0.00000000000E+00 0.  1.
</event>
<event>
 7    1  0.2794945E-009  0.1118924E+03  0.7561462E-02  0.1257105E+00
          1   -1    0    0  501    0  0.00000000000E+00  0.00000000000E+00  0.42257681629E+02  0.42257681629E+02  0.00000000000E+00 0. -1.
         -1   -1    0    0    0  501 -0.00000000000E+00 -0.00000000000E+00 -0.35453373052E+03  0.35453373052E+03  0.00000000000E+00 0.  1.
         25    2    1    2    0    0  0.54205063152E+02 -0.22381395832E+02 -0.16338606514E+03  0.21397317376E+03  0.12510154698E+03 0.  0.
          5    1    3    3  502    0  0.59886379376E+02  0.38478802934E+02 -0.57338804644E+02  0.91499768459E+02  0.41800000000E+01 0. -1.
         -5    1    3    3    0  502 -0.56813162242E+01 -0.60860198767E+02 -0.10604726049E+03  0.12247340530E+03  0.41800000000E+01 0. -1.
        -11    1    1    2    0    0 -0.42837601615E+02  0.47304722985E+02 -0.14026236010E+03  0.15409843149E+03  0.00000000000E+00 0.  1.
         11    1    1    2    0    0 -0.11367461537E+02 -0.24923327153E+02 -0.86276236579E+01  0.28719806896E+02  0.00000000000E+00 0. -1.
</event>
<event>
 7    1  0.2794945E-009  0.1736377E+03  0.7561462E-02  0.1174107E+00
         -2   -1    0    0    0  501 -0.00000000000E+00  0.00000000000E+00  0.67923013462E+02  0.67923013462E+02  0.00000000000E+00 0.  1.
          2   -1    0    0  501    0  0.00000000000E+00 -0.00000000000E+00 -0.59520986539E+03  0.59520986539E+03  0.00000000000E+00 0. -1.
         25    2    1    2    0    0  0.12268537464E+03 -0.10105155261E+03 -0.18298694229E+03  0.27275646570E+03  0.12509496832E+03 0.  0.
          5    1    3    3  502    0  0.68332929656E+02  0.42173413566E+01 -0.20436245768E+02  0.71570159875E+02  0.41800000000E+01 0.  1.
         -5    1    3    3    0  502  0.54352444982E+02 -0.10526889397E+03 -0.16255069652E+03  0.20118630583E+03  0.41800000000E+01 0.  1.
        -11    1    1    2    0    0 -0.94617607013E+02  0.66628192370E+02 -0.31881658559E+03  0.33916931292E+03  0.00000000000E+00 0. -1.
         11    1    1    2    0    0 -0.28067767624E+02  0.34423360242E+02 -0.25483324045E+02  0.51207100232E+02  0.00000000000E+00 0.  1.
</event>
<event>
 7    1  0.2794945E-009  0.1367347E+03  0.7561462E-02  0.1217791E+00
         -1   -1    0    0    0  501 -0.00000000000E+00  0.00000000000E+00  0.53806941758E+02  0.53806941758E+02  0.00000000000E+00 0.  1.
          1   -1    0    0  501    0  0.00000000000E+00 -0.00000000000E+00 -0.71506981250E+03  0.71506981250E+03  0.00000000000E+00 0. -1.
         25    2    1    2    0    0  0.47950252535E+02 -0.11694338355E+03 -0.14414785162E+03  0.22890990386E+03  0.12508460851E+03 0.  0.
          5    1    3    3  502    0 -0.93789328611E+00 -0.49050593713E+02  0.12916936460E+02  0.50903438341E+02  0.41800000000E+01 0. -1.
         -5    1    3    3    0  502  0.48888145821E+02 -0.67892789838E+02 -0.15706478808E+03  0.17800646552E+03  0.41800000000E+01 0. -1.
        -11    1    1    2    0    0 -0.58428949602E+02  0.64688769385E+02 -0.42227348501E+03  0.43117684907E+03  0.00000000000E+00 0. -1.
         11    1    1    2    0    0  0.10478697067E+02  0.52254614166E+02 -0.94841534115E+02  0.10879000132E+03  0.00000000000E+00 0.  1.
</event>
<event>
 6    1  0.2794945E-009  0.9596632E+02  0.7561462E-02  0.1289014E+00
          1   -1    0    0  501    0  0.00000000000E+00  0.00000000000E+00  0.50502617348E+03  0.50502617348E+03  0.00000000000E+00 0. -1.
         -1   -1    0    0    0  501 -0.00000000000E+00 -0.00000000000E+00 -0.29613327116E+02  0.29613327116E+02  0.00000000000E+00 0.  1.
          5    1    1    2  502    0 -0.17106087225E+02 -0.37509741719E+02  0.53765209581E+02  0.67880550272E+02  0.41800000000E+01 0.  1.
         -5    1    1    2    0  502  0.66649114290E+02  0.62187620450E+02  0.22970690380E+03  0.24716823951E+03  0.41800000000E+01 0.  1.
        -11    1    1    2    0    0 -0.33301864791E+02 -0.26954462282E+02  0.19763870367E+03  0.20222911369E+03  0.00000000000E+00 0. -1.
         11    1    1    2    0    0 -0.16241162274E+02  0.22765835513E+01 -0.56979706823E+01  0.17361597120E+02  0.00000000000E+00 0.  1.
</event>
<event>
 7    1  0.2794945E-009  0.1174605E+03  0.7561462E-02  0.1247346E+00
         -2   -1    0    0    0  501 -0.00000000000E+00  0.00000000000E+00  0.27372428464E+02  0.27372428464E+02  0.00000000000E+00 0.  1.
          2   -1    0    0  501    0  0.00000000000E+00 -0.00000000000E+00 -0.79489575369E+03  0.79489575369E+03  0.00000000000E+00 0. -1.
         25    2    1    2    0    0 -0.42736687083E+02  0.87768578231E+02 -0.50674153492E+03  0.53100229103E+03  0.12508677835E+03 0.  0.
          5    1    3    3  502    0  0.10351489608E+02  0.37389774554E+02 -0.31523071638E+02  0.50162984598E+02  0.41800000000E+01 0.  1.
         -5    1    3    3    0  502 -0.53088176691E+02  0.50378803677E+02 -0.47521846328E+03  0.48083930643E+03  0.41800000000E+01 0.  1.
        -11    1    1    2    0    0  0.63845135460E+02 -0.72104264115E+02 -0.23699178873E+03  0.25581308440E+03  0.00000000000E+00 0.  1.
         11    1    1    2    0    0 -0.21108448377E+02 -0.15664314116E+02 -0.23790001576E+02  0.35452806724E+02  0.00000000000E+00 0. -1.
</event>
<event>
 7    1  0.2794945E-009  0.7237859E+02  0.7561462E-02  0.1352186E+00
          2   -1    0    0  501    0  0.00000000000E+00  0.00000000000E+00  0.60373629544E+03  0.60373629544E+03  0.00000000000E+00 0. -1.
         -2   -1    0    0    0  501 -0.00000000000E+00 -0.00000000000E+00 -0.27869137283E+02  0.27869137283E+02  0.00000000000E+00 0.  1.
         25    2    1    2    0    0 -0.25770510978E+02 -0.44157308555E+01  0.47127891788E+03  0.48829853141E+03  0.12509204381E+03 0.  0.
          5    1    3    3  502    0  0.93406056400E+01  0.61028322607E+01  0.43934443227E+03  0.43950596588E+03  0.41800000000E+01 0.  1.
         -5    1    3    3    0  502 -0.35111116618E+02 -0.10518563116E+02  0.31934485608E+02  0.48792565533E+02  0.41800000000E+01 0.  1.
        -11    1    1    2    0    0  0.18192843960E+02  0.48198764605E+02  0.41565875985E+02  0.66195336144E+02  0.00000000000E+00 0.  1.
         11    1    1    2    0    0  0.75776670182E+01 -0.43783033750E+02  0.63022364296E+02  0.77111565171E+02  0.00000000000E+00 0. -1.
</event>
<event>
 7    1  0.2794945E-009  0.9460565E+02  0.7561462E-02  0.1292067E+00
          3   -1    0    0  501    0  0.00000000000E+00  0.00000000000E+00  0.17669529819E+03  0.17669529819E+03  0.00000000000E+00 0. -1.
         -3   -1    0    0    0  501 -0.00000000000E+00 -0.00000000000E+00 -0.88515565135E+02  0.88515565135E+02  0.00000000000E+00 0.  1.
         25    2    1    2    0    0  0.82195851831E+01  0.47208669350E+01  0.11314373253E+03  0.16892885910E+03  0.12508240108E+03 0.  0.
          5    1    3    3  502    0 -0.23709513646E+02  0.45791042024E+02  0.10370534468E+03  0.11589318998E+03  0.41800000000E+01 0.  1.
         -5    1    3    3    0  502  0.31929098829E+02 -0.41070175089E+02  0.94383878508E+01  0.53035669121E+02  0.41800000000E+01 0.  1.
        -11    1    1    2    0    0 -0.42046520520E+02  0.16708282360E+02  0.60305288639E+01  0.45644757263E+02  0.00000000000E+00 0. -1.
         11    1    1    2    0    0  0.33826935337E+02 -0.21429149295E+02 -0.30994528337E+02  0.50637246969E+02  0.00000000000E+00 0.  1.
</event>
<event>
 7    1  0.2794945E-009  0.1122500E+03  0.7561462E-02  0.1256459E+00
          2   -1    0    0  501    0  0.00000000000E+00  0.00000000000E+00  0.10610690184E+03  0.10610690184E+03  0.00000000000E+00 0. -1.
         -2   -1    0    0    0  501 -0.00000000000E+00 -0.00000000000E+00 -0.18228533005E+03  0.18228533005E+03  0.00000000000E+00 0.  1.
         25    2    1    2    0    0 -0.34348676056E+02  0.45647268848E+02  0.27266687387E+02  0.14019651674E+03  0.12509231138E+03 0.  0.
          5    1    3    3  502    0  0.23429050524E+02 -0.30814146114E+02  0.20572864238E+02  0.44035748571E+02  0.41800000000E+01 0. -1.
         -5    1    3    3    0  502 -0.57777726580E+02  0.76461414963E+02  0.66938231489E+01  0.96160768171E+02  0.41800000000E+01 0. -1.
        -11    1    1    2    0    0  0.51304414226E+02 -0.13118110954E+02 -0.97613110312E+02  0.11105200160E+03  0.00000000000E+00 0.  1.
         11    1    1    2    0    0 -0.16955738169E+02 -0.32529157894E+02 -0.58320052866E+01  0.37143713544E+02  0.00000000000E+00 0. -1.
</event>
<event>
 7    1  0.2794945E-009  0.9971750E+02  0.7561462E-02  0.1280891E+00
         -2   -1    0    0    0  501 -0.00000000000E+00  0.00000000000E+00  0.27443549199E+02  0.27443549199E+02  0.00000000000E+00 0.  1.
          2   -1    0    0  501    0  0.00000000000E+00 -0.00000000000E+00 -0.58483699735E+03  0.58483699735E+03  0.00000000000E+00 0. -1.
         25    2    1    2    0    0  0.51397645723E+02  0.20684640564E+02 -0.22633020543E+03  0.26446586313E+03  0.12508900244E+03 0.  0.
          5    1    3    3  502    0  0.58141018314E+02 -0.12232516459E+02 -0.22256573335E+03  0.23039746208E+03  0.41800000000E+01 0. -1.
         -5    1    3    3    0  502 -0.67433725911E+01  0.32917157023E+02 -0.37644720760E+01  0.34068401054E+02  0.41800000000E+01 0. -1.
        -11    1    1    2    0    0 -0.56130383686E+02 -0.50694117074E+02 -0.25240121351E+03  0.26348982155E+03  0.00000000000E+00 0.  1.
         11    1    1    2    0    0  0.47327379638E+01  0.30009476510E+02 -0.78662029204E+02  0.84324861859E+02  0.00000000000E+00 0. -1.
</event>
<event>
 7    1  0.2794945E-009  0.1508860E+03  0.7561462E-02  0.1199389E+00
         -1   -1    0    0    0  501 -0.00000000000E+00  0.00000000000E+00  0.92305448950E+02  0.92305448950E+02  0.00000000000E+00 0.  1.
          1   -1    0    0  501    0  0.00000000000E+00 -0.00000000000E+00 -0.35344446039E+03  0.35344446039E+03  0.00000000000E+00 0. -1.
         25    2    1    2    0    0 -0.12255542002E+03  0.67512096135E+02 -0.19434064954E+03  0.27017315892E+03  0.12509010207E+03 0.  0.
          5    1    3    3  502    0 -0.61012725677E+02  0.24575726597E+02 -0.18256735112E+03  0.19410004927E+03  0.41800000000E+01 0.  1.
         -5    1    3    3    0  502 -0.61542694348E+02  0.42936369538E+02 -0.11773298424E+02  0.76073109654E+02  0.41800000000E+01 0.  1.
        -11    1    1    2    0    0  0.84158554942E+02 -0.13024069871E+01 -0.22419083594E+02  0.87103237271E+02  0.00000000000E+00 0.  1.
         11    1    1    2    0    0  0.38396865082E+02 -0.66209689148E+02 -0.44379278301E+02  0.88473513142E+02  0.00000000000E+00 0. -1.
</event>
<event>
 7    1  0.2794945E-009  0.1046105E+03  0.7561462E-02  0.1270889E+00
          2   -1    0    0  501    0  0.00000000000E+00  0.00000000000E+00  0.20479364742E+02  0.20479364742E+02  0.00000000000E+00 0. -1.
         -2   -1    0    0    0  501 -0.00000000000E+00 -0.00000000000E+00 -0.73129900504E+03  0.73129900504E+03  0.00000000000E+00 0.  1.
         25    2    1    2    0    0  0.35273194278E+02 -0.18852013948E+02 -0.28715803026E+03  0.31576408073E+03  0.12509046196E+03 0.  0.
          5    1    3    3  502    0  0.56699137203E+02 -0.46941444822E+02 -0.26204274810E+03  0.27221712958E+03  0.41800000000E+01 0. -1.
         -5    1    3    3    0  502 -0.21425942925E+02  0.28089430873E+02 -0.25115282156E+02  0.43546951154E+02  0.41800000000E+01 0. -1.
        -11    1    1    2    0    0 -0.12664269412E+02 -0.37297101121E+02 -0.11749287810E+03  0.12391946528E+03  0.00000000000E+00 0. -1.
         11    1    1    2    0    0 -0.22608924866E+02  0.56149115070E+02 -0.30616873194E+03  0.31209482377E+03  0.00000000000E+00 0.  1.
</event>
<event>
 7    1  0.2794945E-009  0.8646361E+02  0.7561462E-02  0.1311649E+00
          2   -1    0    0  501    0  0.00000000000E+00  0.00000000000E+00  0.31615188436E+04  0.31615188436E+04  0.00000000000E+00 0. -1.
         -2   -1    0    0    0  501 -0.00000000000E+00 -0.00000000000E+00 -0.74497905486E+01  0.74497905486E+01  0.00000000000E+00 0.  1.
         25    2    1    2    0    0  0.57849261993E+02  0.16062076156E+02  0.26334992491E+04  0.26371518410E+04  0.12508800925E+03 0.  0.
          5    1    3    3  502    0  0.13432351798E+02 -0.49258954886E+01  0.22980848130E+04  0.22981331494E+04  0.41800000000E+01 0. -1.
         -5    1    3    3    0  502  0.44416910196E+02  0.20987971644E+02  0.33541443615E+03  0.33901869158E+03  0.41800000000E+01 0. -1.
        -11    1    1    2    0    0 -0.62074500393E+01  0.35324814921E+02  0.16253565288E+03  0.16644582735E+03  0.00000000000E+00 0.  1.
         11    1    1    2    0    0 -0.51641811954E+02 -0.51386891077E+02  0.35803415101E+03  0.36537096574E+03  0.00000000000E+00 0. -1.
</event>
<event>
 7    1  0.2794945E-009  0.1201397E+03  0.7561462E-02  0.1242867E+00
         -2   -1    0    0    0  501 -0.00000000000E+00  0.00000000000E+00  0.71008295734E+02  0.71008295734E+02  0.00000000000E+00 0. -1.
          2   -1    0    0  501    0  0.00000000000E+00 -0.00000000000E+00 -0.25898214479E+03  0.25898214479E+03  0.00000000000E+00 0.  1.
         25    2    1    2    0    0 -0.99511722257E+01  0.53176721264E+02 -0.17905606470E+03  0.22502317701E+03  0.12509023293E+03 0.  0.
          5    1    3    3  502    0 -0.14787897568E+02  0.93830904370E+02 -0.12782245783E+03  0.15930779533E+03  0.41800000000E+01 0.  1.
         -5    1    3    3    0  502  0.48367253422E+01 -0.40654183106E+02 -0.51233606871E+02  0.65715381678E+02  0.41800000000E+01 0.  1.
        -11    1    1    2    0    0  0.49686924256E+02 -0.30159916951E+02 -0.10281315392E+02  0.59026404928E+02  0.00000000000E+00 0.  1.
         11    1    1    2    0    0 -0.39735752030E+02 -0.23016804312E+02  0.13635310391E+01  0.45940858580E+02  0.00000000000E+00 0. -1.
</event>
<event>
 7    1  0.2794945E-009  0.1315519E+03  0.7561462E-02  0.1225171E+00
         -2   -1    0    0    0  501 -0.00000000000E+00  0.00000000000E+00  0.54460679362E+02  0.54460679362E+02  0.00000000000E+00 0.  1.
          2   -1    0    0  501    0  0.00000000000E+00 -0.00000000000E+00 -0.44751930730E+03  0.44751930730E+03  0.00000000000E+00 0. -1.
         25    2    1    2    0    0 -0.34090644004E+02  0.81701500879E+02 -0.32256445400E+03  0.35711920303E+03  0.12509592695E+03 0.  0.
          5    1    3    3  502    0  0.33185160965E+02  0.76227673588E+02 -0.20865718921E+03  0.22464907776E+03  0.41800000000E+01 0. -1.
         -5    1    3    3    0  502 -0.67275804968E+02  0.54738272907E+01 -0.11390726479E+03  0.13247012528E+03  0.41800000000E+01 0. -1.
        -11    1    1    2    0    0  0.52219737662E+02 -0.37010307193E+02 -0.72348408021E+02  0.96596873568E+02  0.00000000000E+00 0.  1.
         11    1    1    2    0    0 -0.18129093658E+02 -0.44691193686E+02  0.18542340819E+01  0.48263910057E+02  0.00000000000E+00 0. -1.
</event>
<event>
 7    1  0.2794945E-009  0.7734588E+02  0.7561462E-02  0.1336757E+00
         -2   -1    0    0    0  501 -0.00000000000E+00  0.00000000000E+00  0.87118129982E+02  0.87118129982E+02  0.00000000000E+00 0.  1.
          2   -1    0    0  501    0  0.00000000000E+00 -0.00000000000E+00 -0.19297225490E+03  0.19297225490E+03  0.00000000000E+00 0. -1.
         25    2    1    2    0    0 -0.45309979780E+01 -0.69815364776E+02 -0.52528031879E+02  0.15264901663E+03  0.12509121889E+03 0.  0.
          5    1    3    3  502    0 -0.21272321440E+02 -0.56370291460E+02 -0.90514700759E+02  0.10881408398E+03  0.41800000000E+01 0.  1.
         -5    1    3    3    0  502  0.16741323462E+02 -0.13445073316E+02  0.37986668880E+02  0.43834932649E+02  0.41800000000E+01 0.  1.
        -11    1    1    2    0    0 -0.72600954221E+01  0.21694087264E+02 -0.71189258664E+02  0.74774681255E+02  0.00000000000E+00 0. -1.
         11    1    1    2    0    0  0.11791093400E+02  0.48121277512E+02  0.17863165626E+02  0.52666686997E+02  0.00000000000E+00 0.  1.
</event>
<event>
 7    1  0.2794945E-009  0.1031828E+03  0.7561462E-02  0.1273742E+00
          3   -1    0    0  501    0  0.00000000000E+00  0.00000000000E+00  0.97322446437E+02  0.97322446437E+02  0.00000000000E+00 0. -1.
         -3   -1    0    0    0  501 -0.00000000000E+00 -0.00000000000E+00 -0.14453598939E+03  0.14453598939E+03  0.00000000000E+00 0.  1.
         25    2    1    2    0    0 -0.40870433302E+02 -0.21921684240E+02 -0.46218002063E+02  0.14118466469E+03  0.12508418474E+03 0.  0.
          5    1    3    3  502    0  0.33056934086E+02 -0.35283211376E+02 -0.44622343238E+02  0.65926412098E+02  0.41800000000E+01 0. -1.
         -5    1    3    3    0  502 -0.73927367388E+02  0.13361527136E+02 -0.15956588255E+01  0.75258252593E+02  0.41800000000E+01 0. -1.
        -11    1    1    2    0    0  0.10920809356E+02 -0.24799836964E+02  0.27226552137E+02  0.38413293684E+02  0.00000000000E+00 0. -1.
         11    1    1    2    0    0  0.29949623946E+02  0.46721521204E+02 -0.28222093031E+02  0.62260477457E+02  0.00000000000E+00 0.  1.
</event>
<event>
 7    1  0.2794945E-009  0.2434497E+03  0.7561462E-02  0.1117516E+00
         -2   -1    0    0    0  501 -0.00000000000E+00  0.00000000000E+00  0.68958322931E+02  0.68958322931E+02  0.00000000000E+00 0. -1.
          2   -1    0    0  501    0  0.00000000000E+00 -0.00000000000E+00 -0.10577543132E+04  0.10577543132E+04  0.00000000000E+00 0.  1.
         25    2    1    2    0    0  0.22893372165E+03  0.58770812498E+02 -0.65775203220E+03  0.71003517003E+03  0.12509016550E+03 0.  0.
          5    1    3    3  502    0  0.20765639647E+03  0.76587412309E+02 -0.46217604863E+03  0.51245583521E+03  0.41800000000E+01 0. -1.
         -5    1    3    3    0  502  0.21277325179E+02 -0.17816599811E+02 -0.19557598358E+03  0.19757933482E+03  0.41800000000E+01 0. -1.
        -11    1    1    2    0    0 -0.18560403381E+03 -0.56760521536E+02 -0.31584818263E+03  0.37071645316E+03  0.00000000000E+00 0.  1.
         11    1    1    2    0    0 -0.43329687837E+02 -0.20102909619E+01 -0.15195775413E+02  0.45961012915E+02  0.00000000000E+00 0. -1.
</event>
<event>
 7    1  0.2794945E-009  0.1435701E+03  0.7561462E-02  0.1208604E+00
          2   -1    0    0  501    0  0.00000000000E+00  0.00000000000E+00  0.56865504317E+03  0.56865504317E+03  0.00000000000E+00 0. -1.
         -2   -1    0    0    0  501 -0.00000000000E+00 -0.00000000000E+00 -0.44792076162E+02  0.44792076162E+02  0.00000000000E+00 0.  1.
         25    2    1    2    0    0 -0.92311494468E+02  0.43712525520E+02  0.38863190911E+03  0.42084998608E+03  0.12509097931E+03 0.  0.
          5    1    3    3  502    0 -0.33070679516E+02 -0.37458921533E+02  0.20946720229E+03  0.21538528705E+03  0.41800000000E+01 0.  1.
         -5    1    3    3    0  502 -0.59240814952E+02  0.81171447053E+02  0.17916470683E+03  0.20546469902E+03  0.41800000000E+01 0.  1.
        -11    1    1    2    0    0  0.72229441831E+01 -0.50544352180E+02  0.41277557557E+02  0.65656219948E+02  0.00000000000E+00 0. -1.
         11    1    1    2    0    0  0.85088550285E+02  0.68318266608E+01  0.93953500343E+02  0.12694091331E+03  0.00000000000E+00 0.  1.
</event>
<event>
 7    1  0.2794945E-009  0.1808172E+03  0.7561462E-02  0.1167015E+00
          1   -1    0    0  501    0  0.00000000000E+00  0.00000000000E+00  0.79124595002E+03  0.79124595002E+03  0.00000000000E+00 0. -1.
         -1   -1    0    0    0  501 -0.00000000000E+00 -0.00000000000E+00 -0.47664607840E+02  0.47664607840E+02  0.00000000000E+00 0.  1.
         25    2    1    2    0    0  0.33518730477E+02 -0.15478734527E+03  0.45249972985E+03  0.49546606258E+03  0.12509191064E+03 0.  0.
          5    1    3    3  502    0  0.81158365366E+02 -0.10250457359E+03  0.30260579745E+03  0.32966893837E+03  0.41800000000E+01 0. -1.
         -5    1    3    3    0  502 -0.47639634889E+02 -0.52282771676E+02  0.14989393240E+03  0.16579712421E+03  0.41800000000E+01 0. -1.
        -11    1    1    2    0    0 -0.36695201061E+02  0.13373860134E+03  0.16482618829E+03  0.21540711134E+03  0.00000000000E+00 0.  1.
         11    1    1    2    0    0  0.31764705837E+01  0.21048743924E+02  0.12625542404E+03  0.12803738394E+03  0.00000000000E+00 0. -1.
</event>
<event>
 7    1  0.2794945E-009  0.1160581E+03  0.7561462E-02  0.1249745E+00
         -3   -1    0    0    0  501 -0.00000000000E+00  0.00000000000E+00  0.10695340831E+03  0.10695340831E+03  0.00000000000E+00 0.  1.
          3   -1    0    0  501    0  0.00000000000E+00 -0.00000000000E+00 -0.20474964792E+03  0.20474964792E+03  0.00000000000E+00 0. -1.
         25    2    1    2    0    0 -0.73705851514E+02 -0.17969706302E+02  0.78576840570E+01  0.14650784432E+03  0.12508933751E+03 0.  0.
          5    1    3    3  502    0 -0.77972221840E+02  0.14696723626E+02 -0.39448782424E+02  0.88709299957E+02  0.41800000000E+01 0.  1.
         -5    1    3    3    0  502  0.42663703259E+01 -0.32666429928E+02  0.47306466481E+02  0.57798544367E+02  0.41800000000E+01 0.  1.
        -11    1    1    2    0    0  0.17699310136E+02 -0.36976278873E+02 -0.64953233305E+02  0.76807768458E+02  0.00000000000E+00 0.  1.
         11    1    1    2    0    0  0.56006541378E+02  0.54945985175E+02 -0.40700690357E+02  0.88387443450E+02  0.00000000000E+00 0. -1.
</event>
<event>
 7    1  0.2794945E-009  0.1051065E+03  0.7561462E-02  0.1269910E+00
          2   -1    0    0  501    0  0.00000000000E+00  0.00000000000E+00  0.55887268709E+03  0.55887268709E+03  0.00000000000E+00 0.  1.
         -2   -1    0    0    0  501 -0.00000000000E+00 -0.00000000000E+00 -0.21811369054E+02  0.21811369054E+02  0.00000000000E+00 0. -1.
         25    2    1    2    0    0  0.32589078675E+01 -0.20246394846E+02  0.32647235001E+03  0.35021602759E+03  0.12508610505E+03 0.  0.
          5    1    3    3  502    0 -0.35033511800E+02 -0.60817119614E+02  0.19712168088E+03  0.20928568623E+03  0.41800000000E+01 0. -1.
         -5    1    3    3    0  502  0.38292419667E+02  0.40570724768E+02  0.12935066913E+03  0.14093034136E+03  0.41800000000E+01 0. -1.
        -11    1    1    2    0    0  0.32553640129E+02 -0.13037236197E+02  0.40894357888E+02  0.53870748281E+02  0.00000000000E+00 0. -1.
         11    1    1    2    0    0 -0.35812547996E+02  0.33283631043E+02  0.16969461014E+03  0.17659728028E+03  0.00000000000E+00 0.  1.
</event>
<event>
 7    1  0.2794945E-009  0.1025096E+03  0.7561462E-02  0.1275105E+00
          1   -1    0    0  501    0  0.00000000000E+00  0.00000000000E+00  0.72977525386E+03  0.72977525386E+03  0.00000000000E+00 0. -1.
         -1   -1    0    0    0  501 -0.00000000000E+00 -0.00000000000E+00 -0.35583192347E+02  0.35583192347E+02  0.00000000000E+00 0.  1.
         25    2    1    2    0    0 -0.57021828132E+02 -0.62023659712E+02  0.17073453623E+03  0.22780765069E+03  0.12509044969E+03 0.  0.
          5    1    3    3  502    0 -0.42310855605E+02 -0.74412278611E+02  0.38218028279E+02  0.93837550030E+02  0.41800000000E+01 0. -1.
         -5    1    3    3    0  502 -0.14710972527E+02  0.12388618899E+02  0.13251650795E+03  0.13397010066E+03  0.41800000000E+01 0. -1.
        -11    1    1    2    0    0  0.67423895980E+02  0.51538153107E+02  0.51165261219E+03  0.51864299719E+03  0.00000000000E+00 0. -1.
         11    1    1    2    0    0 -0.10402067848E+02  0.10485506605E+02  0.11804913085E+02  0.18907798318E+02  0.00000000000E+00 0.  1.
</event>
<event>
 7    1  0.2794945E-009  0.1173109E+03  0.7561462E-02  0.1247600E+00
          1   -1    0    0  501    0  0.00000000000E+00  0.00000000000E+00  0.34224782870E+03  0.34224782870E+03  0.00000000000E+00 0. -1.
         -1   -1    0    0    0  501 -0.00000000000E+00 -0.00000000000E+00 -0.54870523981E+02  0.54870523981E+02  0.00000000000E+00 0.  1.
         25    2    1    2    0    0 -0.19924529659E+02  0.56360718754E+02  0.24560450831E+03  0.28203332133E+03  0.12509077640E+03 0.  0.
          5    1    3    3  502    0  0.30342655796E+02  0.69512697929E+02  0.19546475162E+03  0.20970606443E+03  0.41800000000E+01 0.  1.
         -5    1    3    3    0  502 -0.50267185456E+02 -0.13151979176E+02  0.50139756691E+02  0.72327256902E+02  0.41800000000E+01 0.  1.
        -11    1    1    2    0    0  0.51283409986E+02 -0.12795907916E+02  0.27305305914E+02  0.59492042580E+02  0.00000000000E+00 0. -1.
         11    1    1    2    0    0 -0.31358880327E+02 -0.43564810837E+02  0.14467490493E+02  0.55592988765E+02  0.00000000000E+00 0.  1.
</event>
<event>
 7    1  0.2794945E-009  0.1265976E+03  0.7561462E-02  0.1232593E+00
          2   -1    0    0  501    0  0.00000000000E+00  0.00000000000E+00  0.12353568427E+03  0.12353568427E+03  0.00000000000E+00 0. -1.
         -2   -1    0    0    0  501 -0.00000000000E+00 -0.00000000000E+00 -0.14552261248E+03  0.14552261248E+03  0.00000000000E+00 0.  1.
         25    2    1    2    0    0 -0.74494492028E+02 -0.70741453535E+01 -0.59176375820E+01  0.14588046867E+03  0.12508644942E+03 0.  0.
          5    1    3    3  502    0 -0.59484068419E+02  0.50366885653E+02 -0.27221060674E+02  0.82665809802E+02  0.41800000000E+01 0. -1.
         -5    1    3    3    0  502 -0.15010423609E+02 -0.57441031006E+02  0.21303423092E+02  0.63214658865E+02  0.41800000000E+01 0. -1.
        -11    1    1    2    0    0  0.43057145510E+02  0.47696788068E+02 -0.28555176805E+02  0.70315712994E+02  0.00000000000E+00 0.  1.
         11    1    1    2    0    0  0.31437346518E+02 -0.40622642715E+02  0.12485886176E+02  0.52862115081E+02  0.00000000000E+00 0. -1.
</event>
<event>
 7    1  0.2794945E-009  0.1539611E+03  0.7561462E-02  0.1195688E+00
          1   -1    0    0  501    0  0.00000000000E+00  0.00000000000E+00  0.78485962496E+03  0.78485962496E+03  0.00000000000E+00 0. -1.
         -1   -1    0    0    0  501 -0.00000000000E+00 -0.00000000000E+00 -0.41851651231E+02  0.41851651231E+02  0.00000000000E+00 0.  1.
         25    2    1    2    0    0 -0.95012240140E+01  0.13844689153E+03  0.49703456544E+03  0.53098852867E+03  0.12509054040E+03 0.  0.
          5    1    3    3  502    0  0.24401977745E+02  0.32367486925E+02  0.29376269761E+02  0.50234931599E+02  0.41800000000E+01 0.  1.
         -5    1    3    3    0  502 -0.33903201759E+02  0.10607940460E+03  0.46765829568E+03  0.48075359707E+03  0.41800000000E+01 0.  1.
        -11    1    1    2    0    0  0.39572909530E+02 -0.61702481610E+02  0.16321351245E+03  0.17891859057E+03  0.00000000000E+00 0.  1.
         11    1    1    2    0    0 -0.30071685516E+02 -0.76744409917E+02  0.82759895834E+02  0.11680415695E+03  0.00000000000E+00 0. -1.
</event>
<event>
 7    1  0.2794945E-009  0.1127030E+03  0.7561462E-02  0.1255645E+00
          3   -1    0    0  501    0  0.00000000000E+00  0.00000000000E+00  0.29773418677E+03  0.29773418677E+03  0.00000000000E+00 0.  1.
         -3   -1    0    0    0  501 -0.00000000000E+00 -0.00000000000E+00 -0.47610350399E+02  0.47610350399E+02  0.00000000000E+00 0. -1.
         25    2    1    2    0    0 -0.14053478883E+02  0.31393164030E+02  0.12872056527E+03  0.18275571034E+03  0.12509050612E+03 0.  0.
          5    1    3    3  502    0  0.13460718195E+02  0.74270800786E+02  0.56974629044E+02  0.94662154731E+02  0.41800000000E+01 0.  1.
         -5    1    3    3    0  502 -0.27514197078E+02 -0.42877636756E+02  0.71745936229E+02  0.88093555610E+02  0.41800000000E+01 0.  1.
        -11    1    1    2    0    0  0.50147504538E+02  0.10525382412E+01  0.94776798452E+02  0.10723115952E+03  0.00000000000E+00 0.  1.
         11    1    1    2    0    0 -0.36094025655E+02 -0.32445702272E+02  0.26626472647E+02  0.55357667305E+02  0.00000000000E+00 0. -1.
</event>
<event>
 7    1  0.2794945E-009  0.5078236E+02  0.7561462E-02  0.1441167E+00
         -3   -1    0    0    0  501 -0.00000000000E+00  0.00000000000E+00  0.91424480233E+02  0.91424480233E+02  0.00000000000E+00 0.  1.
          3   -1    0    0  501    0  0.00000000000E+00 -0.00000000000E+00 -0.13829342645E+03  0.13829342645E+03  0.00000000000E+00 0. -1.
         25    2    1    2    0    0  0.13237904804E+02 -0.31443311550E+01 -0.51857240766E+02  0.13609418123E+03  0.12508926334E+03 0.  0.
          5    1    3    3  502    0 -0.10498340695E+02 -0.22149282814E+02  0.35590623580E+02  0.43416250107E+02  0.41800000000E+01 0. -1.
         -5    1    3    3    0  502  0.23736245499E+02  0.19004951659E+02 -0.87447864346E+02  0.92677931120E+02  0.41800000000E+01 0. -1.
        -11    1    1    2    0    0 -0.23090988017E+02  0.17234000933E+02  0.43082357821E+02  0.51829471067E+02  0.00000000000E+00 0.  1.
         11    1    1    2    0    0  0.98530832131E+01 -0.14089669778E+02 -0.38094063276E+02  0.41794254392E+02  0.00000000000E+00 0. -1.
</event>
<event>
 7    1  0.2794945E-009  0.1087394E+03  0.7561462E-02  0.1262922E+00
          2   -1    0    0  501    0  0.00000000000E+00  0.00000000000E+00  0.34655045096E+03  0.34655045096E+03  0.00000000000E+00 0.  1.
         -2   -1    0    0    0  501 -0.00000000000E+00 -0.00000000000E+00 -0.75476173004E+02  0.75476173004E+02  0.00000000000E+00 0. -1.
         25    2    1    2    0    0 -0.18281738658E+02  0.70266927862E+02  0.20555825152E+02  0.14608491484E+03  0.12508635928E+03 0.  0.
          5    1    3    3  502    0  0.24735022288E+02  0.70284100331E+01 -0.40483796076E+02  0.48141770012E+02  0.41800000000E+01 0. -1.
         -5    1    3    3    0  502 -0.43016760946E+02  0.63238517829E+02  0.61039621228E+02  0.97943144830E+02  0.41800000000E+01 0. -1.
        -11    1    1    2    0    0 -0.33469174354E+02 -0.47943320740E+02  0.14431679856E+03  0.15571154736E+03  0.00000000000E+00 0. -1.
         11    1    1    2    0    0  0.51750913012E+02 -0.22323607122E+02  0.10620165425E+03  0.12023016176E+03  0.00000000000E+00 0.  1.
</event>
<event>
 7    1  0.2794945E-009  0.1188049E+03  0.7561462E-02  0.1245082E+00
         -2   -1    0    0    0  501 -0.00000000000E+00  0.00000000000E+00  0.41489862895E+03  0.41489862895E+03  0.00000000000E+00 0.  1.
          2   -1    0    0  501    0  0.00000000000E+00 -0.00000000000E+00 -0.45509811302E+02  0.45509811302E+02  0.00000000000E+00 0. -1.
         25    2    1    2    0    0  0.48629432841E+02 -0.60384286158E+02  0.14305080811E+03  0.20522829509E+03  0.12507611943E+03 0.  0.
          5    1    3    3  502    0  0.73418929272E+02 -0.10919173848E+02  0.12751998044E+03  0.14760889317E+03  0.41800000000E+01 0. -1.
         -5    1    3    3    0  502 -0.24789496432E+02 -0.49465112310E+02  0.15530827673E+02  0.57619401918E+02  0.41800000000E+01 0. -1.
        -11    1    1    2    0    0 -0.68185129705E+02  0.54697689565E+02  0.12961617138E+03  0.15633745885E+03  0.00000000000E+00 0. -1.
         11    1    1    2    0    0  0.19555696864E+02  0.56865965928E+01  0.96721838154E+02  0.98842686308E+02  0.00000000000E+00 0.  1.
</event>
<event>
 7    1  0.2794945E-009  0.9075603E+02  0.7561462E-02  0.1301031E+00
         -1   -1    0    0    0  501 -0.00000000000E+00  0.00000000000E+00  0.18469016253E+03  0.18469016253E+03  0.00000000000E+00 0.  1.
          1   -1    0    0  501    0  0.00000000000E+00 -0.00000000000E+00 -0.71965339932E+02  0.71965339932E+02  0.00000000000E+00 0. -1.
         25    2    1    2    0    0 -0.18365127833E+02 -0.16237394208E+02  0.41776931011E+02  0.13413993745E+03  0.12508908811E+03 0.  0.
          5    1    3    3  502    0  0.13325545647E+02 -0.46826831724E+02 -0.24335189481E+02  0.54589341297E+02  0.41800000000E+01 0.  1.
         -5    1    3    3    0  502 -0.31690673480E+02  0.30589437516E+02  0.66112120492E+02  0.79550596158E+02  0.41800000000E+01 0.  1.
        -11    1    1    2    0    0  0.49785822817E+02 -0.56581786635E+01  0.67498104458E+02  0.84063293088E+02  0.00000000000E+00 0.  1.
         11    1    1    2    0    0 -0.31420694984E+02  0.21895572872E+02  0.34497871309E+01  0.38452271921E+02  0.00000000000E+00 0. -1.
</event>
<event>
 7    1  0.2794945E-009  0.9803372E+02  0.7561462E-02  0.1284486E+00
          1   -1    0    0  501    0  0.00000000000E+00  0.00000000000E+00  0.10044920892E+03  0.10044920892E+03  0.00000000000E+00 0. -1.
         -1   -1    0    0    0  501 -0.00000000000E+00 -0.00000000000E+00 -0.12450264648E+03  0.12450264648E+03  0.00000000000E+00 0.  1.
         25    2    1    2    0    0  0.21325368752E+00  0.97207169418E+01 -0.44811864242E+02  0.13323157230E+03  0.12509200960E+03 0.  0.
          5    1    3    3  502    0  0.52931919697E+02  0.33020435818E+02 -0.43354348695E+01  0.62676994982E+02  0.41800000000E+01 0.  1.
         -5    1    3    3    0  502 -0.52718666010E+02 -0.23299718877E+02 -0.40476429372E+02  0.70554577317E+02  0.41800000000E+01 0.  1.
        -11    1    1    2    0    0 -0.19250427396E+02  0.27719916409E+02 -0.14643262754E+02  0.36788556165E+02  0.00000000000E+00 0. -1.
         11    1    1    2    0    0  0.19037173708E+02 -0.37440633351E+02  0.35401689434E+02  0.54931726928E+02  0.00000000000E+00 0.  1.
</event>
<event>
 7    1  0.2794945E-009  0.2288465E+03  0.7561462E-02  0.1127454E+00
         -2   -1    0    0    0  501 -0.00000000000E+00  0.00000000000E+00  0.65862932775E+02  0.65862932775E+02  0.00000000000E+00 0.  1.
          2   -1    0    0  501    0  0.00000000000E+00 -0.00000000000E+00 -0.99684354912E+03  0.99684354912E+03  0.00000000000E+00 0. -1.
         25    2    1    2    0    0 -0.17358065447E+03  0.10516362915E+03 -0.24616889898E+03  0.34269143167E+03  0.12509459625E+03 0.  0.
          5    1    3    3  502    0  0.48696267062E+01  0.48038992913E+02 -0.72316895150E+02  0.87055521528E+02  0.41800000000E+01 0.  1.
         -5    1    3    3    0  502 -0.17845028118E+03  0.57124636233E+02 -0.17385200383E+03  0.25563591014E+03  0.41800000000E+01 0.  1.
        -11    1    1    2    0    0  0.69926455862E+02  0.55508133642E+01 -0.19317242473E+03  0.20551424874E+03  0.00000000000E+00 0. -1.
         11    1    1    2    0    0  0.10365419861E+03 -0.11071444251E+03 -0.49163929264E+03  0.51450080149E+03  0.00000000000E+00 0.  1.
</event>
<event>
 7    1  0.2794945E-009  0.1578362E+03  0.7561462E-02  0.1191162E+00
          2   -1    0    0  501    0  0.00000000000E+00  0.00000000000E+00  0.12740196399E+04  0.12740196399E+04  0.00000000000E+00 0. -1.
         -2   -1    0    0    0  501 -0.00000000000E+00 -0.00000000000E+00 -0.20706909703E+02  0.20706909703E+02  0.00000000000E+00 0.  1.
         25    2    1    2    0    0 -0.99120056982E+02 -0.70838298704E+02  0.67137308405E+03  0.69370880141E+03  0.12508890000E+03 0.  0.
          5    1    3    3  502    0  0.75537952828E+01 -0.57471144574E+02  0.35032287923E+03  0.35511066500E+03  0.41800000000E+01 0.  1.
         -5    1    3    3    0  502 -0.10667385227E+03 -0.13367154131E+02  0.32105020482E+03  0.33859813641E+03  0.41800000000E+01 0.  1.
        -11    1    1    2    0    0  0.38898826932E+02  0.80092582279E+02  0.36272541342E+03  0.37349386342E+03  0.00000000000E+00 0.  1.
         11    1    1    2    0    0  0.60221230050E+02 -0.92542835744E+01  0.21921423276E+03  0.22752388480E+03  0.00000000000E+00 0. -1.
</event>
<event>
 7    1  0.2794945E-009  0.9980325E+02  0.7561462E-02  0.1280710E+00
          2   -1    0    0  501    0  0.00000000000E+00  0.00000000000E+00  0.10745917560E+03  0.10745917560E+03  0.00000000000E+00 0. -1.
         -2   -1    0    0    0  501 -0.00000000000E+00 -0.00000000000E+00 -0.14288136086E+03  0.14288136086E+03  0.00000000000E+00 0.  1.
         25    2    1    2    0    0  0.53679449659E+02 -0.15976255438E+02 -0.29595256525E+02  0.14021286131E+03  0.12508814178E+03 0.  0.
          5    1    3    3  502    0 -0.34048409480E+02 -0.25193871563E+02  0.95435704657E+01  0.43618545250E+02  0.41800000000E+01 0. -1.
         -5    1    3    3    0  502  0.87727859139E+02  0.92176161246E+01 -0.39138826991E+02  0.96594316056E+02  0.41800000000E+01 0. -1.
        -11    1    1    2    0    0 -0.45497595592E+02  0.28564749981E+02 -0.43787433001E+02  0.69305955263E+02  0.00000000000E+00 0.  1.
         11    1    1    2    0    0 -0.81818540676E+01 -0.12588494543E+02  0.37960504262E+02  0.40821719889E+02  0.00000000000E+00 0. -1.
</event>
<event>
 7    1  0.2794945E-009  0.1096830E+03  0.7561462E-02  0.1261158E+00
         -2   -1    0    0    0  501 -0.00000000000E+00  0.00000000000E+00  0.42535915112E+03  0.42535915112E+03  0.00000000000E+00 0.  1.
          2   -1    0    0  501    0  0.00000000000E+00 -0.00000000000E+00 -0.32569723644E+02  0.32569723644E+02  0.00000000000E+00 0. -1.
         25    2    1    2    0    0 -0.27937634411E+02  0.27616726428E+02  0.17735995872E+03  0.22055038792E+03  0.12507087455E+03 0.  0.
          5    1    3    3  502    0 -0.39116393601E+02 -0.43642785490E+02  0.83555182960E+02  0.10214561162E+03  0.41800000000E+01 0. -1.
         -5    1    3    3    0  502  0.11178759189E+02  0.71259511918E+02  0.93804775757E+02  0.11840477630E+03  0.41800000000E+01 0. -1.
        -11    1    1    2    0    0  0.37046488044E+01  0.27710238577E+02  0.12861911148E+03  0.13162240532E+03  0.00000000000E+00 0.  1.
         11    1    1    2    0    0  0.24232985607E+02 -0.55326965005E+02  0.86810357282E+02  0.10575608153E+03  0.00000000000E+00 0. -1.
</event>
<event>
 7    1  0.2794945E-009  0.1349759E+03  0.7561462E-02  0.1220254E+00
         -1   -1    0    0    0  501 -0.00000000000E+00  0.00000000000E+00  0.22019887381E+03  0.22019887381E+03  0.00000000000E+00 0.  1.
          1   -1    0    0  501    0  0.00000000000E+00 -0.00000000000E+00 -0.11996519383E+03  0.11996519383E+03  0.00000000000E+00 0. -1.
         25    2    1    2    0    0 -0.46906205826E+02 -0.10632120585E+03 -0.16049083387E+01  0.17074736568E+03  0.12509075184E+03 0.  0.
          5    1    3    3  502    0 -0.61729811995E+02 -0.11873096221E+03  0.26399363994E+02  0.13646248531E+03  0.41800000000E+01 0.  1.
         -5    1    3    3    0  502  0.14823606170E+02  0.12409756367E+02 -0.28004272333E+02  0.34284880368E+02  0.41800000000E+01 0.  1.
        -11    1    1    2    0    0  0.71414307991E+01  0.20329892996E+02  0.63773333526E+02  0.67315248288E+02  0.00000000000E+00 0.  1.
         11    1    1    2    0    0  0.39764775027E+02  0.85991312851E+02  0.38065254794E+02  0.10210145367E+03  0.00000000000E+00 0. -1.
</event>
<event>
 7    1  0.2794945E-009  0.1138499E+03  0.7561462E-02  0.1253602E+00
         -2   -1    0    0    0  501 -0.00000000000E+00  0.00000000000E+00  0.10856322482E+02  0.10856322482E+02  0.00000000000E+00 0.  1.
          2   -1    0    0  501    0  0.00000000000E+00 -0.00000000000E+00 -0.12839594882E+04  0.12839594882E+04  0.00000000000E+00 0. -1.
         25    2    1    2    0    0 -0.45942984491E+02 -0.48703823146E+01 -0.72398301944E+03  0.73616186628E+03  0.12509357491E+03 0.  0.
          5    1    3    3  502    0 -0.57678534144E+02 -0.51278268203E+02 -0.31399278818E+03  0.32336545506E+03  0.41800000000E+01 0. -1.
         -5    1    3    3    0  502  0.11735549654E+02  0.46407885888E+02 -0.40999023125E+03  0.41279641123E+03  0.41800000000E+01 0. -1.
        -11    1    1    2    0    0  0.69149498055E+02 -0.16191345968E+02 -0.40312321719E+03  0.40933133401E+03  0.00000000000E+00 0.  1.
         11    1    1    2    0    0 -0.23206513564E+02  0.21061728282E+02 -0.14599692914E+03  0.14932261044E+03  0.00000000000E+00 0. -1.
</event>
<event>
 7    1  0.2794945E-009  0.1309836E+03  0.7561462E-02  0.1226004E+00
         -1   -1    0    0    0  501 -0.00000000000E+00  0.00000000000E+00  0.66869126363E+02  0.66869126363E+02  0.00000000000E+00 0.  1.
          1   -1    0    0  501    0  0.00000000000E+00 -0.00000000000E+00 -0.33989626858E+03  0.33989626858E+03  0.00000000000E+00 0. -1.
         25    2    1    2    0    0  0.43531807237E+02 -0.94319943096E+02 -0.15361566004E+03  0.22368895728E+03  0.12509080178E+03 0.  0.
          5    1    3    3  502    0  0.75446909305E+02 -0.29003542780E+02 -0.11677783666E+03  0.14208440151E+03  0.41800000000E+01 0. -1.
         -5    1    3    3    0  502 -0.31915102068E+02 -0.65316400316E+02 -0.36837823377E+02  0.81604555764E+02  0.41800000000E+01 0. -1.
        -11    1    1    2    0    0 -0.48769799787E+01  0.46353597803E+02 -0.11164730478E+03  0.12098579101E+03  0.00000000000E+00 0. -1.
         11    1    1    2    0    0 -0.38654827259E+02  0.47966345293E+02 -0.77641773999E+01  0.62090646653E+02  0.00000000000E+00 0.  1.
</event>
<event>
 7    1  0.2794945E-009  0.1163927E+03  0.7561462E-02  0.1249169E+00
         -2   -1    0    0    0  501 -0.00000000000E+00  0.00000000000E+00  0.24913561266E+02  0.24913561266E+02  0.00000000000E+00 0.  1.
          2   -1    0    0  501    0  0.00000000000E+00 -0.00000000000E+00 -0.58655596332E+03  0.58655596332E+03  0.00000000000E+00 0. -1.
         25    2    1    2    0    0 -0.53164017716E+02 -0.89245381896E+01 -0.31778479246E+03  0.34574330837E+03  0.12508077712E+03 0.  0.
          5    1    3    3  502    0  0.26051235046E+02 -0.35011555678E+02 -0.56962388182E+02  0.71879496004E+02  0.41800000000E+01 0. -1.
         -5    1    3    3    0  502 -0.79215252762E+02  0.26087017488E+02 -0.26082240428E+03  0.27386381237E+03  0.41800000000E+01 0. -1.
        -11    1    1    2    0    0  0.75225468793E+02 -0.10614414113E+02 -0.16979440387E+03  0.18601525886E+03  0.00000000000E+00 0. -1.
         11    1    1    2    0    0 -0.22061451077E+02  0.19538952303E+02 -0.74063205728E+02  0.79710957361E+02  0.00000000000E+00 0.  1.
</event>
<event>
 7    1  0.3097091E-009  0.1253208E+03  0.7561462E-02  0.1234569E+00
          2   -1    0    0  501    0  0.00000000000E+00  0.00000000000E+00  0.23338386818E+03  0.23338386818E+03  0.00000000000E+00 0. -1.
         -2   -1    0    0    0  501 -0.00000000000E+00 -0.00000000000E+00 -0.10781421773E+03  0.10781421773E+03  0.00000000000E+00 0.  1.
         25    2    1    2    0    0 -0.93269853022E+02  0.50410364233E+02  0.18827749493E+02  0.16505342588E+03  0.12509068286E+03 0.  0.
          5    1    3    3  502    0 -0.60325768210E+02  0.75120527271E+02 -0.30044915930E+02  0.10100723390E+03  0.41800000000E+01 0. -1.
         -5    1    3    3    0  502 -0.32944084812E+02 -0.24710163037E+02  0.48872665423E+02  0.64046191979E+02  0.41800000000E+01 0. -1.
        -11    1    1    2    0    0  0.54769268143E+02 -0.50225909891E+02  0.11485407592E+03  0.13679829499E+03  0.00000000000E+00 0. -1.
         11    1    1    2    0    0  0.38500584879E+02 -0.18445434208E+00 -0.81121749527E+01  0.39346365040E+02  0.00000000000E+00 0.  1.
</event>
<event>
 7    1  0.2794945E-009  0.1448426E+03  0.7561462E-02  0.1206957E+00
         -2   -1    0    0    0  501 -0.00000000000E+00  0.00000000000E+00  0.19738749735E+03  0.19738749735E+03  0.00000000000E+00 0.  1.
          2   -1    0    0  501    0  0.00000000000E+00 -0.00000000000E+00 -0.13245660904E+03  0.13245660904E+03  0.00000000000E+00 0. -1.
         25    2    1    2    0    0  0.97831831757E+02 -0.36163449352E+02  0.10212144638E+03  0.19223804578E+03  0.12509122296E+03 0.  0.
          5    1    3    3  502    0  0.76826026671E+02 -0.78401806086E+02  0.93175282845E+02  0.14404231082E+03  0.41800000000E+01 0. -1.
         -5    1    3    3    0  502  0.21005805086E+02  0.42238356734E+02  0.89461635344E+01  0.48195734966E+02  0.41800000000E+01 0. -1.
        -11    1    1    2    0    0 -0.58113649246E+02  0.62093716654E+02 -0.23257552073E+02  0.88168813109E+02  0.00000000000E+00 0. -1.
         11    1    1    2    0    0 -0.39718182512E+02 -0.25930267302E+02 -0.13933005988E+02  0.49437247499E+02  0.00000000000E+00 0.  1.
</event>
<event>
 7    1  0.2794945E-009  0.7335827E+02  0.7561462E-02  0.1349032E+00
         -1   -1    0    0    0  501 -0.00000000000E+00  0.00000000000E+00  0.63289938065E+02  0.63289938065E+02  0.00000000000E+00 0. -1.
          1   -1    0    0  501    0  0.00000000000E+00 -0.00000000000E+00 -0.24607606400E+03  0.24607606400E+03  0.00000000000E+00 0.  1.
         25    2    1    2    0    0 -0.87268109118E+01  0.28845036842E+02 -0.16845581388E+03  0.21197496220E+03  0.12509128664E+03 0.  0.
          5    1    3    3  502    0  0.29537753781E+02 -0.31661069144E+02 -0.21652065977E+02  0.48592042135E+02  0.41800000000E+01 0.  1.
         -5    1    3    3    0  502 -0.38264564693E+02  0.60506105986E+02 -0.14680374790E+03  0.16338292007E+03  0.41800000000E+01 0.  1.
        -11    1    1    2    0    0  0.11716890855E+01 -0.19272669793E+02 -0.53230527873E+02  0.56624179940E+02  0.00000000000E+00 0.  1.
         11    1    1    2    0    0  0.75551218263E+01 -0.95723670493E+01  0.38900215819E+02  0.40766859917E+02  0.00000000000E+00 0. -1.
</event>
<event>
 7    1  0.2794945E-009  0.1344498E+03  0.7561462E-02  0.1220999E+00
         -2   -1    0    0    0  501 -0.00000000000E+00  0.00000000000E+00  0.68545549588E+02  0.68545549588E+02  0.00000000000E+00 0.  1.
          2   -1    0    0  501    0  0.00000000000E+00 -0.00000000000E+00 -0.29701595466E+03  0.29701595466E+03  0.00000000000E+00 0. -1.
         25    2    1    2    0    0 -0.64741496765E+02  0.32617856623E+02 -0.16574667792E+03  0.21994252889E+03  0.12508944320E+03 0.  0.
          5    1    3    3  502    0  0.34193489938E+02  0.47772255270E+01 -0.16027915673E+02  0.38293382179E+02  0.41800000000E+01 0. -1.
         -5    1    3    3    0  502 -0.98934986703E+02  0.27840631096E+02 -0.14971876225E+03  0.18164914671E+03  0.41800000000E+01 0. -1.
        -11    1    1    2    0    0  0.21678086622E+01 -0.62065079800E+02 -0.33249455830E+02  0.70443593307E+02  0.00000000000E+00 0. -1.
         11    1    1    2    0    0  0.62573688103E+02  0.29447223177E+02 -0.29474271321E+02  0.75175382044E+02  0.00000000000E+00 0.  1.
</event>
<event>
 7    1  0.2794945E-009  0.8150286E+02  0.7561462E-02  0.1324840E+00
          2   -1    0    0  501    0  0.00000000000E+00  0.00000000000E+00  0.28060259900E+03  0.28060259900E+03  0.00000000000E+00 0. -1.
         -2   -1    0    0    0  501 -0.00000000000E+00 -0.00000000000E+00 -0.53999358392E+02  0.53999358392E+02  0.00000000000E+00 0.  1.
         25    2    1    2    0    0  0.32673163373E+02  0.44154005457E+02  0.10332960684E+03  0.17129144594E+03  0.12508653005E+03 0.  0.
          5    1    3    3  502    0  0.23990450290E+02  0.45494261127E+02  0.13162051504E+03  0.14137433246E+03  0.41800000000E+01 0. -1.
         -5    1    3    3    0  502  0.86827130835E+01 -0.13402556697E+01 -0.28290908202E+02  0.29917113475E+02  0.41800000000E+01 0. -1.
        -11    1    1    2    0    0  0.26096995003E+02  0.30770114357E+01  0.57643020636E+02  0.63350130036E+02  0.00000000000E+00 0. -1.
         11    1    1    2    0    0 -0.58770158376E+02 -0.47231016893E+02  0.65630613132E+02  0.99960381414E+02  0.00000000000E+00 0.  1.
</event>
<event>
 7    1  0.3176765E-009  0.1221676E+03  0.7561462E-02  0.1239563E+00
         -2   -1    0    0    0  501 -0.00000000000E+00  0.00000000000E+00  0.19486617409E+02  0.19486617409E+02  0.00000000000E+00 0.  1.
          2   -1    0    0  501    0  0.00000000000E+00 -0.00000000000E+00 -0.13525016090E+04  0.13525016090E+04  0.00000000000E+00 0. -1.
         25    2    1    2    0    0 -0.10882261781E+03 -0.50753030269E+02 -0.72103980753E+03  0.74159559014E+03  0.12508950016E+03 0.  0.
          5    1    3    3  502    0 -0.77412983926E+02 -0.50486964254E+02 -0.69340759128E+03  0.69955218797E+03  0.41800000000E+01 0. -1.
         -5    1    3    3    0  502 -0.31409633886E+02 -0.26606601467E+00 -0.27632216247E+02  0.42043402178E+02  0.41800000000E+01 0. -1.
        -11    1    1    2    0    0  0.19651560608E+02  0.76286479475E+01 -0.16593233288E+02  0.26827513765E+02  0.00000000000E+00 0.  1.
         11    1    1    2    0    0  0.89171057204E+02  0.43124382321E+02 -0.59538195080E+03  0.60356512252E+03  0.00000000000E+00 0. -1.
</event>
<event>
 7    1  0.2794945E-009  0.1302641E+03  0.7561462E-02  0.1227064E+00
         -2   -1    0    0    0  501 -0.00000000000E+00  0.00000000000E+00  0.52803687505E+03  0.52803687505E+03  0.00000000000E+00 0.  1.
          2   -1    0    0  501    0  0.00000000000E+00 -0.00000000000E+00 -0.37034173314E+02  0.37034173314E+02  0.00000000000E+00 0. -1.
         25    2    1    2    0    0  0.63901551652E+02 -0.55237182150E+02  0.29673645124E+03  0.33291834883E+03  0.12509017105E+03 0.  0.
          5    1    3    3  502    0 -0.28839325651E+02 -0.31442373530E+02  0.39054154355E+02  0.57991628099E+02  0.41800000000E+01 0.  1.
         -5    1    3    3    0  502  0.92740877304E+02 -0.23794808619E+02  0.25768229689E+03  0.27492672073E+03  0.41800000000E+01 0.  1.
        -11    1    1    2    0    0 -0.27763254658E+02 -0.22734170589E+02  0.30032972635E+02  0.46793378451E+02  0.00000000000E+00 0.  1.
         11    1    1    2    0    0 -0.36138296995E+02  0.77971352738E+02  0.16423327785E+03  0.18535932108E+03  0.00000000000E+00 0. -1.
</event>
<event>
 7    1  0.2794945E-009  0.1279153E+03  0.7561462E-02  0.1230582E+00
          2   -1    0    0  501    0  0.00000000000E+00  0.00000000000E+00  0.11917795858E+04  0.11917795858E+04  0.00000000000E+00 0. -1.
         -2   -1    0    0    0  501 -0.00000000000E+00 -0.00000000000E+00 -0.27661927862E+02  0.27661927862E+02  0.00000000000E+00 0.  1.
         25    2    1    2    0    0 -0.96142299288E+02 -0.57210293462E+02  0.93097946667E+03  0.94598477240E+03  0.12509221744E+03 0.  0.
          5    1    3    3  502    0 -0.35351068396E+02 -0.33983430580E+02  0.77966162948E+03  0.78121335144E+03  0.41800000000E+01 0. -1.
         -5    1    3    3    0  502 -0.60791230892E+02 -0.23226862882E+02  0.15131783719E+03  0.16477142096E+03  0.41800000000E+01 0. -1.
        -11    1    1    2    0    0  0.97591364927E+02  0.14491330340E+02  0.14344261951E+03  0.17409726665E+03  0.00000000000E+00 0.  1.
         11    1    1    2    0    0 -0.14490656391E+01  0.42718963122E+02  0.89695571744E+02  0.99359474596E+02  0.00000000000E+00 0. -1.
</event>
<event>
 7    1  0.2794945E-009  0.1559400E+03  0.7561462E-02  0.1193358E+00
         -2   -1    0    0    0  501 -0.00000000000E+00  0.00000000000E+00  0.63212518179E+02  0.63212518179E+02  0.00000000000E+00 0.  1.
          2   -1    0    0  501    0  0.00000000000E+00 -0.00000000000E+00 -0.40401865020E+03  0.40401865020E+03  0.00000000000E+00 0. -1.
         25    2    1    2    0    0 -0.86674537386E+02  0.75800073634E+02 -0.15906196554E+03  0.23282164620E+03  0.12508830265E+03 0.  0.
          5    1    3    3  502    0 -0.27851532274E+02  0.97316085717E+02 -0.12661721345E+03  0.16215893294E+03  0.41800000000E+01 0. -1.
         -5    1    3    3    0  502 -0.58823005112E+02 -0.21516012084E+02 -0.32444752091E+02  0.70662713255E+02  0.41800000000E+01 0. -1.
        -11    1    1    2    0    0 -0.12803003800E+02 -0.40121060767E+02 -0.58026861838E+02  0.71698905976E+02  0.00000000000E+00 0. -1.
         11    1    1    2    0    0  0.99477541186E+02 -0.35679012867E+02 -0.12371730463E+03  0.16271061620E+03  0.00000000000E+00 0.  1.
</event>
<event>
 7    1  0.2794945E-009  0.9240794E+02  0.7561462E-02  0.1297123E+00
          1   -1    0    0  501    0  0.00000000000E+00  0.00000000000E+00  0.10940980967E+03  0.10940980967E+03  0.00000000000E+00 0. -1.
         -1   -1    0    0    0  501 -0.00000000000E+00 -0.00000000000E+00 -0.10659437360E+03  0.10659437360E+03  0.00000000000E+00 0.  1.
         25    2    1    2    0    0 -0.20659417438E+01 -0.13091977936E+02 -0.11828876445E+02  0.12634192530E+03  0.12508673698E+03 0.  0.
          5    1    3    3  502    0  0.55224226486E+02 -0.16463711691E+01  0.20934331740E+02  0.59229590362E+02  0.41800000000E+01 0.  1.
         -5    1    3    3    0  502 -0.57290168230E+02 -0.11445606767E+02 -0.32763208185E+02  0.67112334936E+02  0.41800000000E+01 0.  1.
        -11    1    1    2    0    0  0.35045662962E+02 -0.79179587664E+00 -0.19575869009E+02  0.40150218935E+02  0.00000000000E+00 0.  1.
         11    1    1    2    0    0 -0.32979721218E+02  0.13883773812E+02  0.34220181524E+02  0.49512039045E+02  0.00000000000E+00 0. -1.
</event>
<event>
 7    1  0.2794945E-009  0.1160993E+03  0.7561462E-02  0.1249674E+00
          2   -1    0    0  501    0  0.00000000000E+00  0.00000000000E+00  0.10139091177E+03  0.10139091177E+03  0.00000000000E+00 0. -1.
         -2   -1    0    0    0  501 -0.00000000000E+00 -0.00000000000E+00 -0.16309988182E+03  0.16309988182E+03  0.00000000000E+00 0.  1.
         25    2    1    2    0    0  0.43613517080E+02 -0.98484487016E+01  0.20758894093E+02  0.13445979152E+03  0.12509745416E+03 0.  0.
          5    1    3    3  502    0 -0.28206520496E+02  0.36911507408E+02  0.12325623504E+02  0.48243762005E+02  0.41800000000E+01 0.  1.
         -5    1    3    3    0  502  0.71820037576E+02 -0.46759956109E+02  0.84332705898E+01  0.86216029516E+02  0.41800000000E+01 0.  1.
        -11    1    1    2    0    0 -0.42687161246E+02  0.46481370563E+02 -0.59805747093E+02  0.86945033958E+02  0.00000000000E+00 0. -1.
         11    1    1    2    0    0 -0.92635583427E+00 -0.36632921862E+02 -0.22662117051E+02  0.43085968116E+02  0.00000000000E+00 0.  1.
</event>
<event>
 7    1  0.2794945E-009  0.3157231E+03  0.7561462E-02  0.1077635E+00
         -2   -1    0    0    0  501 -0.00000000000E+00  0.00000000000E+00  0.44732240552E+03  0.44732240552E+03  0.00000000000E+00 0. -1.
          2   -1    0    0  501    0  0.00000000000E+00 -0.00000000000E+00 -0.45273439374E+03  0.45273439374E+03  0.00000000000E+00 0.  1.
         25    2    1    2    0    0 -0.31122648942E+03  0.43566197960E+02  0.30033525911E+03  0.45233357890E+03  0.12507780542E+03 0.  0.
          5    1    3    3  502    0 -0.22134463355E+02 -0.68467201393E+01  0.85334220118E+02  0.88522390206E+02  0.41800000000E+01 0.  1.
         -5    1    3    3    0  502 -0.28909202607E+03  0.50412918100E+02  0.21500103900E+03  0.36381118869E+03  0.41800000000E+01 0.  1.
        -11    1    1    2    0    0  0.28974878577E+03 -0.37990074541E+02 -0.23941932183E+03  0.37778196924E+03  0.00000000000E+00 0. -1.
         11    1    1    2    0    0  0.21477703653E+02 -0.55761234191E+01 -0.66327925509E+02  0.69941251125E+02  0.00000000000E+00 0.  1.
</event>
<event>
 7    1  0.2794945E-009  0.1362701E+03  0.7561462E-02  0.1218438E+00
          2   -1    0    0  501    0  0.00000000000E+00  0.00000000000E+00  0.23269831392E+03  0.23269831392E+03  0.00000000000E+00 0. -1.
         -2   -1    0    0    0  501 -0.00000000000E+00 -0.00000000000E+00 -0.99356246873E+02  0.99356246873E+02  0.00000000000E+00 0.  1.
         25    2    1    2    0    0 -0.32638649402E+02 -0.10139368931E+03  0.82479997642E+02  0.18383593410E+03  0.12508692573E+03 0.  0.
          5    1    3    3  502    0  0.46799319486E+02 -0.21915651084E+02  0.25752028373E+02  0.57888785029E+02  0.41800000000E+01 0.  1.
         -5    1    3    3    0  502 -0.79437968888E+02 -0.79478038228E+02  0.56727969268E+02  0.12594714907E+03  0.41800000000E+01 0.  1.
        -11    1    1    2    0    0  0.15741962470E+02  0.76871303155E+02  0.76006742293E+02  0.10924299293E+03  0.00000000000E+00 0. -1.
         11    1    1    2    0    0  0.16896686932E+02  0.24522386156E+02 -0.25144672889E+02  0.38975633757E+02  0.00000000000E+00 0.  1.
</event>
<event>
 7    1  0.3015110E-009  0.1014975E+03  0.7561462E-02  0.1277178E+00
         -1   -1    0    0    0  501 -0.00000000000E+00  0.00000000000E+00  0.15520472119E+02  0.15520472119E+02  0.00000000000E+00 0.  1.
          1   -1    0    0  501    0  0.00000000000E+00 -0.00000000000E+00 -0.10373005164E+04  0.10373005164E+04  0.00000000000E+00 0. -1.
         25    2    1    2    0    0  0.39856610571E+02 -0.17261394012E+02 -0.76939781614E+03  0.78070904487E+03  0.12508840125E+03 0.  0.
          5    1    3    3  502    0  0.57026991035E+01 -0.56584093241E+02 -0.61645463833E+03  0.61908648338E+03  0.41800000000E+01 0. -1.
         -5    1    3    3    0  502  0.34153911468E+02  0.39322699230E+02 -0.15294317781E+03  0.16162256149E+03  0.41800000000E+01 0. -1.
        -11    1    1    2    0    0 -0.89383915950E+01  0.48765563349E+02 -0.79572287139E+02  0.93753527366E+02  0.00000000000E+00 0.  1.
         11    1    1    2    0    0 -0.30918218976E+02 -0.31504169337E+02 -0.17280994098E+03  0.17835841626E+03  0.00000000000E+00 0. -1.
</event>
<event>
 7    1  0.2794945E-009  0.1237864E+03  0.7561462E-02  0.1236978E+00
          1   -1    0    0  501    0  0.00000000000E+00  0.00000000000E+00  0.87810122560E+03  0.87810122560E+03  0.00000000000E+00 0. -1.
         -1   -1    0    0    0  501 -0.00000000000E+00 -0.00000000000E+00 -0.30114128188E+02  0.30114128188E+02  0.00000000000E+00 0.  1.
         25    2    1    2    0    0 -0.76174876817E+02 -0.73493454176E+02  0.61544134681E+03  0.63688578388E+03  0.12510615760E+03 0.  0.
          5    1    3    3  502    0 -0.36845124205E+02 -0.11758594043E+02  0.36575834051E+02  0.53395615439E+02  0.41800000000E+01 0. -1.
         -5    1    3    3    0  502 -0.39329752612E+02 -0.61734860132E+02  0.57886551276E+03  0.58349016844E+03  0.41800000000E+01 0. -1.
        -11    1    1    2    0    0  0.20122665328E+02  0.76616370346E+02  0.16830912043E+03  0.18601868155E+03  0.00000000000E+00 0. -1.
         11    1    1    2    0    0  0.56052211488E+02 -0.31229161702E+01  0.64236630167E+02  0.85310888364E+02  0.00000000000E+00 0.  1.
</event>
<event>
 7    1  0.2794945E-009  0.8367043E+02  0.7561462E-02  0.1318947E+00
          1   -1    0    0  501    0  0.00000000000E+00  0.00000000000E+00  0.95887015048E+02  0.95887015048E+02  0.00000000000E+00 0. -1.
         -1   -1    0    0    0  501 -0.00000000000E+00 -0.00000000000E+00 -0.17837976962E+03  0.17837976962E+03  0.00000000000E+00 0.  1.
         25    2    1    2    0    0  0.69306989814E+02 -0.17502458135E+01 -0.23795031068E+02  0.14498588146E+03  0.12509268613E+03 0.  0.
          5    1    3    3  502    0  0.65382012368E+02 -0.17095685795E+02  0.40324069187E+02  0.78807188567E+02  0.41800000000E+01 0. -1.
         -5    1    3    3    0  502  0.39249774458E+01  0.15345439982E+02 -0.64119100254E+02  0.66178692897E+02  0.41800000000E+01 0. -1.
        -11    1    1    2    0    0 -0.52400685812E+02  0.22033622435E+02  0.81323679131E+01  0.57423408111E+02  0.00000000000E+00 0. -1.
         11    1    1    2    0    0 -0.16906304002E+02 -0.20283376622E+02 -0.66830091414E+02  0.71857495089E+02  0.00000000000E+00 0.  1.
</event>
<event>
 7    1  0.2794945E-009  0.1505938E+03  0.7561462E-02  0.1199745E+00
         -2   -1    0    0    0  501 -0.00000000000E+00  0.00000000000E+00  0.35293205850E+02  0.35293205850E+02  0.00000000000E+00 0.  1.
          2   -1    0    0  501    0  0.00000000000E+00 -0.00000000000E+00 -0.74264083672E+03  0.74264083672E+03  0.00000000000E+00 0. -1.
         25    2    1    2    0    0  0.88155325216E+02 -0.61887454404E+02 -0.25561830750E+03  0.30428571567E+03  0.12509060419E+03 0.  0.
          5    1    3    3  502    0  0.77907710766E+02  0.21494145978E+02 -0.12841435257E+03  0.15178711426E+03  0.41800000000E+01 0.  1.
         -5    1    3    3    0  502  0.10247614450E+02 -0.83381600382E+02 -0.12720395493E+03  0.15249860142E+03  0.41800000000E+01 0.  1.
        -11    1    1    2    0    0 -0.24201837341E+02  0.67734260705E+02 -0.16814986513E+03  0.18288804266E+03  0.00000000000E+00 0.  1.
         11    1    1    2    0    0 -0.63953487875E+02 -0.58468063013E+01 -0.28357945824E+03  0.29076028424E+03  0.00000000000E+00 0. -1.
</event>
<event>
 7    1  0.2794945E-009  0.1076807E+03  0.7561462E-02  0.1264926E+00
          2   -1    0    0  501    0  0.00000000000E+00  0.00000000000E+00  0.63659873425E+02  0.63659873425E+02  0.00000000000E+00 0.  1.
         -2   -1    0    0    0  501 -0.00000000000E+00 -0.00000000000E+00 -0.30357106832E+03  0.30357106832E+03  0.00000000000E+00 0. -1.
         25    2    1    2    0    0 -0.52605198603E+02  0.67010740250E+02 -0.13647984476E+03  0.20379123579E+03  0.12508546490E+03 0.  0.
          5    1    3    3  502    0 -0.48615325382E+02  0.32193446907E+02  0.43371691165E+01  0.58618694302E+02  0.41800000000E+01 0.  1.
         -5    1    3    3    0  502 -0.39898732215E+01  0.34817293342E+02 -0.14081701388E+03  0.14517254149E+03  0.41800000000E+01 0.  1.
        -11    1    1    2    0    0  0.74149189428E+02 -0.32572967688E+02 -0.46142498888E+02  0.93210679219E+02  0.00000000000E+00 0. -1.
         11    1    1    2    0    0 -0.21543990825E+02 -0.34437772561E+02 -0.57288851247E+02  0.70229026740E+02  0.00000000000E+00 0.  1.
</event>
<event>
 7    1  0.2794945E-009  0.1321095E+03  0.7561462E-02  0.1224359E+00
          2   -1    0    0  501    0  0.00000000000E+00  0.00000000000E+00  0.10562180821E+03  0.10562180821E+03  0.00000000000E+00 0. -1.
         -2   -1    0    0    0  501 -0.00000000000E+00 -0.00000000000E+00 -0.18785073114E+03  0.18785073114E+03  0.00000000000E+00 0.  1.
         25    2    1    2    0    0  0.87750742439E+02 -0.13805232628E+02 -0.50255978413E+02  0.16144358861E+03  0.12509033413E+03 0.  0.
          5    1    3    3  502    0  0.21357460647E+02 -0.65418376899E+02 -0.27484298002E+02  0.74219702223E+02  0.41800000000E+01 0.  1.
         -5    1    3    3    0  502  0.66393281792E+02  0.51613144271E+02 -0.22771680411E+02  0.87223886392E+02  0.41800000000E+01 0.  1.
        -11    1    1    2    0    0 -0.33437643620E+02 -0.27134468749E+02 -0.45538690705E+02  0.62674777672E+02  0.00000000000E+00 0.  1.
         11    1    1    2    0    0 -0.54313098819E+02  0.40939701377E+02  0.13565746182E+02  0.69354173066E+02  0.00000000000E+00 0. -1.
</event>
<event>
 7    1  0.2794945E-009  0.1774171E+03  0.7561462E-02  0.1170326E+00
         -3   -1    0    0    0  501 -0.00000000000E+00  0.00000000000E+00  0.61965995319E+03  0.61965995319E+03  0.00000000000E+00 0.  1.
          3   -1    0    0  501    0  0.00000000000E+00 -0.00000000000E+00 -0.73508517510E+02  0.73508517510E+02  0.00000000000E+00 0. -1.
         25    2    1    2    0    0  0.12526916535E+03  0.61305251217E+02  0.93880507772E+02  0.20955194603E+03  0.12509104976E+03 0.  0.
          5    1    3    3  502    0 -0.23363037533E+02  0.83007828439E+00  0.26162686940E+02  0.35333824314E+02  0.41800000000E+01 0.  1.
         -5    1    3    3    0  502  0.14863220289E+03  0.60475172933E+02  0.67717820832E+02  0.17421812172E+03  0.41800000000E+01 0.  1.
        -11    1    1    2    0    0 -0.21500982034E+02 -0.63225049749E+02  0.15599849822E+03  0.16969157490E+03  0.00000000000E+00 0.  1.
         11    1    1    2    0    0 -0.10376818332E+03  0.19197985316E+01  0.29627242969E+03  0.31392494977E+03  0.00000000000E+00 0. -1.
</event>
<event>
 7    1  0.2794945E-009  0.1276115E+03  0.7561462E-02  0.1231044E+00
         -3   -1    0    0    0  501 -0.00000000000E+00  0.00000000000E+00  0.21229354738E+03  0.21229354738E+03  0.00000000000E+00 0.  1.
          3   -1    0    0  501    0  0.00000000000E+00 -0.00000000000E+00 -0.11000463919E+03  0.11000463919E+03  0.00000000000E+00 0. -1.
         25    2    1    2    0    0 -0.11899515552E+01 -0.99421958954E+02  0.16378409464E+02  0.16062933788E+03  0.12508952787E+03 0.  0.
          5    1    3    3  502    0  0.16153644057E+02  0.22719703113E+01 -0.39708611786E+02  0.43131755301E+02  0.41800000000E+01 0.  1.
         -5    1    3    3    0  502 -0.17343595612E+02 -0.10169392927E+03  0.56087021250E+02  0.11749758257E+03  0.41800000000E+01 0.  1.
        -11    1    1    2    0    0  0.43281256584E+02  0.74669506332E+02  0.41931260139E+02  0.95953285114E+02  0.00000000000E+00 0. -1.
         11    1    1    2    0    0 -0.42091305029E+02  0.24752452622E+02  0.43979238589E+02  0.65715563581E+02  0.00000000000E+00 0.  1.
</event>
<event>
 7    1  0.2794945E-009  0.1367486E+03  0.7561462E-02  0.1217772E+00
          1   -1    0    0  501    0  0.00000000000E+00  0.00000000000E+00  0.12794647410E+03  0.12794647410E+03  0.00000000000E+00 0. -1.
         -1   -1    0    0    0  501 -0.00000000000E+00 -0.00000000000E+00 -0.16812302544E+03  0.16812302544E+03  0.00000000000E+00 0.  1.
         25    2    1    2    0    0  0.44800651843E+02 -0.86997293611E+02 -0.34568224874E+02  0.16254558165E+03  0.12510186427E+03 0.  0.
          5    1    3    3  502    0  0.49487761510E+02 -0.11713070850E+03 -0.21165110151E+02  0.12897315883E+03  0.41800000000E+01 0.  1.
         -5    1    3    3    0  502 -0.46871096674E+01  0.30133414885E+02 -0.13403114723E+02  0.33572422819E+02  0.41800000000E+01 0.  1.
        -11    1    1    2    0    0 -0.10479857148E+02 -0.88298540077E+01 -0.26298319924E+02  0.29654600966E+02  0.00000000000E+00 0.  1.
         11    1    1    2    0    0 -0.34320794694E+02  0.95827147619E+02  0.20689993454E+02  0.10386931692E+03  0.00000000000E+00 0. -1.
</event>
<event>
 7    1  0.2794945E-009  0.8504974E+02  0.7561462E-02  0.1315303E+00
         -2   -1    0    0    0  501 -0.00000000000E+00  0.00000000000E+00  0.97556091218E+03  0.97556091218E+03  0.00000000000E+00 0.  1.
          2   -1    0    0  501    0  0.00000000000E+00 -0.00000000000E+00 -0.18931704084E+02  0.18931704084E+02  0.00000000000E+00 0. -1.
         25    2    1    2    0    0 -0.68029385236E+02 -0.48209762705E+02  0.57663821297E+03  0.59591188826E+03  0.12508865430E+03 0.  0.
          5    1    3    3  502    0 -0.31589906018E+02 -0.13173184969E+02  0.26623028970E+02  0.43562748261E+02  0.41800000000E+01 0. -1.
         -5    1    3    3    0  502 -0.36439479217E+02 -0.35036577736E+02  0.55001518400E+03  0.55234913999E+03  0.41800000000E+01 0. -1.
        -11    1    1    2    0    0  0.78092211002E+01  0.12919870518E+02  0.32680605037E+01  0.15446268411E+02  0.00000000000E+00 0. -1.
         11    1    1    2    0    0  0.60220164135E+02  0.35289892188E+02  0.37672293462E+03  0.38313445960E+03  0.00000000000E+00 0.  1.
</event>
<event>
 7    1  0.2794945E-009  0.1243857E+03  0.7561462E-02  0.1236032E+00
         -2   -1    0    0    0  501 -0.00000000000E+00  0.00000000000E+00  0.19240698573E+03  0.19240698573E+03  0.00000000000E+00 0. -1.
          2   -1    0    0  501    0  0.00000000000E+00 -0.00000000000E+00 -0.15386717226E+03  0.15386717226E+03  0.00000000000E+00 0.  1.
         25    2    1    2    0    0 -0.86686695145E+01 -0.94470512495E+02 -0.73671331142E+02  0.17342210261E+03  0.12509171467E+03 0.  0.
          5    1    3    3  502    0  0.50244452213E+02 -0.77491726309E+02 -0.60755222505E+02  0.11062613654E+03  0.41800000000E+01 0.  1.
         -5    1    3    3    0  502 -0.58913121727E+02 -0.16978786186E+02 -0.12916108637E+02  0.62795966067E+02  0.41800000000E+01 0.  1.
        -11    1    1    2    0    0  0.50452283451E+01  0.52535624124E+02  0.11903578655E+03  0.13021123074E+03  0.00000000000E+00 0. -1.
         11    1    1    2    0    0  0.36234411694E+01  0.41934888371E+02 -0.68246419334E+01  0.42640824642E+02  0.00000000000E+00 0.  1.
</event>
<event>
 7    1  0.2794945E-009  0.1084216E+03  0.7561462E-02  0.1263521E+00
          1   -1    0    0  501    0  0.00000000000E+00  0.00000000000E+00  0.26145633745E+03  0.26145633745E+03  0.00000000000E+00 0. -1.
         -1   -1    0    0    0  501 -0.00000000000E+00 -0.00000000000E+00 -0.88354394504E+02  0.88354394504E+02  0.00000000000E+00 0.  1.
         25    2    1    2    0    0 -0.69896087565E+02 -0.34419271035E+02  0.17746891478E+03  0.23067895829E+03  0.12508963509E+03 0.  0.
          5    1    3    3  502    0 -0.85433622941E+02 -0.22159636645E+02  0.49819525588E+02  0.10143673375E+03  0.41800000000E+01 0.  1.
         -5    1    3    3    0  502  0.15537535375E+02 -0.12259634389E+02  0.12764938919E+03  0.12924222453E+03  0.41800000000E+01 0.  1.
        -11    1    1    2    0    0  0.32820728346E+02  0.56326621776E+02  0.21801773017E+02  0.68740132649E+02  0.00000000000E+00 0. -1.
         11    1    1    2    0    0  0.37075359220E+02 -0.21907350741E+02 -0.26168744849E+02  0.50391641021E+02  0.00000000000E+00 0.  1.
</event>
<event>
 7    1  0.2794945E-009  0.1617160E+03  0.7561462E-02  0.1186773E+00
         -1   -1    0    0    0  501 -0.00000000000E+00  0.00000000000E+00  0.35697698653E+03  0.35697698653E+03  0.00000000000E+00 0.  1.
          1   -1    0    0  501    0  0.00000000000E+00 -0.00000000000E+00 -0.81246106311E+02  0.81246106311E+02  0.00000000000E+00 0. -1.
         25    2    1    2    0    0  0.62149995900E+02  0.10301021251E+03  0.79149660375E+02  0.19074602706E+03  0.12508258164E+03 0.  0.
          5    1    3    3  502    0  0.97707832178E+02  0.95721432900E+02  0.59022790970E+02  0.14903212888E+03  0.41800000000E+01 0. -1.
         -5    1    3    3    0  502 -0.35557836277E+02  0.72887796116E+01  0.20126869405E+02  0.41713898175E+02  0.41800000000E+01 0. -1.
        -11    1    1    2    0    0 -0.35788089574E+02 -0.11547133365E+03  0.16420124843E+03  0.20390308050E+03  0.00000000000E+00 0.  1.
         11    1    1    2    0    0 -0.26361906326E+02  0.12461121135E+02  0.32379971413E+02  0.43573985287E+02  0.00000000000E+00 0. -1.
</event>
<event>
 7    1  0.2794945E-009  0.1043939E+03  0.7561462E-02  0.1271318E+00
          1   -1    0    0  501    0  0.00000000000E+00  0.00000000000E+00  0.15933249429E+03  0.15933249429E+03  0.00000000000E+00 0. -1.
         -1   -1    0    0    0  501 -0.00000000000E+00 -0.00000000000E+00 -0.81227099235E+02  0.81227099235E+02  0.00000000000E+00 0.  1.
         25    2    1    2    0    0  0.17014797537E+02 -0.12810403883E+02  0.17951950146E+02  0.12815202651E+03  0.12508820728E+03 0.  0.
          5    1    3    3  502    0 -0.32005690391E+02 -0.48575676586E+02 -0.13225284781E+02  0.59802517762E+02  0.41800000000E+01 0.  1.
         -5    1    3    3    0  502  0.49020487927E+02  0.35765272703E+02  0.31177234927E+02  0.68349508746E+02  0.41800000000E+01 0.  1.
        -11    1    1    2    0    0 -0.10246205052E+02 -0.37501541763E+02  0.81251429491E+01  0.39716096239E+02  0.00000000000E+00 0. -1.
         11    1    1    2    0    0 -0.67685924849E+01  0.50311945646E+02  0.52028301962E+02  0.72691470778E+02  0.00000000000E+00 0.  1.
</event>
<event>
 7    1  0.2794945E-009  0.9826416E+02  0.7561462E-02  0.1283989E+00
          2   -1    0    0  501    0  0.00000000000E+00  0.00000000000E+00  0.77170846351E+02  0.77170846351E+02  0.00000000000E+00 0.  1.
         -2   -1    0    0    0  501 -0.00000000000E+00 -0.00000000000E+00 -0.18483288434E+03  0.18483288434E+03  0.00000000000E+00 0. -1.
         25    2    1    2    0    0  0.30203016957E+02 -0.46291868884E+02 -0.78070336165E+02  0.15747189139E+03  0.12508900763E+03 0.  0.
          5    1    3    3  502    0 -0.40032127025E+02 -0.51169442139E+01 -0.62440710207E+02  0.74465220092E+02  0.41800000000E+01 0. -1.
         -5    1    3    3    0  502  0.70235143983E+02 -0.41174924670E+02 -0.15629625958E+02  0.83006671294E+02  0.41800000000E+01 0. -1.
        -11    1    1    2    0    0 -0.18814258935E+02 -0.68967092106E+01  0.21862726100E+02  0.29656697890E+02  0.00000000000E+00 0.  1.
         11    1    1    2    0    0 -0.11388758022E+02  0.53188578094E+02 -0.51454427923E+02  0.74875141415E+02  0.00000000000E+00 0. -1.
</event>
<event>
 7    1  0.2794945E-009  0.9388460E+02  0.7561462E-02  0.1293708E+00
          1   -1    0    0  501    0  0.00000000000E+00  0.00000000000E+00  0.49038883432E+02  0.49038883432E+02  0.00000000000E+00 0. -1.
         -1   -1    0    0    0  501 -0.00000000000E+00 -0.00000000000E+00 -0.20620983371E+03  0.20620983371E+03  0.00000000000E+00 0.  1.
         25    2    1    2    0    0  0.19599629295E+02 -0.88975863577E+01 -0.60392979568E+02  0.14056301079E+03  0.12508931013E+03 0.  0.
          5    1    3    3  502    0 -0.50364861126E+02  0.15256461264E+02 -0.24673953824E+02  0.58272251062E+02  0.41800000000E+01 0. -1.
         -5    1    3    3    0  502  0.69964490421E+02 -0.24154047622E+02 -0.35719025744E+02  0.82290759727E+02  0.41800000000E+01 0. -1.
        -11    1    1    2    0    0 -0.26717918907E+01 -0.23839839840E+02 -0.46779018868E+02  0.52571408977E+02  0.00000000000E+00 0.  1.
         11    1    1    2    0    0 -0.16927837404E+02  0.32737426198E+02 -0.49998951846E+02  0.62114297380E+02  0.00000000000E+00 0. -1.
</event>
<event>
 7    1  0.2794945E-009  0.1390453E+03  0.7561462E-02  0.1214619E+00
         -1   -1    0    0    0  501 -0.00000000000E+00  0.00000000000E+00  0.60740186140E+02  0.60740186140E+02  0.00000000000E+00 0.  1.
          1   -1    0    0  501    0  0.00000000000E+00 -0.00000000000E+00 -0.34785633431E+03  0.34785633431E+03  0.00000000000E+00 0. -1.
         25    2    1    2    0    0  0.89422604039E+02 -0.36195796879E+02 -0.13921820167E+03  0.21056391756E+03  0.12509563493E+03 0.  0.
          5    1    3    3  502    0  0.10780674352E+03  0.73519925166E+01 -0.11275972781E+03  0.15623243696E+03  0.41800000000E+01 0.  1.
         -5    1    3    3    0  502 -0.18384139482E+02 -0.43547789395E+02 -0.26458473853E+02  0.54331480601E+02  0.41800000000E+01 0.  1.
        -11    1    1    2    0    0  0.69610701658E+01 -0.12654394997E+02  0.51287986125E+00  0.14451756168E+02  0.00000000000E+00 0.  1.
         11    1    1    2    0    0 -0.96383674205E+02  0.48850191875E+02 -0.14841082636E+03  0.18358084672E+03  0.00000000000E+00 0. -1.
</event>
<event>
 7    1  0.2794945E-009  0.1361729E+03  0.7561462E-02  0.1218573E+00
          1   -1    0    0  501    0  0.00000000000E+00  0.00000000000E+00  0.36150542244E+02  0.36150542244E+02  0.00000000000E+00 0. -1.
         -1   -1    0    0    0  501 -0.00000000000E+00 -0.00000000000E+00 -0.75985467400E+03  0.75985467400E+03  0.00000000000E+00 0.  1.
         25    2    1    2    0    0  0.70861048725E+01  0.97962426943E+02 -0.57201560664E+03  0.59371379420E+03  0.12508942887E+03 0.  0.
          5    1    3    3  502    0  0.58011691315E+02  0.32343614450E+02 -0.35748151923E+03  0.36362339682E+03  0.41800000000E+01 0. -1.
         -5    1    3    3    0  502 -0.50925586443E+02  0.65618812493E+02 -0.21453408741E+03  0.23009039739E+03  0.41800000000E+01 0. -1.
        -11    1    1    2    0    0 -0.39902070270E+02 -0.63861716467E+02 -0.12999473608E+03  0.15023024147E+03  0.00000000000E+00 0.  1.
         11    1    1    2    0    0  0.32815965397E+02 -0.34100710476E+02 -0.21693789033E+02  0.52061180572E+02  0.00000000000E+00 0. -1.
</event>
<event>
 7    1  0.3113174E-009  0.1304494E+03  0.7561462E-02  0.1226790E+00
          1   -1    0    0  501    0  0.00000000000E+00  0.00000000000E+00  0.23376721448E+03  0.23376721448E+03  0.00000000000E+00 0. -1.
         -1   -1    0    0    0  501 -0.00000000000E+00 -0.00000000000E+00 -0.12175759511E+03  0.12175759511E+03  0.00000000000E+00 0.  1.
         25    2    1    2    0    0  0.35165087427E+02 -0.11928502235E+03  0.95764527138E+02  0.20070873884E+03  0.12509058021E+03 0.  0.
          5    1    3    3  502    0 -0.14486682803E+02 -0.25084695633E+02 -0.25822447230E+02  0.39030463930E+02  0.41800000000E+01 0.  1.
         -5    1    3    3    0  502  0.49651770229E+02 -0.94200326717E+02  0.12158697437E+03  0.16167827491E+03  0.41800000000E+01 0.  1.
        -11    1    1    2    0    0 -0.11348222582E+02  0.61930398909E+02 -0.36986146856E+02  0.73021445645E+02  0.00000000000E+00 0.  1.
         11    1    1    2    0    0 -0.23816864844E+02  0.57354623441E+02  0.53231239095E+02  0.81794625109E+02  0.00000000000E+00 0. -1.
</event>
<event>
 7    1  0.2794945E-009  0.1560443E+03  0.7561462E-02  0.1193236E+00
          1   -1    0    0  501    0  0.00000000000E+00  0.00000000000E+00  0.52497979073E+03  0.52497979073E+03  0.00000000000E+00 0. -1.
         -1   -1    0    0    0  501 -0.00000000000E+00 -0.00000000000E+00 -0.72303807387E+02  0.72303807387E+02  0.00000000000E+00 0.  1.
         25    2    1    2    0    0 -0.11186860073E+03  0.89072867948E+02  0.12151908519E+03  0.22553040017E+03  0.12509401944E+03 0.  0.
          5    1    3    3  502    0 -0.76266681957E+02  0.59031447218E+02  0.14421692547E+03  0.17354340244E+03  0.41800000000E+01 0.  1.
         -5    1    3    3    0  502 -0.35601918776E+02  0.30041420730E+02 -0.22697840278E+02  0.51986997733E+02  0.41800000000E+01 0.  1.
        -11    1    1    2    0    0  0.62621254140E+02  0.47718040329E+01  0.13060913867E+03  0.14492390655E+03  0.00000000000E+00 0. -1.
         11    1    1    2    0    0  0.49247346593E+02 -0.93844671981E+02  0.20054775948E+03  0.22682929140E+03  0.00000000000E+00 0.  1.
</event>
<event>
 7    1  0.2794945E-009  0.2254632E+03  0.7561462E-02  0.1129874E+00
         -1   -1    0    0    0  501 -0.00000000000E+00  0.00000000000E+00  0.54204841986E+02  0.54204841986E+02  0.00000000000E+00 0.  1.
          1   -1    0    0  501    0  0.00000000000E+00 -0.00000000000E+00 -0.10921874475E+04  0.10921874475E+04  0.00000000000E+00 0. -1.
         25    2    1    2    0    0  0.20888412671E+03 -0.56326549602E+02 -0.60501485406E+03  0.65459664892E+03  0.12509412682E+03 0.  0.
          5    1    3    3  502    0  0.15732194780E+03 -0.79046263400E+02 -0.54231980428E+03  0.57019886840E+03  0.41800000000E+01 0. -1.
         -5    1    3    3    0  502  0.51562178910E+02  0.22719713799E+02 -0.62695049782E+02  0.84397780517E+02  0.41800000000E+01 0. -1.
        -11    1    1    2    0    0 -0.73208519201E+02  0.34356768713E+02 -0.25131374512E+03  0.26400468429E+03  0.00000000000E+00 0. -1.
         11    1    1    2    0    0 -0.13567560751E+03  0.21969780889E+02 -0.18165400633E+03  0.22779095628E+03  0.00000000000E+00 0.  1.
</event>
<event>
 7    1  0.2794945E-009  0.9037162E+02  0.7561462E-02  0.1301954E+00
          3   -1    0    0  501    0  0.00000000000E+00  0.00000000000E+00  0.30823505891E+03  0.30823505891E+03  0.00000000000E+00 0. -1.
         -3   -1    0    0    0  501 -0.00000000000E+00 -0.00000000000E+00 -0.52551178661E+02  0.52551178661E+02  0.00000000000E+00 0.  1.
         25    2    1    2    0    0  0.17858981688E+01  0.64373037279E+02  0.16882116482E+03  0.21976043365E+03  0.12508790967E+03 0.  0.
          5    1    3    3  502    0 -0.44380731737E+02  0.22809346951E+02  0.14447931799E+03  0.15291063202E+03  0.41800000000E+01 0. -1.
         -5    1    3    3    0  502  0.46166629906E+02  0.41563690328E+02  0.24341846829E+02  0.66849801627E+02  0.41800000000E+01 0. -1.
        -11    1    1    2    0    0 -0.12346612511E+02 -0.29725549286E+02  0.97984237602E+02  0.10313562885E+03  0.00000000000E+00 0. -1.
         11    1    1    2    0    0  0.10560714342E+02 -0.34647487993E+02 -0.11121522169E+02  0.37890175072E+02  0.00000000000E+00 0.  1.
</event>
<event>
 7    1  0.2794945E-009  0.1223607E+03  0.7561462E-02  0.1239253E+00
         -3   -1    0    0    0  501 -0.00000000000E+00  0.00000000000E+00  0.84726416253E+02  0.84726416253E+02  0.00000000000E+00 0.  1.
          3   -1    0    0  501    0  0.00000000000E+00 -0.00000000000E+00 -0.24191570469E+03  0.24191570469E+03  0.00000000000E+00 0. -1.
         25    2    1    2    0    0  0.59770929252E+02 -0.67010066881E+02 -0.60685187434E+02  0.16551078464E+03  0.12509282478E+03 0.  0.
          5    1    3    3  502    0  0.17423485656E+02 -0.99087750456E+02 -0.39609477862E+02  0.10820509821E+03  0.41800000000E+01 0.  1.
         -5    1    3    3    0  502  0.42347443596E+02  0.32077683576E+02 -0.21075709572E+02  0.57305686425E+02  0.41800000000E+01 0.  1.
        -11    1    1    2    0    0 -0.14050276455E+02  0.24840277677E+02  0.15897816288E+02  0.32667877591E+02  0.00000000000E+00 0.  1.
         11    1    1    2    0    0 -0.45720652797E+02  0.42169789203E+02 -0.11240191729E+03  0.12846345871E+03  0.00000000000E+00 0. -1.
</event>
<event>
 7    1  0.2794945E-009  0.1013195E+03  0.7561462E-02  0.1277545E+00
         -2   -1    0    0    0  501 -0.00000000000E+00  0.00000000000E+00  0.30261035741E+03  0.30261035741E+03  0.00000000000E+00 0.  1.
          2   -1    0    0  501    0  0.00000000000E+00 -0.00000000000E+00 -0.57779310244E+02  0.57779310244E+02  0.00000000000E+00 0. -1.
         25    2    1    2    0    0 -0.61711513036E+02 -0.15486975604E+02  0.19025093696E+03  0.23641387556E+03  0.12509174348E+03 0.  0.
          5    1    3    3  502    0 -0.22663418685E+02  0.30408377825E+02  0.16762354565E+03  0.17191109751E+03  0.41800000000E+01 0.  1.
         -5    1    3    3    0  502 -0.39048094352E+02 -0.45895353429E+02  0.22627391308E+02  0.64502778051E+02  0.41800000000E+01 0.  1.
        -11    1    1    2    0    0  0.78705254904E+02 -0.32664058294E+01  0.20265316441E+02  0.81337996084E+02  0.00000000000E+00 0. -1.
         11    1    1    2    0    0 -0.16993741868E+02  0.18753381433E+02  0.34314793761E+02  0.42637796012E+02  0.00000000000E+00 0.  1.
</event>
<event>
 7    1  0.2794945E-009  0.1069953E+03  0.7561462E-02  0.1266237E+00
         -2   -1    0    0    0  501 -0.00000000000E+00  0.00000000000E+00  0.13478510661E+03  0.13478510661E+03  0.00000000000E+00 0.  1.
          2   -1    0    0  501    0  0.00000000000E+00 -0.00000000000E+00 -0.90544983679E+02  0.90544983679E+02  0.00000000000E+00 0. -1.
         25    2    1    2    0    0  0.12808092634E+02  0.31818412908E+01  0.12077405738E+02  0.12636739315E+03  0.12509469601E+03 0.  0.
          5    1    3    3  502    0  0.34164415172E+02 -0.53076817012E+02 -0.56062038764E+01  0.63507934072E+02  0.41800000000E+01 0.  1.
         -5    1    3    3    0  502 -0.21356322538E+02  0.56258658303E+02  0.17683609615E+02  0.62859459077E+02  0.41800000000E+01 0.  1.
        -11    1    1    2    0    0  0.35984701670E+02 -0.16856290490E+02  0.26968781830E+02  0.48024457069E+02  0.00000000000E+00 0.  1.
         11    1    1    2    0    0 -0.48792794304E+02  0.13674449200E+02  0.51939353624E+01  0.50938240070E+02  0.00000000000E+00 0. -1.
</event>
<event>
 7    1  0.2794945E-009  0.9957231E+02  0.7561462E-02  0.1281198E+00
         -2   -1    0    0    0  501 -0.00000000000E+00  0.00000000000E+00  0.32219334916E+03  0.32219334916E+03  0.00000000000E+00 0.  1.
          2   -1    0    0  501    0  0.00000000000E+00 -0.00000000000E+00 -0.46761131176E+02  0.46761131176E+02  0.00000000000E+00 0. -1.
         25    2    1    2    0    0  0.26588924091E+02 -0.47411909271E+02  0.12804314036E+03  0.18707263714E+03  0.12508503406E+03 0.  0.
          5    1    3    3  502    0  0.91103426483E+01 -0.66262408710E+02  0.14236517866E+03  0.15734999729E+03  0.41800000000E+01 0.  1.
         -5    1    3    3    0  502  0.17478581442E+02  0.18850499439E+02 -0.14322038301E+02  0.29722639846E+02  0.41800000000E+01 0.  1.
        -11    1    1    2    0    0  0.34033689392E+02  0.13438512159E+02  0.42782444064E+02  0.56295853691E+02  0.00000000000E+00 0.  1.
         11    1    1    2    0    0 -0.60622613483E+02  0.33973397112E+02  0.10460663355E+03  0.12558598951E+03  0.00000000000E+00 0. -1.
</event>
<event>
 7    1  0.2794945E-009  0.1118246E+03  0.7561462E-02  0.1257228E+00
          1   -1    0    0  501    0  0.00000000000E+00  0.00000000000E+00  0.35552008769E+02  0.35552008769E+02  0.00000000000E+00 0. -1.
         -1   -1    0    0    0  501 -0.00000000000E+00 -0.00000000000E+00 -0.48442201538E+03  0.48442201538E+03  0.00000000000E+00 0.  1.
         25    2    1    2    0    0  0.51132130112E+02  0.38571115088E+02 -0.17369956779E+03  0.22343086531E+03  0.12509031167E+03 0.  0.
          5    1    3    3  502    0 -0.25673963010E+02  0.24096003310E+02 -0.12794762035E+03  0.13276985993E+03  0.41800000000E+01 0.  1.
         -5    1    3    3    0  502  0.76806093123E+02  0.14475111778E+02 -0.45751947438E+02  0.90661005378E+02  0.41800000000E+01 0.  1.
        -11    1    1    2    0    0  0.11152399263E+02 -0.45874297379E+02 -0.10289496147E+03  0.11320865809E+03  0.00000000000E+00 0.  1.
         11    1    1    2    0    0 -0.62284529376E+02  0.73031822912E+01 -0.17227547734E+03  0.18333450075E+03  0.00000000000E+00 0. -1.
</event>
<event>
 7    1  0.2794945E-009  0.1631317E+03  0.7561462E-02  0.1185206E+00
          3   -1    0    0  501    0  0.00000000000E+00  0.00000000000E+00  0.19527287113E+03  0.19527287113E+03  0.00000000000E+00 0. -1.
         -3   -1    0    0    0  501 -0.00000000000E+00 -0.00000000000E+00 -0.15353946949E+03  0.15353946949E+03  0.00000000000E+00 0.  1.
         25    2    1    2    0    0 -0.90996985001E+02  0.83732735137E+02  0.75230052567E+02  0.19130983845E+03  0.12509305042E+03 0.  0.
          5    1    3    3  502    0  0.28569532626E+02  0.10432217439E+01  0.33629989042E+01  0.29087603334E+02  0.41800000000E+01 0. -1.
         -5    1    3    3    0  502 -0.11956651763E+03  0.82689513393E+02  0.71867053663E+02  0.16222223511E+03  0.41800000000E+01 0. -1.
        -11    1    1    2    0    0 -0.62501407688E+01 -0.47886994430E+02 -0.22500463063E+02  0.53277568762E+02  0.00000000000E+00 0. -1.
         11    1    1    2    0    0  0.97247125769E+02 -0.35845740707E+02 -0.10996187865E+02  0.10422493341E+03  0.00000000000E+00 0.  1.
</event>
<event>
 7    1  0.2794945E-009  0.9250094E+02  0.7561462E-02  0.1296906E+00
          1   -1    0    0  501    0  0.00000000000E+00  0.00000000000E+00  0.33624936302E+02  0.33624936302E+02  0.00000000000E+00 0. -1.
         -1   -1    0    0    0  501 -0.00000000000E+00 -0.00000000000E+00 -0.57760092600E+03  0.57760092600E+03  0.00000000000E+00 0.  1.
         25    2    1    2    0    0 -0.18741335554E+02  0.62493106533E+02 -0.41881588137E+03  0.44194085669E+03  0.12509337434E+03 0.  0.
          5    1    3    3  502    0  0.63048325493E+01  0.66679431512E+02 -0.90748803113E+02  0.11286591676E+03  0.41800000000E+01 0. -1.
         -5    1    3    3    0  502 -0.25046168104E+02 -0.41863249790E+01 -0.32806707826E+03  0.32907493993E+03  0.41800000000E+01 0. -1.
        -11    1    1    2    0    0 -0.25401998920E+01 -0.69657845388E+02 -0.12888159134E+03  0.14652348831E+03  0.00000000000E+00 0.  1.
         11    1    1    2    0    0  0.21281535446E+02  0.71647388550E+01  0.37214830167E+01  0.22761517297E+02  0.00000000000E+00 0. -1.
</event>
<event>
 7    1  0.2794945E-009  0.1183256E+03  0.7561462E-02  0.1245885E+00
          1   -1    0    0  501    0  0.00000000000E+00  0.00000000000E+00  0.91825997347E+03  0.91825997347E+03  0.00000000000E+00 0. -1.
         -1   -1    0    0    0  501 -0.00000000000E+00 -0.00000000000E+00 -0.25030287882E+02  0.25030287882E+02  0.00000000000E+00 0.  1.
         25    2    1    2    0    0  0.46977950328E+02  0.93768827171E+02  0.52686571724E+03  0.55157503511E+03  0.12509202448E+03 0.  0.
          5    1    3    3  502    0 -0.71038511618E+01  0.17782921245E+02  0.35867424174E+03  0.35920938334E+03  0.41800000000E+01 0.  1.
         -5    1    3    3    0  502  0.54081801490E+02  0.75985905926E+02  0.16819147550E+03  0.19236565178E+03  0.41800000000E+01 0.  1.
        -11    1    1    2    0    0 -0.77001962223E+01 -0.82457872503E+02  0.31692980456E+03  0.32757151094E+03  0.00000000000E+00 0.  1.
         11    1    1    2    0    0 -0.39277754106E+02 -0.11310954668E+02  0.49434163779E+02  0.64143715293E+02  0.00000000000E+00 0. -1.
</event>
<event>
 7    1  0.2794945E-009  0.1607556E+03  0.7561462E-02  0.1187846E+00
          1   -1    0    0  501    0  0.00000000000E+00  0.00000000000E+00  0.90376434442E+02  0.90376434442E+02  0.00000000000E+00 0. -1.
         -1   -1    0    0    0  501 -0.00000000000E+00 -0.00000000000E+00 -0.37712540926E+03  0.37712540926E+03  0.00000000000E+00 0.  1.
         25    2    1    2    0    0  0.80883079888E+02 -0.11345046891E+03 -0.76076831840E+02  0.20210967031E+03  0.12509017940E+03 0.  0.
          5    1    3    3  502    0  0.89779058863E+02 -0.51618546877E+02 -0.90800751408E+02  0.13779333311E+03  0.41800000000E+01 0.  1.
         -5    1    3    3    0  502 -0.88959789757E+01 -0.61831922030E+02  0.14723919568E+02  0.64316337204E+02  0.41800000000E+01 0.  1.
        -11    1    1    2    0    0 -0.13592952351E+02  0.78049051339E+02 -0.14359133582E+03  0.16399662951E+03  0.00000000000E+00 0.  1.
         11    1    1    2    0    0 -0.67290127537E+02  0.35401417568E+02 -0.67080807156E+02  0.10139554388E+03  0.00000000000E+00 0. -1.
</event>
<event>
 7    1  0.2794945E-009  0.9341887E+02  0.7561462E-02  0.1294777E+00
          1   -1    0    0  501    0  0.00000000000E+00  0.00000000000E+00  0.47980992509E+02  0.47980992509E+02  0.00000000000E+00 0. -1.
         -1   -1    0    0    0  501 -0.00000000000E+00 -0.00000000000E+00 -0.43614663840E+03  0.43614663840E+03  0.00000000000E+00 0.  1.
         25    2    1    2    0    0 -0.22234348115E+02 -0.71317499991E+02 -0.31185041872E+03  0.34420892829E+03  0.12509416698E+03 0.  0.
          5    1    3    3  502    0  0.11906189787E+02  0.49060540892E+01 -0.21834502374E+03  0.21876436756E+03  0.41800000000E+01 0.  1.
         -5    1    3    3    0  502 -0.34140537902E+02 -0.76223554080E+02 -0.93505394989E+02  0.12544456073E+03  0.41800000000E+01 0.  1.
        -11    1    1    2    0    0 -0.36728323408E+01  0.62051258182E+02 -0.89849571322E+02  0.10925563512E+03  0.00000000000E+00 0.  1.
         11    1    1    2    0    0  0.25907180456E+02  0.92662418089E+01  0.13534344160E+02  0.30663067496E+02  0.00000000000E+00 0. -1.
</event>
<event>
 7    1  0.2794945E-009  0.1110991E+03  0.7561462E-02  0.1258548E+00
          2   -1    0    0  501    0  0.00000000000E+00  0.00000000000E+00  0.16039148026E+03  0.16039148026E+03  0.00000000000E+00 0. -1.
         -2   -1    0    0    0  501 -0.00000000000E+00 -0.00000000000E+00 -0.95761877292E+02  0.95761877292E+02  0.00000000000E+00 0.  1.
         25    2    1    2    0    0 -0.61407266042E+02  0.28923500512E+02  0.75286583769E+02  0.16100194650E+03  0.12508451493E+03 0.  0.
          5    1    3    3  502    0  0.31977958075E+02  0.23113492989E+02 -0.17719849049E+01  0.39716944637E+02  0.41800000000E+01 0.  1.
         -5    1    3    3    0  502 -0.93385224117E+02  0.58100075225E+01  0.77058568674E+02  0.12128500186E+03  0.41800000000E+01 0.  1.
        -11    1    1    2    0    0  0.72710466155E+02 -0.25477189118E+02 -0.20551867443E+02  0.79738813066E+02  0.00000000000E+00 0.  1.
         11    1    1    2    0    0 -0.11303200113E+02 -0.34463113936E+01  0.98948866398E+01  0.15412597984E+02  0.00000000000E+00 0. -1.
</event>
<event>
 7    1  0.2794945E-009  0.1563515E+03  0.7561462E-02  0.1192879E+00
          2   -1    0    0  501    0  0.00000000000E+00  0.00000000000E+00  0.24317799231E+03  0.24317799231E+03  0.00000000000E+00 0. -1.
         -2   -1    0    0    0  501 -0.00000000000E+00 -0.00000000000E+00 -0.11850423373E+03  0.11850423373E+03  0.00000000000E+00 0.  1.
         25    2    1    2    0    0 -0.11503818213E+03  0.32644833130E+02  0.78790892616E+01  0.17323692187E+03  0.12509789197E+03 0.  0.
          5    1    3    3  502    0 -0.11328715602E+03 -0.17313628302E+02  0.29808434050E+02  0.11848947879E+03  0.41800000000E+01 0. -1.
         -5    1    3    3    0  502 -0.17510261126E+01  0.49958461433E+02 -0.21929344789E+02  0.54747443082E+02  0.41800000000E+01 0. -1.
        -11    1    1    2    0    0  0.11635150620E+03 -0.52723041021E+02  0.10211112498E+03  0.16353615470E+03  0.00000000000E+00 0. -1.
         11    1    1    2    0    0 -0.13133240715E+01  0.20078207890E+02  0.14683544340E+02  0.24909149456E+02  0.00000000000E+00 0.  1.
</event>
<event>
 7    1  0.2794945E-009  0.1285642E+03  0.7561462E-02  0.1229602E+00
         -1   -1    0    0    0  501 -0.00000000000E+00  0.00000000000E+00  0.20386730728E+03  0.20386730728E+03  0.00000000000E+00 0.  1.
          1   -1    0    0  501    0  0.00000000000E+00 -0.00000000000E+00 -0.10462650964E+03  0.10462650964E+03  0.00000000000E+00 0. -1.
         25    2    1    2    0    0 -0.84275689185E+02 -0.45662366482E+02  0.34665392271E+02  0.16135828883E+03  0.12508942582E+03 0.  0.
          5    1    3    3  502    0  0.23085595788E+02 -0.44850678232E+01 -0.22555609902E+02  0.32852526605E+02  0.41800000000E+01 0.  1.
         -5    1    3    3    0  502 -0.10736128497E+03 -0.41177298659E+02  0.57221002174E+02  0.12850576223E+03  0.41800000000E+01 0.  1.
        -11    1    1    2    0    0  0.56468236856E+02 -0.86841312152E+01 -0.15315400887E+01  0.57152616070E+02  0.00000000000E+00 0. -1.
         11    1    1    2    0    0  0.27807452329E+02  0.54346497697E+02  0.66106945455E+02  0.89982912013E+02  0.00000000000E+00 0.  1.
</event>
<event>
 6    1  0.2794945E-009  0.1180924E+03  0.7561462E-02  0.1246278E+00
          1   -1    0    0  501    0  0.00000000000E+00  0.00000000000E+00  0.46889099504E+02  0.46889099504E+02  0.00000000000E+00 0. -1.
         -1   -1    0    0    0  501 -0.00000000000E+00 -0.00000000000E+00 -0.32725878853E+03  0.32725878853E+03  0.00000000000E+00 0.  1.
          5    1    1    2  502    0 -0.33661354626E+02 -0.22790015570E+02 -0.36937036961E+02  0.55084378043E+02  0.41800000000E+01 0.  1.
         -5    1    1    2    0  502  0.90342249093E+02  0.34402238908E+02 -0.91828956265E+02  0.13339889663E+03  0.41800000000E+01 0.  1.
        -11    1    1    2    0    0 -0.12918186319E+02  0.33380637832E+02 -0.22955682953E+02  0.42521875543E+02  0.00000000000E+00 0. -1.
         11    1    1    2    0    0 -0.43762708148E+02 -0.44992861169E+02 -0.12864801285E+03  0.14314273782E+03  0.00000000000E+00 0.  1.
</event>
<event>
 7    1  0.2794945E-009  0.1244768E+03  0.7561462E-02  0.1235889E+00
         -1   -1    0    0    0  501 -0.00000000000E+00  0.00000000000E+00  0.13762768931E+02  0.13762768931E+02  0.00000000000E+00 0.  1.
          1   -1    0    0  501    0  0.00000000000E+00 -0.00000000000E+00 -0.17831206155E+04  0.17831206155E+04  0.00000000000E+00 0. -1.
         25    2    1    2    0    0 -0.45879431721E+02 -0.41511315163E+02 -0.14618458937E+04  0.14684923837E+04  0.12509337557E+03 0.  0.
          5    1    3    3  502    0 -0.72107751788E+02  0.16932956874E+02 -0.68797611678E+03  0.69196449515E+03  0.41800000000E+01 0. -1.
         -5    1    3    3    0  502  0.26228320067E+02 -0.58444272038E+02 -0.77386977688E+03  0.77652788854E+03  0.41800000000E+01 0. -1.
        -11    1    1    2    0    0 -0.28647356399E+01  0.58786037155E+02 -0.11678726236E+03  0.13077946904E+03  0.00000000000E+00 0.  1.
         11    1    1    2    0    0  0.48744167361E+02 -0.17274721992E+02 -0.19072469052E+03  0.19761153166E+03  0.00000000000E+00 0. -1.
</event>
<event>
 7    1  0.2794945E-009  0.2357856E+03  0.7561462E-02  0.1122633E+00
          1   -1    0    0  501    0  0.00000000000E+00  0.00000000000E+00  0.40989732619E+03  0.40989732619E+03  0.00000000000E+00 0. -1.
         -1   -1    0    0    0  501 -0.00000000000E+00 -0.00000000000E+00 -0.15331801566E+03  0.15331801566E+03  0.00000000000E+00 0.  1.
         25    2    1    2    0    0  0.14848199774E+03 -0.16429151589E+03  0.90504915185E+02  0.26995800363E+03  0.12509028021E+03 0.  0.
          5    1    3    3  502    0  0.51604363960E+02 -0.13580714030E+03  0.19955163529E+02  0.14670470575E+03  0.41800000000E+01 0.  1.
         -5    1    3    3    0  502  0.96877633785E+02 -0.28484375587E+02  0.70549751656E+02  0.12325329788E+03  0.41800000000E+01 0.  1.
        -11    1    1    2    0    0 -0.78080257890E+02  0.11585660690E+03  0.48460660176E+02  0.14787736683E+03  0.00000000000E+00 0. -1.
         11    1    1    2    0    0 -0.70401739854E+02  0.48434908990E+02  0.11761373517E+03  0.14537997140E+03  0.00000000000E+00 0.  1.
</event>
<event>
 7    1  0.2794945E-009  0.1871123E+03  0.7561462E-02  0.1161092E+00
          2   -1    0    0  501    0  0.00000000000E+00  0.00000000000E+00  0.28796368229E+04  0.28796368229E+04  0.00000000000E+00 0. -1.
         -2   -1    0    0    0  501 -0.00000000000E+00 -0.00000000000E+00 -0.14137897458E+02  0.14137897458E+02  0.00000000000E+00 0.  1.
         25    2    1    2    0    0  0.16226821636E+03 -0.35689384892E+01  0.18572089367E+04  0.18684790665E+04  0.12508107795E+03 0.  0.
          5    1    3    3  502    0 -0.89021957896E+01  0.12934741827E+02  0.51973172176E+03  0.51998566484E+03  0.41800000000E+01 0.  1.
         -5    1    3    3    0  502  0.17117041215E+03 -0.16503680316E+02  0.13374772149E+04  0.13484934016E+04  0.41800000000E+01 0.  1.
        -11    1    1    2    0    0 -0.12471383340E+03  0.42607272890E+02  0.71190491577E+03  0.72400105596E+03  0.00000000000E+00 0.  1.
         11    1    1    2    0    0 -0.37554382965E+02 -0.39038334401E+02  0.29638507302E+03  0.30129459793E+03  0.00000000000E+00 0. -1.
</event>
<event>
 7    1  0.2794945E-009  0.1072945E+03  0.7561462E-02  0.1265664E+00
         -3   -1    0    0    0  501 -0.00000000000E+00  0.00000000000E+00  0.10758400589E+04  0.10758400589E+04  0.00000000000E+00 0.  1.
          3   -1    0    0  501    0  0.00000000000E+00 -0.00000000000E+00 -0.18105135608E+02  0.18105135608E+02  0.00000000000E+00 0. -1.
         25    2    1    2    0    0  0.23875227403E+02  0.69618972028E+02  0.72161399643E+03  0.73606407464E+03  0.12508690728E+03 0.  0.
          5    1    3    3  502    0  0.31869744732E+02  0.13348198345E+02  0.60764283640E+03  0.60863876319E+03  0.41800000000E+01 0. -1.
         -5    1    3    3    0  502 -0.79945173286E+01  0.56270773683E+02  0.11397116003E+03  0.12742531144E+03  0.41800000000E+01 0. -1.
        -11    1    1    2    0    0  0.37135285334E+02 -0.41277735567E+02  0.15893615926E+03  0.16835552735E+03  0.00000000000E+00 0. -1.
         11    1    1    2    0    0 -0.61010512737E+02 -0.28341236461E+02  0.17718476756E+03  0.18952559248E+03  0.00000000000E+00 0.  1.
</event>
<event>
 7    1  0.2794945E-009  0.9523886E+02  0.7561462E-02  0.1290639E+00
          1   -1    0    0  501    0  0.00000000000E+00  0.00000000000E+00  0.39203582821E+03  0.39203582821E+03  0.00000000000E+00 0. -1.
         -1   -1    0    0    0  501 -0.00000000000E+00 -0.00000000000E+00 -0.49351480099E+02  0.49351480099E+02  0.00000000000E+00 0.  1.
         25    2    1    2    0    0  0.38459160249E+02 -0.39375234664E+02  0.28964622774E+03  0.32026805330E+03  0.12508865900E+03 0.  0.
          5    1    3    3  502    0 -0.19217888715E+02 -0.18425768572E+02  0.30221671473E+01  0.27119035536E+02  0.41800000000E+01 0.  1.
         -5    1    3    3    0  502  0.57677048964E+02 -0.20949466092E+02  0.28662406059E+03  0.29314901776E+03  0.41800000000E+01 0.  1.
        -11    1    1    2    0    0  0.27225922164E+02  0.19174660928E+02 -0.15786037756E+01  0.33337823103E+02  0.00000000000E+00 0.  1.
         11    1    1    2    0    0 -0.65685082413E+02  0.20200573736E+02  0.54616724150E+02  0.87781431907E+02  0.00000000000E+00 0. -1.
</event>
<event>
 7    1  0.2794945E-009  0.1438076E+03  0.7561462E-02  0.1208295E+00
         -3   -1    0    0    0  501 -0.00000000000E+00  0.00000000000E+00  0.17953425214E+03  0.17953425214E+03  0.00000000000E+00 0.  1.
          3   -1    0    0  501    0  0.00000000000E+00 -0.00000000000E+00 -0.20043868118E+03  0.20043868118E+03  0.00000000000E+00 0. -1.
         25    2    1    2    0    0 -0.66015664069E+02  0.10732745445E+03 -0.10051763071E+03  0.20403071186E+03  0.12508991532E+03 0.  0.
          5    1    3    3  502    0 -0.20566718437E+02  0.82411556920E+02 -0.12120867260E+03  0.14806643554E+03  0.41800000000E+01 0. -1.
         -5    1    3    3    0  502 -0.45448945633E+02  0.24915897532E+02  0.20691041884E+02  0.55964276313E+02  0.41800000000E+01 0. -1.
        -11    1    1    2    0    0  0.53329227280E+01 -0.86131486999E+02  0.20686576634E+02  0.88741239401E+02  0.00000000000E+00 0. -1.
         11    1    1    2    0    0  0.60682741341E+02 -0.21195967452E+02  0.58926625045E+02  0.87200982059E+02  0.00000000000E+00 0.  1.
</event>
<event>
 7    1  0.2794945E-009  0.9834798E+02  0.7561462E-02  0.1283809E+00
          4   -1    0    0  501    0  0.00000000000E+00  0.00000000000E+00  0.35195021454E+02  0.35195021454E+02  0.00000000000E+00 0. -1.
         -4   -1    0    0    0  501 -0.00000000000E+00 -0.00000000000E+00 -0.49727679239E+03  0.49727679239E+03  0.00000000000E+00 0.  1.
         25    2    1    2    0    0 -0.36047388657E+02  0.73411772987E+02 -0.24296635937E+03  0.28525187618E+03  0.12508908200E+03 0.  0.
          5    1    3    3  502    0 -0.11231840646E+02  0.43927078902E+02 -0.69339155975E+01  0.46057508516E+02  0.41800000000E+01 0. -1.
         -5    1    3    3    0  502 -0.24815548011E+02  0.29484694085E+02 -0.23603244378E+03  0.23919436767E+03  0.41800000000E+01 0. -1.
        -11    1    1    2    0    0  0.42336014117E+02 -0.38020445006E+01 -0.61037802113E+02  0.74380151388E+02  0.00000000000E+00 0.  1.
         11    1    1    2    0    0 -0.62886254600E+01 -0.69609728486E+02 -0.15807760945E+03  0.17283978627E+03  0.00000000000E+00 0. -1.
</event>
<event>
 7    1  0.2794945E-009  0.6928532E+02  0.7561462E-02  0.1362540E+00
         -1   -1    0    0    0  501 -0.00000000000E+00  0.00000000000E+00  0.95743755472E+02  0.95743755472E+02  0.00000000000E+00 0.  1.
          1   -1    0    0  501    0  0.00000000000E+00 -0.00000000000E+00 -0.16601199249E+03  0.16601199249E+03  0.00000000000E+00 0. -1.
         25    2    1    2    0    0  0.45245864994E+02 -0.39861125539E+02 -0.53286547985E+02  0.14874341734E+03  0.12509616452E+03 0.  0.
          5    1    3    3  502    0  0.29271028134E+02  0.31560587939E+01  0.36946425831E+02  0.47426412228E+02  0.41800000000E+01 0.  1.
         -5    1    3    3    0  502  0.15974836860E+02 -0.43017184333E+02 -0.90232973815E+02  0.10131700511E+03  0.41800000000E+01 0.  1.
        -11    1    1    2    0    0 -0.34199554648E+02  0.38706221180E+02  0.33342135203E+02  0.61477468036E+02  0.00000000000E+00 0.  1.
         11    1    1    2    0    0 -0.11046310346E+02  0.11549043588E+01 -0.50323824240E+02  0.51534862593E+02  0.00000000000E+00 0. -1.
</event>
<event>
 6    1  0.2794945E-009  0.1094750E+03  0.7561462E-02  0.1261545E+00
         -1   -1    0    0    0  501 -0.00000000000E+00  0.00000000000E+00  0.31011785910E+03  0.31011785910E+03  0.00000000000E+00 0.  1.
          1   -1    0    0  501    0  0.00000000000E+00 -0.00000000000E+00 -0.66925477322E+02  0.66925477322E+02  0.00000000000E+00 0. -1.
          5    1    1    2  502    0  0.64400072771E+02 -0.65712144104E+02  0.14936049921E+03  0.17547503064E+03  0.41800000000E+01 0.  1.
         -5    1    1    2    0  502  0.17478646389E+01 -0.22316393387E+01 -0.24575854103E+02  0.25089444988E+02  0.41800000000E+01 0.  1.
        -11    1    1    2    0    0 -0.83338560845E+02  0.51260691191E+02  0.63684064514E+02  0.11674174171E+03  0.00000000000E+00 0. -1.
         11    1    1    2    0    0  0.17190623435E+02  0.16683092252E+02  0.54723672162E+02  0.59737119080E+02  0.00000000000E+00 0.  1.
</event>
<event>
 7    1  0.3112775E-009  0.1084247E+03  0.7561462E-02  0.1263515E+00
          4   -1    0    0  501    0  0.00000000000E+00  0.00000000000E+00  0.70280740372E+02  0.70280740372E+02  0.00000000000E+00 0. -1.
         -4   -1    0    0    0  501 -0.00000000000E+00 -0.00000000000E+00 -0.32418866065E+03  0.32418866065E+03  0.00000000000E+00 0.  1.
         25    2    1    2    0    0  0.55505735874E+02  0.87197297994E+02 -0.15380245617E+03  0.22357377715E+03  0.12508310364E+03 0.  0.
          5    1    3    3  502    0  0.63233738484E+01  0.51022927486E+02 -0.15396637076E+03  0.16237746122E+03  0.41800000000E+01 0. -1.
         -5    1    3    3    0  502  0.49182362025E+02  0.36174370507E+02  0.16391459741E+00  0.61196315935E+02  0.41800000000E+01 0. -1.
        -11    1    1    2    0    0 -0.24681059485E+02 -0.50008559749E+02 -0.10838286403E+03  0.12188870318E+03  0.00000000000E+00 0.  1.
         11    1    1    2    0    0 -0.30824676389E+02 -0.37188738245E+02  0.82773999189E+01  0.49006920696E+02  0.00000000000E+00 0. -1.
</event>
<event>
 7    1  0.2794945E-009  0.8848386E+02  0.7561462E-02  0.1306565E+00
          2   -1    0    0  501    0  0.00000000000E+00  0.00000000000E+00  0.19301428443E+03  0.19301428443E+03  0.00000000000E+00 0. -1.
         -2   -1    0    0    0  501 -0.00000000000E+00 -0.00000000000E+00 -0.14219136005E+03  0.14219136005E+03  0.00000000000E+00 0.  1.
         25    2    1    2    0    0 -0.49398692149E+02  0.42373377473E+02 -0.79960949951E+02  0.16210070604E+03  0.12508857453E+03 0.  0.
          5    1    3    3  502    0 -0.52618784752E+02  0.52950603371E+01 -0.10459118584E+03  0.11727558454E+03  0.41800000000E+01 0. -1.
         -5    1    3    3    0  502  0.32200926028E+01  0.37078317136E+02  0.24630235891E+02  0.44825121506E+02  0.41800000000E+01 0. -1.
        -11    1    1    2    0    0  0.52208934059E+02 -0.90049508539E+01  0.18792079464E+02  0.56213914523E+02  0.00000000000E+00 0.  1.
         11    1    1    2    0    0 -0.28102419095E+01 -0.33368426619E+02  0.11199179486E+03  0.11689102391E+03  0.00000000000E+00 0. -1.
</event>
<event>
 6    1  0.4912775E-009  0.1109354E+03  0.7561462E-02  0.1258847E+00
         -2   -1    0    0    0  501 -0.00000000000E+00  0.00000000000E+00  0.53904306233E+02  0.53904306233E+02  0.00000000000E+00 0.  1.
          2   -1    0    0  501    0  0.00000000000E+00 -0.00000000000E+00 -0.33389841592E+03  0.33389841592E+03  0.00000000000E+00 0. -1.
          5    1    1    2  502    0  0.35444809571E+02  0.46091742975E+02 -0.79770331926E+02  0.98800615138E+02  0.41800000000E+01 0.  1.
         -5    1    1    2    0  502  0.30445480952E+02 -0.65013550463E+02 -0.18348734534E+02  0.74214806563E+02  0.41800000000E+01 0.  1.
        -11    1    1    2    0    0  0.10955727897E+01  0.24428996361E+02 -0.41831517313E+01  0.24808766623E+02  0.00000000000E+00 0.  1.
         11    1    1    2    0    0 -0.66985863312E+02 -0.55071888729E+01 -0.17769189150E+03  0.18997853383E+03  0.00000000000E+00 0. -1.
</event>
<event>
 7    1  0.2794945E-009  0.1178742E+03  0.7561462E-02  0.1246646E+00
          1   -1    0    0  501    0  0.00000000000E+00  0.00000000000E+00  0.16975490783E+03  0.16975490783E+03  0.00000000000E+00 0. -1.
         -1   -1    0    0    0  501 -0.00000000000E+00 -0.00000000000E+00 -0.12537344836E+03  0.12537344836E+03  0.00000000000E+00 0.  1.
         25    2    1    2    0    0 -0.70853134059E+02  0.39196825585E+02 -0.29809509586E+02  0.15196501857E+03  0.12509277463E+03 0.  0.
          5    1    3    3  502    0 -0.62725123139E+02  0.82351436895E+02 -0.11631004322E+02  0.10425427038E+03  0.41800000000E+01 0. -1.
         -5    1    3    3    0  502 -0.81280109207E+01 -0.43154611309E+02 -0.18178505264E+02  0.47710748186E+02  0.41800000000E+01 0. -1.
        -11    1    1    2    0    0  0.25786961079E+02  0.34136851812E+01  0.76801901670E+02  0.81087315336E+02  0.00000000000E+00 0. -1.
         11    1    1    2    0    0  0.45066172981E+02 -0.42610510766E+02 -0.26109326150E+01  0.62076022296E+02  0.00000000000E+00 0.  1.
</event>
<event>
 7    1  0.2794945E-009  0.1136047E+03  0.7561462E-02  0.1254036E+00
         -2   -1    0    0    0  501 -0.00000000000E+00  0.00000000000E+00  0.44833973652E+03  0.44833973652E+03  0.00000000000E+00 0.  1.
          2   -1    0    0  501    0  0.00000000000E+00 -0.00000000000E+00 -0.33224456321E+02  0.33224456321E+02  0.00000000000E+00 0. -1.
         25    2    1    2    0    0  0.51213865602E+02  0.20703595842E+02  0.23887115896E+03  0.27524288095E+03  0.12509082308E+03 0.  0.
          5    1    3    3  502    0  0.51405682563E+02 -0.43028284832E+02  0.82858742408E+02  0.10666311963E+03  0.41800000000E+01 0.  1.
         -5    1    3    3    0  502 -0.19181696050E+00  0.63731880674E+02  0.15601241655E+03  0.16857976132E+03  0.41800000000E+01 0.  1.
        -11    1    1    2    0    0 -0.57873654242E+02  0.15054774972E+02  0.14996480418E+03  0.16144797490E+03  0.00000000000E+00 0.  1.
         11    1    1    2    0    0  0.66597886400E+01 -0.35758370814E+02  0.26279317049E+02  0.44873336989E+02  0.00000000000E+00 0. -1.
</event>
<event>
 7    1  0.3240079E-009  0.1590493E+03  0.7561462E-02  0.1189774E+00
          2   -1    0    0  501    0  0.00000000000E+00  0.00000000000E+00  0.61029935103E+03  0.61029935103E+03  0.00000000000E+00 0. -1.
         -2   -1    0    0    0  501 -0.00000000000E+00 -0.00000000000E+00 -0.69190223236E+02  0.69190223236E+02  0.00000000000E+00 0.  1.
         25    2    1    2    0    0  0.13873249397E+03  0.63241388293E+02  0.42079595765E+03  0.46472006708E+03  0.12509726095E+03 0.  0.
          5    1    3    3  502    0  0.64742327414E+02  0.32856819865E+02  0.35108261093E+03  0.35853537017E+03  0.41800000000E+01 0.  1.
         -5    1    3    3    0  502  0.73990166561E+02  0.30384568427E+02  0.69713346721E+02  0.10618469691E+03  0.41800000000E+01 0.  1.
        -11    1    1    2    0    0 -0.44383097493E+02 -0.54851467097E+02  0.13201589392E+02  0.71783178728E+02  0.00000000000E+00 0.  1.
         11    1    1    2    0    0 -0.94349396482E+02 -0.83899211955E+01  0.10711158076E+03  0.14298632846E+03  0.00000000000E+00 0. -1.
</event>
<event>
 7    1  0.2794945E-009  0.1114059E+03  0.7561462E-02  0.1257988E+00
          4   -1    0    0  501    0  0.00000000000E+00  0.00000000000E+00  0.48552478289E+02  0.48552478289E+02  0.00000000000E+00 0. -1.
         -4   -1    0    0    0  501 -0.00000000000E+00 -0.00000000000E+00 -0.42476724780E+03  0.42476724780E+03  0.00000000000E+00 0.  1.
         25    2    1    2    0    0  0.58708796573E+02  0.48353822897E+02 -0.10988583369E+03  0.18304814842E+03  0.12508762213E+03 0.  0.
          5    1    3    3  502    0 -0.18488304784E+02 -0.32613821091E+01  0.17058406151E+02  0.25708279745E+02  0.41800000000E+01 0.  1.
         -5    1    3    3    0  502  0.77197101356E+02  0.51615205006E+02 -0.12694423984E+03  0.15733986867E+03  0.41800000000E+01 0.  1.
        -11    1    1    2    0    0  0.76633352784E+01 -0.43392532864E+02 -0.14900206743E+03  0.15538099856E+03  0.00000000000E+00 0.  1.
         11    1    1    2    0    0 -0.66372131851E+02 -0.49612900324E+01 -0.11732686839E+03  0.13489057911E+03  0.00000000000E+00 0. -1.
</event>
<event>
 7    1  0.2794945E-009  0.4573379E+03  0.7561462E-02  0.1025556E+00
          2   -1    0    0  501    0  0.00000000000E+00  0.00000000000E+00  0.20995638583E+04  0.20995638583E+04  0.00000000000E+00 0. -1.
         -2   -1    0    0    0  501 -0.00000000000E+00 -0.00000000000E+00 -0.31866334966E+03  0.31866334966E+03  0.00000000000E+00 0.  1.
         25    2    1    2    0    0  0.41342320880E+03  0.16500161760E+03  0.18945893534E+04  0.19501949915E+04  0.12508958185E+03 0.  0.
          5    1    3    3  502    0  0.19141503829E+03  0.14349440550E+03  0.97045409961E+03  0.99951437866E+03  0.41800000000E+01 0. -1.
         -5    1    3    3    0  502  0.22200817051E+03  0.21507212101E+02  0.92413525374E+03  0.95068061279E+03  0.41800000000E+01 0. -1.
        -11    1    1    2    0    0 -0.55532684668E+02 -0.54387124927E+02 -0.35078502634E+02  0.85278014583E+02  0.00000000000E+00 0.  1.
         11    1    1    2    0    0 -0.35789052413E+03 -0.11061449268E+03 -0.78610342025E+02  0.38275420197E+03  0.00000000000E+00 0. -1.
</event>
<event>
 7    1  0.2794945E-009  0.1111347E+03  0.7561462E-02  0.1258483E+00
          1   -1    0    0  501    0  0.00000000000E+00  0.00000000000E+00  0.37481765121E+03  0.37481765121E+03  0.00000000000E+00 0. -1.
         -1   -1    0    0    0  501 -0.00000000000E+00 -0.00000000000E+00 -0.65267735133E+02  0.65267735133E+02  0.00000000000E+00 0.  1.
         25    2    1    2    0    0 -0.15477681163E+02  0.83962409800E+02  0.27495005635E+03  0.31390331313E+03  0.12509401120E+03 0.  0.
          5    1    3    3  502    0  0.19939987051E+02  0.88892112763E+02  0.25888645775E+03  0.27447965535E+03  0.41800000000E+01 0.  1.
         -5    1    3    3    0  502 -0.35417668215E+02 -0.49297029625E+01  0.16063598595E+02  0.39423657782E+02  0.41800000000E+01 0.  1.
        -11    1    1    2    0    0  0.29403676944E+02 -0.45600633366E+02  0.57767634253E+02  0.79253350392E+02  0.00000000000E+00 0. -1.
         11    1    1    2    0    0 -0.13925995780E+02 -0.38361776434E+02 -0.23167774518E+02  0.46928722823E+02  0.00000000000E+00 0.  1.
</event>
<event>
 7    1  0.2794945E-009  0.7704184E+02  0.7561462E-02  0.1337662E+00
          1   -1    0    0  501    0  0.00000000000E+00  0.00000000000E+00  0.13914693412E+03  0.13914693412E+03  0.00000000000E+00 0. -1.
         -1   -1    0    0    0  501 -0.00000000000E+00 -0.00000000000E+00 -0.13377440195E+03  0.13377440195E+03  0.00000000000E+00 0.  1.
         25    2    1    2    0    0  0.39431654746E+02 -0.45776575789E+02  0.58301667904E+02  0.15065400111E+03  0.12508874163E+03 0.  0.
          5    1    3    3  502    0 -0.13432555578E+02 -0.57866710281E+01 -0.33821465833E+02  0.37084809047E+02  0.41800000000E+01 0.  1.
         -5    1    3    3    0  502  0.52864210324E+02 -0.39989904761E+02  0.92123133737E+02  0.11356919206E+03  0.41800000000E+01 0.  1.
        -11    1    1    2    0    0 -0.45047669660E+02  0.26253049049E+02 -0.75593528084E+02  0.91830804278E+02  0.00000000000E+00 0.  1.
         11    1    1    2    0    0  0.56160149144E+01  0.19523526740E+02  0.22664392351E+02  0.30436530692E+02  0.00000000000E+00 0. -1.
</event>
<event>
 7    1  0.2794945E-009  0.1067671E+03  0.7561462E-02  0.1266677E+00
          1   -1    0    0  501    0  0.00000000000E+00  0.00000000000E+00  0.54700872574E+03  0.54700872574E+03  0.00000000000E+00 0. -1.
         -1   -1    0    0    0  501 -0.00000000000E+00 -0.00000000000E+00 -0.30510764905E+02  0.30510764905E+02  0.00000000000E+00 0.  1.
         25    2    1    2    0    0  0.49488374288E+02 -0.19411704579E+02  0.37562416106E+03  0.39945744714E+03  0.12508728248E+03 0.  0.
          5    1    3    3  502    0  0.69734194329E+02  0.32219595923E+02  0.26017087456E+03  0.27130668364E+03  0.41800000000E+01 0.  1.
         -5    1    3    3    0  502 -0.20245820041E+02 -0.51631300503E+02  0.11545328650E+03  0.12815076350E+03  0.41800000000E+01 0.  1.
        -11    1    1    2    0    0 -0.31813508315E+02 -0.20148806475E+02  0.82646926962E+01  0.38553584257E+02  0.00000000000E+00 0.  1.
         11    1    1    2    0    0 -0.17674865973E+02  0.39560511054E+02  0.13260910708E+03  0.13950845925E+03  0.00000000000E+00 0. -1.
</event>
<event>
 7    1  0.2794945E-009  0.1746858E+03  0.7561462E-02  0.1173048E+00
          3   -1    0    0  501    0  0.00000000000E+00  0.00000000000E+00  0.14807800414E+03  0.14807800414E+03  0.00000000000E+00 0. -1.
         -3   -1    0    0    0  501 -0.00000000000E+00 -0.00000000000E+00 -0.22868188869E+03  0.22868188869E+03  0.00000000000E+00 0.  1.
         25    2    1    2    0    0  0.15496430553E+02 -0.14383766213E+03 -0.13370013931E+02  0.19171735793E+03  0.12508947058E+03 0.  0.
          5    1    3    3  502    0 -0.38848483979E+02 -0.60196312815E+01  0.12091256121E+02  0.41341402284E+02  0.41800000000E+01 0.  1.
         -5    1    3    3    0  502  0.54344914532E+02 -0.13781803085E+03 -0.25461270052E+02  0.15037595564E+03  0.41800000000E+01 0.  1.
        -11    1    1    2    0    0  0.23940269366E+02  0.99298555755E+02 -0.72593474448E+02  0.12531221890E+03  0.00000000000E+00 0. -1.
         11    1    1    2    0    0 -0.39436699919E+02  0.44539106376E+02  0.53596038309E+01  0.59730316009E+02  0.00000000000E+00 0.  1.
</event>
<event>
 7    1  0.2794945E-009  0.2100273E+03  0.7561462E-02  0.1141544E+00
          1   -1    0    0  501    0  0.00000000000E+00  0.00000000000E+00  0.76926065127E+03  0.76926065127E+03  0.00000000000E+00 0. -1.
         -1   -1    0    0    0  501 -0.00000000000E+00 -0.00000000000E+00 -0.66980274388E+02  0.66980274388E+02  0.00000000000E+00 0.  1.
         25    2    1    2    0    0  0.89340793720E+02  0.15533479238E+03  0.51901355919E+03  0.56314555371E+03  0.12508862820E+03 0.  0.
          5    1    3    3  502    0  0.49958432078E+02 -0.71961127322E+01  0.10371304620E+03  0.11541879104E+03  0.41800000000E+01 0. -1.
         -5    1    3    3    0  502  0.39382361641E+02  0.16253090511E+03  0.41530051299E+03  0.44772676267E+03  0.41800000000E+01 0. -1.
        -11    1    1    2    0    0 -0.30455836351E+02 -0.13715225498E+03  0.13464840094E+03  0.19459828080E+03  0.00000000000E+00 0.  1.
         11    1    1    2    0    0 -0.58884957369E+02 -0.18182537397E+02  0.48618416754E+02  0.78497091145E+02  0.00000000000E+00 0. -1.
</event>
<event>
 7    1  0.2794945E-009  0.1027147E+03  0.7561462E-02  0.1274689E+00
         -1   -1    0    0    0  501 -0.00000000000E+00  0.00000000000E+00  0.54272710087E+03  0.54272710087E+03  0.00000000000E+00 0.  1.
          1   -1    0    0  501    0  0.00000000000E+00 -0.00000000000E+00 -0.10234123417E+03  0.10234123417E+03  0.00000000000E+00 0. -1.
         25    2    1    2    0    0  0.42240993018E+01 -0.32772616309E+02  0.51161899230E+03  0.52772411394E+03  0.12508740847E+03 0.  0.
          5    1    3    3  502    0  0.40900134353E+02  0.28068681586E+02  0.12386830302E+03  0.13349719387E+03  0.41800000000E+01 0. -1.
         -5    1    3    3    0  502 -0.36676035051E+02 -0.60841297895E+02  0.38775068927E+03  0.39422692007E+03  0.41800000000E+01 0. -1.
        -11    1    1    2    0    0 -0.39299982751E+02  0.47429491875E+01 -0.89840394050E+01  0.40591836313E+02  0.00000000000E+00 0.  1.
         11    1    1    2    0    0  0.35075883449E+02  0.28029667121E+02 -0.62249086190E+02  0.76752384784E+02  0.00000000000E+00 0. -1.
</event>
<event>
 7    1  0.4201537E-009  0.8325100E+02  0.7561462E-02  0.1320071E+00
          2   -1    0    0  501    0  0.00000000000E+00  0.00000000000E+00  0.24238016248E+03  0.24238016248E+03  0.00000000000E+00 0.  1.
         -2   -1    0    0    0  501 -0.00000000000E+00 -0.00000000000E+00 -0.57692155715E+02  0.57692155715E+02  0.00000000000E+00 0. -1.
         25    2    1    2    0    0 -0.79195927676E+01 -0.17995126949E+02  0.15865601239E+03  0.20299144399E+03  0.12508897442E+03 0.  0.
          5    1    3    3  502    0 -0.18915663129E+02  0.39442890123E+02  0.13098449591E+03  0.13815916351E+03  0.41800000000E+01 0.  1.
         -5    1    3    3    0  502  0.10996070361E+02 -0.57438017073E+02  0.27671516488E+02  0.64832280489E+02  0.41800000000E+01 0.  1.
        -11    1    1    2    0    0  0.32721978965E+02  0.21096020831E+02 -0.20692881873E+02  0.44090422571E+02  0.00000000000E+00 0. -1.
         11    1    1    2    0    0 -0.24802386197E+02 -0.31008938817E+01  0.46724876247E+02  0.52990451633E+02  0.00000000000E+00 0.  1.
</event>
<event>
 7    1  0.2794945E-009  0.1167453E+03  0.7561462E-02  0.1248565E+00
          3   -1    0    0  501    0  0.00000000000E+00  0.00000000000E+00  0.77140628222E+02  0.77140628222E+02  0.00000000000E+00 0. -1.
         -3   -1    0    0    0  501 -0.00000000000E+00 -0.00000000000E+00 -0.27915266105E+03  0.27915266105E+03  0.00000000000E+00 0.  1.
         25    2    1    2    0    0 -0.63546743293E+02 -0.14914611485E+02 -0.18416376259E+02  0.14228473991E+03  0.12508057435E+03 0.  0.
          5    1    3    3  502    0 -0.16746516573E+02 -0.63926153576E+02 -0.31196750770E+02  0.73196370039E+02  0.41800000000E+01 0. -1.
         -5    1    3    3    0  502 -0.46800226720E+02  0.49011542091E+02  0.12780374511E+02  0.69088369874E+02  0.41800000000E+01 0. -1.
        -11    1    1    2    0    0  0.40748701733E+02 -0.28921568297E+02 -0.13802651978E+03  0.14679316731E+03  0.00000000000E+00 0.  1.
         11    1    1    2    0    0  0.22798041560E+02  0.43836179782E+02 -0.45569136792E+02  0.67215382055E+02  0.00000000000E+00 0. -1.
</event>
<event>
 7    1  0.2794945E-009  0.1295458E+03  0.7561462E-02  0.1228131E+00
          2   -1    0    0  501    0  0.00000000000E+00  0.00000000000E+00  0.22308886783E+02  0.22308886783E+02  0.00000000000E+00 0. -1.
         -2   -1    0    0    0  501 -0.00000000000E+00 -0.00000000000E+00 -0.81690935085E+03  0.81690935085E+03  0.00000000000E+00 0.  1.
         25    2    1    2    0    0 -0.22801867455E+02 -0.76794613356E+02 -0.46301305837E+03  0.48625740621E+03  0.12509130695E+03 0.  0.
          5    1    3    3  502    0 -0.42472208623E+02  0.19902283886E+02 -0.19559176831E+03  0.20118052003E+03  0.41800000000E+01 0.  1.
         -5    1    3    3    0  502  0.19670341168E+02 -0.96696897241E+02 -0.26742129006E+03  0.28507688619E+03  0.41800000000E+01 0.  1.
        -11    1    1    2    0    0 -0.28230794535E+02  0.11793562098E+02 -0.15502604588E+03  0.15801626742E+03  0.00000000000E+00 0.  1.
         11    1    1    2    0    0  0.51032661990E+02  0.65001051258E+02 -0.17656135981E+03  0.19494456400E+03  0.00000000000E+00 0. -1.
</event>
<event>
 7    1  0.2794945E-009  0.1017555E+03  0.7561462E-02  0.1276647E+00
         -3   -1    0    0    0  501 -0.00000000000E+00  0.00000000000E+00  0.58565213227E+03  0.58565213227E+03  0.00000000000E+00 0.  1.
          3   -1    0    0  501    0  0.00000000000E+00 -0.00000000000E+00 -0.21600036705E+02  0.21600036705E+02  0.00000000000E+00 0. -1.
         25    2    1    2    0    0 -0.42820990533E+01 -0.93339421197E+01  0.24382805224E+03  0.27423525610E+03  0.12508955906E+03 0.  0.
          5    1    3    3  502    0  0.57360938778E+02 -0.95724920671E+01  0.15852676446E+03  0.16890860651E+03  0.41800000000E+01 0. -1.
         -5    1    3    3    0  502 -0.61643037831E+02  0.23854994736E+00  0.85301287776E+02  0.10532664960E+03  0.41800000000E+01 0. -1.
        -11    1    1    2    0    0 -0.39172168248E+02  0.77953103436E+01  0.86408603698E+02  0.95192817069E+02  0.00000000000E+00 0. -1.
         11    1    1    2    0    0  0.43454267301E+02  0.15386317761E+01  0.23381543963E+03  0.23782409580E+03  0.00000000000E+00 0.  1.
</event>
<event>
 7    1  0.2794945E-009  0.1191101E+03  0.7561462E-02  0.1244572E+00
         -3   -1    0    0    0  501 -0.00000000000E+00  0.00000000000E+00  0.38655309154E+02  0.38655309154E+02  0.00000000000E+00 0.  1.
          3   -1    0    0  501    0  0.00000000000E+00 -0.00000000000E+00 -0.52864783620E+03  0.52864783620E+03  0.00000000000E+00 0. -1.
         25    2    1    2    0    0  0.31473655489E+02  0.87228145428E+02 -0.24586231671E+03  0.29102276964E+03  0.12508650338E+03 0.  0.
          5    1    3    3  502    0  0.40801733147E+01  0.92524246780E+02 -0.79030369513E+02  0.12182223016E+03  0.41800000000E+01 0. -1.
         -5    1    3    3    0  502  0.27393482174E+02 -0.52961013517E+01 -0.16683194720E+03  0.16920053948E+03  0.41800000000E+01 0. -1.
        -11    1    1    2    0    0 -0.62372409665E+01 -0.91492986191E+02 -0.22868403632E+03  0.24638640012E+03  0.00000000000E+00 0.  1.
         11    1    1    2    0    0 -0.25236414522E+02  0.42648407624E+01 -0.15446174014E+02  0.29893975586E+02  0.00000000000E+00 0. -1.
</event>
<event>
 7    1  0.2794945E-009  0.1068083E+03  0.7561462E-02  0.1266597E+00
          1   -1    0    0  501    0  0.00000000000E+00  0.00000000000E+00  0.26836213919E+03  0.26836213919E+03  0.00000000000E+00 0. -1.
         -1   -1    0    0    0  501 -0.00000000000E+00 -0.00000000000E+00 -0.46961521347E+02  0.46961521347E+02  0.00000000000E+00 0.  1.
         25    2    1    2    0    0 -0.16486034999E+02  0.76056013366E+01  0.16026986950E+03  0.20411817869E+03  0.12509262680E+03 0.  0.
          5    1    3    3  502    0 -0.38147213182E+02 -0.50831177100E+02  0.87333333245E+02  0.10809071160E+03  0.41800000000E+01 0.  1.
         -5    1    3    3    0  502  0.21661178183E+02  0.58436778437E+02  0.72936536259E+02  0.96027467090E+02  0.41800000000E+01 0.  1.
        -11    1    1    2    0    0  0.44308244089E+02  0.19691453704E+02  0.52148291268E+02  0.71206868527E+02  0.00000000000E+00 0. -1.
         11    1    1    2    0    0 -0.27822209091E+02 -0.27297055041E+02  0.89824570745E+01  0.39998613322E+02  0.00000000000E+00 0.  1.
</event>
<event>
 7    1  0.2794945E-009  0.1181516E+03  0.7561462E-02  0.1246178E+00
         -2   -1    0    0    0  501 -0.00000000000E+00  0.00000000000E+00  0.55050499321E+02  0.55050499321E+02  0.00000000000E+00 0.  1.
          2   -1    0    0  501    0  0.00000000000E+00 -0.00000000000E+00 -0.41718637102E+03  0.41718637102E+03  0.00000000000E+00 0. -1.
         25    2    1    2    0    0  0.52955834805E+02  0.74957184800E+02 -0.11184932651E+03  0.19125828900E+03  0.12508621537E+03 0.  0.
          5    1    3    3  502    0  0.10233405098E+02  0.85037905423E+02 -0.11890655855E+03  0.14660289904E+03  0.41800000000E+01 0.  1.
         -5    1    3    3    0  502  0.42722429707E+02 -0.10080720623E+02  0.70572320425E+01  0.44655389960E+02  0.41800000000E+01 0.  1.
        -11    1    1    2    0    0 -0.11429827960E+02 -0.61868947169E+02 -0.64287987284E+02  0.89951947728E+02  0.00000000000E+00 0.  1.
         11    1    1    2    0    0 -0.41526006845E+02 -0.13088237631E+02 -0.18599855790E+03  0.19102663361E+03  0.00000000000E+00 0. -1.
</event>
<event>
 7    1  0.2794945E-009  0.1068081E+03  0.7561462E-02  0.1266598E+00
          2   -1    0    0  501    0  0.00000000000E+00  0.00000000000E+00  0.13084729416E+04  0.13084729416E+04  0.00000000000E+00 0.  1.
         -2   -1    0    0    0  501 -0.00000000000E+00 -0.00000000000E+00 -0.12916310515E+02  0.12916310515E+02  0.00000000000E+00 0. -1.
         25    2    1    2    0    0 -0.15942604616E+02 -0.52555753493E+02  0.96636130597E+03  0.97597009179E+03  0.12508865859E+03 0.  0.
          5    1    3    3  502    0 -0.21675969545E+02  0.35316316434E+02  0.18384098443E+03  0.18849952207E+03  0.41800000000E+01 0. -1.
         -5    1    3    3    0  502  0.57333649297E+01 -0.87872069927E+02  0.78252032154E+03  0.78747056972E+03  0.41800000000E+01 0. -1.
        -11    1    1    2    0    0 -0.24656834811E+02  0.21050293845E+02  0.39031955769E+02  0.50740200482E+02  0.00000000000E+00 0. -1.
         11    1    1    2    0    0  0.40599439426E+02  0.31505459647E+02  0.29016336932E+03  0.29467895983E+03  0.00000000000E+00 0.  1.
</event>
<event>
 7    1  0.2794945E-009  0.1006581E+03  0.7561462E-02  0.1278918E+00
          4   -1    0    0  501    0  0.00000000000E+00  0.00000000000E+00  0.35678769859E+02  0.35678769859E+02  0.00000000000E+00 0. -1.
         -4   -1    0    0    0  501 -0.00000000000E+00 -0.00000000000E+00 -0.47162141231E+03  0.47162141231E+03  0.00000000000E+00 0.  1.
         25    2    1    2    0    0 -0.18612841040E+02 -0.37390511155E+02 -0.35264210146E+03  0.37649428205E+03  0.12508798711E+03 0.  0.
          5    1    3    3  502    0  0.42985333068E+02 -0.50832398452E+02 -0.14839333283E+03  0.16269519114E+03  0.41800000000E+01 0.  1.
         -5    1    3    3    0  502 -0.61598174108E+02  0.13441887296E+02 -0.20424876864E+03  0.21379909092E+03  0.41800000000E+01 0.  1.
        -11    1    1    2    0    0  0.39736250567E+02  0.24301980236E+02 -0.29178552070E+01  0.46669794638E+02  0.00000000000E+00 0. -1.
         11    1    1    2    0    0 -0.21123409527E+02  0.13088530919E+02 -0.80382685780E+02  0.84136105477E+02  0.00000000000E+00 0.  1.
</event>
<event>
 7    1  0.2794945E-009  0.9993436E+02  0.7561462E-02  0.1280434E+00
         -1   -1    0    0    0  501 -0.00000000000E+00  0.00000000000E+00  0.84093088854E+02  0.84093088854E+02  0.00000000000E+00 0.  1.
          1   -1    0    0  501    0  0.00000000000E+00 -0.00000000000E+00 -0.16129153942E+03  0.16129153942E+03  0.00000000000E+00 0. -1.
         25    2    1    2    0    0 -0.18612246105E+02 -0.18431396626E+02 -0.22634418729E+02  0.12979352697E+03  0.12509160901E+03 0.  0.
          5    1    3    3  502    0 -0.70921123602E+02  0.11047521596E+01 -0.56357300927E+01  0.71275943375E+02  0.41800000000E+01 0.  1.
         -5    1    3    3    0  502  0.52308877497E+02 -0.19536148786E+02 -0.16998688637E+02  0.58517583595E+02  0.41800000000E+01 0.  1.
        -11    1    1    2    0    0  0.31381571044E+02  0.38107158899E+02  0.68608100020E+01  0.49840036862E+02  0.00000000000E+00 0.  1.
         11    1    1    2    0    0 -0.12769324939E+02 -0.19675762273E+02 -0.61424841840E+02  0.65751064444E+02  0.00000000000E+00 0. -1.
</event>
<event>
 7    1  0.2794945E-009  0.1425013E+03  0.7561462E-02  0.1210002E+00
          2   -1    0    0  501    0  0.00000000000E+00  0.00000000000E+00  0.18514578501E+03  0.18514578501E+03  0.00000000000E+00 0. -1.
         -2   -1    0    0    0  501 -0.00000000000E+00 -0.00000000000E+00 -0.18854557418E+03  0.18854557418E+03  0.00000000000E+00 0.  1.
         25    2    1    2    0    0  0.56369568352E+02  0.11275459188E+03  0.83430024286E+02  0.19621079446E+03  0.12508789183E+03 0.  0.
          5    1    3    3  502    0  0.73899508971E+02  0.93663240588E+02  0.11847487707E+02  0.11996572606E+03  0.41800000000E+01 0.  1.
         -5    1    3    3    0  502 -0.17529940619E+02  0.19091351295E+02  0.71582536579E+02  0.76245068401E+02  0.41800000000E+01 0.  1.
        -11    1    1    2    0    0 -0.68288521053E+02 -0.84087859428E+02 -0.29475246814E+02  0.11226255113E+03  0.00000000000E+00 0. -1.
         11    1    1    2    0    0  0.11918952701E+02 -0.28666732456E+02 -0.57354566642E+02  0.65218013600E+02  0.00000000000E+00 0.  1.
</event>
<event>
 7    1  0.2794945E-009  0.1109562E+03  0.7561462E-02  0.1258809E+00
          3   -1    0    0  501    0  0.00000000000E+00  0.00000000000E+00  0.69732291331E+02  0.69732291331E+02  0.00000000000E+00 0. -1.
         -3   -1    0    0    0  501 -0.00000000000E+00 -0.00000000000E+00 -0.20596702426E+03  0.20596702426E+03  0.00000000000E+00 0.  1.
         25    2    1    2    0    0 -0.16110533298E+02  0.50286155692E+02 -0.73437549363E+02  0.15436784358E+03  0.12509240880E+03 0.  0.
          5    1    3    3  502    0 -0.62815550580E+02 -0.51015436199E+01 -0.32123920927E+02  0.70860693178E+02  0.41800000000E+01 0. -1.
         -5    1    3    3    0  502  0.46705017282E+02  0.55387699312E+02 -0.41313628436E+02  0.83507150406E+02  0.41800000000E+01 0. -1.
        -11    1    1    2    0    0 -0.26417923021E+02 -0.26649000911E+02 -0.62235109078E+02  0.72672448069E+02  0.00000000000E+00 0.  1.
         11    1    1    2    0    0  0.42528456318E+02 -0.23637154780E+02 -0.56207448813E+00  0.48659023939E+02  0.00000000000E+00 0. -1.
</event>
<event>
 7    1  0.2794945E-009  0.2178514E+03  0.7561462E-02  0.1135495E+00
          1   -1    0    0  501    0  0.00000000000E+00  0.00000000000E+00  0.39578936843E+03  0.39578936843E+03  0.00000000000E+00 0. -1.
         -1   -1    0    0    0  501 -0.00000000000E+00 -0.00000000000E+00 -0.13117438327E+03  0.13117438327E+03  0.00000000000E+00 0.  1.
         25    2    1    2    0    0  0.10733969911E+03 -0.16424836684E+03  0.88751900323E+02  0.24903852150E+03  0.12507577049E+03 0.  0.
          5    1    3    3  502    0  0.13450916745E+01 -0.10563075451E+03  0.14002329892E+02  0.10664522123E+03  0.41800000000E+01 0. -1.
         -5    1    3    3    0  502  0.10599460744E+03 -0.58617612334E+02  0.74749570432E+02  0.14239330027E+03  0.41800000000E+01 0. -1.
        -11    1    1    2    0    0 -0.88078798708E+02  0.16750533599E+03  0.13448637722E+03  0.23216911514E+03  0.00000000000E+00 0.  1.
         11    1    1    2    0    0 -0.19260900402E+02 -0.32569691463E+01  0.41376707617E+02  0.45756115062E+02  0.00000000000E+00 0. -1.
</event>
<event>
 7    1  0.2794945E-009  0.1786130E+03  0.7561462E-02  0.1169152E+00
          1   -1    0    0  501    0  0.00000000000E+00  0.00000000000E+00  0.84993874785E+02  0.84993874785E+02  0.00000000000E+00 0. -1.
         -1   -1    0    0    0  501 -0.00000000000E+00 -0.00000000000E+00 -0.42828214287E+03  0.42828214287E+03  0.00000000000E+00 0.  1.
         25    2    1    2    0    0 -0.37502242749E+01 -0.14480125182E+03 -0.10049883749E+03  0.21616858494E+03  0.12508946426E+03 0.  0.
          5    1    3    3  502    0  0.21006320684E+02  0.14467234042E+02  0.60986033862E+00  0.25853639959E+02  0.41800000000E+01 0. -1.
         -5    1    3    3    0  502 -0.24756544959E+02 -0.15926848586E+03 -0.10110869783E+03  0.19031494498E+03  0.41800000000E+01 0. -1.
        -11    1    1    2    0    0 -0.30030111907E+02  0.12971950651E+03 -0.17518015988E+03  0.22003873842E+03  0.00000000000E+00 0. -1.
         11    1    1    2    0    0  0.33780336182E+02  0.15081745311E+02 -0.67609270716E+02  0.77068694299E+02  0.00000000000E+00 0.  1.
</event>
<event>
 7    1  0.2794945E-009  0.9746280E+02  0.7561462E-02  0.1285724E+00
         -1   -1    0    0    0  501 -0.00000000000E+00  0.00000000000E+00  0.34373675883E+03  0.34373675883E+03  0.00000000000E+00 0.  1.
          1   -1    0    0  501    0  0.00000000000E+00 -0.00000000000E+00 -0.41750291058E+02  0.41750291058E+02  0.00000000000E+00 0. -1.
         25    2    1    2    0    0  0.62469310407E+01 -0.33967649960E+02  0.10967057705E+03  0.16992541774E+03  0.12511669246E+03 0.  0.
          5    1    3    3  502    0  0.21058740238E+02  0.41095930140E+02  0.69122805348E+02  0.83233290417E+02  0.41800000000E+01 0. -1.
         -5    1    3    3    0  502 -0.14811809198E+02 -0.75063580100E+02  0.40547771706E+02  0.86692127321E+02  0.41800000000E+01 0. -1.
        -11    1    1    2    0    0  0.13646589759E+02  0.46474076479E+02  0.18457006189E+03  0.19081974988E+03  0.00000000000E+00 0.  1.
         11    1    1    2    0    0 -0.19893520800E+02 -0.12506426519E+02  0.77458288226E+01  0.24741882269E+02  0.00000000000E+00 0. -1.
</event>
<event>
 7    1  0.2794945E-009  0.2945394E+03  0.7561462E-02  0.1088003E+00
          2   -1    0    0  501    0  0.00000000000E+00  0.00000000000E+00  0.22221365394E+04  0.22221365394E+04  0.00000000000E+00 0. -1.
         -2   -1    0    0    0  501 -0.00000000000E+00 -0.00000000000E+00 -0.45448369714E+02  0.45448369714E+02  0.00000000000E+00 0.  1.
         25    2    1    2    0    0  0.27785612884E+03 -0.18160317858E+02  0.69916652215E+03  0.76289845793E+03  0.12508559443E+03 0.  0.
          5    1    3    3  502    0  0.14595445597E+03  0.52609702982E+02  0.33877480297E+03  0.37263430276E+03  0.41800000000E+01 0.  1.
         -5    1    3    3    0  502  0.13190167288E+03 -0.70770020840E+02  0.36039171918E+03  0.39026415517E+03  0.41800000000E+01 0.  1.
        -11    1    1    2    0    0 -0.16709756388E+03  0.38607068473E+02  0.84790822820E+03  0.86507829995E+03  0.00000000000E+00 0. -1.
         11    1    1    2    0    0 -0.11075856497E+03 -0.20446750615E+02  0.62961341935E+03  0.63960815126E+03  0.00000000000E+00 0.  1.
</event>
<event>
 7    1  0.2794945E-009  0.8283900E+02  0.7561462E-02  0.1321182E+00
         -1   -1    0    0    0  501 -0.00000000000E+00  0.00000000000E+00  0.14576373746E+03  0.14576373746E+03  0.00000000000E+00 0.  1.
          1   -1    0    0  501    0  0.00000000000E+00 -0.00000000000E+00 -0.15046042202E+03  0.15046042202E+03  0.00000000000E+00 0. -1.
         25    2    1    2    0    0 -0.93062672783E+01 -0.30632147043E+02 -0.98431271420E+02  0.16236210428E+03  0.12509117743E+03 0.  0.
          5    1    3    3  502    0  0.26174381352E+02 -0.71517842021E+01 -0.11369877826E+03  0.11696636625E+03  0.41800000000E+01 0. -1.
         -5    1    3    3    0  502 -0.35480648631E+02 -0.23480362841E+02  0.15267506837E+02  0.45395738032E+02  0.41800000000E+01 0. -1.
        -11    1    1    2    0    0  0.27951731463E+01 -0.32191482002E+02  0.28954661601E+02  0.43387520496E+02  0.00000000000E+00 0.  1.
         11    1    1    2    0    0  0.65110941320E+01  0.62823629045E+02  0.64779925259E+02  0.90474534703E+02  0.00000000000E+00 0. -1.
</event>
<event>
 7    1  0.2794945E-009  0.1187564E+03  0.7561462E-02  0.1245163E+00
         -2   -1    0    0    0  501 -0.00000000000E+00  0.00000000000E+00  0.27091781083E+02  0.27091781083E+02  0.00000000000E+00 0.  1.
          2   -1    0    0  501    0  0.00000000000E+00 -0.00000000000E+00 -0.74567764746E+03  0.74567764746E+03  0.00000000000E+00 0. -1.
         25    2    1    2    0    0 -0.18680045447E+02  0.88756961114E+02 -0.36933554186E+03  0.40035360132E+03  0.12509005303E+03 0.  0.
          5    1    3    3  502    0 -0.28742186771E+02  0.73511642617E+01 -0.97490458561E+01  0.31506653448E+02  0.41800000000E+01 0.  1.
         -5    1    3    3    0  502  0.10062141324E+02  0.81405796853E+02 -0.35958649600E+03  0.36884694788E+03  0.41800000000E+01 0.  1.
        -11    1    1    2    0    0 -0.31176318273E+02 -0.60633609731E+02 -0.14386193262E+03  0.15920004117E+03  0.00000000000E+00 0. -1.
         11    1    1    2    0    0  0.49856363720E+02 -0.28123351383E+02 -0.20538839190E+03  0.21321578605E+03  0.00000000000E+00 0.  1.
</event>
<event>
 7    1  0.2794945E-009  0.2092782E+03  0.7561462E-02  0.1142139E+00
          1   -1    0    0  501    0  0.00000000000E+00  0.00000000000E+00  0.43570662621E+03  0.43570662621E+03  0.00000000000E+00 0. -1.
         -1   -1    0    0    0  501 -0.00000000000E+00 -0.00000000000E+00 -0.12392889823E+03  0.12392889823E+03  0.00000000000E+00 0.  1.
         25    2    1    2    0    0 -0.19704358742E+03 -0.27762322644E+01  0.90282726871E+02  0.25025909212E+03  0.12507901346E+03 0.  0.
          5    1    3    3  502    0 -0.17204087544E+02  0.15366875554E+02  0.63242149623E+02  0.67447486102E+02  0.41800000000E+01 0.  1.
         -5    1    3    3    0  502 -0.17983949988E+03 -0.18143107818E+02  0.27040577248E+02  0.18281160602E+03  0.41800000000E+01 0.  1.
        -11    1    1    2    0    0  0.55235017074E+02  0.39404049105E+02  0.88702651685E+02  0.11167697441E+03  0.00000000000E+00 0. -1.
         11    1    1    2    0    0  0.14180857035E+03 -0.36627816841E+02  0.13279234943E+03  0.19769945791E+03  0.00000000000E+00 0.  1.
</event>
<event>
 7    1  0.2794945E-009  0.1217063E+03  0.7561462E-02  0.1240308E+00
          1   -1    0    0  501    0  0.00000000000E+00  0.00000000000E+00  0.19265977261E+04  0.19265977261E+04  0.00000000000E+00 0.  1.
         -1   -1    0    0    0  501 -0.00000000000E+00 -0.00000000000E+00 -0.12527760568E+02  0.12527760568E+02  0.00000000000E+00 0. -1.
         25    2    1    2    0    0 -0.77567080609E+02 -0.67300226200E+02  0.12598975224E+04  0.12702492059E+04  0.12508119716E+03 0.  0.
          5    1    3    3  502    0 -0.52635231889E+02 -0.31412685623E+02  0.11537253174E+04  0.11553600326E+04  0.41800000000E+01 0.  1.
         -5    1    3    3    0  502 -0.24931848719E+02 -0.35887540577E+02  0.10617220494E+03  0.11488917334E+03  0.41800000000E+01 0.  1.
        -11    1    1    2    0    0  0.62114706044E+02  0.90762951351E+02  0.55546475774E+03  0.56624839702E+03  0.00000000000E+00 0. -1.
         11    1    1    2    0    0  0.15452374565E+02 -0.23462725150E+02  0.98707685459E+02  0.10262788373E+03  0.00000000000E+00 0.  1.
</event>
<event>
 6    1  0.2794945E-009  0.1167077E+03  0.7561462E-02  0.1248629E+00
         -3   -1    0    0    0  501 -0.00000000000E+00  0.00000000000E+00  0.24400361866E+02  0.24400361866E+02  0.00000000000E+00 0. -1.
          3   -1    0    0  501    0  0.00000000000E+00 -0.00000000000E+00 -0.63756072102E+03  0.63756072102E+03  0.00000000000E+00 0.  1.
          5    1    1    2  502    0 -0.37503291929E+02  0.32591594653E+02 -0.17762360599E+03  0.18448936759E+03  0.41800000000E+01 0.  1.
         -5    1    1    2    0  502  0.80200386667E+02 -0.19709614379E+02 -0.27365300703E+03  0.28587411841E+03  0.41800000000E+01 0.  1.
        -11    1    1    2    0    0 -0.19965468828E+02 -0.51953829929E+02 -0.10596734014E+03  0.11969501897E+03  0.00000000000E+00 0. -1.
         11    1    1    2    0    0 -0.22731625910E+02  0.39071849655E+02 -0.55916405986E+02  0.71902577912E+02  0.00000000000E+00 0.  1.
</event>
<event>
 7    1  0.2794945E-009  0.1272789E+03  0.7561462E-02  0.1231550E+00
         -1   -1    0    0    0  501 -0.00000000000E+00  0.00000000000E+00  0.13321962062E+02  0.13321962062E+02  0.00000000000E+00 0.  1.
          1   -1    0    0  501    0  0.00000000000E+00 -0.00000000000E+00 -0.17509346320E+04  0.17509346320E+04  0.00000000000E+00 0. -1.
         25    2    1    2    0    0  0.75168588883E+02 -0.30120336687E+02 -0.13636204623E+04  0.13717381722E+04  0.12508915372E+03 0.  0.
          5    1    3    3  502    0  0.98710468624E+02 -0.43605451642E+02 -0.12573603438E+04  0.12619895794E+04  0.41800000000E+01 0. -1.
         -5    1    3    3    0  502 -0.23541879741E+02  0.13485114955E+02 -0.10626011848E+03  0.10974859273E+03  0.41800000000E+01 0. -1.
        -11    1    1    2    0    0 -0.34994148249E+02 -0.30479092808E+02 -0.15143659808E+03  0.15838752712E+03  0.00000000000E+00 0.  1.
         11    1    1    2    0    0 -0.40174440634E+02  0.60599429495E+02 -0.22255560960E+03  0.23413089480E+03  0.00000000000E+00 0. -1.
</event>
<event>
 7    1  0.2794945E-009  0.8958359E+02  0.7561462E-02  0.1303863E+00
         -1   -1    0    0    0  501 -0.00000000000E+00  0.00000000000E+00  0.58935198349E+02  0.58935198349E+02  0.00000000000E+00 0.  1.
          1   -1    0    0  501    0  0.00000000000E+00 -0.00000000000E+00 -0.22611498234E+03  0.22611498234E+03  0.00000000000E+00 0. -1.
         25    2    1    2    0    0 -0.28179486974E+02  0.25287028552E+01 -0.61125856892E+02  0.14207989378E+03  0.12509935257E+03 0.  0.
          5    1    3    3  502    0  0.24055831674E+02  0.41187188632E+02  0.63578384725E+01  0.48300745905E+02  0.41800000000E+01 0.  1.
         -5    1    3    3    0  502 -0.52235318649E+02 -0.38658485777E+02 -0.67483695364E+02  0.93779147879E+02  0.41800000000E+01 0.  1.
        -11    1    1    2    0    0 -0.16992024385E+02 -0.10954574942E+02 -0.93041589966E+02  0.95212756857E+02  0.00000000000E+00 0. -1.
         11    1    1    2    0    0  0.45171511359E+02  0.84258720872E+01 -0.13012337139E+02  0.47757530053E+02  0.00000000000E+00 0.  1.
</event>
<event>
 7    1  0.2794945E-009  0.1439419E+03  0.7561462E-02  0.1208121E+00
         -1   -1    0    0    0  501 -0.00000000000E+00  0.00000000000E+00  0.70215729523E+02  0.70215729523E+02  0.00000000000E+00 0.  1.
          1   -1    0    0  501    0  0.00000000000E+00 -0.00000000000E+00 -0.38718397847E+03  0.38718397847E+03  0.00000000000E+00 0. -1.
         25    2    1    2    0    0 -0.74460428209E+02 -0.97347842005E+02 -0.17011959379E+03  0.24415107229E+03  0.12509241462E+03 0.  0.
          5    1    3    3  502    0 -0.96605577809E+02 -0.76852854015E+02 -0.75535946769E+02  0.14478311534E+03  0.41800000000E+01 0.  1.
         -5    1    3    3    0  502  0.22145149600E+02 -0.20494987991E+02 -0.94583647023E+02  0.99367956947E+02  0.41800000000E+01 0.  1.
        -11    1    1    2    0    0  0.25022930807E+02  0.76075066658E+02 -0.31676417307E+02  0.86121764070E+02  0.00000000000E+00 0.  1.
         11    1    1    2    0    0  0.49437497401E+02  0.21272775347E+02 -0.11517223784E+03  0.12712687163E+03  0.00000000000E+00 0. -1.
</event>
<event>
 7    1  0.2794945E-009  0.7924598E+02  0.7561462E-02  0.1331205E+00
          1   -1    0    0  501    0  0.00000000000E+00  0.00000000000E+00  0.33267306575E+03  0.33267306575E+03  0.00000000000E+00 0. -1.
         -1   -1    0    0    0  501 -0.00000000000E+00 -0.00000000000E+00 -0.40311048984E+02  0.40311048984E+02  0.00000000000E+00 0.  1.
         25    2    1    2    0    0 -0.31645881887E+00  0.10486287629E+02  0.22847948941E+03  0.26069243492E+03  0.12509039199E+03 0.  0.
          5    1    3    3  502    0  0.32343517410E+02  0.20275984787E+02  0.22254345054E+03  0.22583241233E+03  0.41800000000E+01 0.  1.
         -5    1    3    3    0  502 -0.32659976229E+02 -0.97896971571E+01  0.59360388678E+01  0.34860022593E+02  0.41800000000E+01 0.  1.
        -11    1    1    2    0    0  0.18278271601E+02 -0.44038897458E+02  0.14285345407E+02  0.49775403519E+02  0.00000000000E+00 0.  1.
         11    1    1    2    0    0 -0.17961812782E+02  0.33552609829E+02  0.49597181945E+02  0.62516276294E+02  0.00000000000E+00 0. -1.
</event>
<event>
 7    1  0.2794945E-009  0.7241478E+02  0.7561462E-02  0.1352069E+00
         -1   -1    0    0    0  501 -0.00000000000E+00  0.00000000000E+00  0.27109404923E+03  0.27109404923E+03  0.00000000000E+00 0.  1.
          1   -1    0    0  501    0  0.00000000000E+00 -0.00000000000E+00 -0.53966012431E+02  0.53966012431E+02  0.00000000000E+00 0. -1.
         25    2    1    2    0    0 -0.98920680138E+01  0.23428022507E+02  0.55518453865E+02  0.13918384316E+03  0.12507245192E+03 0.  0.
          5    1    3    3  502    0 -0.40341848414E+00 -0.30459809927E+02  0.74915716000E+02  0.80980242474E+02  0.41800000000E+01 0. -1.
         -5    1    3    3    0  502 -0.94886495297E+01  0.53887832434E+02 -0.19397262135E+02  0.58203600685E+02  0.41800000000E+01 0. -1.
        -11    1    1    2    0    0  0.29423129558E+02 -0.96523915443E+00  0.15166026797E+03  0.15449106486E+03  0.00000000000E+00 0.  1.
         11    1    1    2    0    0 -0.19531061544E+02 -0.22462783352E+02  0.99493149609E+01  0.31385153643E+02  0.00000000000E+00 0. -1.
</event>
<event>
 7    1  0.2794945E-009  0.1936103E+03  0.7561462E-02  0.1155245E+00
         -1   -1    0    0    0  501 -0.00000000000E+00  0.00000000000E+00  0.91765798128E+03  0.91765798128E+03  0.00000000000E+00 0.  1.
          1   -1    0    0  501    0  0.00000000000E+00 -0.00000000000E+00 -0.41876619522E+02  0.41876619522E+02  0.00000000000E+00 0. -1.
         25    2    1    2    0    0 -0.15304465523E+03 -0.60089428094E+02  0.45012433575E+03  0.49526914217E+03  0.12508477002E+03 0.  0.
          5    1    3    3  502    0 -0.10488797280E+03  0.22369544744E+02  0.19117568071E+03  0.21924300824E+03  0.41800000000E+01 0.  1.
         -5    1    3    3    0  502 -0.48156682435E+02 -0.82458972838E+02  0.25894865504E+03  0.27602613393E+03  0.41800000000E+01 0.  1.
        -11    1    1    2    0    0  0.16342727299E+03  0.59460991308E+02  0.38787478718E+03  0.42507756183E+03  0.00000000000E+00 0. -1.
         11    1    1    2    0    0 -0.10382617760E+02  0.62843678595E+00  0.37782238838E+02  0.39187896805E+02  0.00000000000E+00 0.  1.
</event>
<event>
 7    1  0.2794945E-009  0.2259162E+03  0.7561462E-02  0.1129548E+00
          1   -1    0    0  501    0  0.00000000000E+00  0.00000000000E+00  0.56410851451E+03  0.56410851451E+03  0.00000000000E+00 0. -1.
         -1   -1    0    0    0  501 -0.00000000000E+00 -0.00000000000E+00 -0.18160012849E+03  0.18160012849E+03  0.00000000000E+00 0.  1.
         25    2    1    2    0    0  0.16126555521E+03  0.15062923369E+03  0.43273783658E+03  0.50160343971E+03  0.12509288620E+03 0.  0.
          5    1    3    3  502    0  0.30426650103E+02  0.33320471531E+02  0.22481220732E+03  0.22933389592E+03  0.41800000000E+01 0.  1.
         -5    1    3    3    0  502  0.13083890511E+03  0.11730876216E+03  0.20792562927E+03  0.27226954379E+03  0.41800000000E+01 0.  1.
        -11    1    1    2    0    0 -0.16339348528E+02 -0.54336116073E+02 -0.40732264629E+02  0.69846296982E+02  0.00000000000E+00 0.  1.
         11    1    1    2    0    0 -0.14492620669E+03 -0.96293117614E+02 -0.94971859382E+01  0.17425890630E+03  0.00000000000E+00 0. -1.
</event>
<event>
 7    1  0.2794945E-009  0.1034728E+03  0.7561462E-02  0.1273158E+00
          2   -1    0    0  501    0  0.00000000000E+00  0.00000000000E+00  0.12607603358E+04  0.12607603358E+04  0.00000000000E+00 0. -1.
         -2   -1    0    0    0  501 -0.00000000000E+00 -0.00000000000E+00 -0.18252593394E+02  0.18252593394E+02  0.00000000000E+00 0.  1.
         25    2    1    2    0    0 -0.56822530273E+02  0.12177664440E+02  0.10463373684E+04  0.10553891391E+04  0.12508897249E+03 0.  0.
          5    1    3    3  502    0 -0.11257900095E+02  0.42854109511E+02  0.13018467704E+03  0.13758174861E+03  0.41800000000E+01 0. -1.
         -5    1    3    3    0  502 -0.45564630178E+02 -0.30676445071E+02  0.91615269136E+03  0.91780739052E+03  0.41800000000E+01 0. -1.
        -11    1    1    2    0    0  0.41374354204E+02 -0.50940109961E+02  0.12024642489E+03  0.13698881227E+03  0.00000000000E+00 0.  1.
         11    1    1    2    0    0  0.15448176069E+02  0.38762445521E+02  0.75923949104E+02  0.86634977776E+02  0.00000000000E+00 0. -1.
</event>
<event>
 7    1  0.2794945E-009  0.9174186E+02  0.7561462E-02  0.1298688E+00
         -3   -1    0    0    0  501 -0.00000000000E+00  0.00000000000E+00  0.22503695033E+02  0.22503695033E+02  0.00000000000E+00 0.  1.
          3   -1    0    0  501    0  0.00000000000E+00 -0.00000000000E+00 -0.64993560572E+03  0.64993560572E+03  0.00000000000E+00 0. -1.
         25    2    1    2    0    0 -0.67383229946E+01 -0.28837795425E+02 -0.47074059242E+03  0.48797625479E+03  0.12508835456E+03 0.  0.
          5    1    3    3  502    0 -0.29065068399E+02 -0.56859479553E+02 -0.42466750448E+03  0.42946215244E+03  0.41800000000E+01 0. -1.
         -5    1    3    3    0  502  0.22326745404E+02  0.28021684128E+02 -0.46073087937E+02  0.58514102349E+02  0.41800000000E+01 0. -1.
        -11    1    1    2    0    0 -0.27804587424E+02 -0.11693750453E+02 -0.10858915651E+03  0.11270068231E+03  0.00000000000E+00 0. -1.
         11    1    1    2    0    0  0.34542910419E+02  0.40531545879E+02 -0.48102161762E+02  0.71762363657E+02  0.00000000000E+00 0.  1.
</event>
<event>
 7    1  0.2794945E-009  0.1491166E+03  0.7561462E-02  0.1201563E+00
          1   -1    0    0  501    0  0.00000000000E+00  0.00000000000E+00  0.44083897582E+02  0.44083897582E+02  0.00000000000E+00 0. -1.
         -1   -1    0    0    0  501 -0.00000000000E+00 -0.00000000000E+00 -0.79847667792E+03  0.79847667792E+03  0.00000000000E+00 0.  1.
         25    2    1    2    0    0 -0.98912508154E+02  0.95574581469E+02 -0.54604685586E+03  0.57683030850E+03  0.12509137104E+03 0.  0.
          5    1    3    3  502    0 -0.36995491650E+02  0.82212139249E+02 -0.14501222469E+03  0.17080257595E+03  0.41800000000E+01 0. -1.
         -5    1    3    3    0  502 -0.61917016503E+02  0.13362442220E+02 -0.40103463117E+03  0.40602773255E+03  0.41800000000E+01 0. -1.
        -11    1    1    2    0    0  0.45863801601E+02 -0.74367545047E+02 -0.18387759318E+03  0.20358042471E+03  0.00000000000E+00 0.  1.
         11    1    1    2    0    0  0.53048706553E+02 -0.21207036422E+02 -0.24468331298E+02  0.62149842295E+02  0.00000000000E+00 0. -1.
</event>
<event>
 7    1  0.2794945E-009  0.2835347E+03  0.7561462E-02  0.1093774E+00
          1   -1    0    0  501    0  0.00000000000E+00  0.00000000000E+00  0.17935946360E+04  0.17935946360E+04  0.00000000000E+00 0. -1.
         -1   -1    0    0    0  501 -0.00000000000E+00 -0.00000000000E+00 -0.53935568280E+02  0.53935568280E+02  0.00000000000E+00 0.  1.
         25    2    1    2    0    0 -0.23284421718E+03 -0.14210277846E+03  0.11915844426E+04  0.12287920291E+04  0.12508692151E+03 0.  0.
          5    1    3    3  502    0 -0.21190227040E+02  0.16376976330E+02  0.48925219839E+02  0.55931928377E+02  0.41800000000E+01 0.  1.
         -5    1    3    3    0  502 -0.21165399014E+03 -0.15847975479E+03  0.11426592227E+04  0.11728601007E+04  0.41800000000E+01 0.  1.
        -11    1    1    2    0    0  0.12461467025E+03  0.98476724483E+02  0.22643687390E+03  0.27658658530E+03  0.00000000000E+00 0.  1.
         11    1    1    2    0    0  0.10822954694E+03  0.43626053980E+02  0.32163775124E+03  0.34215158986E+03  0.00000000000E+00 0. -1.
</event>
<event>
 7    1  0.2794945E-009  0.1143147E+03  0.7561462E-02  0.1252782E+00
          2   -1    0    0  501    0  0.00000000000E+00  0.00000000000E+00  0.59325504640E+03  0.59325504640E+03  0.00000000000E+00 0. -1.
         -2   -1    0    0    0  501 -0.00000000000E+00 -0.00000000000E+00 -0.23827514729E+02  0.23827514729E+02  0.00000000000E+00 0.  1.
         25    2    1    2    0    0 -0.73244614024E+01  0.39495167851E+02  0.39275153861E+03  0.41414357952E+03  0.12509043670E+03 0.  0.
          5    1    3    3  502    0 -0.59218427967E+02  0.47670040008E+02  0.27064023037E+03  0.28114562351E+03  0.41800000000E+01 0. -1.
         -5    1    3    3    0  502  0.51893966564E+02 -0.81748721575E+01  0.12211130824E+03  0.13299795600E+03  0.41800000000E+01 0. -1.
        -11    1    1    2    0    0 -0.41877320548E+02 -0.12660412134E+02  0.80834569993E+02  0.91914219344E+02  0.00000000000E+00 0. -1.
         11    1    1    2    0    0  0.49201781951E+02 -0.26834755716E+02  0.95841423063E+02  0.11102476227E+03  0.00000000000E+00 0.  1.
</event>
<event>
 7    1  0.2794945E-009  0.1010444E+03  0.7561462E-02  0.1278115E+00
         -2   -1    0    0    0  501 -0.00000000000E+00  0.00000000000E+00  0.32513669570E+02  0.32513669570E+02  0.00000000000E+00 0.  1.
          2   -1    0    0  501    0  0.00000000000E+00 -0.00000000000E+00 -0.57632711389E+03  0.57632711389E+03  0.00000000000E+00 0. -1.
         25    2    1    2    0    0 -0.75716510640E+02  0.32386920456E+02 -0.33914284690E+03  0.37073847406E+03  0.12508894013E+03 0.  0.
          5    1    3    3  502    0 -0.48722939041E+02  0.22590963763E+02 -0.32892327457E+02  0.63116194737E+02  0.41800000000E+01 0.  1.
         -5    1    3    3    0  502 -0.26993571599E+02  0.97959566924E+01 -0.30625051944E+03  0.30762227932E+03  0.41800000000E+01 0.  1.
        -11    1    1    2    0    0  0.35736367034E+02  0.28946372429E+02 -0.56666573376E+02  0.72980003725E+02  0.00000000000E+00 0.  1.
         11    1    1    2    0    0  0.39980143606E+02 -0.61333292884E+02 -0.14800402404E+03  0.16512230567E+03  0.00000000000E+00 0. -1.
</event>
<event>
 7    1  0.2794945E-009  0.1040275E+03  0.7561462E-02  0.1272048E+00
          3   -1    0    0  501    0  0.00000000000E+00  0.00000000000E+00  0.52399636548E+02  0.52399636548E+02  0.00000000000E+00 0. -1.
         -3   -1    0    0    0  501 -0.00000000000E+00 -0.00000000000E+00 -0.27553520090E+03  0.27553520090E+03  0.00000000000E+00 0.  1.
         25    2    1    2    0    0 -0.22681495879E+02  0.35710279793E+02 -0.86704151823E+02  0.15794685007E+03  0.12505967841E+03 0.  0.
          5    1    3    3  502    0  0.18622625698E+02  0.60396830263E+02 -0.56494049213E+01  0.63592196610E+02  0.41800000000E+01 0. -1.
         -5    1    3    3    0  502 -0.41304121576E+02 -0.24686550470E+02 -0.81054746902E+02  0.94354653455E+02  0.41800000000E+01 0. -1.
        -11    1    1    2    0    0 -0.32976619052E+02 -0.67052266362E+01 -0.74816860940E+02  0.82036456221E+02  0.00000000000E+00 0.  1.
         11    1    1    2    0    0  0.55658114930E+02 -0.29005053157E+02 -0.61614551585E+02  0.87951531159E+02  0.00000000000E+00 0. -1.
</event>
<event>
 7    1  0.2794945E-009  0.1677152E+03  0.7561462E-02  0.1180252E+00
          1   -1    0    0  501    0  0.00000000000E+00  0.00000000000E+00  0.21170893061E+03  0.21170893061E+03  0.00000000000E+00 0. -1.
         -1   -1    0    0    0  501 -0.00000000000E+00 -0.00000000000E+00 -0.14016234210E+03  0.14016234210E+03  0.00000000000E+00 0.  1.
         25    2    1    2    0    0  0.94109210415E+02  0.88643192531E+02  0.65322855516E+01  0.18001088687E+03  0.12508832708E+03 0.  0.
          5    1    3    3  502    0  0.33495758120E+02  0.10996708696E+03 -0.20575457882E+01  0.11504969327E+03  0.41800000000E+01 0. -1.
         -5    1    3    3    0  502  0.60613452296E+02 -0.21323894426E+02  0.85898313398E+01  0.64961193609E+02  0.41800000000E+01 0. -1.
        -11    1    1    2    0    0 -0.12674088394E+02 -0.71722717769E+02  0.13643511481E+02  0.74100783844E+02  0.00000000000E+00 0. -1.
         11    1    1    2    0    0 -0.81435122021E+02 -0.16920474762E+02  0.51370791472E+02  0.97759601990E+02  0.00000000000E+00 0.  1.
</event>
<event>
 7    1  0.2794945E-009  0.8486926E+02  0.7561462E-02  0.1315775E+00
         -1   -1    0    0    0  501 -0.00000000000E+00  0.00000000000E+00  0.50391613189E+02  0.50391613189E+02  0.00000000000E+00 0.  1.
          1   -1    0    0  501    0  0.00000000000E+00 -0.00000000000E+00 -0.29646728575E+03  0.29646728575E+03  0.00000000000E+00 0. -1.
         25    2    1    2    0    0 -0.19563557790E+02 -0.15053684657E+01 -0.64049858247E+02  0.14189814632E+03  0.12509076968E+03 0.  0.
          5    1    3    3  502    0 -0.11651483056E+02  0.37301970353E+02  0.23446317649E+02  0.45764574301E+02  0.41800000000E+01 0.  1.
         -5    1    3    3    0  502 -0.79120747343E+01 -0.38807338819E+02 -0.87496175897E+02  0.96133572020E+02  0.41800000000E+01 0.  1.
        -11    1    1    2    0    0  0.51577314170E+02  0.17961079302E+02 -0.80810790186E+02  0.97535652544E+02  0.00000000000E+00 0.  1.
         11    1    1    2    0    0 -0.32013756380E+02 -0.16455710837E+02 -0.10121502413E+03  0.10742510007E+03  0.00000000000E+00 0. -1.
</event>
<event>
 7    1  0.2794945E-009  0.9573757E+02  0.7561462E-02  0.1289523E+00
         -2   -1    0    0    0  501 -0.00000000000E+00  0.00000000000E+00  0.20257394707E+03  0.20257394707E+03  0.00000000000E+00 0. -1.
          2   -1    0    0  501    0  0.00000000000E+00 -0.00000000000E+00 -0.79301944633E+02  0.79301944633E+02  0.00000000000E+00 0.  1.
         25    2    1    2    0    0 -0.85387027825E+01 -0.13109980761E+01  0.13077780053E+03  0.18117409677E+03  0.12508633846E+03 0.  0.
          5    1    3    3  502    0  0.25830224626E+02 -0.52385927641E+02  0.38192947126E+02  0.69911798212E+02  0.41800000000E+01 0. -1.
         -5    1    3    3    0  502 -0.34368927408E+02  0.51074929565E+02  0.92584853401E+02  0.11126229856E+03  0.41800000000E+01 0. -1.
        -11    1    1    2    0    0 -0.88863108094E+01  0.33474434342E+02 -0.39194872712E+02  0.52304324116E+02  0.00000000000E+00 0.  1.
         11    1    1    2    0    0  0.17425013592E+02 -0.32163436265E+02  0.31689074620E+02  0.48397470816E+02  0.00000000000E+00 0. -1.
</event>
<event>
 7    1  0.2794945E-009  0.1479327E+03  0.7561462E-02  0.1203037E+00
          2   -1    0    0  501    0  0.00000000000E+00  0.00000000000E+00  0.77939550712E+03  0.77939550712E+03  0.00000000000E+00 0. -1.
         -2   -1    0    0    0  501 -0.00000000000E+00 -0.00000000000E+00 -0.40829676893E+02  0.40829676893E+02  0.00000000000E+00 0.  1.
         25    2    1    2    0    0 -0.43463810126E+02  0.12287917317E+03  0.27157190385E+03  0.32616995955E+03  0.12508856689E+03 0.  0.
          5    1    3    3  502    0 -0.50252049783E+02  0.13000227670E+03  0.15257630732E+03  0.20669509527E+03  0.41800000000E+01 0. -1.
         -5    1    3    3    0  502  0.67882396562E+01 -0.71231035324E+01  0.11899559653E+03  0.11947486428E+03  0.41800000000E+01 0. -1.
        -11    1    1    2    0    0  0.38875030774E+02 -0.21835711152E+02  0.60435028703E+02  0.75102989245E+02  0.00000000000E+00 0. -1.
         11    1    1    2    0    0  0.45887793529E+01 -0.10104346202E+03  0.40655889768E+03  0.41895223521E+03  0.00000000000E+00 0.  1.
</event>
<event>
 7    1  0.2794945E-009  0.1479352E+03  0.7561462E-02  0.1203033E+00
         -1   -1    0    0    0  501 -0.00000000000E+00  0.00000000000E+00  0.77365485685E+02  0.77365485685E+02  0.00000000000E+00 0.  1.
          1   -1    0    0  501    0  0.00000000000E+00 -0.00000000000E+00 -0.47927894557E+03  0.47927894557E+03  0.00000000000E+00 0. -1.
         25    2    1    2    0    0 -0.49719717100E+01 -0.10218525717E+03 -0.38623721999E+03  0.41868017846E+03  0.12508938580E+03 0.  0.
          5    1    3    3  502    0  0.21621459168E+02  0.23437487602E+02 -0.60378744137E+02  0.68409564135E+02  0.41800000000E+01 0. -1.
         -5    1    3    3    0  502 -0.26593430878E+02 -0.12562274477E+03 -0.32585847586E+03  0.35027061432E+03  0.41800000000E+01 0. -1.
        -11    1    1    2    0    0 -0.41534484809E+02  0.40790047459E+02  0.43667881810E+01  0.58378165773E+02  0.00000000000E+00 0. -1.
         11    1    1    2    0    0  0.46506456519E+02  0.61395209714E+02 -0.20043028074E+02  0.79586087026E+02  0.00000000000E+00 0.  1.
</event>
<event>
 7    1  0.2794945E-009  0.1319359E+03  0.7561462E-02  0.1224611E+00
         -2   -1    0    0    0  501 -0.00000000000E+00  0.00000000000E+00  0.25901730864E+03  0.25901730864E+03  0.00000000000E+00 0.  1.
          2   -1    0    0  501    0  0.00000000000E+00 -0.00000000000E+00 -0.95031338624E+02  0.95031338624E+02  0.00000000000E+00 0. -1.
         25    2    1    2    0    0  0.59645215434E+02 -0.64252051545E+02  0.16894022175E+03  0.22775788799E+03  0.12508788577E+03 0.  0.
          5    1    3    3  502    0 -0.28418650389E+02 -0.38036370562E+02  0.10623841702E+03  0.11644079537E+03  0.41800000000E+01 0. -1.
         -5    1    3    3    0  502  0.88063865823E+02 -0.26215680983E+02  0.62701804721E+02  0.11131709262E+03  0.41800000000E+01 0. -1.
        -11    1    1    2    0    0 -0.39261691815E+02  0.85929473859E+02  0.57984459087E+01  0.94651872125E+02  0.00000000000E+00 0.  1.
         11    1    1    2    0    0 -0.20383523619E+02 -0.21677422313E+02 -0.10752697642E+02  0.31638887146E+02  0.00000000000E+00 0. -1.
</event>
<event>
 7    1  0.3160707E-009  0.9746342E+02  0.7561462E-02  0.1285722E+00
          1   -1    0    0  501    0  0.00000000000E+00  0.00000000000E+00  0.50715598577E+03  0.50715598577E+03  0.00000000000E+00 0. -1.
         -1   -1    0    0    0  501 -0.00000000000E+00 -0.00000000000E+00 -0.37980215390E+02  0.37980215390E+02  0.00000000000E+00 0.  1.
         25    2    1    2    0    0 -0.55021125718E-01 -0.50830896871E+02  0.39533992665E+03  0.41776202355E+03  0.12509063760E+03 0.  0.
          5    1    3    3  502    0 -0.39151577558E+02  0.77062429440E+01  0.27787198790E+03  0.28075353295E+03  0.41800000000E+01 0.  1.
         -5    1    3    3    0  502  0.39096556432E+02 -0.58537139815E+02  0.11746793876E+03  0.13700849061E+03  0.41800000000E+01 0.  1.
        -11    1    1    2    0    0 -0.32190206724E+02  0.13356220918E+02 -0.40887528110E+01  0.35090111794E+02  0.00000000000E+00 0.  1.
         11    1    1    2    0    0  0.32245227850E+02  0.37474675953E+02  0.77924596538E+02  0.92284065810E+02  0.00000000000E+00 0. -1.
</event>
<event>
 6    1  0.2794945E-009  0.1343995E+03  0.7561462E-02  0.1221070E+00
         -2   -1    0    0    0  501 -0.00000000000E+00  0.00000000000E+00  0.57982310786E+03  0.57982310786E+03  0.00000000000E+00 0.  1.
          2   -1    0    0  501    0  0.00000000000E+00 -0.00000000000E+00 -0.38923104447E+02  0.38923104447E+02  0.00000000000E+00 0. -1.
          5    1    1    2  502    0  0.15402501222E+02  0.58117066075E+02  0.26538773271E+03  0.27214509271E+03  0.41800000000E+01 0.  1.
         -5    1    1    2    0  502  0.72039917843E+02 -0.10471556395E+02  0.75679413805E+02  0.10509162350E+03  0.41800000000E+01 0.  1.
        -11    1    1    2    0    0  0.28882068472E+01  0.21602005645E+02  0.31064175105E+02  0.37946954577E+02  0.00000000000E+00 0.  1.
         11    1    1    2    0    0 -0.90330625912E+02 -0.69247515325E+02  0.16876868179E+03  0.20356254152E+03  0.00000000000E+00 0. -1.
</event>
<event>
 7    1  0.2794945E-009  0.8678301E+02  0.7561462E-02  0.1310835E+00
         -2   -1    0    0    0  501 -0.00000000000E+00  0.00000000000E+00  0.15680679499E+03  0.15680679499E+03  0.00000000000E+00 0.  1.
          2   -1    0    0  501    0  0.00000000000E+00 -0.00000000000E+00 -0.16692285250E+03  0.16692285250E+03  0.00000000000E+00 0. -1.
         25    2    1    2    0    0 -0.31115694118E+02 -0.51668022747E+02 -0.10835790770E+03  0.17614420969E+03  0.12509026922E+03 0.  0.
          5    1    3    3  502    0  0.21771949467E+02 -0.18740454847E+02 -0.10991565094E+03  0.11368441033E+03  0.41800000000E+01 0. -1.
         -5    1    3    3    0  502 -0.52887643585E+02 -0.32927567900E+02  0.15577432434E+01  0.62459799358E+02  0.41800000000E+01 0. -1.
        -11    1    1    2    0    0  0.36916731353E+02  0.76540775043E+01  0.95995869962E+02  0.10313407296E+03  0.00000000000E+00 0.  1.
         11    1    1    2    0    0 -0.58010372354E+01  0.44013945242E+02  0.22459802253E+01  0.44451364838E+02  0.00000000000E+00 0. -1.
</event>
<event>
 7    1  0.2794945E-009  0.8476505E+02  0.7561462E-02  0.1316048E+00
         -2   -1    0    0    0  501 -0.00000000000E+00  0.00000000000E+00  0.34779874991E+03  0.34779874991E+03  0.00000000000E+00 0.  1.
          2   -1    0    0  501    0  0.00000000000E+00 -0.00000000000E+00 -0.42217178095E+02  0.42217178095E+02  0.00000000000E+00 0. -1.
         25    2    1    2    0    0 -0.32393148795E+02 -0.47842357186E+02  0.17643474009E+03  0.22386385852E+03  0.12509037697E+03 0.  0.
          5    1    3    3  502    0 -0.31898896414E+01 -0.60311541648E+02  0.19365064267E+02  0.63562060743E+02  0.41800000000E+01 0.  1.
         -5    1    3    3    0  502 -0.29203259153E+02  0.12469184462E+02  0.15706967582E+03  0.16030179777E+03  0.41800000000E+01 0.  1.
        -11    1    1    2    0    0 -0.58169066142E+01  0.36703249310E+02  0.11957536310E+03  0.12521674159E+03  0.00000000000E+00 0.  1.
         11    1    1    2    0    0  0.38210055409E+02  0.11139107876E+02  0.95714686190E+01  0.40935327898E+02  0.00000000000E+00 0. -1.
</event>
<event>
 7    1  0.2794945E-009  0.1424660E+03  0.7561462E-02  0.1210049E+00
          2   -1    0    0  501    0  0.00000000000E+00  0.00000000000E+00  0.78669551324E+02  0.78669551324E+02  0.00000000000E+00 0. -1.
         -2   -1    0    0    0  501 -0.00000000000E+00 -0.00000000000E+00 -0.47500823218E+03  0.47500823218E+03  0.00000000000E+00 0.  1.
         25    2    1    2    0    0  0.12009512739E+03  0.70021644679E+02 -0.31437355723E+03  0.36579232256E+03  0.12508964552E+03 0.  0.
          5    1    3    3  502    0  0.59406107119E+02  0.12020798914E+02 -0.27189030480E+02  0.66560505918E+02  0.41800000000E+01 0. -1.
         -5    1    3    3    0  502  0.60689020273E+02  0.58000845765E+02 -0.28718452675E+03  0.29923181665E+03  0.41800000000E+01 0. -1.
        -11    1    1    2    0    0 -0.63067602637E+02 -0.26593432336E+02  0.12218439510E+02  0.69527141534E+02  0.00000000000E+00 0. -1.
         11    1    1    2    0    0 -0.57027524755E+02 -0.43428212343E+02 -0.94183563145E+02  0.11835831941E+03  0.00000000000E+00 0.  1.
</event>
<event>
 7    1  0.2794945E-009  0.7887950E+02  0.7561462E-02  0.1332262E+00
         -1   -1    0    0    0  501 -0.00000000000E+00  0.00000000000E+00  0.18824038451E+02  0.18824038451E+02  0.00000000000E+00 0.  1.
          1   -1    0    0  501    0  0.00000000000E+00 -0.00000000000E+00 -0.71182063862E+03  0.71182063862E+03  0.00000000000E+00 0. -1.
         25    2    1    2    0    0 -0.14577415384E+02 -0.39579359817E+02 -0.37918856575E+03  0.40151053985E+03  0.12509084082E+03 0.  0.
          5    1    3    3  502    0 -0.39166038854E+02 -0.19031318241E+02 -0.36251912264E+03  0.36514895091E+03  0.41800000000E+01 0.  1.
         -5    1    3    3    0  502  0.24588623470E+02 -0.20548041576E+02 -0.16669443109E+02  0.36361588941E+02  0.41800000000E+01 0.  1.
        -11    1    1    2    0    0 -0.28333768049E+02  0.12589141175E+02 -0.39671998776E+02  0.50350336386E+02  0.00000000000E+00 0. -1.
         11    1    1    2    0    0  0.42911183433E+02  0.26990218642E+02 -0.27413603564E+03  0.27878380083E+03  0.00000000000E+00 0.  1.
</event>
<event>
 7    1  0.2794945E-009  0.1459536E+03  0.7561462E-02  0.1205535E+00
         -4   -1    0    0    0  501 -0.00000000000E+00  0.00000000000E+00  0.37737279483E+02  0.37737279483E+02  0.00000000000E+00 0.  1.
          4   -1    0    0  501    0  0.00000000000E+00 -0.00000000000E+00 -0.83092943289E+03  0.83092943289E+03  0.00000000000E+00 0. -1.
         25    2    1    2    0    0  0.29439471785E+02  0.11622951309E+03 -0.58916615484E+03  0.61411803540E+03  0.12509285028E+03 0.  0.
          5    1    3    3  502    0  0.21372896060E+02  0.12519613131E+03 -0.31516275660E+03  0.33981746207E+03  0.41800000000E+01 0. -1.
         -5    1    3    3    0  502  0.80665757257E+01 -0.89666182145E+01 -0.27400339823E+03  0.27430057333E+03  0.41800000000E+01 0. -1.
        -11    1    1    2    0    0 -0.60448453560E+02 -0.10054285292E+03 -0.15262088729E+03  0.19249939233E+03  0.00000000000E+00 0.  1.
         11    1    1    2    0    0  0.31008981774E+02 -0.15686660175E+02 -0.51405111282E+02  0.62049284637E+02  0.00000000000E+00 0. -1.
</event>
<event>
 7    1  0.2794945E-009  0.1048211E+03  0.7561462E-02  0.1270473E+00
         -2   -1    0    0    0  501 -0.00000000000E+00  0.00000000000E+00  0.16594086156E+02  0.16594086156E+02  0.00000000000E+00 0.  1.
          2   -1    0    0  501    0  0.00000000000E+00 -0.00000000000E+00 -0.82949093621E+03  0.82949093621E+03  0.00000000000E+00 0. -1.
         25    2    1    2    0    0 -0.31628615869E+02  0.88481338740E+01 -0.35252449378E+03  0.37549773335E+03  0.12508545168E+03 0.  0.
          5    1    3    3  502    0 -0.39597661606E+02  0.54269228312E+02 -0.11291273525E+03  0.13145296546E+03  0.41800000000E+01 0.  1.
         -5    1    3    3    0  502  0.79690457369E+01 -0.45421094438E+02 -0.23961175853E+03  0.24404476789E+03  0.41800000000E+01 0.  1.
        -11    1    1    2    0    0  0.60821248949E+02  0.94853103984E+01 -0.33249192853E+03  0.33814209731E+03  0.00000000000E+00 0. -1.
         11    1    1    2    0    0 -0.29192633080E+02 -0.18333444272E+02 -0.12788042775E+03  0.13244519170E+03  0.00000000000E+00 0.  1.
</event>
<event>
 7    1  0.2794945E-009  0.1417354E+03  0.7561462E-02  0.1211013E+00
         -1   -1    0    0    0  501 -0.00000000000E+00  0.00000000000E+00  0.91037727738E+03  0.91037727738E+03  0.00000000000E+00 0.  1.
          1   -1    0    0  501    0  0.00000000000E+00 -0.00000000000E+00 -0.23934798824E+02  0.23934798824E+02  0.00000000000E+00 0. -1.
         25    2    1    2    0    0  0.84238318700E+02  0.53604052984E+02  0.51971354648E+03  0.54380093013E+03  0.12509113633E+03 0.  0.
          5    1    3    3  502    0  0.11562213598E+03  0.35796382484E+02  0.43681042899E+03  0.45328874087E+03  0.41800000000E+01 0.  1.
         -5    1    3    3    0  502 -0.31383817279E+02  0.17807670500E+02  0.82903117487E+02  0.90512189261E+02  0.41800000000E+01 0.  1.
        -11    1    1    2    0    0  0.14859771081E+02 -0.89083141823E+01  0.16989123173E+02  0.24265225413E+02  0.00000000000E+00 0.  1.
         11    1    1    2    0    0 -0.99098089781E+02 -0.44695738802E+02  0.34973980891E+03  0.36624592066E+03  0.00000000000E+00 0. -1.
</event>
<event>
 7    1  0.2794945E-009  0.1009510E+03  0.7561462E-02  0.1278309E+00
          2   -1    0    0  501    0  0.00000000000E+00  0.00000000000E+00  0.55220037548E+03  0.55220037548E+03  0.00000000000E+00 0. -1.
         -2   -1    0    0    0  501 -0.00000000000E+00 -0.00000000000E+00 -0.35929779370E+02  0.35929779370E+02  0.00000000000E+00 0.  1.
         25    2    1    2    0    0 -0.70927192253E+02  0.28562730056E+02  0.22839419763E+03  0.27139966671E+03  0.12508946170E+03 0.  0.
          5    1    3    3  502    0 -0.60615410706E+02 -0.23730724463E+02  0.20101340112E+03  0.21133204946E+03  0.41800000000E+01 0. -1.
         -5    1    3    3    0  502 -0.10311781547E+02  0.52293454519E+02  0.27380796508E+02  0.60067617246E+02  0.41800000000E+01 0. -1.
        -11    1    1    2    0    0  0.21315123060E+02 -0.25874911959E+02  0.10779182185E+02  0.35214149266E+02  0.00000000000E+00 0.  1.
         11    1    1    2    0    0  0.49612069193E+02 -0.26878180965E+01  0.27709721629E+03  0.28151633887E+03  0.00000000000E+00 0. -1.
</event>
<event>
 7    1  0.2794945E-009  0.9441081E+02  0.7561462E-02  0.1292509E+00
          2   -1    0    0  501    0  0.00000000000E+00  0.00000000000E+00  0.53756104437E+03  0.53756104437E+03  0.00000000000E+00 0. -1.
         -2   -1    0    0    0  501 -0.00000000000E+00 -0.00000000000E+00 -0.24551825529E+02  0.24551825529E+02  0.00000000000E+00 0.  1.
         25    2    1    2    0    0  0.34133603783E+02  0.18204887611E+02  0.25458759375E+03  0.28628760919E+03  0.12509688823E+03 0.  0.
          5    1    3    3  502    0 -0.13842339300E+02  0.51729933111E+02  0.19654592591E+03  0.20375320790E+03  0.41800000000E+01 0.  1.
         -5    1    3    3    0  502  0.47975943083E+02 -0.33525045500E+02  0.58041667832E+02  0.82534401283E+02  0.41800000000E+01 0.  1.
        -11    1    1    2    0    0  0.12847444103E+02  0.14359178037E+02  0.11642375271E+02  0.22511946069E+02  0.00000000000E+00 0.  1.
         11    1    1    2    0    0 -0.46981047885E+02 -0.32564065649E+02  0.24677924982E+03  0.25331331464E+03  0.00000000000E+00 0. -1.
</event>
<event>
 7    1  0.2794945E-009  0.1960374E+03  0.7561462E-02  0.1153126E+00
          2   -1    0    0  501    0  0.00000000000E+00  0.00000000000E+00  0.33939186665E+03  0.33939186665E+03  0.00000000000E+00 0. -1.
         -2   -1    0    0    0  501 -0.00000000000E+00 -0.00000000000E+00 -0.13233355169E+03  0.13233355169E+03  0.00000000000E+00 0.  1.
         25    2    1    2    0    0  0.14483598373E+03 -0.82690778974E+02  0.17606394173E+03  0.27287624522E+03  0.12509079310E+03 0.  0.
          5    1    3    3  502    0  0.71393649819E+02  0.26129480037E+02  0.52043091345E+02  0.92226670320E+02  0.41800000000E+01 0.  1.
         -5    1    3    3    0  502  0.73442333907E+02 -0.10882025901E+03  0.12402085039E+03  0.18064957490E+03  0.41800000000E+01 0.  1.
        -11    1    1    2    0    0 -0.94683461221E+02  0.85437777746E+01  0.49885864177E+02  0.10736178749E+03  0.00000000000E+00 0.  1.
         11    1    1    2    0    0 -0.50152522505E+02  0.74147001199E+02 -0.18891490951E+02  0.91487385637E+02  0.00000000000E+00 0. -1.
</event>
<event>
 7    1  0.2794945E-009  0.1126748E+03  0.7561462E-02  0.1255695E+00
          1   -1    0    0  501    0  0.00000000000E+00  0.00000000000E+00  0.12170616574E+03  0.12170616574E+03  0.00000000000E+00 0. -1.
         -1   -1    0    0    0  501 -0.00000000000E+00 -0.00000000000E+00 -0.15809652677E+03  0.15809652677E+03  0.00000000000E+00 0.  1.
         25    2    1    2    0    0 -0.35639036005E+02  0.43606722134E+02  0.44724769841E+02  0.14429059334E+03  0.12509109955E+03 0.  0.
          5    1    3    3  502    0  0.19015012013E+02 -0.28460729827E+02  0.41133556995E+02  0.53675187333E+02  0.41800000000E+01 0.  1.
         -5    1    3    3    0  502 -0.54654048018E+02  0.72067451961E+02  0.35912128464E+01  0.90615406012E+02  0.41800000000E+01 0.  1.
        -11    1    1    2    0    0  0.60812715879E+02 -0.44139971541E+02 -0.80785651158E+02  0.11033061648E+03  0.00000000000E+00 0.  1.
         11    1    1    2    0    0 -0.25173679874E+02  0.53324940647E+00 -0.32947972148E+00  0.25181482685E+02  0.00000000000E+00 0. -1.
</event>
<event>
 7    1  0.2794945E-009  0.6991581E+02  0.7561462E-02  0.1360380E+00
          2   -1    0    0  501    0  0.00000000000E+00  0.00000000000E+00  0.20672677253E+03  0.20672677253E+03  0.00000000000E+00 0. -1.
         -2   -1    0    0    0  501 -0.00000000000E+00 -0.00000000000E+00 -0.60221555400E+02  0.60221555400E+02  0.00000000000E+00 0.  1.
         25    2    1    2    0    0  0.96390233707E+00  0.24602005641E+02  0.97205645111E+02  0.16032126259E+03  0.12509109483E+03 0.  0.
          5    1    3    3  502    0 -0.13587154794E+01 -0.10836670426E+02 -0.27875345594E+02  0.30228907120E+02  0.41800000000E+01 0.  1.
         -5    1    3    3    0  502  0.23226178165E+01  0.35438676067E+02  0.12508099070E+03  0.13009235547E+03  0.41800000000E+01 0.  1.
        -11    1    1    2    0    0 -0.39426185102E+02  0.99636337802E+01  0.10562031483E+02  0.42014932808E+02  0.00000000000E+00 0.  1.
         11    1    1    2    0    0  0.38462282765E+02 -0.34565639421E+02  0.38737540536E+02  0.64612132536E+02  0.00000000000E+00 0. -1.
</event>
<event>
 7    1  0.2794945E-009  0.1422865E+03  0.7561462E-02  0.1210285E+00
          2   -1    0    0  501    0  0.00000000000E+00  0.00000000000E+00  0.20223096369E+03  0.20223096369E+03  0.00000000000E+00 0. -1.
         -2   -1    0    0    0  501 -0.00000000000E+00 -0.00000000000E+00 -0.11570111065E+03  0.11570111065E+03  0.00000000000E+00 0.  1.
         25    2    1    2    0    0  0.91111277506E+02 -0.52494522312E+02  0.19628836432E+02  0.16459049622E+03  0.12509116861E+03 0.  0.
          5    1    3    3  502    0 -0.18400271154E+02 -0.33718795887E+02 -0.23620497181E+02  0.45287166634E+02  0.41800000000E+01 0. -1.
         -5    1    3    3    0  502  0.10951154866E+03 -0.18775726425E+02  0.43249333613E+02  0.11930332959E+03  0.41800000000E+01 0. -1.
        -11    1    1    2    0    0 -0.78253772997E+02 -0.24745880046E+01  0.54911213745E+02  0.95629587310E+02  0.00000000000E+00 0. -1.
         11    1    1    2    0    0 -0.12857504508E+02  0.54969110316E+02  0.11989802865E+02  0.57711990816E+02  0.00000000000E+00 0.  1.
</event>
<event>
 7    1  0.2794945E-009  0.1296906E+03  0.7561462E-02  0.1227915E+00
         -3   -1    0    0    0  501 -0.00000000000E+00  0.00000000000E+00  0.33216296196E+03  0.33216296196E+03  0.00000000000E+00 0.  1.
          3   -1    0    0  501    0  0.00000000000E+00 -0.00000000000E+00 -0.69279380588E+02  0.69279380588E+02  0.00000000000E+00 0. -1.
         25    2    1    2    0    0 -0.51744429480E+02 -0.63737777546E+02  0.23086809944E+03  0.27511352803E+03  0.12508950274E+03 0.  0.
          5    1    3    3  502    0  0.29147242861E+02  0.11649846683E+02  0.21414502138E+02  0.38227398499E+02  0.41800000000E+01 0. -1.
         -5    1    3    3    0  502 -0.80891672341E+02 -0.75387624229E+02  0.20945359730E+03  0.23688612953E+03  0.41800000000E+01 0. -1.
        -11    1    1    2    0    0  0.27282119053E+02  0.82074106437E+02  0.69018229694E+01  0.86764670966E+02  0.00000000000E+00 0. -1.
         11    1    1    2    0    0  0.24462310427E+02 -0.18336328891E+02  0.25113658962E+02  0.39564143553E+02  0.00000000000E+00 0.  1.
</event>
<event>
 7    1  0.2794945E-009  0.9454249E+02  0.7561462E-02  0.1292210E+00
          2   -1    0    0  501    0  0.00000000000E+00  0.00000000000E+00  0.79840765820E+03  0.79840765820E+03  0.00000000000E+00 0. -1.
         -2   -1    0    0    0  501 -0.00000000000E+00 -0.00000000000E+00 -0.20820699265E+02  0.20820699265E+02  0.00000000000E+00 0.  1.
         25    2    1    2    0    0  0.67596062836E+02  0.57762120681E+01  0.42226317252E+03  0.44559778250E+03  0.12509438264E+03 0.  0.
          5    1    3    3  502    0 -0.11588271183E+02 -0.78959062066E+00  0.29664169981E+03  0.29689843710E+03  0.41800000000E+01 0.  1.
         -5    1    3    3    0  502  0.79184334018E+02  0.65658026888E+01  0.12562147270E+03  0.14869934540E+03  0.41800000000E+01 0.  1.
        -11    1    1    2    0    0 -0.81709669660E+02 -0.10294110800E+02  0.34698903009E+03  0.35662841423E+03  0.00000000000E+00 0. -1.
         11    1    1    2    0    0  0.14113606824E+02  0.45178987323E+01  0.83347563220E+01  0.17002160730E+02  0.00000000000E+00 0.  1.
</event>
<event>
 7    1  0.2794945E-009  0.1042195E+03  0.7561462E-02  0.1271665E+00
         -2   -1    0    0    0  501 -0.00000000000E+00  0.00000000000E+00  0.16308279339E+02  0.16308279339E+02  0.00000000000E+00 0.  1.
          2   -1    0    0  501    0  0.00000000000E+00 -0.00000000000E+00 -0.82003465574E+03  0.82003465574E+03  0.00000000000E+00 0. -1.
         25    2    1    2    0    0  0.29318049933E+02  0.17666732078E+02 -0.53698222210E+03  0.55242110863E+03  0.12509001932E+03 0.  0.
          5    1    3    3  502    0  0.54719891379E+02  0.52313725502E+02 -0.43686526437E+03  0.44339567432E+03  0.41800000000E+01 0. -1.
         -5    1    3    3    0  502 -0.25401841446E+02 -0.34646993424E+02 -0.10011695773E+03  0.10902543431E+03  0.41800000000E+01 0. -1.
        -11    1    1    2    0    0 -0.55727481259E+02 -0.26367349396E+02 -0.12383301242E+03  0.13833077838E+03  0.00000000000E+00 0.  1.
         11    1    1    2    0    0  0.26409431326E+02  0.87006173176E+01 -0.14291114188E+03  0.14559104807E+03  0.00000000000E+00 0. -1.
</event>
<event>
 7    1  0.2794945E-009  0.8487794E+02  0.7561462E-02  0.1315752E+00
         -2   -1    0    0    0  501 -0.00000000000E+00  0.00000000000E+00  0.64202341419E+02  0.64202341419E+02  0.00000000000E+00 0.  1.
          2   -1    0    0  501    0  0.00000000000E+00 -0.00000000000E+00 -0.29735111405E+03  0.29735111405E+03  0.00000000000E+00 0. -1.
         25    2    1    2    0    0 -0.12779026878E+02 -0.75940617823E+02 -0.77536534846E+02  0.16610091312E+03  0.12508924071E+03 0.  0.
          5    1    3    3  502    0 -0.17586673596E+02 -0.50821107932E+02 -0.11121530401E+03  0.12360579415E+03  0.41800000000E+01 0.  1.
         -5    1    3    3    0  502  0.48076467179E+01 -0.25119509891E+02  0.33678769168E+02  0.42495118976E+02  0.41800000000E+01 0.  1.
        -11    1    1    2    0    0 -0.71010413500E+01  0.68197312218E+02 -0.43214949795E+02  0.81048319339E+02  0.00000000000E+00 0.  1.
         11    1    1    2    0    0  0.19880068228E+02  0.77433056051E+01 -0.11239728799E+03  0.11440422300E+03  0.00000000000E+00 0. -1.
</event>
<event>
 7    1  0.2794945E-009  0.9889120E+02  0.7561462E-02  0.1282645E+00
          2   -1    0    0  501    0  0.00000000000E+00  0.00000000000E+00  0.41467735473E+03  0.41467735473E+03  0.00000000000E+00 0. -1.
         -2   -1    0    0    0  501 -0.00000000000E+00 -0.00000000000E+00 -0.32934314791E+02  0.32934314791E+02  0.00000000000E+00 0.  1.
         25    2    1    2    0    0 -0.55319857955E+01 -0.47113056512E+02  0.24334704969E+03  0.27769803002E+03  0.12509263097E+03 0.  0.
          5    1    3    3  502    0  0.38542202360E+01 -0.83067677951E+02  0.10294595450E+03  0.13240255316E+03  0.41800000000E+01 0.  1.
         -5    1    3    3    0  502 -0.93862060316E+01  0.35954621439E+02  0.14040109519E+03  0.14529547686E+03  0.41800000000E+01 0.  1.
        -11    1    1    2    0    0  0.21794824757E+01  0.61913078396E+02  0.48316877996E+02  0.78565260259E+02  0.00000000000E+00 0.  1.
         11    1    1    2    0    0  0.33525033198E+01 -0.14800021884E+02  0.90079112246E+02  0.91348379238E+02  0.00000000000E+00 0. -1.
</event>
<event>
 7    1  0.2794945E-009  0.1854976E+03  0.7561462E-02  0.1162586E+00
          2   -1    0    0  501    0  0.00000000000E+00  0.00000000000E+00  0.28280701463E+02  0.28280701463E+02  0.00000000000E+00 0. -1.
         -2   -1    0    0    0  501 -0.00000000000E+00 -0.00000000000E+00 -0.16914454691E+04  0.16914454691E+04  0.00000000000E+00 0.  1.
         25    2    1    2    0    0 -0.36239541322E+02 -0.16967703147E+03 -0.11526922427E+04  0.11723693691E+04  0.12508769738E+03 0.  0.
          5    1    3    3  502    0 -0.19008934864E+01 -0.46643241909E+02 -0.71141501925E+03  0.71295722692E+03  0.41800000000E+01 0. -1.
         -5    1    3    3    0  502 -0.34338647836E+02 -0.12303378956E+03 -0.44127722342E+03  0.45941214222E+03  0.41800000000E+01 0. -1.
        -11    1    1    2    0    0 -0.18366491252E+02  0.12335669492E+03 -0.29436525593E+03  0.31969533322E+03  0.00000000000E+00 0. -1.
         11    1    1    2    0    0  0.54606032574E+02  0.46320336553E+02 -0.21610726899E+03  0.22766146816E+03  0.00000000000E+00 0.  1.
</event>
<event>
 7    1  0.2794945E-009  0.1012795E+03  0.7561462E-02  0.1277628E+00
         -2   -1    0    0    0  501 -0.00000000000E+00  0.00000000000E+00  0.38565225187E+03  0.38565225187E+03  0.00000000000E+00 0.  1.
          2   -1    0    0  501    0  0.00000000000E+00 -0.00000000000E+00 -0.34541461384E+02  0.34541461384E+02  0.00000000000E+00 0. -1.
         25    2    1    2    0    0 -0.14570467666E+02  0.18635738467E+02  0.13732971416E+03  0.18725990380E+03  0.12508889600E+03 0.  0.
          5    1    3    3  502    0 -0.41436683106E+02 -0.33434663941E+02  0.21861045426E+02  0.57708345729E+02  0.41800000000E+01 0. -1.
         -5    1    3    3    0  502  0.26866215440E+02  0.52070402409E+02  0.11546866873E+03  0.12955155807E+03  0.41800000000E+01 0. -1.
        -11    1    1    2    0    0  0.19337054311E+02  0.33164840045E+02  0.11583291195E+03  0.12202906119E+03  0.00000000000E+00 0.  1.
         11    1    1    2    0    0 -0.47665866455E+01 -0.51800578512E+02  0.97948164372E+02  0.11090474826E+03  0.00000000000E+00 0. -1.
</event>
<event>
 7    1  0.2794945E-009  0.1108557E+03  0.7561462E-02  0.1258993E+00
         -1   -1    0    0    0  501 -0.00000000000E+00  0.00000000000E+00  0.85502197678E+02  0.85502197678E+02  0.00000000000E+00 0.  1.
          1   -1    0    0  501    0  0.00000000000E+00 -0.00000000000E+00 -0.20345464907E+03  0.20345464907E+03  0.00000000000E+00 0. -1.
         25    2    1    2    0    0 -0.65460173709E+02  0.35216363034E+02 -0.49983306252E+02  0.15385350316E+03  0.12508933993E+03 0.  0.
          5    1    3    3  502    0 -0.77785083819E+02  0.29152855355E+01  0.15692894397E+02  0.79515768808E+02  0.41800000000E+01 0.  1.
         -5    1    3    3    0  502  0.12324910110E+02  0.32301077498E+02 -0.65676200649E+02  0.74337734351E+02  0.41800000000E+01 0.  1.
        -11    1    1    2    0    0  0.39242134327E+02 -0.60760292905E+02 -0.66834352585E+02  0.98481414419E+02  0.00000000000E+00 0. -1.
         11    1    1    2    0    0  0.26218039381E+02  0.25543929871E+02 -0.11347925583E+01  0.36621929174E+02  0.00000000000E+00 0.  1.
</event>
<event>
 7    1  0.2794945E-009  0.1053331E+03  0.7561462E-02  0.1269465E+00
          3   -1    0    0  501    0  0.00000000000E+00  0.00000000000E+00  0.26585042771E+03  0.26585042771E+03  0.00000000000E+00 0. -1.
         -3   -1    0    0    0  501 -0.00000000000E+00 -0.00000000000E+00 -0.50310619223E+02  0.50310619223E+02  0.00000000000E+00 0.  1.
         25    2    1    2    0    0  0.23616839250E+02 -0.31785159896E+02  0.14201355364E+03  0.19334457444E+03  0.12508486544E+03 0.  0.
          5    1    3    3  502    0  0.25852037726E+02 -0.73195657234E+02  0.12726723439E+03  0.14913200006E+03  0.41800000000E+01 0.  1.
         -5    1    3    3    0  502 -0.22351984757E+01  0.41410497338E+02  0.14746319247E+02  0.44212574381E+02  0.41800000000E+01 0.  1.
        -11    1    1    2    0    0 -0.40777918246E+02 -0.13390796342E+02  0.57806790624E+02  0.71998451966E+02  0.00000000000E+00 0. -1.
         11    1    1    2    0    0  0.17161078996E+02  0.45175956238E+02  0.15719464220E+02  0.50818020521E+02  0.00000000000E+00 0.  1.
</event>
<event>
 7    1  0.2794945E-009  0.9326850E+02  0.7561462E-02  0.1295124E+00
         -2   -1    0    0    0  501 -0.00000000000E+00  0.00000000000E+00  0.26623775270E+02  0.26623775270E+02  0.00000000000E+00 0.  1.
          2   -1    0    0  501    0  0.00000000000E+00 -0.00000000000E+00 -0.93051657947E+03  0.93051657947E+03  0.00000000000E+00 0. -1.
         25    2    1    2    0    0 -0.27320259874E+02  0.36385269634E+02 -0.80413431145E+03  0.81507398810E+03  0.12507330160E+03 0.  0.
          5    1    3    3  502    0 -0.65161967272E+02  0.28365582401E+02 -0.70488564602E+03  0.70847154820E+03  0.41800000000E+01 0. -1.
         -5    1    3    3    0  502  0.37841707398E+02  0.80196872321E+01 -0.99248665428E+02  0.10660243989E+03  0.41800000000E+01 0. -1.
        -11    1    1    2    0    0  0.32038442377E+02 -0.51473500948E+02 -0.24878285783E+02  0.65535579598E+02  0.00000000000E+00 0.  1.
         11    1    1    2    0    0 -0.47181825027E+01  0.15088231314E+02 -0.74880206962E+02  0.76530787040E+02  0.00000000000E+00 0. -1.
</event>
<event>
 7    1  0.2794945E-009  0.1018247E+03  0.7561462E-02  0.1276505E+00
          2   -1    0    0  501    0  0.00000000000E+00  0.00000000000E+00  0.76328177141E+02  0.76328177141E+02  0.00000000000E+00 0. -1.
         -2   -1    0    0    0  501 -0.00000000000E+00 -0.00000000000E+00 -0.21103758799E+03  0.21103758799E+03  0.00000000000E+00 0.  1.
         25    2    1    2    0    0  0.29794733154E+00 -0.60922347776E+02 -0.10176215059E+03  0.17238498372E+03  0.12509766620E+03 0.  0.
          5    1    3    3  502    0  0.43113333287E+02  0.17367386851E+02 -0.18285920789E+02  0.50122180043E+02  0.41800000000E+01 0. -1.
         -5    1    3    3    0  502 -0.42815385955E+02 -0.78289734627E+02 -0.83476229796E+02  0.12226280368E+03  0.41800000000E+01 0. -1.
        -11    1    1    2    0    0 -0.13955874140E+02  0.19098439292E+02 -0.59196834082E+02  0.63747799740E+02  0.00000000000E+00 0.  1.
         11    1    1    2    0    0  0.13657926808E+02  0.41823908484E+02  0.26249573815E+02  0.51232981673E+02  0.00000000000E+00 0. -1.
</event>
<event>
 7    1  0.2794945E-009  0.1758017E+03  0.7561462E-02  0.1171929E+00
          2   -1    0    0  501    0  0.00000000000E+00  0.00000000000E+00  0.13699522837E+04  0.13699522837E+04  0.00000000000E+00 0. -1.
         -2   -1    0    0    0  501 -0.00000000000E+00 -0.00000000000E+00 -0.24109275363E+02  0.24109275363E+02  0.00000000000E+00 0.  1.
         25    2    1    2    0    0 -0.82952895124E+01 -0.14532728803E+03  0.72684427319E+03  0.75176671097E+03  0.12514694477E+03 0.  0.
          5    1    3    3  502    0 -0.50351701136E+02 -0.27763556575E+02  0.13355132217E+03  0.14546318068E+03  0.41800000000E+01 0.  1.
         -5    1    3    3    0  502  0.42056411624E+02 -0.11756373145E+03  0.59329295103E+03  0.60630353029E+03  0.41800000000E+01 0.  1.
        -11    1    1    2    0    0 -0.34896342659E+02  0.30518515569E+02  0.22152374027E+03  0.22632256190E+03  0.00000000000E+00 0. -1.
         11    1    1    2    0    0  0.43191632171E+02  0.11480877246E+03  0.39747499489E+03  0.41597228620E+03  0.00000000000E+00 0.  1.
</event>
<event>
 7    1  0.2794945E-009  0.1829728E+03  0.7561462E-02  0.1164957E+00
          2   -1    0    0  501    0  0.00000000000E+00  0.00000000000E+00  0.17549788018E+04  0.17549788018E+04  0.00000000000E+00 0. -1.
         -2   -1    0    0    0  501 -0.00000000000E+00 -0.00000000000E+00 -0.20616279239E+02  0.20616279239E+02  0.00000000000E+00 0.  1.
         25    2    1    2    0    0 -0.11880004631E+03 -0.98310466755E+02  0.10266787831E+04  0.10457032950E+04  0.12509060162E+03 0.  0.
          5    1    3    3  502    0  0.21179876139E+02 -0.25026081935E+02  0.92047672316E+02  0.97801525086E+02  0.41800000000E+01 0. -1.
         -5    1    3    3    0  502 -0.13997992245E+03 -0.73284384819E+02  0.93463111078E+03  0.94790176990E+03  0.41800000000E+01 0. -1.
        -11    1    1    2    0    0  0.10682584694E+03  0.38053644093E+02  0.38252552722E+03  0.39898072682E+03  0.00000000000E+00 0.  1.
         11    1    1    2    0    0  0.11974199372E+02  0.60256822662E+02  0.32515821227E+03  0.33091105925E+03  0.00000000000E+00 0. -1.
</event>
<event>
 7    1  0.2794945E-009  0.1505609E+03  0.7561462E-02  0.1199785E+00
          2   -1    0    0  501    0  0.00000000000E+00  0.00000000000E+00  0.16461464410E+03  0.16461464410E+03  0.00000000000E+00 0. -1.
         -2   -1    0    0    0  501 -0.00000000000E+00 -0.00000000000E+00 -0.20332201827E+03  0.20332201827E+03  0.00000000000E+00 0.  1.
         25    2    1    2    0    0  0.38054984604E+02 -0.13963787709E+03 -0.38239763103E+02  0.19508273993E+03  0.12509227540E+03 0.  0.
          5    1    3    3  502    0  0.17109910776E+01 -0.93686939910E+02 -0.79785022686E+02  0.12313932128E+03  0.41800000000E+01 0. -1.
         -5    1    3    3    0  502  0.36343993527E+02 -0.45950937176E+02  0.41545259582E+02  0.71943418647E+02  0.41800000000E+01 0. -1.
        -11    1    1    2    0    0 -0.55721552267E+01  0.83851008519E+02 -0.44131482046E+02  0.94919061579E+02  0.00000000000E+00 0.  1.
         11    1    1    2    0    0 -0.32482829377E+02  0.55786868567E+02  0.43663870977E+02  0.77934860862E+02  0.00000000000E+00 0. -1.
</event>
<event>
 7    1  0.2794945E-009  0.4168046E+03  0.7561462E-02  0.1038111E+00
         -1   -1    0    0    0  501 -0.00000000000E+00  0.00000000000E+00  0.21146536615E+03  0.21146536615E+03  0.00000000000E+00 0.  1.
          1   -1    0    0  501    0  0.00000000000E+00 -0.00000000000E+00 -0.10422778170E+04  0.10422778170E+04  0.00000000000E+00 0. -1.
         25    2    1    2    0    0 -0.16720438148E+03 -0.37628945943E+03 -0.15567150595E+03  0.45763770514E+03  0.12509032311E+03 0.  0.
          5    1    3    3  502    0 -0.37979962928E+02 -0.12469281450E+03 -0.11100208900E+03  0.17125919460E+03  0.41800000000E+01 0. -1.
         -5    1    3    3    0  502 -0.12922441855E+03 -0.25159664492E+03 -0.44669416953E+02  0.28637851054E+03  0.41800000000E+01 0. -1.
        -11    1    1    2    0    0  0.52672244224E+02  0.22202337966E+03 -0.40020337253E+03  0.46068588627E+03  0.00000000000E+00 0.  1.
         11    1    1    2    0    0  0.11453213725E+03  0.15426607976E+03 -0.27493757237E+03  0.33541959175E+03  0.00000000000E+00 0. -1.
</event>
<event>
 7    1  0.2794945E-009  0.1048743E+03  0.7561462E-02  0.1270368E+00
          2   -1    0    0  501    0  0.00000000000E+00  0.00000000000E+00  0.35722945327E+03  0.35722945327E+03  0.00000000000E+00 0.  1.
         -2   -1    0    0    0  501 -0.00000000000E+00 -0.00000000000E+00 -0.77866126073E+02  0.77866126073E+02  0.00000000000E+00 0. -1.
         25    2    1    2    0    0  0.89709658857E+01  0.86368679769E+02  0.26921986716E+03  0.30930209875E+03  0.12509366227E+03 0.  0.
          5    1    3    3  502    0  0.30937791888E+02  0.56968849669E+01  0.49851886966E+01  0.32123604585E+02  0.41800000000E+01 0.  1.
         -5    1    3    3    0  502 -0.21966826002E+02  0.80671794802E+02  0.26423467847E+03  0.27717849416E+03  0.41800000000E+01 0.  1.
        -11    1    1    2    0    0  0.13554613743E+02 -0.19566607887E+02  0.42121760057E+02  0.48382045929E+02  0.00000000000E+00 0.  1.
         11    1    1    2    0    0 -0.22525579629E+02 -0.66802071882E+02 -0.31978300021E+02  0.77411434669E+02  0.00000000000E+00 0. -1.
</event>
<event>
 7    1  0.2794945E-009  0.8492634E+02  0.7561462E-02  0.1315625E+00
          3   -1    0    0  501    0  0.00000000000E+00  0.00000000000E+00  0.19590823756E+03  0.19590823756E+03  0.00000000000E+00 0.  1.
         -3   -1    0    0    0  501 -0.00000000000E+00 -0.00000000000E+00 -0.71387132317E+02  0.71387132317E+02  0.00000000000E+00 0. -1.
         25    2    1    2    0    0  0.24606173805E+01  0.45834093581E+02  0.84941891987E+02  0.15801911280E+03  0.12509235078E+03 0.  0.
          5    1    3    3  502    0  0.33358600823E+02  0.14227338598E+02 -0.21725042235E+02  0.42481328517E+02  0.41800000000E+01 0.  1.
         -5    1    3    3    0  502 -0.30897983442E+02  0.31606754983E+02  0.10666693422E+03  0.11553778429E+03  0.41800000000E+01 0.  1.
        -11    1    1    2    0    0 -0.38909193123E+02 -0.16938918170E+02 -0.75016597805E+01  0.43094398218E+02  0.00000000000E+00 0. -1.
         11    1    1    2    0    0  0.36448575743E+02 -0.28895175411E+02  0.47080873037E+02  0.66181858856E+02  0.00000000000E+00 0.  1.
</event>
<event>
 7    1  0.2794945E-009  0.9662347E+02  0.7561462E-02  0.1287561E+00
         -1   -1    0    0    0  501 -0.00000000000E+00  0.00000000000E+00  0.48737974434E+03  0.48737974434E+03  0.00000000000E+00 0.  1.
          1   -1    0    0  501    0  0.00000000000E+00 -0.00000000000E+00 -0.22732854931E+02  0.22732854931E+02  0.00000000000E+00 0. -1.
         25    2    1    2    0    0 -0.58810337042E+01 -0.75395752326E+01  0.20155894563E+03  0.23741309781E+03  0.12509012230E+03 0.  0.
          5    1    3    3  502    0 -0.41504467738E+02  0.45169761598E+02  0.10589602672E+03  0.12245149685E+03  0.41800000000E+01 0.  1.
         -5    1    3    3    0  502  0.35623434034E+02 -0.52709336831E+02  0.95662918911E+02  0.11496160096E+03  0.41800000000E+01 0.  1.
        -11    1    1    2    0    0 -0.24776600910E+02 -0.15878443508E+02  0.15882348080E+03  0.16152678717E+03  0.00000000000E+00 0.  1.
         11    1    1    2    0    0  0.30657634614E+02  0.23418018741E+02  0.10426446297E+03  0.11117271428E+03  0.00000000000E+00 0. -1.
</event>
<event>
 7    1  0.2794945E-009  0.1395261E+03  0.7561462E-02  0.1213968E+00
         -2   -1    0    0    0  501 -0.00000000000E+00  0.00000000000E+00  0.14083390956E+02  0.14083390956E+02  0.00000000000E+00 0.  1.
          2   -1    0    0  501    0  0.00000000000E+00 -0.00000000000E+00 -0.14521343801E+04  0.14521343801E+04  0.00000000000E+00 0. -1.
         25    2    1    2    0    0  0.26682862140E+02  0.88816438051E+02 -0.84281445115E+03  0.85707896218E+03  0.12509122088E+03 0.  0.
          5    1    3    3  502    0  0.34119929900E+02  0.11677190267E+03 -0.57945325276E+03  0.59210082875E+03  0.41800000000E+01 0.  1.
         -5    1    3    3    0  502 -0.74370677598E+01 -0.27955464621E+02 -0.26336119840E+03  0.26497813344E+03  0.41800000000E+01 0.  1.
        -11    1    1    2    0    0  0.31308898840E+02 -0.16468141266E+02 -0.20563930764E+03  0.20865994266E+03  0.00000000000E+00 0. -1.
         11    1    1    2    0    0 -0.57991760980E+02 -0.72348296785E+02 -0.38959723036E+03  0.40047886622E+03  0.00000000000E+00 0.  1.
</event>
