<event>
 8    1  0.7052796E-009  0.1010407E+03  0.7561462E-02  0.1278123E+00
          1   -1    0    0  501    0  0.00000000000E+00  0.00000000000E+00  0.11966989536E+04  0.11966989536E+04  0.00000000000E+00 0.  1.
         -1   -1    0    0    0  501 -0.00000000000E+00 -0.00000000000E+00 -0.12518188868E+02  0.12518188868E+02  0.00000000000E+00 0. -1.
         25    2    1    2    0    0 -0.28882424632E+02 -0.40028198358E+02  0.82313876694E+03  0.83405093371E+03  0.12508828590E+03 0.  0.
         23    2    1    2    0    0  0.28882424632E+02  0.40028198358E+02  0.36104199779E+03  0.37516620876E+03  0.89229529348E+02 0.  0.
          5    1    3    3  502    0 -0.15743638455E+02 -0.77310512893E+02  0.33055632770E+03  0.33986723252E+03  0.41800000000E+01 0. -1.
         -5    1    3    3    0  502 -0.13138786177E+02  0.37282314535E+02  0.49258243924E+03  0.49418370119E+03  0.41800000000E+01 0. -1.
        -11    1    4    4    0    0 -0.13712649206E+02 -0.10475099982E+02  0.14970325587E+02  0.22844586143E+02  0.00000000000E+00 0. -1.
         11    1    4    4    0    0  0.42595073839E+02  0.50503298340E+02  0.34607167221E+03  0.35232162262E+03  0.00000000000E+00 0.  1.
</event>
<event>
 8    1  0.7052796E-009  0.1545899E+03  0.7561462E-02  0.1194944E+00
         -1   -1    0    0    0  501 -0.00000000000E+00  0.00000000000E+00  0.36698910628E+02  0.36698910628E+02  0.00000000000E+00 0.  1.
          1   -1    0    0  501    0  0.00000000000E+00 -0.00000000000E+00 -0.13816441167E+04  0.13816441167E+04  0.00000000000E+00 0. -1.
         25    2    1    2    0    0 -0.83585325097E+02  0.11380879287E+03 -0.11316793062E+04  0.11472944577E+04  0.12509025791E+03 0.  0.
         23    2    1    2    0    0  0.83585325097E+02 -0.11380879287E+03 -0.21326589985E+03  0.27104856963E+03  0.89699694273E+02 0.  0.
          5    1    3    3  502    0 -0.46952814026E+02  0.46274265797E+02 -0.91459790801E+03  0.91698019617E+03  0.41800000000E+01 0. -1.
         -5    1    3    3    0  502 -0.36632511072E+02  0.67534527077E+02 -0.21708139816E+03  0.23031426148E+03  0.41800000000E+01 0. -1.
        -11    1    4    4    0    0 -0.18741749987E+02 -0.18835539184E+02 -0.23584206096E+02  0.35528094603E+02  0.00000000000E+00 0.  1.
         11    1    4    4    0    0  0.10232707508E+03 -0.94973253691E+02 -0.18968169376E+03  0.23552047503E+03  0.00000000000E+00 0. -1.
</event>
<event>
 8    1  0.7052796E-009  0.1053254E+03  0.7561462E-02  0.1269480E+00
          2   -1    0    0  501    0  0.00000000000E+00  0.00000000000E+00  0.70760253204E+03  0.70760253204E+03  0.00000000000E+00 0.  1.
         -2   -1    0    0    0  501 -0.00000000000E+00 -0.00000000000E+00 -0.23464046122E+02  0.23464046122E+02  0.00000000000E+00 0. -1.
         25    2    1    2    0    0  0.18861563489E+02  0.17050519348E+02  0.56480588450E+03  0.57905051336E+03  0.12508929235E+03 0.  0.
         23    2    1    2    0    0 -0.18861563489E+02 -0.17050519348E+02  0.11933260142E+03  0.15201606481E+03  0.90675991375E+02 0.  0.
          5    1    3    3  502    0  0.61586976402E+02  0.45016657075E+02  0.33413161901E+03  0.34275481951E+03  0.41800000000E+01 0. -1.
         -5    1    3    3    0  502 -0.42725412913E+02 -0.27966137727E+02  0.23067426550E+03  0.23629569385E+03  0.41800000000E+01 0. -1.
        -11    1    4    4    0    0  0.15465782992E+02  0.24590525775E+02  0.80357945510E+02  0.85447550042E+02  0.00000000000E+00 0.  1.
         11    1    4    4    0    0 -0.34327346481E+02 -0.41641045123E+02  0.38974655909E+02  0.66568514769E+02  0.00000000000E+00 0. -1.
</event>
<event>
 8    1  0.7052796E-009  0.1009571E+03  0.7561462E-02  0.1278296E+00
          1   -1    0    0  501    0  0.00000000000E+00  0.00000000000E+00  0.26000430117E+02  0.26000430117E+02  0.00000000000E+00 0. -1.
         -1   -1    0    0    0  501 -0.00000000000E+00 -0.00000000000E+00 -0.46937531768E+03  0.46937531768E+03  0.00000000000E+00 0.  1.
         25    2    1    2    0    0 -0.30810098468E+01 -0.14012345820E+02 -0.23352542847E+03  0.26530728612E+03  0.12509193367E+03 0.  0.
         23    2    1    2    0    0  0.30810098468E+01  0.14012345820E+02 -0.20984945909E+03  0.23006846167E+03  0.93214071465E+02 0.  0.
          5    1    3    3  502    0  0.55053699676E+02 -0.75830499368E+01 -0.16978347321E+03  0.17869614621E+03  0.41800000000E+01 0. -1.
         -5    1    3    3    0  502 -0.58134709523E+02 -0.64292958834E+01 -0.63741955263E+02  0.86611139917E+02  0.41800000000E+01 0. -1.
        -11    1    4    4    0    0  0.23640323239E+02  0.44723902498E+02 -0.16133729729E+03  0.16908227535E+03  0.00000000000E+00 0.  1.
         11    1    4    4    0    0 -0.20559313392E+02 -0.30711556677E+02 -0.48512161791E+02  0.60986186324E+02  0.00000000000E+00 0. -1.
</event>
<event>
 8    1  0.7052796E-009  0.1413528E+03  0.7561462E-02  0.1211520E+00
          1   -1    0    0  501    0  0.00000000000E+00  0.00000000000E+00  0.30687821647E+03  0.30687821647E+03  0.00000000000E+00 0. -1.
         -1   -1    0    0    0  501 -0.00000000000E+00 -0.00000000000E+00 -0.79547225681E+02  0.79547225681E+02  0.00000000000E+00 0.  1.
         25    2    1    2    0    0  0.45950726602E+02 -0.10136509015E+03  0.14417824338E+03  0.22095692284E+03  0.12509294589E+03 0.  0.
         23    2    1    2    0    0 -0.45950726602E+02  0.10136509015E+03  0.83152747409E+02  0.16546851931E+03  0.89883817819E+02 0.  0.
          5    1    3    3  502    0  0.57364522954E+02  0.56935507031E+01  0.66630544241E+02  0.88205480778E+02  0.41800000000E+01 0.  1.
         -5    1    3    3    0  502 -0.11413796352E+02 -0.10705864085E+03  0.77547699143E+02  0.13275144206E+03  0.41800000000E+01 0.  1.
        -11    1    4    4    0    0  0.63961497508E+01  0.11722734030E+02 -0.16733379745E+02  0.21408858504E+02  0.00000000000E+00 0.  1.
         11    1    4    4    0    0 -0.52346876353E+02  0.89642356118E+02  0.99886127154E+02  0.14405966081E+03  0.00000000000E+00 0. -1.
</event>
<event>
 8    1  0.7052796E-009  0.2422150E+03  0.7561462E-02  0.1118326E+00
         -2   -1    0    0    0  501 -0.00000000000E+00  0.00000000000E+00  0.36124740060E+02  0.36124740060E+02  0.00000000000E+00 0.  1.
          2   -1    0    0  501    0  0.00000000000E+00 -0.00000000000E+00 -0.17892389854E+04  0.17892389854E+04  0.00000000000E+00 0. -1.
         25    2    1    2    0    0 -0.17877789406E+03 -0.14323312799E+03 -0.84210878785E+03  0.88163048283E+03  0.12509129998E+03 0.  0.
         23    2    1    2    0    0  0.17877789406E+03  0.14323312799E+03 -0.91100545753E+03  0.94373324267E+03  0.90687514596E+02 0.  0.
          5    1    3    3  502    0 -0.14886355067E+03 -0.61522548226E+02 -0.66518725025E+03  0.68442452539E+03  0.41800000000E+01 0. -1.
         -5    1    3    3    0  502 -0.29914343394E+02 -0.81710579762E+02 -0.17692153760E+03  0.19720595745E+03  0.41800000000E+01 0. -1.
        -11    1    4    4    0    0  0.46134707169E+02  0.72304339686E+02 -0.47053043000E+03  0.47828361282E+03  0.00000000000E+00 0. -1.
         11    1    4    4    0    0  0.13264318689E+03  0.70928788302E+02 -0.44047502754E+03  0.46544962985E+03  0.00000000000E+00 0.  1.
</event>
<event>
 8    1  0.7052796E-009  0.1366028E+03  0.7561462E-02  0.1217975E+00
         -1   -1    0    0    0  501 -0.00000000000E+00  0.00000000000E+00  0.28630903547E+02  0.28630903547E+02  0.00000000000E+00 0.  1.
          1   -1    0    0  501    0  0.00000000000E+00 -0.00000000000E+00 -0.22360003438E+04  0.22360003438E+04  0.00000000000E+00 0. -1.
         25    2    1    2    0    0  0.91896362673E+02 -0.49481232750E+02 -0.20503143973E+04  0.20567767497E+04  0.12509251190E+03 0.  0.
         23    2    1    2    0    0 -0.91896362673E+02  0.49481232750E+02 -0.15705504299E+03  0.20785449766E+03  0.87429238842E+02 0.  0.
          5    1    3    3  502    0  0.84769004602E+02 -0.84085472141E+02 -0.17982016659E+04  0.18021661562E+04  0.41800000000E+01 0.  1.
         -5    1    3    3    0  502  0.71273580713E+01  0.34604239391E+02 -0.25211273135E+03  0.25461059350E+03  0.41800000000E+01 0.  1.
        -11    1    4    4    0    0 -0.68556950020E+02  0.61325903841E+02 -0.15667239351E+03  0.18167872954E+03  0.00000000000E+00 0. -1.
         11    1    4    4    0    0 -0.23339412654E+02 -0.11844671091E+02 -0.38264947325E+00  0.26175768124E+02  0.00000000000E+00 0.  1.
</event>
<event>
 8    1  0.7052796E-009  0.1972528E+03  0.7561462E-02  0.1152078E+00
         -1   -1    0    0    0  501 -0.00000000000E+00  0.00000000000E+00  0.38214286529E+02  0.38214286529E+02  0.00000000000E+00 0.  1.
          1   -1    0    0  501    0  0.00000000000E+00 -0.00000000000E+00 -0.12188347271E+04  0.12188347271E+04  0.00000000000E+00 0. -1.
         25    2    1    2    0    0 -0.16742149106E+03 -0.66738034148E+02 -0.74486244243E+03  0.77649968597E+03  0.12509110002E+03 0.  0.
         23    2    1    2    0    0  0.16742149106E+03  0.66738034148E+02 -0.43575799814E+03  0.48054932765E+03  0.92513255786E+02 0.  0.
          5    1    3    3  502    0 -0.93467518443E+02  0.60010499683E+00 -0.18029906791E+03  0.20312991759E+03  0.41800000000E+01 0.  1.
         -5    1    3    3    0  502 -0.73953972615E+02 -0.67338139144E+02 -0.56456337452E+03  0.57336976839E+03  0.41800000000E+01 0.  1.
        -11    1    4    4    0    0  0.15291087205E+03  0.86990164169E+02 -0.35785784386E+03  0.39876215952E+03  0.00000000000E+00 0.  1.
         11    1    4    4    0    0  0.14510619006E+02 -0.20252130021E+02 -0.77900154285E+02  0.81787168137E+02  0.00000000000E+00 0. -1.
</event>
<event>
 8    1  0.7052796E-009  0.1557384E+03  0.7561462E-02  0.1193594E+00
         -2   -1    0    0    0  501 -0.00000000000E+00  0.00000000000E+00  0.10827267816E+03  0.10827267816E+03  0.00000000000E+00 0.  1.
          2   -1    0    0  501    0  0.00000000000E+00 -0.00000000000E+00 -0.35285473832E+03  0.35285473832E+03  0.00000000000E+00 0. -1.
         25    2    1    2    0    0 -0.12156237630E+03  0.96725964295E+02 -0.18533740300E+03  0.27227024370E+03  0.12509120332E+03 0.  0.
         23    2    1    2    0    0  0.12156237630E+03 -0.96725964295E+02 -0.59244657148E+02  0.18885717278E+03  0.89575548054E+02 0.  0.
          5    1    3    3  502    0 -0.39818906343E+02  0.39169256108E+02  0.60169264241E+01  0.56333397998E+02  0.41800000000E+01 0. -1.
         -5    1    3    3    0  502 -0.81743469961E+02  0.57556708187E+02 -0.19135432943E+03  0.21593684570E+03  0.41800000000E+01 0. -1.
        -11    1    4    4    0    0  0.97958329435E+02 -0.75811596270E+02 -0.83232415867E+02  0.14923427048E+03  0.00000000000E+00 0. -1.
         11    1    4    4    0    0  0.23604046869E+02 -0.20914368025E+02  0.23987758719E+02  0.39622902302E+02  0.00000000000E+00 0.  1.
</event>
<event>
 8    1  0.7052796E-009  0.1201704E+03  0.7561462E-02  0.1242816E+00
          1   -1    0    0  501    0  0.00000000000E+00  0.00000000000E+00  0.26473256174E+03  0.26473256174E+03  0.00000000000E+00 0. -1.
         -1   -1    0    0    0  501 -0.00000000000E+00 -0.00000000000E+00 -0.64690878872E+02  0.64690878872E+02  0.00000000000E+00 0.  1.
         25    2    1    2    0    0 -0.57415642731E+02  0.81705302309E+01  0.55287208115E+02  0.14855221633E+03  0.12509105483E+03 0.  0.
         23    2    1    2    0    0  0.57415642731E+02 -0.81705302309E+01  0.14475447475E+03  0.18087122428E+03  0.91636391350E+02 0.  0.
          5    1    3    3  502    0 -0.86965570226E+02 -0.24699239880E+02  0.51167127841E+02  0.10396446617E+03  0.41800000000E+01 0. -1.
         -5    1    3    3    0  502  0.29549927495E+02  0.32869770111E+02  0.41200802742E+01  0.44587750151E+02  0.41800000000E+01 0. -1.
        -11    1    4    4    0    0 -0.23561183371E+02  0.27946188814E+01  0.16885051928E+02  0.29121199067E+02  0.00000000000E+00 0.  1.
         11    1    4    4    0    0  0.80976826102E+02 -0.10965149112E+02  0.12786942282E+03  0.15175002522E+03  0.00000000000E+00 0. -1.
</event>
<event>
 8    1  0.7052796E-009  0.1190357E+03  0.7561462E-02  0.1244696E+00
         -2   -1    0    0    0  501 -0.00000000000E+00  0.00000000000E+00  0.77815363478E+02  0.77815363478E+02  0.00000000000E+00 0.  1.
          2   -1    0    0  501    0  0.00000000000E+00 -0.00000000000E+00 -0.22639060869E+03  0.22639060869E+03  0.00000000000E+00 0. -1.
         25    2    1    2    0    0 -0.60879939535E+02 -0.31114657788E+02 -0.44475682843E+02  0.14933235297E+03  0.12509027265E+03 0.  0.
         23    2    1    2    0    0  0.60879939535E+02  0.31114657788E+02 -0.10409956237E+03  0.15487361920E+03  0.92057754000E+02 0.  0.
          5    1    3    3  502    0 -0.33692293944E+02 -0.69181968180E+02 -0.62301958960E+02  0.99097537218E+02  0.41800000000E+01 0. -1.
         -5    1    3    3    0  502 -0.27187645591E+02  0.38067310392E+02  0.17826276117E+02  0.50234815751E+02  0.41800000000E+01 0. -1.
        -11    1    4    4    0    0  0.31828845666E+02 -0.31646213110E+02 -0.48997060701E+02  0.66447499410E+02  0.00000000000E+00 0. -1.
         11    1    4    4    0    0  0.29051093870E+02  0.62760870898E+02 -0.55102501674E+02  0.88426119793E+02  0.00000000000E+00 0.  1.
</event>
<event>
 8    1  0.7052796E-009  0.1619560E+03  0.7561462E-02  0.1186506E+00
          1   -1    0    0  501    0  0.00000000000E+00  0.00000000000E+00  0.59642277529E+03  0.59642277529E+03  0.00000000000E+00 0. -1.
         -1   -1    0    0    0  501 -0.00000000000E+00 -0.00000000000E+00 -0.59401061513E+02  0.59401061513E+02  0.00000000000E+00 0.  1.
         25    2    1    2    0    0 -0.73822638736E+02  0.12011456499E+03  0.17628076510E+03  0.25806846144E+03  0.12508849640E+03 0.  0.
         23    2    1    2    0    0  0.73822638736E+02 -0.12011456499E+03  0.36074094868E+03  0.39775537537E+03  0.90542895171E+02 0.  0.
          5    1    3    3  502    0  0.22563342699E+02  0.38155795748E+02  0.45981344390E+01  0.44761416681E+02  0.41800000000E+01 0.  1.
         -5    1    3    3    0  502 -0.96385981436E+02  0.81958769242E+02  0.17168263066E+03  0.21330704476E+03  0.41800000000E+01 0.  1.
        -11    1    4    4    0    0  0.40071363383E+02 -0.15655202595E+02  0.18969809855E+03  0.19451521309E+03  0.00000000000E+00 0. -1.
         11    1    4    4    0    0  0.33751275354E+02 -0.10445936240E+03  0.17104285013E+03  0.20324016227E+03  0.00000000000E+00 0.  1.
</event>
<event>
 8    1  0.7052796E-009  0.8521911E+02  0.7561462E-02  0.1314861E+00
         -1   -1    0    0    0  501 -0.00000000000E+00  0.00000000000E+00  0.12588653595E+03  0.12588653595E+03  0.00000000000E+00 0.  1.
          1   -1    0    0  501    0  0.00000000000E+00 -0.00000000000E+00 -0.11452852108E+03  0.11452852108E+03  0.00000000000E+00 0. -1.
         25    2    1    2    0    0 -0.29147352762E+02 -0.41884974793E+02 -0.17421839389E+02  0.13621524498E+03  0.12508858137E+03 0.  0.
         23    2    1    2    0    0  0.29147352762E+02  0.41884974793E+02  0.28779854251E+02  0.10419981205E+03  0.86170769608E+02 0.  0.
          5    1    3    3  502    0 -0.55813221058E+01 -0.63083039203E+02  0.36730187885E+02  0.73329394472E+02  0.41800000000E+01 0. -1.
         -5    1    3    3    0  502 -0.23566030656E+02  0.21198064411E+02 -0.54152027275E+02  0.62885850504E+02  0.41800000000E+01 0. -1.
        -11    1    4    4    0    0 -0.17419912982E+01  0.44002951534E+02  0.50027383872E+02  0.66648581489E+02  0.00000000000E+00 0.  1.
         11    1    4    4    0    0  0.30889344060E+02 -0.21179767414E+01 -0.21247529621E+02  0.37551230565E+02  0.00000000000E+00 0. -1.
</event>
<event>
 8    1  0.7052796E-009  0.3360209E+03  0.7561462E-02  0.1068503E+00
          2   -1    0    0  501    0  0.00000000000E+00  0.00000000000E+00  0.36010523670E+03  0.36010523670E+03  0.00000000000E+00 0. -1.
         -2   -1    0    0    0  501 -0.00000000000E+00 -0.00000000000E+00 -0.43290359054E+03  0.43290359054E+03  0.00000000000E+00 0.  1.
         25    2    1    2    0    0 -0.26094480275E+03 -0.20285499217E+03  0.15000533826E+03  0.38391561493E+03  0.12508900812E+03 0.  0.
         23    2    1    2    0    0  0.26094480275E+03  0.20285499217E+03 -0.22280369210E+03  0.40909321231E+03  0.92051253208E+02 0.  0.
          5    1    3    3  502    0 -0.53549569648E+02 -0.40944923241E+02  0.92547174833E+02  0.11457091742E+03  0.41800000000E+01 0.  1.
         -5    1    3    3    0  502 -0.20739523310E+03 -0.16191006893E+03  0.57458163426E+02  0.26934469751E+03  0.41800000000E+01 0.  1.
        -11    1    4    4    0    0  0.19919161040E+03  0.19561518259E+03 -0.16557302226E+03  0.32458746589E+03  0.00000000000E+00 0. -1.
         11    1    4    4    0    0  0.61753192351E+02  0.72398095829E+01 -0.57230669845E+02  0.84505746427E+02  0.00000000000E+00 0.  1.
</event>
<event>
 8    1  0.7052796E-009  0.1476325E+03  0.7561462E-02  0.1203413E+00
         -2   -1    0    0    0  501 -0.00000000000E+00  0.00000000000E+00  0.11518866862E+03  0.11518866862E+03  0.00000000000E+00 0.  1.
          2   -1    0    0  501    0  0.00000000000E+00 -0.00000000000E+00 -0.27420713460E+03  0.27420713460E+03  0.00000000000E+00 0. -1.
         25    2    1    2    0    0 -0.75637619987E+02  0.74076697328E+02  0.16550253737E+02  0.16470860699E+03  0.12508640083E+03 0.  0.
         23    2    1    2    0    0  0.75637619987E+02 -0.74076697328E+02 -0.17556871971E+03  0.22468719624E+03  0.91932334715E+02 0.  0.
          5    1    3    3  502    0 -0.83016189627E+02  0.13010271310E+01  0.33295467690E+02  0.89551331540E+02  0.41800000000E+01 0. -1.
         -5    1    3    3    0  502  0.73785696399E+01  0.72775670197E+02 -0.16745213953E+02  0.75157275449E+02  0.41800000000E+01 0. -1.
        -11    1    4    4    0    0 -0.66229390062E+01 -0.53715727466E+02 -0.53629541880E+02  0.76192981701E+02  0.00000000000E+00 0.  1.
         11    1    4    4    0    0  0.82260558993E+02 -0.20360969862E+02 -0.12193917783E+03  0.14849421453E+03  0.00000000000E+00 0. -1.
</event>
<event>
 8    1  0.7052796E-009  0.7461613E+02  0.7561462E-02  0.1345064E+00
          1   -1    0    0  501    0  0.00000000000E+00  0.00000000000E+00  0.23111740478E+03  0.23111740478E+03  0.00000000000E+00 0. -1.
         -1   -1    0    0    0  501 -0.00000000000E+00 -0.00000000000E+00 -0.69899464660E+02  0.69899464660E+02  0.00000000000E+00 0.  1.
         25    2    1    2    0    0  0.57172810032E+02 -0.12261269464E+01  0.12819119725E+03  0.18801774030E+03  0.12508978384E+03 0.  0.
         23    2    1    2    0    0 -0.57172810032E+02  0.12261269464E+01  0.33026742862E+02  0.11299912913E+03  0.91694077490E+02 0.  0.
          5    1    3    3  502    0  0.37738284505E+02 -0.80209797080E+01  0.15164446931E+03  0.15653124833E+03  0.41800000000E+01 0.  1.
         -5    1    3    3    0  502  0.19434525527E+02  0.67948527616E+01 -0.23453272054E+02  0.31486491970E+02  0.41800000000E+01 0.  1.
        -11    1    4    4    0    0 -0.73288004520E+02  0.13843417326E+01 -0.31775374341E+01  0.73369917219E+02  0.00000000000E+00 0.  1.
         11    1    4    4    0    0  0.16115194488E+02 -0.15821478618E+00  0.36204280296E+02  0.39629211916E+02  0.00000000000E+00 0. -1.
</event>
<event>
 8    1  0.7052796E-009  0.1571500E+03  0.7561462E-02  0.1191952E+00
         -2   -1    0    0    0  501 -0.00000000000E+00  0.00000000000E+00  0.31792499250E+03  0.31792499250E+03  0.00000000000E+00 0. -1.
          2   -1    0    0  501    0  0.00000000000E+00 -0.00000000000E+00 -0.10470846059E+03  0.10470846059E+03  0.00000000000E+00 0.  1.
         25    2    1    2    0    0 -0.13788553957E+03  0.55952119052E+01  0.55478647974E+02  0.19434161660E+03  0.12508818946E+03 0.  0.
         23    2    1    2    0    0  0.13788553957E+03 -0.55952119052E+01  0.15773788394E+03  0.22829183650E+03  0.90510740590E+02 0.  0.
          5    1    3    3  502    0 -0.13667383149E+03  0.18736537366E+02  0.88301674992E+00  0.13801828200E+03  0.41800000000E+01 0. -1.
         -5    1    3    3    0  502 -0.12117080734E+01 -0.13141325461E+02  0.54595631224E+02  0.56323334597E+02  0.41800000000E+01 0. -1.
        -11    1    4    4    0    0  0.30770200307E+01 -0.25926295747E+02  0.42017024249E+02  0.49467880388E+02  0.00000000000E+00 0. -1.
         11    1    4    4    0    0  0.13480851954E+03  0.20331083842E+02  0.11572085969E+03  0.17882395611E+03  0.00000000000E+00 0.  1.
</event>
<event>
 8    1  0.7052796E-009  0.1056499E+03  0.7561462E-02  0.1268845E+00
         -2   -1    0    0    0  501 -0.00000000000E+00  0.00000000000E+00  0.30520279269E+02  0.30520279269E+02  0.00000000000E+00 0.  1.
          2   -1    0    0  501    0  0.00000000000E+00 -0.00000000000E+00 -0.60049449323E+03  0.60049449323E+03  0.00000000000E+00 0. -1.
         25    2    1    2    0    0  0.56097565262E+02  0.23054567717E+02 -0.18963274128E+03  0.23512851887E+03  0.12508554632E+03 0.  0.
         23    2    1    2    0    0 -0.56097565262E+02 -0.23054567717E+02 -0.38034147268E+03  0.39588625363E+03  0.91585151919E+02 0.  0.
          5    1    3    3  502    0  0.44014597154E+02  0.53372356212E+02 -0.18997599260E+03  0.20222325122E+03  0.41800000000E+01 0.  1.
         -5    1    3    3    0  502  0.12082968108E+02 -0.30317788494E+02  0.34325131978E+00  0.32905267647E+02  0.41800000000E+01 0.  1.
        -11    1    4    4    0    0 -0.58363356488E+02  0.23181339095E+02 -0.19562047977E+03  0.20545322574E+03  0.00000000000E+00 0. -1.
         11    1    4    4    0    0  0.22657912259E+01 -0.46235906812E+02 -0.18472099291E+03  0.19043302789E+03  0.00000000000E+00 0.  1.
</event>
<event>
 8    1  0.7052796E-009  0.1461400E+03  0.7561462E-02  0.1205298E+00
         -3   -1    0    0    0  501 -0.00000000000E+00  0.00000000000E+00  0.12816328319E+04  0.12816328319E+04  0.00000000000E+00 0.  1.
          3   -1    0    0  501    0  0.00000000000E+00 -0.00000000000E+00 -0.18687248193E+02  0.18687248193E+02  0.00000000000E+00 0. -1.
         25    2    1    2    0    0 -0.29048451190E+02  0.94433834832E+02  0.87854025683E+03  0.89288482710E+03  0.12509504353E+03 0.  0.
         23    2    1    2    0    0  0.29048451190E+02 -0.94433834832E+02  0.38440532684E+03  0.40743525295E+03  0.92056875736E+02 0.  0.
          5    1    3    3  502    0  0.87716750352E+01 -0.27985000959E+02  0.21971589696E+03  0.22170397006E+03  0.41800000000E+01 0.  1.
         -5    1    3    3    0  502 -0.37820126226E+02  0.12241883579E+03  0.65882435987E+03  0.67118085704E+03  0.41800000000E+01 0.  1.
        -11    1    4    4    0    0  0.49993485769E+02 -0.10084417420E+03  0.33465926763E+03  0.35308033293E+03  0.00000000000E+00 0.  1.
         11    1    4    4    0    0 -0.20945034579E+02  0.64103393688E+01  0.49746059209E+02  0.54354920027E+02  0.00000000000E+00 0. -1.
</event>
<event>
 8    1  0.7052796E-009  0.1349373E+03  0.7561462E-02  0.1220308E+00
         -2   -1    0    0    0  501 -0.00000000000E+00  0.00000000000E+00  0.10379350553E+02  0.10379350553E+02  0.00000000000E+00 0.  1.
          2   -1    0    0  501    0  0.00000000000E+00 -0.00000000000E+00 -0.22329322419E+04  0.22329322419E+04  0.00000000000E+00 0. -1.
         25    2    1    2    0    0  0.94833887181E+02  0.45384295599E+00 -0.15638807138E+04  0.15717378939E+04  0.12507376957E+03 0.  0.
         23    2    1    2    0    0 -0.94833887181E+02 -0.45384295599E+00 -0.65867217753E+03  0.67157369859E+03  0.90379881894E+02 0.  0.
          5    1    3    3  502    0 -0.12107546996E+02 -0.25921899671E+02 -0.73397634247E+03  0.73454562914E+03  0.41800000000E+01 0.  1.
         -5    1    3    3    0  502  0.10694143418E+03  0.26375742627E+02 -0.82990437137E+03  0.83719226475E+03  0.41800000000E+01 0.  1.
        -11    1    4    4    0    0 -0.50474567685E+02 -0.45180264205E+02 -0.31974678357E+03  0.32684391361E+03  0.00000000000E+00 0.  1.
         11    1    4    4    0    0 -0.44359319497E+02  0.44726421249E+02 -0.33892539396E+03  0.34472978498E+03  0.00000000000E+00 0. -1.
</event>
<event>
 8    1  0.7052796E-009  0.1231326E+03  0.7561462E-02  0.1238017E+00
         -1   -1    0    0    0  501 -0.00000000000E+00  0.00000000000E+00  0.38342419834E+02  0.38342419834E+02  0.00000000000E+00 0.  1.
          1   -1    0    0  501    0  0.00000000000E+00 -0.00000000000E+00 -0.75933576660E+03  0.75933576660E+03  0.00000000000E+00 0. -1.
         25    2    1    2    0    0  0.14734722447E+02 -0.79453972551E+02 -0.62222905791E+03  0.63980139900E+03  0.12508710508E+03 0.  0.
         23    2    1    2    0    0 -0.14734722447E+02  0.79453972551E+02 -0.98764288865E+02  0.15787678744E+03  0.92955093774E+02 0.  0.
          5    1    3    3  502    0 -0.36393700465E+02 -0.88594890341E+02 -0.43630137305E+03  0.44671010349E+03  0.41800000000E+01 0.  1.
         -5    1    3    3    0  502  0.51128422912E+02  0.91409177906E+01 -0.18592768485E+03  0.19309129551E+03  0.41800000000E+01 0.  1.
        -11    1    4    4    0    0 -0.31221341092E+02  0.21181201646E+02  0.46717193937E+01  0.38016317613E+02  0.00000000000E+00 0.  1.
         11    1    4    4    0    0  0.16486618645E+02  0.58272770905E+02 -0.10343600826E+03  0.11986046983E+03  0.00000000000E+00 0. -1.
</event>
<event>
 8    1  0.7052796E-009  0.1554507E+03  0.7561462E-02  0.1193931E+00
          1   -1    0    0  501    0  0.00000000000E+00  0.00000000000E+00  0.46823625180E+03  0.46823625180E+03  0.00000000000E+00 0. -1.
         -1   -1    0    0    0  501 -0.00000000000E+00 -0.00000000000E+00 -0.68642230232E+02  0.68642230232E+02  0.00000000000E+00 0.  1.
         25    2    1    2    0    0  0.33023530017E+02 -0.13726952797E+03  0.24043747353E+03  0.30560032761E+03  0.12509158531E+03 0.  0.
         23    2    1    2    0    0 -0.33023530017E+02  0.13726952797E+03  0.15915654804E+03  0.23127815443E+03  0.90693445669E+02 0.  0.
          5    1    3    3  502    0  0.37655922248E+02 -0.12176438981E+03  0.25390909616E+03  0.28413348380E+03  0.41800000000E+01 0. -1.
         -5    1    3    3    0  502 -0.46323922318E+01 -0.15505138155E+02 -0.13471622625E+02  0.21466843810E+02  0.41800000000E+01 0. -1.
        -11    1    4    4    0    0 -0.40658028782E+02  0.13764928112E+02  0.29718032837E+02  0.52208332918E+02  0.00000000000E+00 0.  1.
         11    1    4    4    0    0  0.76344987657E+01  0.12350459985E+03  0.12943851520E+03  0.17906982151E+03  0.00000000000E+00 0. -1.
</event>
<event>
 8    1  0.7052796E-009  0.1083689E+03  0.7561462E-02  0.1263621E+00
         -4   -1    0    0    0  501 -0.00000000000E+00  0.00000000000E+00  0.74066200323E+03  0.74066200323E+03  0.00000000000E+00 0.  1.
          4   -1    0    0  501    0  0.00000000000E+00 -0.00000000000E+00 -0.34333482196E+02  0.34333482196E+02  0.00000000000E+00 0. -1.
         25    2    1    2    0    0  0.27271192484E+02  0.10001808919E+03  0.50789224512E+03  0.53324650986E+03  0.12509984621E+03 0.  0.
         23    2    1    2    0    0 -0.27271192484E+02 -0.10001808919E+03  0.19843627591E+03  0.24174897556E+03  0.91204580381E+02 0.  0.
          5    1    3    3  502    0  0.16165871686E+02  0.94553348542E+02  0.51089729221E+03  0.51984150153E+03  0.41800000000E+01 0. -1.
         -5    1    3    3    0  502  0.11105320799E+02  0.54647406496E+01 -0.30050470866E+01  0.13405008333E+02  0.41800000000E+01 0. -1.
        -11    1    4    4    0    0  0.19375501616E+01 -0.47691346626E+02  0.16992831162E+02  0.50665322998E+02  0.00000000000E+00 0. -1.
         11    1    4    4    0    0 -0.29208742646E+02 -0.52326742566E+02  0.18144344475E+03  0.19108365257E+03  0.00000000000E+00 0.  1.
</event>
<event>
 8    1  0.7052796E-009  0.1064150E+03  0.7561462E-02  0.1267357E+00
         -2   -1    0    0    0  501 -0.00000000000E+00  0.00000000000E+00  0.76877775541E+02  0.76877775541E+02  0.00000000000E+00 0. -1.
          2   -1    0    0  501    0  0.00000000000E+00 -0.00000000000E+00 -0.25118300811E+03  0.25118300811E+03  0.00000000000E+00 0.  1.
         25    2    1    2    0    0 -0.16980925066E+02 -0.54287372399E+02 -0.21305497135E+02  0.13904892110E+03  0.12508080441E+03 0.  0.
         23    2    1    2    0    0  0.16980925066E+02  0.54287372399E+02 -0.15299973543E+03  0.18901186255E+03  0.95294777007E+02 0.  0.
          5    1    3    3  502    0 -0.19527815997E+02 -0.81713059155E+02  0.22554331647E+02  0.87089206622E+02  0.41800000000E+01 0.  1.
         -5    1    3    3    0  502  0.25468909314E+01  0.27425686755E+02 -0.43859828782E+02  0.51959714474E+02  0.41800000000E+01 0.  1.
        -11    1    4    4    0    0  0.36387631110E+02  0.67977174367E+02 -0.75336967888E+02  0.10779895483E+03  0.00000000000E+00 0. -1.
         11    1    4    4    0    0 -0.19406706044E+02 -0.13689801968E+02 -0.77662767543E+02  0.81212907717E+02  0.00000000000E+00 0.  1.
</event>
<event>
 8    1  0.7052796E-009  0.1066428E+03  0.7561462E-02  0.1266916E+00
          1   -1    0    0  501    0  0.00000000000E+00  0.00000000000E+00  0.10685475946E+03  0.10685475946E+03  0.00000000000E+00 0. -1.
         -1   -1    0    0    0  501 -0.00000000000E+00 -0.00000000000E+00 -0.16856093592E+03  0.16856093592E+03  0.00000000000E+00 0.  1.
         25    2    1    2    0    0 -0.34274210719E+02 -0.25102762054E+00  0.37995081497E+02  0.13514971439E+03  0.12508810713E+03 0.  0.
         23    2    1    2    0    0  0.34274210719E+02  0.25102762054E+00 -0.99701257956E+02  0.14026598098E+03  0.92517133807E+02 0.  0.
          5    1    3    3  502    0 -0.23657266207E+02 -0.61946115593E+02  0.13516783257E+02  0.67802384258E+02  0.41800000000E+01 0. -1.
         -5    1    3    3    0  502 -0.10616944512E+02  0.61695087973E+02  0.24478298240E+02  0.67347330129E+02  0.41800000000E+01 0. -1.
        -11    1    4    4    0    0 -0.24861941073E+02 -0.18385457628E+01 -0.71325775946E+00  0.24940030094E+02  0.00000000000E+00 0. -1.
         11    1    4    4    0    0  0.59136151792E+02  0.20895733833E+01 -0.98988000197E+02  0.11532595089E+03  0.00000000000E+00 0.  1.
</event>
<event>
 8    1  0.7052796E-009  0.1394650E+03  0.7561462E-02  0.1214051E+00
          2   -1    0    0  501    0  0.00000000000E+00  0.00000000000E+00  0.14480698466E+04  0.14480698466E+04  0.00000000000E+00 0. -1.
         -2   -1    0    0    0  501 -0.00000000000E+00 -0.00000000000E+00 -0.15693623694E+02  0.15693623694E+02  0.00000000000E+00 0.  1.
         25    2    1    2    0    0  0.94999442735E+02  0.27761895213E+02  0.94515861400E+03  0.95852421903E+03  0.12509298903E+03 0.  0.
         23    2    1    2    0    0 -0.94999442735E+02 -0.27761895213E+02  0.48721760895E+03  0.50523925131E+03  0.89944903388E+02 0.  0.
          5    1    3    3  502    0  0.44526701877E+02 -0.42179011398E+02  0.58212053869E+03  0.58535757461E+03  0.41800000000E+01 0.  1.
         -5    1    3    3    0  502  0.50472740857E+02  0.69940906611E+02  0.36303807531E+03  0.37316664443E+03  0.41800000000E+01 0.  1.
        -11    1    4    4    0    0  0.16368684981E+02 -0.17805683110E+00  0.34159500285E+02  0.37879242494E+02  0.00000000000E+00 0.  1.
         11    1    4    4    0    0 -0.11136812772E+03 -0.27583838382E+02  0.45305810867E+03  0.46736000882E+03  0.00000000000E+00 0. -1.
</event>
<event>
 8    1  0.7052796E-009  0.9356632E+02  0.7561462E-02  0.1294438E+00
         -2   -1    0    0    0  501 -0.00000000000E+00  0.00000000000E+00  0.96839947433E+02  0.96839947433E+02  0.00000000000E+00 0.  1.
          2   -1    0    0  501    0  0.00000000000E+00 -0.00000000000E+00 -0.16423893533E+03  0.16423893533E+03  0.00000000000E+00 0. -1.
         25    2    1    2    0    0  0.38969669124E+00  0.56157548604E+02 -0.58001400397E+01  0.13724517098E+03  0.12509505668E+03 0.  0.
         23    2    1    2    0    0 -0.38969669124E+00 -0.56157548604E+02 -0.61598847860E+02  0.12383371178E+03  0.91578097749E+02 0.  0.
          5    1    3    3  502    0  0.51675141033E+02 -0.47462244595E+00 -0.26150953973E+02  0.58067979653E+02  0.41800000000E+01 0. -1.
         -5    1    3    3    0  502 -0.51285444342E+02  0.56632171050E+02  0.20350813933E+02  0.79177191330E+02  0.41800000000E+01 0. -1.
        -11    1    4    4    0    0  0.84192880025E+01 -0.24342883666E+02  0.22049895591E+02  0.33906611320E+02  0.00000000000E+00 0.  1.
         11    1    4    4    0    0 -0.88089846938E+01 -0.31814664938E+02 -0.83648743451E+02  0.89927100462E+02  0.00000000000E+00 0. -1.
</event>
<event>
 8    1  0.7052796E-009  0.4003781E+02  0.7561462E-02  0.1507933E+00
          2   -1    0    0  501    0  0.00000000000E+00  0.00000000000E+00  0.62989360184E+02  0.62989360184E+02  0.00000000000E+00 0. -1.
         -2   -1    0    0    0  501 -0.00000000000E+00 -0.00000000000E+00 -0.22704301990E+03  0.22704301990E+03  0.00000000000E+00 0.  1.
         25    2    1    2    0    0 -0.71907609861E+00  0.11596782911E+02 -0.31553226412E+02  0.12952116238E+03  0.12508046595E+03 0.  0.
         23    2    1    2    0    0  0.71907609861E+00 -0.11596782911E+02 -0.13250043331E+03  0.16051121771E+03  0.89847001840E+02 0.  0.
          5    1    3    3  502    0 -0.88955752703E+01  0.11564261733E+02  0.47536322022E+02  0.49900277756E+02  0.41800000000E+01 0. -1.
         -5    1    3    3    0  502  0.81764991717E+01  0.32521178353E-01 -0.79089548434E+02  0.79620884621E+02  0.41800000000E+01 0. -1.
        -11    1    4    4    0    0 -0.20547644044E+02 -0.23603069584E+02 -0.13244244168E+03  0.13608934906E+03  0.00000000000E+00 0.  1.
         11    1    4    4    0    0  0.21266720143E+02  0.12006286673E+02 -0.57991627563E-01  0.24421868650E+02  0.00000000000E+00 0. -1.
</event>
<event>
 8    1  0.7052796E-009  0.5515950E+02  0.7561462E-02  0.1419346E+00
          1   -1    0    0  501    0  0.00000000000E+00  0.00000000000E+00  0.73979859300E+02  0.73979859300E+02  0.00000000000E+00 0. -1.
         -1   -1    0    0    0  501 -0.00000000000E+00 -0.00000000000E+00 -0.19087231266E+03  0.19087231266E+03  0.00000000000E+00 0.  1.
         25    2    1    2    0    0 -0.43417423108E+02 -0.14782960201E+02 -0.82917693174E+02  0.15694228530E+03  0.12510766776E+03 0.  0.
         23    2    1    2    0    0  0.43417423108E+02  0.14782960201E+02 -0.33974760183E+02  0.10790988666E+03  0.91578658905E+02 0.  0.
          5    1    3    3  502    0 -0.15802232367E+02  0.42195978722E+01  0.32532263756E+02  0.36651550296E+02  0.41800000000E+01 0. -1.
         -5    1    3    3    0  502 -0.27615190742E+02 -0.19002558073E+02 -0.11544995693E+03  0.12029073501E+03  0.41800000000E+01 0. -1.
        -11    1    4    4    0    0  0.37880239305E+02 -0.58177036818E+01 -0.61879077531E+02  0.72785839571E+02  0.00000000000E+00 0.  1.
         11    1    4    4    0    0  0.55371838030E+01  0.20600663883E+02  0.27904317348E+02  0.35124047084E+02  0.00000000000E+00 0. -1.
</event>
<event>
 8    1  0.7052796E-009  0.9431791E+02  0.7561462E-02  0.1292720E+00
         -1   -1    0    0    0  501 -0.00000000000E+00  0.00000000000E+00  0.12953235710E+03  0.12953235710E+03  0.00000000000E+00 0.  1.
          1   -1    0    0  501    0  0.00000000000E+00 -0.00000000000E+00 -0.14619882475E+03  0.14619882475E+03  0.00000000000E+00 0. -1.
         25    2    1    2    0    0  0.22875695524E+02 -0.44195694173E+02  0.55931731373E+02  0.14578113314E+03  0.12508886192E+03 0.  0.
         23    2    1    2    0    0 -0.22875695524E+02  0.44195694173E+02 -0.72598199024E+02  0.12995004871E+03  0.95603137124E+02 0.  0.
          5    1    3    3  502    0 -0.41489127023E+02  0.17033135404E+02  0.12146376146E+02  0.46652783586E+02  0.41800000000E+01 0. -1.
         -5    1    3    3    0  502  0.64364822547E+02 -0.61228829577E+02  0.43785355227E+02  0.99128349553E+02  0.41800000000E+01 0. -1.
        -11    1    4    4    0    0 -0.21720982824E+02  0.17382932163E+02 -0.92464798501E+02  0.96559341274E+02  0.00000000000E+00 0. -1.
         11    1    4    4    0    0 -0.11547126997E+01  0.26812762009E+02  0.19866599477E+02  0.33390707431E+02  0.00000000000E+00 0.  1.
</event>
<event>
 8    1  0.7052796E-009  0.7454450E+02  0.7561462E-02  0.1345287E+00
          2   -1    0    0  501    0  0.00000000000E+00  0.00000000000E+00  0.30550360811E+03  0.30550360811E+03  0.00000000000E+00 0.  1.
         -2   -1    0    0    0  501 -0.00000000000E+00 -0.00000000000E+00 -0.42240984641E+02  0.42240984641E+02  0.00000000000E+00 0. -1.
         25    2    1    2    0    0 -0.41149824235E+02  0.57544357714E+01  0.12511270061E+03  0.18173437313E+03  0.12509105866E+03 0.  0.
         23    2    1    2    0    0  0.41149824235E+02 -0.57544357714E+01  0.13814992286E+03  0.16601021962E+03  0.82143595412E+02 0.  0.
          5    1    3    3  502    0  0.16352871772E+02  0.35316627973E+02 -0.18591086092E+01  0.39186851256E+02  0.41800000000E+01 0.  1.
         -5    1    3    3    0  502 -0.57502696006E+02 -0.29562192202E+02  0.12697180922E+03  0.14254752187E+03  0.41800000000E+01 0.  1.
        -11    1    4    4    0    0  0.14693115273E+02  0.64160109783E+01 -0.73408590530E+01  0.17633520492E+02  0.00000000000E+00 0. -1.
         11    1    4    4    0    0  0.26456708962E+02 -0.12170446750E+02  0.14549078191E+03  0.14837669913E+03  0.00000000000E+00 0.  1.
</event>
<event>
 8    1  0.7052796E-009  0.9825606E+02  0.7561462E-02  0.1284007E+00
         -2   -1    0    0    0  501 -0.00000000000E+00  0.00000000000E+00  0.23944773559E+03  0.23944773559E+03  0.00000000000E+00 0. -1.
          2   -1    0    0  501    0  0.00000000000E+00 -0.00000000000E+00 -0.49000297632E+02  0.49000297632E+02  0.00000000000E+00 0.  1.
         25    2    1    2    0    0 -0.95031493141E+01 -0.74076971422E+01  0.10850901269E+03  0.16602585046E+03  0.12508074737E+03 0.  0.
         23    2    1    2    0    0  0.95031493141E+01  0.74076971422E+01  0.81938425269E+02  0.12242218276E+03  0.90155984122E+02 0.  0.
          5    1    3    3  502    0  0.50984785930E+02 -0.23383767849E+02  0.78347150815E+02  0.96446863277E+02  0.41800000000E+01 0. -1.
         -5    1    3    3    0  502 -0.60487935244E+02  0.15976070707E+02  0.30161861871E+02  0.69578987179E+02  0.41800000000E+01 0. -1.
        -11    1    4    4    0    0  0.10233519454E+02  0.41865431616E+02  0.76112991601E+02  0.87467861385E+02  0.00000000000E+00 0. -1.
         11    1    4    4    0    0 -0.73037013980E+00 -0.34457734474E+02  0.58254336686E+01  0.34954321379E+02  0.00000000000E+00 0.  1.
</event>
<event>
 8    1  0.7052796E-009  0.1223633E+03  0.7561462E-02  0.1239248E+00
          2   -1    0    0  501    0  0.00000000000E+00  0.00000000000E+00  0.90206943917E+03  0.90206943917E+03  0.00000000000E+00 0. -1.
         -2   -1    0    0    0  501 -0.00000000000E+00 -0.00000000000E+00 -0.20433035316E+02  0.20433035316E+02  0.00000000000E+00 0.  1.
         25    2    1    2    0    0  0.55069570578E+02 -0.62680199100E+02  0.51260165410E+03  0.53420015637E+03  0.12509151181E+03 0.  0.
         23    2    1    2    0    0 -0.55069570578E+02  0.62680199100E+02  0.36903474976E+03  0.38830231811E+03  0.87353184028E+02 0.  0.
          5    1    3    3  502    0 -0.20721502895E+02  0.15845413371E+02  0.22523818892E+03  0.22678221261E+03  0.41800000000E+01 0. -1.
         -5    1    3    3    0  502  0.75791073473E+02 -0.78525612471E+02  0.28736346518E+03  0.30741794377E+03  0.41800000000E+01 0. -1.
        -11    1    4    4    0    0 -0.45206260130E+02 -0.43814684239E+00  0.24112445875E+03  0.24532591086E+03  0.00000000000E+00 0. -1.
         11    1    4    4    0    0 -0.98633104476E+01  0.63118345942E+02  0.12791029100E+03  0.14297640726E+03  0.00000000000E+00 0.  1.
</event>
<event>
 8    1  0.7052796E-009  0.9891100E+02  0.7561462E-02  0.1282603E+00
          3   -1    0    0  501    0  0.00000000000E+00  0.00000000000E+00  0.65740871488E+03  0.65740871488E+03  0.00000000000E+00 0. -1.
         -3   -1    0    0    0  501 -0.00000000000E+00 -0.00000000000E+00 -0.41202448505E+02  0.41202448505E+02  0.00000000000E+00 0.  1.
         25    2    1    2    0    0  0.39021777162E+02 -0.56040965224E+02  0.54736608352E+03  0.56561535455E+03  0.12509121087E+03 0.  0.
         23    2    1    2    0    0 -0.39021777162E+02  0.56040965224E+02  0.68840182855E+02  0.13299580884E+03  0.91025411378E+02 0.  0.
          5    1    3    3  502    0 -0.11323953494E+02 -0.74475161593E+02  0.19353779600E+03  0.20772369268E+03  0.41800000000E+01 0. -1.
         -5    1    3    3    0  502  0.50345730655E+02  0.18434196369E+02  0.35382828752E+03  0.35789166187E+03  0.41800000000E+01 0. -1.
        -11    1    4    4    0    0 -0.19259069595E+02  0.33311426969E+02 -0.16969257062E+02  0.42053758615E+02  0.00000000000E+00 0.  1.
         11    1    4    4    0    0 -0.19762707566E+02  0.22729538255E+02  0.85809439918E+02  0.90942050222E+02  0.00000000000E+00 0. -1.
</event>
<event>
 8    1  0.7052796E-009  0.1316981E+03  0.7561462E-02  0.1224958E+00
          2   -1    0    0  501    0  0.00000000000E+00  0.00000000000E+00  0.83510997140E+03  0.83510997140E+03  0.00000000000E+00 0. -1.
         -2   -1    0    0    0  501 -0.00000000000E+00 -0.00000000000E+00 -0.39684799215E+02  0.39684799215E+02  0.00000000000E+00 0.  1.
         25    2    1    2    0    0 -0.66061696742E+02 -0.49975700102E+02  0.70876301273E+03  0.72446927943E+03  0.12509600412E+03 0.  0.
         23    2    1    2    0    0  0.66061696742E+02  0.49975700102E+02  0.86662159458E+02  0.15032549119E+03  0.90695672674E+02 0.  0.
          5    1    3    3  502    0 -0.67422554579E+02 -0.87831097579E+02  0.48612433945E+03  0.49859246722E+03  0.41800000000E+01 0.  1.
         -5    1    3    3    0  502  0.13608578368E+01  0.37855397477E+02  0.22263867328E+03  0.22587681221E+03  0.41800000000E+01 0.  1.
        -11    1    4    4    0    0  0.81378009076E+02  0.55161723383E+02  0.50087551094E+02  0.11033566451E+03  0.00000000000E+00 0.  1.
         11    1    4    4    0    0 -0.15316312333E+02 -0.51860232808E+01  0.36574608364E+02  0.39989826681E+02  0.00000000000E+00 0. -1.
</event>
<event>
 8    1  0.7052796E-009  0.9686296E+02  0.7561462E-02  0.1287035E+00
         -1   -1    0    0    0  501 -0.00000000000E+00  0.00000000000E+00  0.47532231677E+02  0.47532231677E+02  0.00000000000E+00 0.  1.
          1   -1    0    0  501    0  0.00000000000E+00 -0.00000000000E+00 -0.26555734124E+03  0.26555734124E+03  0.00000000000E+00 0. -1.
         25    2    1    2    0    0  0.12225260833E+02 -0.25630846679E+02 -0.11557694417E+03  0.17266326155E+03  0.12509266391E+03 0.  0.
         23    2    1    2    0    0 -0.12225260833E+02  0.25630846679E+02 -0.10244816539E+03  0.14042631136E+03  0.91747070941E+02 0.  0.
          5    1    3    3  502    0 -0.16053944656E+01 -0.73910993486E+02 -0.47537004495E+02  0.87992337427E+02  0.41800000000E+01 0. -1.
         -5    1    3    3    0  502  0.13830655299E+02  0.48280146807E+02 -0.68039939676E+02  0.84670924128E+02  0.41800000000E+01 0. -1.
        -11    1    4    4    0    0  0.22156402984E+02 -0.55803616004E+01  0.49863289879E+01  0.23386109243E+02  0.00000000000E+00 0.  1.
         11    1    4    4    0    0 -0.34381663817E+02  0.31211208279E+02 -0.10743449438E+03  0.11704020212E+03  0.00000000000E+00 0. -1.
</event>
<event>
 8    1  0.7052796E-009  0.3428243E+03  0.7561462E-02  0.1065599E+00
         -2   -1    0    0    0  501 -0.00000000000E+00  0.00000000000E+00  0.37150441341E+03  0.37150441341E+03  0.00000000000E+00 0.  1.
          2   -1    0    0  501    0  0.00000000000E+00 -0.00000000000E+00 -0.33767535828E+03  0.33767535828E+03  0.00000000000E+00 0. -1.
         25    2    1    2    0    0  0.30898460217E+03  0.13292979757E+03 -0.16190656525E+02  0.35923725900E+03  0.12508978950E+03 0.  0.
         23    2    1    2    0    0 -0.30898460217E+03 -0.13292979757E+03  0.50019711657E+02  0.34994251269E+03  0.82558919384E+02 0.  0.
          5    1    3    3  502    0  0.22807324551E+03  0.50364777059E+02  0.28271460073E+02  0.23530993166E+03  0.41800000000E+01 0.  1.
         -5    1    3    3    0  502  0.80911356662E+02  0.82565020512E+02 -0.44462116598E+02  0.12392732734E+03  0.41800000000E+01 0.  1.
        -11    1    4    4    0    0 -0.24919113739E+03 -0.10751927198E+03  0.72975354843E+02  0.28103739825E+03  0.00000000000E+00 0.  1.
         11    1    4    4    0    0 -0.59793464777E+02 -0.25410525590E+02 -0.22955643186E+02  0.68905114432E+02  0.00000000000E+00 0. -1.
</event>
<event>
 8    1  0.7052796E-009  0.2193530E+03  0.7561462E-02  0.1134366E+00
          2   -1    0    0  501    0  0.00000000000E+00  0.00000000000E+00  0.62412539494E+03  0.62412539494E+03  0.00000000000E+00 0. -1.
         -2   -1    0    0    0  501 -0.00000000000E+00 -0.00000000000E+00 -0.96654427073E+02  0.96654427073E+02  0.00000000000E+00 0.  1.
         25    2    1    2    0    0 -0.26903840649E+02  0.19750090928E+03  0.13374495683E+03  0.27067441961E+03  0.12508597902E+03 0.  0.
         23    2    1    2    0    0  0.26903840649E+02 -0.19750090928E+03  0.39372601103E+03  0.45010540240E+03  0.88567915716E+02 0.  0.
          5    1    3    3  502    0 -0.20994151786E+02 -0.26504315106E+01 -0.10368508584E+02  0.23932353972E+02  0.41800000000E+01 0.  1.
         -5    1    3    3    0  502 -0.59096888633E+01  0.20015134079E+03  0.14411346542E+03  0.24674206564E+03  0.41800000000E+01 0.  1.
        -11    1    4    4    0    0  0.55266870785E+02 -0.89481919444E+02  0.16685788306E+03  0.19723841931E+03  0.00000000000E+00 0.  1.
         11    1    4    4    0    0 -0.28363030136E+02 -0.10801898984E+03  0.22686812797E+03  0.25286698308E+03  0.00000000000E+00 0. -1.
</event>
<event>
 8    1  0.7052796E-009  0.1446987E+03  0.7561462E-02  0.1207143E+00
         -2   -1    0    0    0  501 -0.00000000000E+00  0.00000000000E+00  0.29969621819E+03  0.29969621819E+03  0.00000000000E+00 0.  1.
          2   -1    0    0  501    0  0.00000000000E+00 -0.00000000000E+00 -0.91673280156E+02  0.91673280156E+02  0.00000000000E+00 0. -1.
         25    2    1    2    0    0  0.76962239206E+02  0.99063820107E+02  0.11639197170E+03  0.21196771606E+03  0.12508555016E+03 0.  0.
         23    2    1    2    0    0 -0.76962239206E+02 -0.99063820107E+02  0.91630966335E+02  0.17940178228E+03  0.89732595951E+02 0.  0.
          5    1    3    3  502    0  0.65056533676E+02  0.12123716196E+03  0.12408060242E+03  0.18532207185E+03  0.41800000000E+01 0.  1.
         -5    1    3    3    0  502  0.11905705530E+02 -0.22173341856E+02 -0.76886307290E+01  0.26645644217E+02  0.41800000000E+01 0.  1.
        -11    1    4    4    0    0 -0.51308074534E+02 -0.76227085614E+02  0.11983487818E+02  0.92664400251E+02  0.00000000000E+00 0. -1.
         11    1    4    4    0    0 -0.25654164672E+02 -0.22836734493E+02  0.79647478516E+02  0.86737382030E+02  0.00000000000E+00 0.  1.
</event>
<event>
 8    1  0.7052796E-009  0.1017070E+03  0.7561462E-02  0.1276747E+00
          1   -1    0    0  501    0  0.00000000000E+00  0.00000000000E+00  0.59578381556E+02  0.59578381556E+02  0.00000000000E+00 0. -1.
         -1   -1    0    0    0  501 -0.00000000000E+00 -0.00000000000E+00 -0.41973086359E+03  0.41973086359E+03  0.00000000000E+00 0.  1.
         25    2    1    2    0    0 -0.21004337773E+02 -0.99183668505E+02 -0.11212150542E+03  0.19619837518E+03  0.12507592951E+03 0.  0.
         23    2    1    2    0    0  0.21004337773E+02  0.99183668505E+02 -0.24803097662E+03  0.28311086996E+03  0.91399217868E+02 0.  0.
          5    1    3    3  502    0 -0.16763061955E+02 -0.67040142548E+02  0.98449249057E+01  0.69926932618E+02  0.41800000000E+01 0. -1.
         -5    1    3    3    0  502 -0.42412758183E+01 -0.32143525957E+02 -0.12196643032E+03  0.12627144257E+03  0.41800000000E+01 0. -1.
        -11    1    4    4    0    0  0.16641029760E+02  0.68046481015E+02 -0.24088965859E+03  0.25086864106E+03  0.00000000000E+00 0.  1.
         11    1    4    4    0    0  0.43633080133E+01  0.31137187490E+02 -0.71413180237E+01  0.32242228904E+02  0.00000000000E+00 0. -1.
</event>
<event>
 8    1  0.7052796E-009  0.1822129E+03  0.7561462E-02  0.1165678E+00
          4   -1    0    0  501    0  0.00000000000E+00  0.00000000000E+00  0.57478268605E+03  0.57478268605E+03  0.00000000000E+00 0. -1.
         -4   -1    0    0    0  501 -0.00000000000E+00 -0.00000000000E+00 -0.84933074526E+02  0.84933074526E+02  0.00000000000E+00 0.  1.
         25    2    1    2    0    0  0.34050734923E+02  0.16940707163E+03  0.37963877830E+03  0.43546720210E+03  0.12509146112E+03 0.  0.
         23    2    1    2    0    0 -0.34050734923E+02 -0.16940707163E+03  0.11021083322E+03  0.22424855848E+03  0.91009778332E+02 0.  0.
          5    1    3    3  502    0  0.22049389431E+01  0.59551927831E+02  0.27154199570E+03  0.27803564824E+03  0.41800000000E+01 0.  1.
         -5    1    3    3    0  502  0.31845795980E+02  0.10985514380E+03  0.10809678260E+03  0.15743155386E+03  0.41800000000E+01 0.  1.
        -11    1    4    4    0    0 -0.52725786332E+02 -0.62786470480E+02  0.73028450474E+02  0.10979664839E+03  0.00000000000E+00 0. -1.
         11    1    4    4    0    0  0.18675051410E+02 -0.10662060115E+03  0.37182382746E+02  0.11445191008E+03  0.00000000000E+00 0.  1.
</event>
<event>
 8    1  0.7052796E-009  0.2290793E+03  0.7561462E-02  0.1127289E+00
          1   -1    0    0  501    0  0.00000000000E+00  0.00000000000E+00  0.52431316846E+03  0.52431316846E+03  0.00000000000E+00 0. -1.
         -1   -1    0    0    0  501 -0.00000000000E+00 -0.00000000000E+00 -0.11738261936E+03  0.11738261936E+03  0.00000000000E+00 0.  1.
         25    2    1    2    0    0 -0.17552841185E+03 -0.13698667401E+03  0.21719309084E+03  0.33525525641E+03  0.12509067118E+03 0.  0.
         23    2    1    2    0    0  0.17552841185E+03  0.13698667401E+03  0.18973745826E+03  0.30644053142E+03  0.91268417344E+02 0.  0.
          5    1    3    3  502    0 -0.17421489202E+03 -0.12492923356E+03  0.23183406756E+03  0.31578893154E+03  0.41800000000E+01 0.  1.
         -5    1    3    3    0  502 -0.13135198262E+01 -0.12057440443E+02 -0.14640976720E+02  0.19466324864E+02  0.41800000000E+01 0.  1.
        -11    1    4    4    0    0  0.11030107917E+03  0.47305649338E+02  0.14140827194E+03  0.18547358814E+03  0.00000000000E+00 0.  1.
         11    1    4    4    0    0  0.65227332681E+02  0.89681024670E+02  0.48329186322E+02  0.12096694327E+03  0.00000000000E+00 0. -1.
</event>
<event>
 8    1  0.7052796E-009  0.1335329E+03  0.7561462E-02  0.1222306E+00
         -2   -1    0    0    0  501 -0.00000000000E+00  0.00000000000E+00  0.26788647336E+02  0.26788647336E+02  0.00000000000E+00 0.  1.
          2   -1    0    0  501    0  0.00000000000E+00 -0.00000000000E+00 -0.79572094632E+03  0.79572094632E+03  0.00000000000E+00 0. -1.
         25    2    1    2    0    0  0.86957567861E+02  0.82620461146E+01 -0.29405292080E+03  0.33127678491E+03  0.12508920006E+03 0.  0.
         23    2    1    2    0    0 -0.86957567861E+02 -0.82620461146E+01 -0.47487937818E+03  0.49123280875E+03  0.90384559275E+02 0.  0.
          5    1    3    3  502    0 -0.86310552228E+01  0.41201692972E+02 -0.41741024014E+02  0.59429454850E+02  0.41800000000E+01 0. -1.
         -5    1    3    3    0  502  0.95588623084E+02 -0.32939646857E+02 -0.25231189679E+03  0.27184733006E+03  0.41800000000E+01 0. -1.
        -11    1    4    4    0    0 -0.18562864288E+02  0.37111174927E+02 -0.11952421645E+03  0.12652216230E+03  0.00000000000E+00 0. -1.
         11    1    4    4    0    0 -0.68394703574E+02 -0.45373221041E+02 -0.35535516173E+03  0.36471064645E+03  0.00000000000E+00 0.  1.
</event>
<event>
 8    1  0.7052796E-009  0.1187162E+03  0.7561462E-02  0.1245230E+00
          1   -1    0    0  501    0  0.00000000000E+00  0.00000000000E+00  0.13151368871E+04  0.13151368871E+04  0.00000000000E+00 0. -1.
         -1   -1    0    0    0  501 -0.00000000000E+00 -0.00000000000E+00 -0.21799383575E+02  0.21799383575E+02  0.00000000000E+00 0.  1.
         25    2    1    2    0    0  0.77955645781E+01 -0.91677592684E+02  0.10477914265E+04  0.10592355416E+04  0.12508999666E+03 0.  0.
         23    2    1    2    0    0 -0.77955645781E+01  0.91677592684E+02  0.24554607702E+03  0.27770072910E+03  0.91429028059E+02 0.  0.
          5    1    3    3  502    0  0.51054218288E+02 -0.26744930735E+02  0.20991009989E+03  0.21771896325E+03  0.41800000000E+01 0.  1.
         -5    1    3    3    0  502 -0.43258653710E+02 -0.64932661949E+02  0.83788132660E+03  0.84151657831E+03  0.41800000000E+01 0.  1.
        -11    1    4    4    0    0 -0.17497248156E+02  0.11934311199E+02  0.20299175378E+01  0.21276795859E+02  0.00000000000E+00 0.  1.
         11    1    4    4    0    0  0.97016835781E+01  0.79743281484E+02  0.24351615948E+03  0.25642393324E+03  0.00000000000E+00 0. -1.
</event>
<event>
 8    1  0.7052796E-009  0.8416837E+02  0.7561462E-02  0.1317622E+00
          2   -1    0    0  501    0  0.00000000000E+00  0.00000000000E+00  0.10956047570E+03  0.10956047570E+03  0.00000000000E+00 0.  1.
         -2   -1    0    0    0  501 -0.00000000000E+00 -0.00000000000E+00 -0.14128761169E+03  0.14128761169E+03  0.00000000000E+00 0. -1.
         25    2    1    2    0    0  0.25816536719E+02 -0.25535916998E+02 -0.67363321399E+02  0.14664267589E+03  0.12509068989E+03 0.  0.
         23    2    1    2    0    0 -0.25816536719E+02  0.25535916998E+02  0.35636185406E+02  0.10420541150E+03  0.90940933856E+02 0.  0.
          5    1    3    3  502    0  0.23247414501E+02  0.16043355715E+02 -0.93178947070E+02  0.97455734160E+02  0.41800000000E+01 0.  1.
         -5    1    3    3    0  502  0.25691222172E+01 -0.41579272714E+02  0.25815625671E+02  0.49186941734E+02  0.41800000000E+01 0.  1.
        -11    1    4    4    0    0  0.17269944731E+01  0.56469825854E+02  0.21181758390E+02  0.60336478439E+02  0.00000000000E+00 0.  1.
         11    1    4    4    0    0 -0.27543531192E+02 -0.30933908856E+02  0.14454427016E+02  0.43868933062E+02  0.00000000000E+00 0. -1.
</event>
<event>
 8    1  0.7052796E-009  0.1356644E+03  0.7561462E-02  0.1219285E+00
          4   -1    0    0  501    0  0.00000000000E+00  0.00000000000E+00  0.36848303984E+03  0.36848303984E+03  0.00000000000E+00 0. -1.
         -4   -1    0    0    0  501 -0.00000000000E+00 -0.00000000000E+00 -0.59501401373E+02  0.59501401373E+02  0.00000000000E+00 0.  1.
         25    2    1    2    0    0 -0.51420741558E+01 -0.93579988401E+02  0.11536002818E+03  0.19426506020E+03  0.12508925756E+03 0.  0.
         23    2    1    2    0    0  0.51420741558E+01  0.93579988401E+02  0.19362161029E+03  0.23371938101E+03  0.91387996663E+02 0.  0.
          5    1    3    3  502    0  0.53735398393E+02 -0.13244943531E+02  0.52596917521E+02  0.76464565011E+02  0.41800000000E+01 0.  1.
         -5    1    3    3    0  502 -0.58877472548E+02 -0.80335044870E+02  0.62763110660E+02  0.11780049519E+03  0.41800000000E+01 0.  1.
        -11    1    4    4    0    0 -0.45923027694E+01 -0.10575644056E+02 -0.21717735907E+01  0.11732437618E+02  0.00000000000E+00 0.  1.
         11    1    4    4    0    0  0.97343769251E+01  0.10415563246E+03  0.19579338388E+03  0.22198694339E+03  0.00000000000E+00 0. -1.
</event>
<event>
 8    1  0.7052796E-009  0.1174098E+03  0.7561462E-02  0.1247432E+00
         -2   -1    0    0    0  501 -0.00000000000E+00  0.00000000000E+00  0.30503659700E+02  0.30503659700E+02  0.00000000000E+00 0. -1.
          2   -1    0    0  501    0  0.00000000000E+00 -0.00000000000E+00 -0.94746511089E+03  0.94746511089E+03  0.00000000000E+00 0.  1.
         25    2    1    2    0    0  0.56584127849E+02  0.59111131291E+02 -0.78057421887E+03  0.79475827269E+03  0.12509480993E+03 0.  0.
         23    2    1    2    0    0 -0.56584127849E+02 -0.59111131291E+02 -0.13638723232E+03  0.18321049790E+03  0.90932502635E+02 0.  0.
          5    1    3    3  502    0  0.33775776801E+02 -0.30137224971E+02 -0.42491027581E+03  0.42733507967E+03  0.41800000000E+01 0.  1.
         -5    1    3    3    0  502  0.22808351048E+02  0.89248356263E+02 -0.35566394306E+03  0.36742319302E+03  0.41800000000E+01 0.  1.
        -11    1    4    4    0    0 -0.53169669328E+02 -0.68756876693E+02 -0.14551626102E+03  0.16949779954E+03  0.00000000000E+00 0.  1.
         11    1    4    4    0    0 -0.34144585206E+01  0.96457454018E+01  0.91290286993E+01  0.13712698361E+02  0.00000000000E+00 0. -1.
</event>
<event>
 8    1  0.7052796E-009  0.1125688E+03  0.7561462E-02  0.1255886E+00
          2   -1    0    0  501    0  0.00000000000E+00  0.00000000000E+00  0.57939801781E+03  0.57939801781E+03  0.00000000000E+00 0. -1.
         -2   -1    0    0    0  501 -0.00000000000E+00 -0.00000000000E+00 -0.22510059150E+02  0.22510059150E+02  0.00000000000E+00 0.  1.
         25    2    1    2    0    0  0.32709974403E+02 -0.70493011196E+01  0.35165735332E+03  0.37473937645E+03  0.12508825304E+03 0.  0.
         23    2    1    2    0    0 -0.32709974403E+02  0.70493011196E+01  0.20523060534E+03  0.22716870051E+03  0.91467929081E+02 0.  0.
          5    1    3    3  502    0  0.76329567483E+02  0.18619388010E+02  0.21717931108E+03  0.23099179648E+03  0.41800000000E+01 0.  1.
         -5    1    3    3    0  502 -0.43619593080E+02 -0.25668689129E+02  0.13447804225E+03  0.14374757997E+03  0.41800000000E+01 0.  1.
        -11    1    4    4    0    0  0.12594858455E+02  0.38510169824E+02  0.10848376794E+03  0.11580324497E+03  0.00000000000E+00 0. -1.
         11    1    4    4    0    0 -0.45304832858E+02 -0.31460868704E+02  0.96746837396E+02  0.11136545553E+03  0.00000000000E+00 0.  1.
</event>
<event>
 8    1  0.7052796E-009  0.1971219E+03  0.7561462E-02  0.1152190E+00
         -2   -1    0    0    0  501 -0.00000000000E+00  0.00000000000E+00  0.28311272987E+02  0.28311272987E+02  0.00000000000E+00 0.  1.
          2   -1    0    0  501    0  0.00000000000E+00 -0.00000000000E+00 -0.16621088065E+04  0.16621088065E+04  0.00000000000E+00 0. -1.
         25    2    1    2    0    0 -0.14212075679E+03 -0.90923369668E+02 -0.11664656800E+04  0.11852234823E+04  0.12508857502E+03 0.  0.
         23    2    1    2    0    0  0.14212075679E+03  0.90923369668E+02 -0.46733185343E+03  0.50519659715E+03  0.91428506953E+02 0.  0.
          5    1    3    3  502    0 -0.12884350050E+03 -0.12058023756E+03 -0.10175523073E+04  0.10327489587E+04  0.41800000000E+01 0. -1.
         -5    1    3    3    0  502 -0.13277256288E+02  0.29656867895E+02 -0.14891337279E+03  0.15247452359E+03  0.41800000000E+01 0. -1.
        -11    1    4    4    0    0  0.14190282427E+02  0.47960020335E+02 -0.73655333325E+02  0.89031656129E+02  0.00000000000E+00 0.  1.
         11    1    4    4    0    0  0.12793047436E+03  0.42963349333E+02 -0.39367652010E+03  0.41616494102E+03  0.00000000000E+00 0. -1.
</event>
<event>
 8    1  0.7052796E-009  0.1485650E+03  0.7561462E-02  0.1202248E+00
          1   -1    0    0  501    0  0.00000000000E+00  0.00000000000E+00  0.13241537248E+04  0.13241537248E+04  0.00000000000E+00 0. -1.
         -1   -1    0    0    0  501 -0.00000000000E+00 -0.00000000000E+00 -0.24856765033E+02  0.24856765033E+02  0.00000000000E+00 0.  1.
         25    2    1    2    0    0 -0.10076403770E+03 -0.52251556967E+02  0.10206918550E+04  0.10345741538E+04  0.12509276641E+03 0.  0.
         23    2    1    2    0    0  0.10076403770E+03  0.52251556967E+02  0.27860510471E+03  0.31443633604E+03  0.91464684746E+02 0.  0.
          5    1    3    3  502    0 -0.72495596058E+01 -0.70855757752E+02  0.35748584445E+03  0.36453627516E+03  0.41800000000E+01 0. -1.
         -5    1    3    3    0  502 -0.93514478093E+02  0.18604200784E+02  0.66320601059E+03  0.67003787862E+03  0.41800000000E+01 0. -1.
        -11    1    4    4    0    0  0.43705055460E+02 -0.11091054830E+02  0.37314775729E+02  0.58528077516E+02  0.00000000000E+00 0.  1.
         11    1    4    4    0    0  0.57058982239E+02  0.63342611797E+02  0.24129032898E+03  0.25590825853E+03  0.00000000000E+00 0. -1.
</event>
<event>
 8    1  0.7052796E-009  0.1333022E+03  0.7561462E-02  0.1222636E+00
          2   -1    0    0  501    0  0.00000000000E+00  0.00000000000E+00  0.29378611651E+03  0.29378611651E+03  0.00000000000E+00 0. -1.
         -2   -1    0    0    0  501 -0.00000000000E+00 -0.00000000000E+00 -0.96906231852E+02  0.96906231852E+02  0.00000000000E+00 0.  1.
         25    2    1    2    0    0 -0.10105242086E+02 -0.11326247233E+03  0.34387780210E+02  0.17251378861E+03  0.12509190332E+03 0.  0.
         23    2    1    2    0    0  0.10105242086E+02  0.11326247233E+03  0.16249210445E+03  0.21817855976E+03  0.90926873764E+02 0.  0.
          5    1    3    3  502    0 -0.40536263787E+02 -0.61767004171E+02  0.70758398823E+02  0.10238444652E+03  0.41800000000E+01 0.  1.
         -5    1    3    3    0  502  0.30431021701E+02 -0.51495468160E+02 -0.36370618613E+02  0.70129342083E+02  0.41800000000E+01 0.  1.
        -11    1    4    4    0    0 -0.62840715809E+01 -0.80600637268E+01  0.52865199646E+02  0.53844066679E+02  0.00000000000E+00 0. -1.
         11    1    4    4    0    0  0.16389313667E+02  0.12132253606E+03  0.10962690480E+03  0.16433449308E+03  0.00000000000E+00 0.  1.
</event>
<event>
 8    1  0.7052796E-009  0.1048975E+03  0.7561462E-02  0.1270322E+00
         -4   -1    0    0    0  501 -0.00000000000E+00  0.00000000000E+00  0.58696343167E+02  0.58696343167E+02  0.00000000000E+00 0.  1.
          4   -1    0    0  501    0  0.00000000000E+00 -0.00000000000E+00 -0.22753347480E+03  0.22753347480E+03  0.00000000000E+00 0. -1.
         25    2    1    2    0    0 -0.49842702820E+01 -0.31806798857E+02 -0.12516694532E+03  0.17986306545E+03  0.12508973861E+03 0.  0.
         23    2    1    2    0    0  0.49842702820E+01  0.31806798857E+02 -0.43670186314E+02  0.10636675253E+03  0.91489264213E+02 0.  0.
          5    1    3    3  502    0 -0.35080390959E+02 -0.68914416739E+02 -0.55469836193E+02  0.95258625812E+02  0.41800000000E+01 0.  1.
         -5    1    3    3    0  502  0.30096120677E+02  0.37107617882E+02 -0.69697109129E+02  0.84604439633E+02  0.41800000000E+01 0.  1.
        -11    1    4    4    0    0 -0.32483228886E+02  0.33790887106E+02 -0.49755613531E+02  0.68356457545E+02  0.00000000000E+00 0. -1.
         11    1    4    4    0    0  0.37467499168E+02 -0.19840882492E+01  0.60854272171E+01  0.38010294980E+02  0.00000000000E+00 0.  1.
</event>
<event>
 8    1  0.7052796E-009  0.1034584E+03  0.7561462E-02  0.1273187E+00
         -1   -1    0    0    0  501 -0.00000000000E+00  0.00000000000E+00  0.97041130619E+02  0.97041130619E+02  0.00000000000E+00 0.  1.
          1   -1    0    0  501    0  0.00000000000E+00 -0.00000000000E+00 -0.20024328229E+03  0.20024328229E+03  0.00000000000E+00 0. -1.
         25    2    1    2    0    0 -0.60452894714E+02  0.51527619070E+02 -0.95031474235E+02  0.17603517095E+03  0.12509097614E+03 0.  0.
         23    2    1    2    0    0  0.60452894714E+02 -0.51527619070E+02 -0.81706774379E+01  0.12124924196E+03  0.91241277386E+02 0.  0.
          5    1    3    3  502    0 -0.38798745545E+02  0.99415761939E+00  0.23319692096E+02  0.45470995642E+02  0.41800000000E+01 0.  1.
         -5    1    3    3    0  502 -0.21654149169E+02  0.50533461451E+02 -0.11835116633E+03  0.13056417531E+03  0.41800000000E+01 0.  1.
        -11    1    4    4    0    0 -0.80708590504E+01 -0.42931883438E+02 -0.24775048365E+02  0.50220398274E+02  0.00000000000E+00 0. -1.
         11    1    4    4    0    0  0.68523753765E+02 -0.85957356322E+01  0.16604370927E+02  0.71028843683E+02  0.00000000000E+00 0.  1.
</event>
<event>
 8    1  0.7052796E-009  0.3481157E+03  0.7561462E-02  0.1063391E+00
         -2   -1    0    0    0  501 -0.00000000000E+00  0.00000000000E+00  0.17799057021E+03  0.17799057021E+03  0.00000000000E+00 0.  1.
          2   -1    0    0  501    0  0.00000000000E+00 -0.00000000000E+00 -0.77366982254E+03  0.77366982254E+03  0.00000000000E+00 0. -1.
         25    2    1    2    0    0  0.33303674216E+03 -0.72381491540E+02 -0.42554465381E+03  0.55936386300E+03  0.12508847627E+03 0.  0.
         23    2    1    2    0    0 -0.33303674216E+03  0.72381491540E+02 -0.17013459851E+03  0.39229652974E+03  0.93798900259E+02 0.  0.
          5    1    3    3  502    0  0.30221280313E+03 -0.93773539913E+02 -0.33283846442E+03  0.45926568668E+03  0.41800000000E+01 0.  1.
         -5    1    3    3    0  502  0.30823939028E+02  0.21392048373E+02 -0.92706189395E+02  0.10009817632E+03  0.41800000000E+01 0.  1.
        -11    1    4    4    0    0 -0.54526947842E+02  0.11004445041E+01 -0.68083712426E+02  0.87234115556E+02  0.00000000000E+00 0.  1.
         11    1    4    4    0    0 -0.27850979432E+03  0.71281047036E+02 -0.10205088609E+03  0.30506241419E+03  0.00000000000E+00 0. -1.
</event>
<event>
 8    1  0.7052796E-009  0.8212146E+02  0.7561462E-02  0.1323137E+00
         -1   -1    0    0    0  501 -0.00000000000E+00  0.00000000000E+00  0.48006046882E+02  0.48006046882E+02  0.00000000000E+00 0.  1.
          1   -1    0    0  501    0  0.00000000000E+00 -0.00000000000E+00 -0.15535208284E+04  0.15535208284E+04  0.00000000000E+00 0. -1.
         25    2    1    2    0    0 -0.46286817042E+02  0.77254451760E+01 -0.14917401691E+04  0.14977109658E+04  0.12508898000E+03 0.  0.
         23    2    1    2    0    0  0.46286817042E+02 -0.77254451760E+01 -0.13774612410E+02  0.10381590951E+03  0.91574293259E+02 0.  0.
          5    1    3    3  502    0 -0.54963992268E+02  0.32375003836E+02 -0.35805656987E+03  0.36371851884E+03  0.41800000000E+01 0. -1.
         -5    1    3    3    0  502  0.86771752260E+01 -0.24649558660E+02 -0.11336835993E+04  0.11339924469E+04  0.41800000000E+01 0. -1.
        -11    1    4    4    0    0  0.59864666568E+02 -0.60037436490E+01  0.23127850993E+02  0.64457123212E+02  0.00000000000E+00 0.  1.
         11    1    4    4    0    0 -0.13577849526E+02 -0.17217015270E+01 -0.36902463403E+02  0.39358786302E+02  0.00000000000E+00 0. -1.
</event>
<event>
 8    1  0.7052796E-009  0.2589582E+03  0.7561462E-02  0.1107771E+00
          1   -1    0    0  501    0  0.00000000000E+00  0.00000000000E+00  0.19408906336E+04  0.19408906336E+04  0.00000000000E+00 0. -1.
         -1   -1    0    0    0  501 -0.00000000000E+00 -0.00000000000E+00 -0.11135650551E+03  0.11135650551E+03  0.00000000000E+00 0.  1.
         25    2    1    2    0    0  0.20719728983E+03 -0.15222547893E+03  0.17418882164E+04  0.17651978686E+04  0.12508254807E+03 0.  0.
         23    2    1    2    0    0 -0.20719728983E+03  0.15222547893E+03  0.87645911760E+02  0.28704927050E+03  0.92801748329E+02 0.  0.
          5    1    3    3  502    0  0.14539425319E+03 -0.11645308579E+03  0.15355265501E+04  0.15467902471E+04  0.41800000000E+01 0.  1.
         -5    1    3    3    0  502  0.61803036646E+02 -0.35772393145E+02  0.20636166626E+03  0.21840762156E+03  0.41800000000E+01 0.  1.
        -11    1    4    4    0    0 -0.72209701112E+02  0.76841886389E+02 -0.71554333934E+01  0.10568877266E+03  0.00000000000E+00 0.  1.
         11    1    4    4    0    0 -0.13498758872E+03  0.75383592545E+02  0.94801345153E+02  0.18136049784E+03  0.00000000000E+00 0. -1.
</event>
<event>
 8    1  0.7052796E-009  0.1941842E+03  0.7561462E-02  0.1154741E+00
          2   -1    0    0  501    0  0.00000000000E+00  0.00000000000E+00  0.86242553430E+03  0.86242553430E+03  0.00000000000E+00 0.  1.
         -2   -1    0    0    0  501 -0.00000000000E+00 -0.00000000000E+00 -0.50548166080E+02  0.50548166080E+02  0.00000000000E+00 0. -1.
         25    2    1    2    0    0 -0.39982379440E+01 -0.17485979689E+03  0.49950887233E+03  0.54382751300E+03  0.12508923168E+03 0.  0.
         23    2    1    2    0    0  0.39982379440E+01  0.17485979689E+03  0.31236849590E+03  0.36914618739E+03  0.90016087218E+02 0.  0.
          5    1    3    3  502    0  0.46552025386E+02 -0.10787581834E+03  0.19279563349E+03  0.22581388784E+03  0.41800000000E+01 0. -1.
         -5    1    3    3    0  502 -0.50550263330E+02 -0.66983978551E+02  0.30671323884E+03  0.31801362515E+03  0.41800000000E+01 0. -1.
        -11    1    4    4    0    0  0.31232399411E+02  0.13459050467E+03  0.27525045191E+03  0.30798194427E+03  0.00000000000E+00 0.  1.
         11    1    4    4    0    0 -0.27234161467E+02  0.40269292216E+02  0.37118043991E+02  0.61164243118E+02  0.00000000000E+00 0. -1.
</event>
<event>
 8    1  0.7052796E-009  0.7568432E+02  0.7561462E-02  0.1341765E+00
          2   -1    0    0  501    0  0.00000000000E+00  0.00000000000E+00  0.44695541646E+03  0.44695541646E+03  0.00000000000E+00 0. -1.
         -2   -1    0    0    0  501 -0.00000000000E+00 -0.00000000000E+00 -0.32412893902E+02  0.32412893902E+02  0.00000000000E+00 0.  1.
         25    2    1    2    0    0 -0.13158116334E+02  0.39705024968E+02  0.23924684350E+03  0.27318960062E+03  0.12507550011E+03 0.  0.
         23    2    1    2    0    0  0.13158116334E+02 -0.39705024968E+02  0.17529567905E+03  0.20617870974E+03  0.10015717759E+03 0.  0.
          5    1    3    3  502    0 -0.15609378922E+02  0.10930821234E+02  0.24298928832E+03  0.24377120872E+03  0.41800000000E+01 0. -1.
         -5    1    3    3    0  502  0.24512625885E+01  0.28774203734E+02 -0.37424448143E+01  0.29418391900E+02  0.41800000000E+01 0. -1.
        -11    1    4    4    0    0 -0.11471602038E+02 -0.65802840358E+02  0.79227878755E+02  0.10362754568E+03  0.00000000000E+00 0. -1.
         11    1    4    4    0    0  0.24629718372E+02  0.26097815390E+02  0.96067800295E+02  0.10255116405E+03  0.00000000000E+00 0.  1.
</event>
<event>
 8    1  0.7052796E-009  0.7678289E+02  0.7561462E-02  0.1338437E+00
          2   -1    0    0  501    0  0.00000000000E+00  0.00000000000E+00  0.44620571367E+03  0.44620571367E+03  0.00000000000E+00 0.  1.
         -2   -1    0    0    0  501 -0.00000000000E+00 -0.00000000000E+00 -0.27609348761E+02  0.27609348761E+02  0.00000000000E+00 0. -1.
         25    2    1    2    0    0 -0.20687325697E+02  0.89770802709E+01  0.24566827749E+03  0.27660203887E+03  0.12508889609E+03 0.  0.
         23    2    1    2    0    0  0.20687325697E+02 -0.89770802709E+01  0.17292808742E+03  0.19721302356E+03  0.92088543424E+02 0.  0.
          5    1    3    3  502    0  0.29492001133E+02 -0.11463129742E+02  0.20810838962E+03  0.21054157714E+03  0.41800000000E+01 0. -1.
         -5    1    3    3    0  502 -0.50179326831E+02  0.20440210012E+02  0.37559887863E+02  0.66060461721E+02  0.41800000000E+01 0. -1.
        -11    1    4    4    0    0  0.12489978946E+02 -0.36505328652E+02  0.23775789248E+02  0.45320268627E+02  0.00000000000E+00 0. -1.
         11    1    4    4    0    0  0.81973467517E+01  0.27528248381E+02  0.14915229817E+03  0.15189275494E+03  0.00000000000E+00 0.  1.
</event>
<event>
 8    1  0.7052796E-009  0.2184860E+03  0.7561462E-02  0.1135017E+00
          1   -1    0    0  501    0  0.00000000000E+00  0.00000000000E+00  0.10210033337E+03  0.10210033337E+03  0.00000000000E+00 0. -1.
         -1   -1    0    0    0  501 -0.00000000000E+00 -0.00000000000E+00 -0.58494843282E+03  0.58494843282E+03  0.00000000000E+00 0.  1.
         25    2    1    2    0    0 -0.16893840336E+03  0.13720135815E+03 -0.21754396482E+03  0.33217015866E+03  0.12508893182E+03 0.  0.
         23    2    1    2    0    0  0.16893840336E+03 -0.13720135815E+03 -0.26530413462E+03  0.35487860753E+03  0.90488371771E+02 0.  0.
          5    1    3    3  502    0 -0.15500865565E+03  0.12379627299E+03 -0.11837561642E+03  0.23104860851E+03  0.41800000000E+01 0.  1.
         -5    1    3    3    0  502 -0.13929747716E+02  0.13405085156E+02 -0.99168348399E+02  0.10112155014E+03  0.41800000000E+01 0.  1.
        -11    1    4    4    0    0  0.15412143062E+03 -0.11595742138E+03 -0.26647603029E+03  0.32895138496E+03  0.00000000000E+00 0.  1.
         11    1    4    4    0    0  0.14816972742E+02 -0.21243936768E+02  0.11718956657E+01  0.25927222568E+02  0.00000000000E+00 0. -1.
</event>
<event>
 8    1  0.7052796E-009  0.1230530E+03  0.7561462E-02  0.1238144E+00
         -2   -1    0    0    0  501 -0.00000000000E+00  0.00000000000E+00  0.21529645170E+02  0.21529645170E+02  0.00000000000E+00 0.  1.
          2   -1    0    0  501    0  0.00000000000E+00 -0.00000000000E+00 -0.74433567516E+03  0.74433567516E+03  0.00000000000E+00 0. -1.
         25    2    1    2    0    0 -0.38166091648E+02  0.43474095201E+02 -0.48904890099E+03  0.50809640646E+03  0.12508590325E+03 0.  0.
         23    2    1    2    0    0  0.38166091648E+02 -0.43474095201E+02 -0.23375712899E+03  0.25776891386E+03  0.91955261375E+02 0.  0.
          5    1    3    3  502    0 -0.84150059989E+02  0.32568636886E+02 -0.32656126573E+03  0.33882396813E+03  0.41800000000E+01 0.  1.
         -5    1    3    3    0  502  0.45983968340E+02  0.10905458315E+02 -0.16248763527E+03  0.16927243834E+03  0.41800000000E+01 0.  1.
        -11    1    4    4    0    0  0.31479207018E+02  0.24587384088E+02 -0.77027733918E+02  0.86768379744E+02  0.00000000000E+00 0.  1.
         11    1    4    4    0    0  0.66868846308E+01 -0.68061479289E+02 -0.15672939507E+03  0.17100053412E+03  0.00000000000E+00 0. -1.
</event>
<event>
 8    1  0.7052796E-009  0.2532342E+03  0.7561462E-02  0.1111278E+00
          2   -1    0    0  501    0  0.00000000000E+00  0.00000000000E+00  0.78285025074E+02  0.78285025074E+02  0.00000000000E+00 0. -1.
         -2   -1    0    0    0  501 -0.00000000000E+00 -0.00000000000E+00 -0.92180654377E+03  0.92180654377E+03  0.00000000000E+00 0.  1.
         25    2    1    2    0    0 -0.21026687224E+03 -0.12599615003E+03 -0.42721771134E+03  0.50818271049E+03  0.12508999546E+03 0.  0.
         23    2    1    2    0    0  0.21026687224E+03  0.12599615003E+03 -0.41630380735E+03  0.49190885836E+03  0.92618991202E+02 0.  0.
          5    1    3    3  502    0 -0.79981811333E+02 -0.47357938175E+02 -0.28518110174E+03  0.29997599511E+03  0.41800000000E+01 0. -1.
         -5    1    3    3    0  502 -0.13028506091E+03 -0.78638211858E+02 -0.14203660960E+03  0.20820671538E+03  0.41800000000E+01 0. -1.
        -11    1    4    4    0    0  0.18024314076E+03  0.62188665742E+02 -0.32090362727E+03  0.37327490932E+03  0.00000000000E+00 0.  1.
         11    1    4    4    0    0  0.30023731485E+02  0.63807484291E+02 -0.95400180081E+02  0.11863394903E+03  0.00000000000E+00 0. -1.
</event>
<event>
 8    1  0.7052796E-009  0.1019426E+03  0.7561462E-02  0.1276263E+00
         -2   -1    0    0    0  501 -0.00000000000E+00  0.00000000000E+00  0.45245113266E+02  0.45245113266E+02  0.00000000000E+00 0.  1.
          2   -1    0    0  501    0  0.00000000000E+00 -0.00000000000E+00 -0.34411322054E+03  0.34411322054E+03  0.00000000000E+00 0. -1.
         25    2    1    2    0    0  0.40900854034E+02 -0.22714517369E+02 -0.10469524328E+03  0.16970006216E+03  0.12509271750E+03 0.  0.
         23    2    1    2    0    0 -0.40900854034E+02  0.22714517369E+02 -0.19417286400E+03  0.21965827164E+03  0.91421146509E+02 0.  0.
          5    1    3    3  502    0 -0.41248153985E+02  0.11246922269E+02 -0.46840676983E+02  0.63556470071E+02  0.41800000000E+01 0. -1.
         -5    1    3    3    0  502  0.82149008018E+02 -0.33961439638E+02 -0.57854566293E+02  0.10614359209E+03  0.41800000000E+01 0. -1.
        -11    1    4    4    0    0 -0.23614722047E+02  0.40659930727E+02 -0.18826867040E+03  0.19405148111E+03  0.00000000000E+00 0. -1.
         11    1    4    4    0    0 -0.17286131986E+02 -0.17945413358E+02 -0.59041935932E+01  0.25606790537E+02  0.00000000000E+00 0.  1.
</event>
<event>
 8    1  0.7052796E-009  0.1083499E+03  0.7561462E-02  0.1263656E+00
         -2   -1    0    0    0  501 -0.00000000000E+00  0.00000000000E+00  0.43007604744E+02  0.43007604744E+02  0.00000000000E+00 0.  1.
          2   -1    0    0  501    0  0.00000000000E+00 -0.00000000000E+00 -0.31995883330E+03  0.31995883330E+03  0.00000000000E+00 0. -1.
         25    2    1    2    0    0  0.23875675414E+01  0.23219587902E+02 -0.97047875677E+02  0.16004195881E+03  0.12510111377E+03 0.  0.
         23    2    1    2    0    0 -0.23875675414E+01 -0.23219587902E+02 -0.17990335288E+03  0.20292447924E+03  0.90930072879E+02 0.  0.
          5    1    3    3  502    0  0.58689358851E+02 -0.10797245013E+02 -0.33885039144E+02  0.68750924503E+02  0.41800000000E+01 0.  1.
         -5    1    3    3    0  502 -0.56301791310E+02  0.34016832915E+02 -0.63162836533E+02  0.91291034309E+02  0.41800000000E+01 0.  1.
        -11    1    4    4    0    0 -0.37260099085E+02  0.14146783879E+02 -0.54607734067E+02  0.67605111477E+02  0.00000000000E+00 0.  1.
         11    1    4    4    0    0  0.34872531544E+02 -0.37366371781E+02 -0.12529561881E+03  0.13531936776E+03  0.00000000000E+00 0. -1.
</event>
<event>
 8    1  0.7052796E-009  0.8717095E+02  0.7561462E-02  0.1309851E+00
          2   -1    0    0  501    0  0.00000000000E+00  0.00000000000E+00  0.91620656474E+02  0.91620656474E+02  0.00000000000E+00 0. -1.
         -2   -1    0    0    0  501 -0.00000000000E+00 -0.00000000000E+00 -0.12456391001E+03  0.12456391001E+03  0.00000000000E+00 0.  1.
         25    2    1    2    0    0  0.30793963713E+01 -0.20752780831E+01 -0.21447450037E+02  0.12696900473E+03  0.12508935042E+03 0.  0.
         23    2    1    2    0    0 -0.30793963713E+01  0.20752780831E+01 -0.11495803496E+02  0.89215561748E+02  0.88393854417E+02 0.  0.
          5    1    3    3  502    0 -0.50156064156E+02 -0.19888869818E+02  0.19322853143E+02  0.57463405467E+02  0.41800000000E+01 0.  1.
         -5    1    3    3    0  502  0.53235460527E+02  0.17813591734E+02 -0.40770303180E+02  0.69505599267E+02  0.41800000000E+01 0.  1.
        -11    1    4    4    0    0 -0.17948169736E+02 -0.26333258203E+02  0.25095631931E+02  0.40563136300E+02  0.00000000000E+00 0.  1.
         11    1    4    4    0    0  0.14868773365E+02  0.28408536286E+02 -0.36591435427E+02  0.48652425448E+02  0.00000000000E+00 0. -1.
</event>
<event>
 8    1  0.7052796E-009  0.1381416E+03  0.7561462E-02  0.1215852E+00
         -2   -1    0    0    0  501 -0.00000000000E+00  0.00000000000E+00  0.65399195681E+03  0.65399195681E+03  0.00000000000E+00 0.  1.
          2   -1    0    0  501    0  0.00000000000E+00 -0.00000000000E+00 -0.40533870066E+02  0.40533870066E+02  0.00000000000E+00 0. -1.
         25    2    1    2    0    0  0.96892684568E+02 -0.60968791088E+02  0.39607589971E+03  0.43084686458E+03  0.12509003389E+03 0.  0.
         23    2    1    2    0    0 -0.96892684568E+02  0.60968791088E+02  0.21738218703E+03  0.26367896229E+03  0.95740242882E+02 0.  0.
          5    1    3    3  502    0  0.56606849404E+02  0.27154542201E+00  0.32046579925E+03  0.32545385237E+03  0.41800000000E+01 0. -1.
         -5    1    3    3    0  502  0.40285835164E+02 -0.61240336511E+02  0.75610100461E+02  0.10539301221E+03  0.41800000000E+01 0. -1.
        -11    1    4    4    0    0 -0.28424935930E+02  0.71392171369E+02  0.87244246040E+02  0.11625995692E+03  0.00000000000E+00 0.  1.
         11    1    4    4    0    0 -0.68467748638E+02 -0.10423380280E+02  0.13013794099E+03  0.14741900538E+03  0.00000000000E+00 0. -1.
</event>
<event>
 8    1  0.7052796E-009  0.1735063E+03  0.7561462E-02  0.1174240E+00
          1   -1    0    0  501    0  0.00000000000E+00  0.00000000000E+00  0.34126409376E+03  0.34126409376E+03  0.00000000000E+00 0. -1.
         -1   -1    0    0    0  501 -0.00000000000E+00 -0.00000000000E+00 -0.10233308717E+03  0.10233308717E+03  0.00000000000E+00 0.  1.
         25    2    1    2    0    0  0.66780333389E+01  0.14488378070E+03  0.17877496340E+03  0.26200178105E+03  0.12509412336E+03 0.  0.
         23    2    1    2    0    0 -0.66780333389E+01 -0.14488378070E+03  0.60156043191E+02  0.18159539988E+03  0.91226277397E+02 0.  0.
          5    1    3    3  502    0  0.12957048307E+02 -0.17919680615E+02  0.48102426056E+02  0.53106645974E+02  0.41800000000E+01 0.  1.
         -5    1    3    3    0  502 -0.62790149681E+01  0.16280346131E+03  0.13067253734E+03  0.20889513508E+03  0.41800000000E+01 0.  1.
        -11    1    4    4    0    0  0.31800787007E+02 -0.51476830965E+02  0.52800238642E+02  0.80305786722E+02  0.00000000000E+00 0.  1.
         11    1    4    4    0    0 -0.38478820346E+02 -0.93406949734E+02  0.73558045488E+01  0.10128961316E+03  0.00000000000E+00 0. -1.
</event>
<event>
 8    1  0.7052796E-009  0.1710916E+03  0.7561462E-02  0.1176714E+00
          2   -1    0    0  501    0  0.00000000000E+00  0.00000000000E+00  0.87716023613E+03  0.87716023613E+03  0.00000000000E+00 0. -1.
         -2   -1    0    0    0  501 -0.00000000000E+00 -0.00000000000E+00 -0.40334859117E+02  0.40334859117E+02  0.00000000000E+00 0.  1.
         25    2    1    2    0    0  0.13536622668E+03 -0.27166189869E+02  0.60980112396E+03  0.63762570213E+03  0.12508840091E+03 0.  0.
         23    2    1    2    0    0 -0.13536622668E+03  0.27166189869E+02  0.22702425306E+03  0.27986939312E+03  0.87891117469E+02 0.  0.
          5    1    3    3  502    0  0.66662937260E+02  0.43625847883E+02  0.18443092325E+03  0.20094626062E+03  0.41800000000E+01 0.  1.
         -5    1    3    3    0  502  0.68703289418E+02 -0.70792037752E+02  0.42537020071E+03  0.43667944151E+03  0.41800000000E+01 0.  1.
        -11    1    4    4    0    0 -0.12750956647E+03  0.51936009860E+02  0.19103637864E+03  0.23548022555E+03  0.00000000000E+00 0.  1.
         11    1    4    4    0    0 -0.78566602050E+01 -0.24769819991E+02  0.35987874415E+02  0.44389167562E+02  0.00000000000E+00 0. -1.
</event>
<event>
 8    1  0.7052796E-009  0.1137685E+03  0.7561462E-02  0.1253746E+00
         -4   -1    0    0    0  501 -0.00000000000E+00  0.00000000000E+00  0.59040642534E+02  0.59040642534E+02  0.00000000000E+00 0.  1.
          4   -1    0    0  501    0  0.00000000000E+00 -0.00000000000E+00 -0.25062639570E+03  0.25062639570E+03  0.00000000000E+00 0. -1.
         25    2    1    2    0    0 -0.44359580254E+02  0.15180642152E+02 -0.70355644272E+02  0.15098036252E+03  0.12508768496E+03 0.  0.
         23    2    1    2    0    0  0.44359580254E+02 -0.15180642152E+02 -0.12123010889E+03  0.15868667571E+03  0.91030200974E+02 0.  0.
          5    1    3    3  502    0 -0.84048548286E+02  0.28765047465E+02 -0.60869944739E+02  0.10776923957E+03  0.41800000000E+01 0.  1.
         -5    1    3    3    0  502  0.39688968033E+02 -0.13584405312E+02 -0.94856995331E+01  0.43211122953E+02  0.41800000000E+01 0.  1.
        -11    1    4    4    0    0 -0.25038723276E+02 -0.96312193618E+01 -0.12544935837E+02  0.29615426130E+02  0.00000000000E+00 0.  1.
         11    1    4    4    0    0  0.69398303530E+02 -0.55494227905E+01 -0.10868517305E+03  0.12907124958E+03  0.00000000000E+00 0. -1.
</event>
<event>
 8    1  0.7052796E-009  0.1121538E+03  0.7561462E-02  0.1256633E+00
         -1   -1    0    0    0  501 -0.00000000000E+00  0.00000000000E+00  0.63799229942E+02  0.63799229942E+02  0.00000000000E+00 0.  1.
          1   -1    0    0  501    0  0.00000000000E+00 -0.00000000000E+00 -0.28850005379E+03  0.28850005379E+03  0.00000000000E+00 0. -1.
         25    2    1    2    0    0  0.54442447547E+01 -0.48143828723E+02 -0.39102769998E+02  0.13972982882E+03  0.12509168795E+03 0.  0.
         23    2    1    2    0    0 -0.54442447547E+01  0.48143828723E+02 -0.18559805385E+03  0.21256945492E+03  0.91606045242E+02 0.  0.
          5    1    3    3  502    0  0.55600153779E+02 -0.78207453139E+01  0.11853963394E+02  0.57537205403E+02  0.41800000000E+01 0.  1.
         -5    1    3    3    0  502 -0.50155909024E+02 -0.40323083409E+02 -0.50956733392E+02  0.82192623413E+02  0.41800000000E+01 0.  1.
        -11    1    4    4    0    0 -0.26709714079E+02 -0.19198713347E+02 -0.63728713199E+02  0.71717140952E+02  0.00000000000E+00 0. -1.
         11    1    4    4    0    0  0.21265469324E+02  0.67342542070E+02 -0.12186934065E+03  0.14085231396E+03  0.00000000000E+00 0.  1.
</event>
<event>
 8    1  0.7052796E-009  0.2620862E+03  0.7561462E-02  0.1105896E+00
          2   -1    0    0  501    0  0.00000000000E+00  0.00000000000E+00  0.22520885776E+04  0.22520885776E+04  0.00000000000E+00 0. -1.
         -2   -1    0    0    0  501 -0.00000000000E+00 -0.00000000000E+00 -0.23958479515E+03  0.23958479515E+03  0.00000000000E+00 0.  1.
         25    2    1    2    0    0  0.26903038194E+01 -0.24515727968E+03  0.21690857099E+04  0.21864785629E+04  0.12508541032E+03 0.  0.
         23    2    1    2    0    0 -0.26903038194E+01  0.24515727968E+03 -0.15658192745E+03  0.30519480980E+03  0.92285656575E+02 0.  0.
          5    1    3    3  502    0  0.14643863997E+02 -0.25310830969E+03  0.21214817646E+04  0.21365815241E+04  0.41800000000E+01 0.  1.
         -5    1    3    3    0  502 -0.11953560178E+02  0.79510300065E+01  0.47603945313E+02  0.49897038875E+02  0.41800000000E+01 0.  1.
        -11    1    4    4    0    0 -0.37373602408E+02  0.14126174229E+03 -0.55994044214E+02  0.15648322268E+03  0.00000000000E+00 0.  1.
         11    1    4    4    0    0  0.34683298589E+02  0.10389553739E+03 -0.10058788323E+03  0.14871158712E+03  0.00000000000E+00 0. -1.
</event>
<event>
 8    1  0.7052796E-009  0.1184888E+03  0.7561462E-02  0.1245611E+00
          1   -1    0    0  501    0  0.00000000000E+00  0.00000000000E+00  0.28550514067E+02  0.28550514067E+02  0.00000000000E+00 0. -1.
         -1   -1    0    0    0  501 -0.00000000000E+00 -0.00000000000E+00 -0.51270834698E+03  0.51270834698E+03  0.00000000000E+00 0.  1.
         25    2    1    2    0    0 -0.52928977128E+02  0.82134410211E+01 -0.27751343292E+03  0.30907953079E+03  0.12509002226E+03 0.  0.
         23    2    1    2    0    0  0.52928977128E+02 -0.82134410211E+01 -0.20664439999E+03  0.23217933026E+03  0.91303866934E+02 0.  0.
          5    1    3    3  502    0 -0.75481454131E+02 -0.34293196519E+02 -0.21210341902E+03  0.22776919460E+03  0.41800000000E+01 0. -1.
         -5    1    3    3    0  502  0.22552477003E+02  0.42506637540E+02 -0.65410013896E+02  0.81310336192E+02  0.41800000000E+01 0. -1.
        -11    1    4    4    0    0 -0.57738273390E+01  0.33281129330E+02 -0.72668221301E+02  0.80135142346E+02  0.00000000000E+00 0.  1.
         11    1    4    4    0    0  0.58702804467E+02 -0.41494570351E+02 -0.13397617869E+03  0.15204418791E+03  0.00000000000E+00 0. -1.
</event>
<event>
 8    1  0.7052796E-009  0.2571021E+03  0.7561462E-02  0.1108897E+00
         -1   -1    0    0    0  501 -0.00000000000E+00  0.00000000000E+00  0.38884426670E+03  0.38884426670E+03  0.00000000000E+00 0.  1.
          1   -1    0    0  501    0  0.00000000000E+00 -0.00000000000E+00 -0.20777893334E+03  0.20777893334E+03  0.00000000000E+00 0. -1.
         25    2    1    2    0    0  0.25197734853E+03 -0.95058950928E+01  0.16909285080E+02  0.28198609580E+03  0.12508912057E+03 0.  0.
         23    2    1    2    0    0 -0.25197734853E+03  0.95058950928E+01  0.16415604828E+03  0.31463710425E+03  0.92012786965E+02 0.  0.
          5    1    3    3  502    0  0.10286200951E+03 -0.38322203062E+02 -0.43955703381E+02  0.11831635774E+03  0.41800000000E+01 0. -1.
         -5    1    3    3    0  502  0.14911533902E+03  0.28816307969E+02  0.60864988462E+02  0.16366973806E+03  0.41800000000E+01 0. -1.
        -11    1    4    4    0    0 -0.68357962547E+02  0.77557935209E+01  0.70368899174E+00  0.68800134847E+02  0.00000000000E+00 0. -1.
         11    1    4    4    0    0 -0.18361938599E+03  0.17501015719E+01  0.16345235929E+03  0.24583696940E+03  0.00000000000E+00 0.  1.
</event>
<event>
 8    1  0.7052796E-009  0.1372594E+03  0.7561462E-02  0.1217065E+00
         -1   -1    0    0    0  501 -0.00000000000E+00  0.00000000000E+00  0.21312869878E+02  0.21312869878E+02  0.00000000000E+00 0.  1.
          1   -1    0    0  501    0  0.00000000000E+00 -0.00000000000E+00 -0.12080032025E+04  0.12080032025E+04  0.00000000000E+00 0. -1.
         25    2    1    2    0    0  0.11712689409E+01 -0.11248980183E+03 -0.51612205920E+03  0.54285043522E+03  0.12509711285E+03 0.  0.
         23    2    1    2    0    0 -0.11712689409E+01  0.11248980183E+03 -0.67056827347E+03  0.68646563720E+03  0.94434815027E+02 0.  0.
          5    1    3    3  502    0  0.31072060442E+02 -0.73245524644E+02 -0.46464144677E+03  0.47142287416E+03  0.41800000000E+01 0. -1.
         -5    1    3    3    0  502 -0.29900791501E+02 -0.39244277182E+02 -0.51480612428E+02  0.71427561067E+02  0.41800000000E+01 0. -1.
        -11    1    4    4    0    0  0.39538270683E+02  0.91175921608E+02 -0.40967883604E+03  0.42156028303E+03  0.00000000000E+00 0. -1.
         11    1    4    4    0    0 -0.40709539624E+02  0.21313880218E+02 -0.26088943743E+03  0.26490535417E+03  0.00000000000E+00 0.  1.
</event>
<event>
 8    1  0.7052796E-009  0.9544398E+02  0.7561462E-02  0.1290179E+00
          1   -1    0    0  501    0  0.00000000000E+00  0.00000000000E+00  0.89651243760E+03  0.89651243760E+03  0.00000000000E+00 0. -1.
         -1   -1    0    0    0  501 -0.00000000000E+00 -0.00000000000E+00 -0.27922590401E+02  0.27922590401E+02  0.00000000000E+00 0.  1.
         25    2    1    2    0    0 -0.25645331532E+02 -0.69058349037E+02  0.72478420835E+03  0.73918029268E+03  0.12509443558E+03 0.  0.
         23    2    1    2    0    0  0.25645331532E+02  0.69058349037E+02  0.14380563884E+03  0.18525473532E+03  0.90622936348E+02 0.  0.
          5    1    3    3  502    0  0.28754431821E+02 -0.22359680795E+01  0.45514948287E+03  0.45608150704E+03  0.41800000000E+01 0.  1.
         -5    1    3    3    0  502 -0.54399763352E+02 -0.66822380957E+02  0.26963472548E+03  0.28309878565E+03  0.41800000000E+01 0.  1.
        -11    1    4    4    0    0  0.23255483928E+02  0.39604312518E+02  0.14840405575E+03  0.15534826316E+03  0.00000000000E+00 0. -1.
         11    1    4    4    0    0  0.23898476040E+01  0.29454036519E+02 -0.45984169079E+01  0.29906472157E+02  0.00000000000E+00 0.  1.
</event>
<event>
 8    1  0.7052796E-009  0.1194652E+03  0.7561462E-02  0.1243982E+00
          2   -1    0    0  501    0  0.00000000000E+00  0.00000000000E+00  0.19078344145E+03  0.19078344145E+03  0.00000000000E+00 0. -1.
         -2   -1    0    0    0  501 -0.00000000000E+00 -0.00000000000E+00 -0.11106350741E+03  0.11106350741E+03  0.00000000000E+00 0.  1.
         25    2    1    2    0    0 -0.10882336619E+02  0.96877196922E+02  0.59191071929E+02  0.16926287968E+03  0.12507087154E+03 0.  0.
         23    2    1    2    0    0  0.10882336619E+02 -0.96877196922E+02  0.20528862110E+02  0.13258406917E+03  0.87484196771E+02 0.  0.
          5    1    3    3  502    0 -0.55759309968E+02  0.52590238533E+02  0.71482068217E+02  0.10489038237E+03  0.41800000000E+01 0.  1.
         -5    1    3    3    0  502  0.44876973349E+02  0.44286958389E+02 -0.12290996288E+02  0.64372497311E+02  0.41800000000E+01 0.  1.
        -11    1    4    4    0    0  0.12556960626E+02 -0.36859562290E+02 -0.33836593118E+02  0.51587010247E+02  0.00000000000E+00 0.  1.
         11    1    4    4    0    0 -0.16746240071E+01 -0.60017634632E+02  0.54365455227E+02  0.80997058924E+02  0.00000000000E+00 0. -1.
</event>
<event>
 8    1  0.7052796E-009  0.9730830E+02  0.7561462E-02  0.1286060E+00
         -1   -1    0    0    0  501 -0.00000000000E+00  0.00000000000E+00  0.22468518821E+03  0.22468518821E+03  0.00000000000E+00 0.  1.
          1   -1    0    0  501    0  0.00000000000E+00 -0.00000000000E+00 -0.83044152016E+02  0.83044152016E+02  0.00000000000E+00 0. -1.
         25    2    1    2    0    0 -0.78103437387E+01  0.66651639720E+02  0.24839008482E+02  0.14410888136E+03  0.12508777237E+03 0.  0.
         23    2    1    2    0    0  0.78103437387E+01 -0.66651639720E+02  0.11680202771E+03  0.16362045886E+03  0.92873561017E+02 0.  0.
          5    1    3    3  502    0 -0.18609353704E+02  0.81352228196E+02  0.60957673098E+02  0.10343018605E+03  0.41800000000E+01 0.  1.
         -5    1    3    3    0  502  0.10799009965E+02 -0.14700588477E+02 -0.36118664617E+02  0.40678695302E+02  0.41800000000E+01 0.  1.
        -11    1    4    4    0    0 -0.13877960854E+02  0.70162343369E+01  0.74177473849E+02  0.75789992535E+02  0.00000000000E+00 0.  1.
         11    1    4    4    0    0  0.21688304593E+02 -0.73667874056E+02  0.42624553858E+02  0.87830466330E+02  0.00000000000E+00 0. -1.
</event>
<event>
 8    1  0.7052796E-009  0.5459461E+02  0.7561462E-02  0.1422026E+00
         -2   -1    0    0    0  501 -0.00000000000E+00  0.00000000000E+00  0.78583603563E+02  0.78583603563E+02  0.00000000000E+00 0.  1.
          2   -1    0    0  501    0  0.00000000000E+00 -0.00000000000E+00 -0.21573038065E+03  0.21573038065E+03  0.00000000000E+00 0. -1.
         25    2    1    2    0    0  0.21868120121E+00 -0.48238313834E+02 -0.15810932548E+02  0.13500028894E+03  0.12509240458E+03 0.  0.
         23    2    1    2    0    0 -0.21868120121E+00  0.48238313834E+02 -0.12133584454E+03  0.15931369527E+03  0.91276960884E+02 0.  0.
          5    1    3    3  502    0 -0.13055940450E+00 -0.22462964615E+02 -0.70654243771E+02  0.74256961881E+02  0.41800000000E+01 0.  1.
         -5    1    3    3    0  502  0.34924060571E+00 -0.25775349219E+02  0.54843311223E+02  0.60743327059E+02  0.41800000000E+01 0.  1.
        -11    1    4    4    0    0 -0.17240264478E+02  0.33644899360E+02 -0.19654343673E+01  0.37855896561E+02  0.00000000000E+00 0.  1.
         11    1    4    4    0    0  0.17021583276E+02  0.14593414474E+02 -0.11937041017E+03  0.12145779871E+03  0.00000000000E+00 0. -1.
</event>
<event>
 8    1  0.7052796E-009  0.6512280E+02  0.7561462E-02  0.1377510E+00
          1   -1    0    0  501    0  0.00000000000E+00  0.00000000000E+00  0.27422102791E+03  0.27422102791E+03  0.00000000000E+00 0. -1.
         -1   -1    0    0    0  501 -0.00000000000E+00 -0.00000000000E+00 -0.60246589184E+02  0.60246589184E+02  0.00000000000E+00 0.  1.
         25    2    1    2    0    0 -0.47982907993E+02  0.91262211077E+01  0.18900519566E+03  0.23185638041E+03  0.12509504299E+03 0.  0.
         23    2    1    2    0    0  0.47982907993E+02 -0.91262211077E+01  0.24969243060E+02  0.10261123668E+03  0.86717676528E+02 0.  0.
          5    1    3    3  502    0 -0.13256407507E+02 -0.26380076555E+02 -0.61428868873E+01  0.30444182340E+02  0.41800000000E+01 0.  1.
         -5    1    3    3    0  502 -0.34726500486E+02  0.35506297663E+02  0.19514808255E+03  0.20141219807E+03  0.41800000000E+01 0.  1.
        -11    1    4    4    0    0  0.17973495853E+02 -0.99934647056E+01  0.55865933325E+02  0.59530818878E+02  0.00000000000E+00 0. -1.
         11    1    4    4    0    0  0.30009412140E+02  0.86724359789E+00 -0.30896690265E+02  0.43080417800E+02  0.00000000000E+00 0.  1.
</event>
<event>
 8    1  0.7052796E-009  0.1997384E+03  0.7561462E-02  0.1149960E+00
          2   -1    0    0  501    0  0.00000000000E+00  0.00000000000E+00  0.17250086763E+03  0.17250086763E+03  0.00000000000E+00 0. -1.
         -2   -1    0    0    0  501 -0.00000000000E+00 -0.00000000000E+00 -0.24049897608E+03  0.24049897608E+03  0.00000000000E+00 0.  1.
         25    2    1    2    0    0  0.16849709910E+03  0.27931943763E+02 -0.73746114596E+02  0.22418242940E+03  0.12509119212E+03 0.  0.
         23    2    1    2    0    0 -0.16849709910E+03 -0.27931943763E+02  0.57480061524E+01  0.18881741431E+03  0.80296391500E+02 0.  0.
          5    1    3    3  502    0  0.13581535452E+03 -0.35138103803E+02 -0.44325446519E+02  0.14718258889E+03  0.41800000000E+01 0.  1.
         -5    1    3    3    0  502  0.32681744574E+02  0.63070047565E+02 -0.29420668076E+02  0.76999840509E+02  0.41800000000E+01 0.  1.
        -11    1    4    4    0    0 -0.45666376871E+02 -0.44816608514E+02  0.99896190401E+01  0.64759083253E+02  0.00000000000E+00 0. -1.
         11    1    4    4    0    0 -0.12283072222E+03  0.16884664751E+02 -0.42416128877E+01  0.12405833106E+03  0.00000000000E+00 0.  1.
</event>
<event>
 8    1  0.7052796E-009  0.1735054E+03  0.7561462E-02  0.1174241E+00
         -1   -1    0    0    0  501 -0.00000000000E+00  0.00000000000E+00  0.34740004831E+02  0.34740004831E+02  0.00000000000E+00 0.  1.
          1   -1    0    0  501    0  0.00000000000E+00 -0.00000000000E+00 -0.98039241095E+03  0.98039241095E+03  0.00000000000E+00 0. -1.
         25    2    1    2    0    0  0.14003540669E+03  0.24357141204E+02 -0.63445269411E+03  0.66210269696E+03  0.12508626941E+03 0.  0.
         23    2    1    2    0    0 -0.14003540669E+03 -0.24357141204E+02 -0.31119971200E+03  0.35302971882E+03  0.87072017118E+02 0.  0.
          5    1    3    3  502    0  0.16200191123E+03  0.23250901986E+02 -0.50939912111E+03  0.53506089436E+03  0.41800000000E+01 0.  1.
         -5    1    3    3    0  502 -0.21966504534E+02  0.11062392175E+01 -0.12505357300E+03  0.12704180260E+03  0.41800000000E+01 0.  1.
        -11    1    4    4    0    0 -0.10092911253E+02 -0.29179387411E+02 -0.29208730464E+02  0.42502393375E+02  0.00000000000E+00 0. -1.
         11    1    4    4    0    0 -0.12994249544E+03  0.48222462078E+01 -0.28199098154E+03  0.31052732545E+03  0.00000000000E+00 0.  1.
</event>
<event>
 8    1  0.7052796E-009  0.1290010E+03  0.7561462E-02  0.1228946E+00
          2   -1    0    0  501    0  0.00000000000E+00  0.00000000000E+00  0.57329642830E+03  0.57329642830E+03  0.00000000000E+00 0. -1.
         -2   -1    0    0    0  501 -0.00000000000E+00 -0.00000000000E+00 -0.38327583733E+02  0.38327583733E+02  0.00000000000E+00 0.  1.
         25    2    1    2    0    0  0.18863404431E+02 -0.73688756292E+02  0.40259557760E+03  0.42838829116E+03  0.12508983999E+03 0.  0.
         23    2    1    2    0    0 -0.18863404431E+02  0.73688756292E+02  0.13237326697E+03  0.18323572088E+03  0.10132515367E+03 0.  0.
          5    1    3    3  502    0 -0.44267224396E+02 -0.39026213024E+02  0.27965297937E+03  0.28584242815E+03  0.41800000000E+01 0.  1.
         -5    1    3    3    0  502  0.63130628827E+02 -0.34662543268E+02  0.12294259822E+03  0.14254586300E+03  0.41800000000E+01 0.  1.
        -11    1    4    4    0    0  0.41331638562E+02  0.40923268925E+02  0.61028563474E+02  0.84306013104E+02  0.00000000000E+00 0. -1.
         11    1    4    4    0    0 -0.60195042993E+02  0.32765487367E+02  0.71344703501E+02  0.98929707777E+02  0.00000000000E+00 0.  1.
</event>
<event>
 8    1  0.7052796E-009  0.7414088E+02  0.7561462E-02  0.1346552E+00
          1   -1    0    0  501    0  0.00000000000E+00  0.00000000000E+00  0.17548672745E+03  0.17548672745E+03  0.00000000000E+00 0. -1.
         -1   -1    0    0    0  501 -0.00000000000E+00 -0.00000000000E+00 -0.94574237149E+02  0.94574237149E+02  0.00000000000E+00 0.  1.
         25    2    1    2    0    0  0.39121729290E+02  0.24960762489E+02 -0.84875006472E+01  0.13368820932E+03  0.12508777029E+03 0.  0.
         23    2    1    2    0    0 -0.39121729290E+02 -0.24960762489E+02  0.89399990945E+02  0.13637275528E+03  0.91932696218E+02 0.  0.
          5    1    3    3  502    0  0.77990260741E+01  0.94346520752E+01 -0.65453744301E+02  0.66719581162E+02  0.41800000000E+01 0. -1.
         -5    1    3    3    0  502  0.31322703216E+02  0.15526110413E+02  0.56966243654E+02  0.66968628158E+02  0.41800000000E+01 0. -1.
        -11    1    4    4    0    0 -0.63306061202E+02 -0.36785798425E+02  0.78453745505E+02  0.10731189372E+03  0.00000000000E+00 0. -1.
         11    1    4    4    0    0  0.24184331912E+02  0.11825035937E+02  0.10946245440E+02  0.29060861552E+02  0.00000000000E+00 0.  1.
</event>
<event>
 8    1  0.7052796E-009  0.8432801E+02  0.7561462E-02  0.1317199E+00
          1   -1    0    0  501    0  0.00000000000E+00  0.00000000000E+00  0.54828091214E+03  0.54828091214E+03  0.00000000000E+00 0. -1.
         -1   -1    0    0    0  501 -0.00000000000E+00 -0.00000000000E+00 -0.22379314138E+02  0.22379314138E+02  0.00000000000E+00 0.  1.
         25    2    1    2    0    0 -0.14677334463E+02  0.10612511416E+02  0.24535189227E+03  0.27599217469E+03  0.12508429121E+03 0.  0.
         23    2    1    2    0    0  0.14677334463E+02 -0.10612511416E+02  0.28054970574E+03  0.29466805159E+03  0.88278387455E+02 0.  0.
          5    1    3    3  502    0 -0.25606457672E+02  0.45402370767E+02  0.23056490074E+03  0.23642062473E+03  0.41800000000E+01 0.  1.
         -5    1    3    3    0  502  0.10929123210E+02 -0.34789859352E+02  0.14786991529E+02  0.39571549961E+02  0.41800000000E+01 0.  1.
        -11    1    4    4    0    0  0.46190846073E+02 -0.13196616980E+02  0.23060731786E+03  0.23555780609E+03  0.00000000000E+00 0.  1.
         11    1    4    4    0    0 -0.31513511611E+02  0.25841055646E+01  0.49942387881E+02  0.59110245498E+02  0.00000000000E+00 0. -1.
</event>
<event>
 8    1  0.7052796E-009  0.1099670E+03  0.7561462E-02  0.1260631E+00
         -1   -1    0    0    0  501 -0.00000000000E+00  0.00000000000E+00  0.10088754081E+03  0.10088754081E+03  0.00000000000E+00 0.  1.
          1   -1    0    0  501    0  0.00000000000E+00 -0.00000000000E+00 -0.24121440345E+03  0.24121440345E+03  0.00000000000E+00 0. -1.
         25    2    1    2    0    0  0.57561760664E+02  0.14873391436E+02 -0.17865101682E+03  0.22604947680E+03  0.12509039167E+03 0.  0.
         23    2    1    2    0    0 -0.57561760664E+02 -0.14873391436E+02  0.38324154176E+02  0.11605246746E+03  0.92004675673E+02 0.  0.
          5    1    3    3  502    0 -0.17510171211E+02  0.49233486041E+02 -0.94626466879E+02  0.10817662815E+03  0.41800000000E+01 0. -1.
         -5    1    3    3    0  502  0.75071931876E+02 -0.34360094605E+02 -0.84024549936E+02  0.11787284865E+03  0.41800000000E+01 0. -1.
        -11    1    4    4    0    0 -0.40247999868E+02 -0.38404429740E+02  0.58360680124E+02  0.80627357029E+02  0.00000000000E+00 0.  1.
         11    1    4    4    0    0 -0.17313760797E+02  0.23531038305E+02 -0.20036525948E+02  0.35425110426E+02  0.00000000000E+00 0. -1.
</event>
<event>
 8    1  0.7052796E-009  0.1143602E+03  0.7561462E-02  0.1252702E+00
          1   -1    0    0  501    0  0.00000000000E+00  0.00000000000E+00  0.58986309352E+03  0.58986309352E+03  0.00000000000E+00 0. -1.
         -1   -1    0    0    0  501 -0.00000000000E+00 -0.00000000000E+00 -0.33417138996E+02  0.33417138996E+02  0.00000000000E+00 0.  1.
         25    2    1    2    0    0 -0.81155787264E+02 -0.28769707961E+02  0.25211240798E+03  0.29431658173E+03  0.12509047175E+03 0.  0.
         23    2    1    2    0    0  0.81155787264E+02  0.28769707961E+02  0.30433354655E+03  0.32896365079E+03  0.90466668345E+02 0.  0.
          5    1    3    3  502    0  0.65399098240E+01 -0.49810090742E+02  0.14884140989E+03  0.15714659798E+03  0.41800000000E+01 0. -1.
         -5    1    3    3    0  502 -0.87695697087E+02  0.21040382781E+02  0.10327099809E+03  0.13716998375E+03  0.41800000000E+01 0. -1.
        -11    1    4    4    0    0  0.26299337628E+02  0.47379640621E+00  0.98604033046E+01  0.28091051886E+02  0.00000000000E+00 0.  1.
         11    1    4    4    0    0  0.54856449635E+02  0.28295911555E+02  0.29447314324E+03  0.30087259890E+03  0.00000000000E+00 0. -1.
</event>
<event>
 8    1  0.7052796E-009  0.1113563E+03  0.7561462E-02  0.1258079E+00
          2   -1    0    0  501    0  0.00000000000E+00  0.00000000000E+00  0.26130003393E+03  0.26130003393E+03  0.00000000000E+00 0. -1.
         -2   -1    0    0    0  501 -0.00000000000E+00 -0.00000000000E+00 -0.77987736205E+02  0.77987736205E+02  0.00000000000E+00 0.  1.
         25    2    1    2    0    0  0.84990068950E+02  0.11909365713E+02  0.60190994311E+02  0.16320410039E+03  0.12508987879E+03 0.  0.
         23    2    1    2    0    0 -0.84990068950E+02 -0.11909365713E+02  0.12312130341E+03  0.17608366975E+03  0.92094834737E+02 0.  0.
          5    1    3    3  502    0  0.92483685235E+02  0.35535902430E+02  0.12995673479E+01  0.99172544948E+02  0.41800000000E+01 0.  1.
         -5    1    3    3    0  502 -0.74936162850E+01 -0.23626536717E+02  0.58891426963E+02  0.64031555440E+02  0.41800000000E+01 0.  1.
        -11    1    4    4    0    0 -0.21819383485E+02 -0.25741443069E+02  0.10295625013E+03  0.10834526675E+03  0.00000000000E+00 0. -1.
         11    1    4    4    0    0 -0.63170685465E+02  0.13832077356E+02  0.20165053284E+02  0.67738402993E+02  0.00000000000E+00 0.  1.
</event>
<event>
 8    1  0.7052796E-009  0.2102721E+03  0.7561462E-02  0.1141351E+00
          2   -1    0    0  501    0  0.00000000000E+00  0.00000000000E+00  0.35705624681E+03  0.35705624681E+03  0.00000000000E+00 0. -1.
         -2   -1    0    0    0  501 -0.00000000000E+00 -0.00000000000E+00 -0.13542403480E+03  0.13542403480E+03  0.00000000000E+00 0.  1.
         25    2    1    2    0    0 -0.18668856279E+03  0.36212710870E+02  0.10866841240E+03  0.25223021802E+03  0.12508908474E+03 0.  0.
         23    2    1    2    0    0  0.18668856279E+03 -0.36212710870E+02  0.11296379962E+03  0.24025006360E+03  0.93783224125E+02 0.  0.
          5    1    3    3  502    0 -0.15091688559E+02  0.51694635851E+02  0.37572862065E+02  0.65797316078E+02  0.41800000000E+01 0. -1.
         -5    1    3    3    0  502 -0.17159687423E+03 -0.15481924980E+02  0.71095550332E+02  0.18643290194E+03  0.41800000000E+01 0. -1.
        -11    1    4    4    0    0  0.12655255220E+03 -0.55287145135E+01  0.24587273476E+02  0.12903739447E+03  0.00000000000E+00 0.  1.
         11    1    4    4    0    0  0.60136010588E+02 -0.30683996357E+02  0.88376526143E+02  0.11121266913E+03  0.00000000000E+00 0. -1.
</event>
<event>
 8    1  0.7052796E-009  0.1010510E+03  0.7561462E-02  0.1278101E+00
         -3   -1    0    0    0  501 -0.00000000000E+00  0.00000000000E+00  0.17346710495E+03  0.17346710495E+03  0.00000000000E+00 0.  1.
          3   -1    0    0  501    0  0.00000000000E+00 -0.00000000000E+00 -0.91217158089E+02  0.91217158089E+02  0.00000000000E+00 0. -1.
         25    2    1    2    0    0  0.12252539452E+02 -0.21338494168E+02  0.10646807294E+03  0.16609752598E+03  0.12508989378E+03 0.  0.
         23    2    1    2    0    0 -0.12252539452E+02  0.21338494168E+02 -0.24218126075E+02  0.98586737061E+02  0.92343765557E+02 0.  0.
          5    1    3    3  502    0  0.49793619872E+02 -0.56748617206E+02  0.66394403575E+02  0.10062554030E+03  0.41800000000E+01 0.  1.
         -5    1    3    3    0  502 -0.37541080420E+02  0.35410123038E+02  0.40073669365E+02  0.65471985681E+02  0.41800000000E+01 0.  1.
        -11    1    4    4    0    0 -0.50329409218E+01  0.47402295948E+02 -0.44163309411E+02  0.64982351863E+02  0.00000000000E+00 0. -1.
         11    1    4    4    0    0 -0.72195985306E+01 -0.26063801780E+02  0.19945183337E+02  0.33604385198E+02  0.00000000000E+00 0.  1.
</event>
<event>
 8    1  0.7052796E-009  0.1023633E+03  0.7561462E-02  0.1275403E+00
         -2   -1    0    0    0  501 -0.00000000000E+00  0.00000000000E+00  0.14485940737E+03  0.14485940737E+03  0.00000000000E+00 0.  1.
          2   -1    0    0  501    0  0.00000000000E+00 -0.00000000000E+00 -0.84129818793E+02  0.84129818793E+02  0.00000000000E+00 0. -1.
         25    2    1    2    0    0  0.87339430704E+00 -0.52852791896E+01  0.61106171156E+02  0.13932128121E+03  0.12509099988E+03 0.  0.
         23    2    1    2    0    0 -0.87339430704E+00  0.52852791896E+01 -0.37658257633E+00  0.89667944953E+02  0.89506991593E+02 0.  0.
          5    1    3    3  502    0  0.47951423782E+02 -0.37872777174E+02  0.53666566736E+02  0.81432543119E+02  0.41800000000E+01 0.  1.
         -5    1    3    3    0  502 -0.47078029475E+02  0.32587497984E+02  0.74396044205E+01  0.57888738093E+02  0.41800000000E+01 0.  1.
        -11    1    4    4    0    0 -0.40995719016E+02  0.16837650172E+02 -0.12757811951E+02  0.46118512625E+02  0.00000000000E+00 0. -1.
         11    1    4    4    0    0  0.40122324709E+02 -0.11552370982E+02  0.12381229375E+02  0.43549432329E+02  0.00000000000E+00 0.  1.
</event>
<event>
 8    1  0.7052796E-009  0.1225056E+03  0.7561462E-02  0.1239020E+00
         -3   -1    0    0    0  501 -0.00000000000E+00  0.00000000000E+00  0.49237515587E+02  0.49237515587E+02  0.00000000000E+00 0.  1.
          3   -1    0    0  501    0  0.00000000000E+00 -0.00000000000E+00 -0.45460235138E+03  0.45460235138E+03  0.00000000000E+00 0. -1.
         25    2    1    2    0    0 -0.58563337238E+02  0.50013923195E+02 -0.33327445456E+03  0.36421197670E+03  0.12508974749E+03 0.  0.
         23    2    1    2    0    0  0.58563337238E+02 -0.50013923195E+02 -0.72090381229E+02  0.13962789027E+03  0.91476049829E+02 0.  0.
          5    1    3    3  502    0  0.34944666326E+02  0.21899517766E+02 -0.52356279123E+02  0.66778521597E+02  0.41800000000E+01 0.  1.
         -5    1    3    3    0  502 -0.93508003565E+02  0.28114405430E+02 -0.28091817544E+03  0.29743345510E+03  0.41800000000E+01 0.  1.
        -11    1    4    4    0    0 -0.14605912422E+02 -0.24146768395E+02  0.67318647852E+01  0.29012361247E+02  0.00000000000E+00 0.  1.
         11    1    4    4    0    0  0.73169249661E+02 -0.25867154800E+02 -0.78822246015E+02  0.11061552902E+03  0.00000000000E+00 0. -1.
</event>
<event>
 8    1  0.7052796E-009  0.9909399E+02  0.7561462E-02  0.1282213E+00
         -1   -1    0    0    0  501 -0.00000000000E+00  0.00000000000E+00  0.81801798937E+02  0.81801798937E+02  0.00000000000E+00 0.  1.
          1   -1    0    0  501    0  0.00000000000E+00 -0.00000000000E+00 -0.24616511559E+03  0.24616511559E+03  0.00000000000E+00 0. -1.
         25    2    1    2    0    0 -0.29312274654E+02  0.81350465016E+00 -0.18777037641E+03  0.22752027972E+03  0.12509153525E+03 0.  0.
         23    2    1    2    0    0  0.29312274654E+02 -0.81350465016E+00  0.23407059754E+02  0.10044663481E+03  0.93175988125E+02 0.  0.
          5    1    3    3  502    0  0.38276538709E+02 -0.34578107212E+02 -0.68008258013E+02  0.85459548746E+02  0.41800000000E+01 0.  1.
         -5    1    3    3    0  502 -0.67588813363E+02  0.35391611862E+02 -0.11976211839E+03  0.14206073097E+03  0.41800000000E+01 0.  1.
        -11    1    4    4    0    0  0.49161168083E+02 -0.59640054565E+01 -0.19238246837E+02  0.53127205363E+02  0.00000000000E+00 0. -1.
         11    1    4    4    0    0 -0.19848893429E+02  0.51505008063E+01  0.42645306591E+02  0.47319429446E+02  0.00000000000E+00 0.  1.
</event>
<event>
 8    1  0.7052796E-009  0.1069756E+03  0.7561462E-02  0.1266275E+00
          1   -1    0    0  501    0  0.00000000000E+00  0.00000000000E+00  0.45427667723E+03  0.45427667723E+03  0.00000000000E+00 0. -1.
         -1   -1    0    0    0  501 -0.00000000000E+00 -0.00000000000E+00 -0.26395215550E+02  0.26395215550E+02  0.00000000000E+00 0.  1.
         25    2    1    2    0    0  0.11074185451E+02  0.44800766506E+01  0.23339399981E+03  0.26506892996E+03  0.12508425087E+03 0.  0.
         23    2    1    2    0    0 -0.11074185451E+02 -0.44800766506E+01  0.19448746188E+03  0.21560296282E+03  0.92285188840E+02 0.  0.
          5    1    3    3  502    0  0.34590526565E+02  0.56850931037E+02  0.14484899378E+03  0.15945919944E+03  0.41800000000E+01 0.  1.
         -5    1    3    3    0  502 -0.23516341114E+02 -0.52370854386E+02  0.88545006026E+02  0.10560973052E+03  0.41800000000E+01 0.  1.
        -11    1    4    4    0    0 -0.38526438084E+02  0.27672370047E+02  0.73848779665E+02  0.87770659981E+02  0.00000000000E+00 0.  1.
         11    1    4    4    0    0  0.27452252634E+02 -0.32152446698E+02  0.12063868221E+03  0.12783230284E+03  0.00000000000E+00 0. -1.
</event>
<event>
 8    1  0.7052796E-009  0.8795243E+02  0.7561462E-02  0.1307887E+00
         -2   -1    0    0    0  501 -0.00000000000E+00  0.00000000000E+00  0.38753314773E+02  0.38753314773E+02  0.00000000000E+00 0.  1.
          2   -1    0    0  501    0  0.00000000000E+00 -0.00000000000E+00 -0.41270601365E+03  0.41270601365E+03  0.00000000000E+00 0. -1.
         25    2    1    2    0    0  0.23705809041E+02 -0.16388824118E+02 -0.33151320935E+03  0.35550299606E+03  0.12510321058E+03 0.  0.
         23    2    1    2    0    0 -0.23705809041E+02  0.16388824118E+02 -0.42439489525E+02  0.95956332358E+02  0.81092222254E+02 0.  0.
          5    1    3    3  502    0 -0.22921858119E+02  0.45252511792E+02 -0.13761273828E+03  0.14672402510E+03  0.41800000000E+01 0. -1.
         -5    1    3    3    0  502  0.46627667160E+02 -0.61641335910E+02 -0.19390047107E+03  0.20877897097E+03  0.41800000000E+01 0. -1.
        -11    1    4    4    0    0 -0.33489072220E+02  0.73561679237E+01 -0.62845396802E+02  0.71590328005E+02  0.00000000000E+00 0. -1.
         11    1    4    4    0    0  0.97832631791E+01  0.90326561939E+01  0.20405907277E+02  0.24366004353E+02  0.00000000000E+00 0.  1.
</event>
<event>
 8    1  0.7052796E-009  0.1927614E+03  0.7561462E-02  0.1155994E+00
          1   -1    0    0  501    0  0.00000000000E+00  0.00000000000E+00  0.33547740387E+03  0.33547740387E+03  0.00000000000E+00 0. -1.
         -1   -1    0    0    0  501 -0.00000000000E+00 -0.00000000000E+00 -0.12024626305E+03  0.12024626305E+03  0.00000000000E+00 0.  1.
         25    2    1    2    0    0 -0.61574026123E+02  0.15355997029E+03  0.75236114541E+02  0.22063612602E+03  0.12509117477E+03 0.  0.
         23    2    1    2    0    0  0.61574026123E+02 -0.15355997029E+03  0.13999502627E+03  0.23508754090E+03  0.91079741635E+02 0.  0.
          5    1    3    3  502    0  0.31088573531E+02  0.84341612558E+02  0.19042851868E+02  0.91978854202E+02  0.41800000000E+01 0.  1.
         -5    1    3    3    0  502 -0.92662599654E+02  0.69218357732E+02  0.56193262673E+02  0.12865727182E+03  0.41800000000E+01 0.  1.
        -11    1    4    4    0    0  0.32683157605E+02 -0.11216783105E+02  0.60081171898E+02  0.69309106407E+02  0.00000000000E+00 0.  1.
         11    1    4    4    0    0  0.28890868517E+02 -0.14234318718E+03  0.79913854377E+02  0.16577843449E+03  0.00000000000E+00 0. -1.
</event>
<event>
 8    1  0.7052796E-009  0.9224200E+02  0.7561462E-02  0.1297511E+00
         -4   -1    0    0    0  501 -0.00000000000E+00  0.00000000000E+00  0.81056117252E+02  0.81056117252E+02  0.00000000000E+00 0.  1.
          4   -1    0    0  501    0  0.00000000000E+00 -0.00000000000E+00 -0.21781935863E+03  0.21781935863E+03  0.00000000000E+00 0. -1.
         25    2    1    2    0    0 -0.15811558629E+02 -0.52328443791E+02 -0.12022538010E+03  0.18190874763E+03  0.12509348116E+03 0.  0.
         23    2    1    2    0    0  0.15811558629E+02  0.52328443791E+02 -0.16537861278E+02  0.11696672825E+03  0.10207567412E+03 0.  0.
          5    1    3    3  502    0 -0.35710293799E+02 -0.38618221904E+02  0.61996306464E+01  0.53127205521E+02  0.41800000000E+01 0.  1.
         -5    1    3    3    0  502  0.19898735170E+02 -0.13710221887E+02 -0.12642501074E+03  0.12878154211E+03  0.41800000000E+01 0.  1.
        -11    1    4    4    0    0 -0.32077466876E+02  0.49804687654E+02 -0.31021804093E+02  0.66871691489E+02  0.00000000000E+00 0.  1.
         11    1    4    4    0    0  0.47889025505E+02  0.25237561375E+01  0.14483942815E+02  0.50095036764E+02  0.00000000000E+00 0. -1.
</event>
<event>
 8    1  0.7052796E-009  0.1268008E+03  0.7561462E-02  0.1232282E+00
         -1   -1    0    0    0  501 -0.00000000000E+00  0.00000000000E+00  0.34580296517E+02  0.34580296517E+02  0.00000000000E+00 0.  1.
          1   -1    0    0  501    0  0.00000000000E+00 -0.00000000000E+00 -0.65083371784E+03  0.65083371784E+03  0.00000000000E+00 0. -1.
         25    2    1    2    0    0 -0.26306407421E+02 -0.73750156363E+02 -0.48570426628E+03  0.50762937376E+03  0.12509130341E+03 0.  0.
         23    2    1    2    0    0  0.26306407421E+02  0.73750156363E+02 -0.13054915504E+03  0.17778464060E+03  0.91832368553E+02 0.  0.
          5    1    3    3  502    0  0.28353925997E+02 -0.77889225265E+02 -0.37439670695E+03  0.38348538839E+03  0.41800000000E+01 0.  1.
         -5    1    3    3    0  502 -0.54660333418E+02  0.41390689029E+01 -0.11130755933E+03  0.12414398538E+03  0.41800000000E+01 0.  1.
        -11    1    4    4    0    0  0.91761504701E+01 -0.19112548119E+02 -0.70954616070E+01  0.22357030403E+02  0.00000000000E+00 0.  1.
         11    1    4    4    0    0  0.17130256951E+02  0.92862704481E+02 -0.12345369344E+03  0.15542761019E+03  0.00000000000E+00 0. -1.
</event>
<event>
 8    1  0.7052796E-009  0.9718722E+02  0.7561462E-02  0.1286325E+00
          2   -1    0    0  501    0  0.00000000000E+00  0.00000000000E+00  0.60774631676E+03  0.60774631676E+03  0.00000000000E+00 0. -1.
         -2   -1    0    0    0  501 -0.00000000000E+00 -0.00000000000E+00 -0.31021345091E+02  0.31021345091E+02  0.00000000000E+00 0.  1.
         25    2    1    2    0    0 -0.56554023283E+02 -0.51053467800E+01  0.45066271760E+03  0.47113594418E+03  0.12509104983E+03 0.  0.
         23    2    1    2    0    0  0.56554023283E+02  0.51053467800E+01  0.12606225407E+03  0.16763171767E+03  0.94785435343E+02 0.  0.
          5    1    3    3  502    0  0.22277580930E+02  0.28735688222E+02  0.53690307889E+02  0.64978088237E+02  0.41800000000E+01 0. -1.
         -5    1    3    3    0  502 -0.78831604213E+02 -0.33841035002E+02  0.39697240971E+03  0.40615785594E+03  0.41800000000E+01 0. -1.
        -11    1    4    4    0    0  0.49752320043E+02  0.21451829576E+02  0.13665233964E+03  0.14700114378E+03  0.00000000000E+00 0. -1.
         11    1    4    4    0    0  0.68017032405E+01 -0.16346482796E+02 -0.10590085573E+02  0.20630573895E+02  0.00000000000E+00 0.  1.
</event>
<event>
 8    1  0.7052796E-009  0.1069091E+03  0.7561462E-02  0.1266403E+00
          2   -1    0    0  501    0  0.00000000000E+00  0.00000000000E+00  0.89694956783E+03  0.89694956783E+03  0.00000000000E+00 0.  1.
         -2   -1    0    0    0  501 -0.00000000000E+00 -0.00000000000E+00 -0.17811824837E+02  0.17811824837E+02  0.00000000000E+00 0. -1.
         25    2    1    2    0    0 -0.49855105742E+02  0.16172344997E+01  0.65204587346E+03  0.66580671631E+03  0.12508643161E+03 0.  0.
         23    2    1    2    0    0  0.49855105742E+02 -0.16172344997E+01  0.22709186953E+03  0.24895467635E+03  0.88991947135E+02 0.  0.
          5    1    3    3  502    0 -0.81558516230E+02 -0.12813619210E+02  0.27562313315E+03  0.28775260961E+03  0.41800000000E+01 0. -1.
         -5    1    3    3    0  502  0.31703410488E+02  0.14430853709E+02  0.37642274031E+03  0.37805410670E+03  0.41800000000E+01 0. -1.
        -11    1    4    4    0    0  0.33014320030E+02 -0.41351844379E+02  0.16546283868E+03  0.17371779225E+03  0.00000000000E+00 0.  1.
         11    1    4    4    0    0  0.16840785712E+02  0.39734609880E+02  0.61629030852E+02  0.75236884102E+02  0.00000000000E+00 0. -1.
</event>
<event>
 8    1  0.7052796E-009  0.1312989E+03  0.7561462E-02  0.1225541E+00
          1   -1    0    0  501    0  0.00000000000E+00  0.00000000000E+00  0.10113403425E+04  0.10113403425E+04  0.00000000000E+00 0. -1.
         -1   -1    0    0    0  501 -0.00000000000E+00 -0.00000000000E+00 -0.20231682794E+02  0.20231682794E+02  0.00000000000E+00 0.  1.
         25    2    1    2    0    0  0.78587876183E+02  0.55049188852E+01  0.71948883370E+03  0.73451864971E+03  0.12508839493E+03 0.  0.
         23    2    1    2    0    0 -0.78587876183E+02 -0.55049188852E+01  0.27161982603E+03  0.29705337560E+03  0.90868144303E+02 0.  0.
          5    1    3    3  502    0  0.69448186056E+02  0.60235619450E+02  0.43178196350E+03  0.44147991664E+03  0.41800000000E+01 0. -1.
         -5    1    3    3    0  502  0.91396901278E+01 -0.54730700564E+02  0.28770687020E+03  0.29303873307E+03  0.41800000000E+01 0. -1.
        -11    1    4    4    0    0 -0.47430813168E+02  0.38443009849E+02  0.18724190073E+03  0.19694434856E+03  0.00000000000E+00 0. -1.
         11    1    4    4    0    0 -0.31157063015E+02 -0.43947928734E+02  0.84377925304E+02  0.10010902704E+03  0.00000000000E+00 0.  1.
</event>
<event>
 8    1  0.7052796E-009  0.1410788E+03  0.7561462E-02  0.1211885E+00
          1   -1    0    0  501    0  0.00000000000E+00  0.00000000000E+00  0.14111546117E+03  0.14111546117E+03  0.00000000000E+00 0. -1.
         -1   -1    0    0    0  501 -0.00000000000E+00 -0.00000000000E+00 -0.17460097451E+03  0.17460097451E+03  0.00000000000E+00 0.  1.
         25    2    1    2    0    0  0.11033751398E+03 -0.56116089512E+01  0.39787916992E+01  0.16694073215E+03  0.12509004805E+03 0.  0.
         23    2    1    2    0    0 -0.11033751398E+03  0.56116089512E+01 -0.37464305039E+02  0.14877570353E+03  0.92329727950E+02 0.  0.
          5    1    3    3  502    0 -0.26507976567E+02 -0.60881092141E+00  0.12633721636E+02  0.29666930997E+02  0.41800000000E+01 0. -1.
         -5    1    3    3    0  502  0.13684549054E+03 -0.50027980298E+01 -0.86549299370E+01  0.13727380115E+03  0.41800000000E+01 0. -1.
        -11    1    4    4    0    0 -0.28071780778E+02 -0.17228393253E+02  0.26353950301E+02  0.42182616165E+02  0.00000000000E+00 0.  1.
         11    1    4    4    0    0 -0.82265733200E+02  0.22840002204E+02 -0.63818255339E+02  0.10659308737E+03  0.00000000000E+00 0. -1.
</event>
<event>
 8    1  0.7052796E-009  0.8640050E+02  0.7561462E-02  0.1311810E+00
          1   -1    0    0  501    0  0.00000000000E+00  0.00000000000E+00  0.51901982620E+03  0.51901982620E+03  0.00000000000E+00 0. -1.
         -1   -1    0    0    0  501 -0.00000000000E+00 -0.00000000000E+00 -0.24666627724E+02  0.24666627724E+02  0.00000000000E+00 0.  1.
         25    2    1    2    0    0 -0.33595195806E+02 -0.84927261459E+00  0.29209306301E+03  0.31952707708E+03  0.12509930888E+03 0.  0.
         23    2    1    2    0    0  0.33595195806E+02  0.84927261459E+00  0.20226013547E+03  0.22415937685E+03  0.90603009795E+02 0.  0.
          5    1    3    3  502    0 -0.57606354492E+02 -0.45669673630E+02  0.12779206348E+03  0.14748727082E+03  0.41800000000E+01 0. -1.
         -5    1    3    3    0  502  0.24011158686E+02  0.44820401016E+02  0.16430099953E+03  0.17203980625E+03  0.41800000000E+01 0. -1.
        -11    1    4    4    0    0 -0.25013991436E+01 -0.10119574219E+02 -0.63229924483E+01  0.12191924112E+02  0.00000000000E+00 0.  1.
         11    1    4    4    0    0  0.36096594950E+02  0.10968846834E+02  0.20858312791E+03  0.21196745273E+03  0.00000000000E+00 0. -1.
</event>
<event>
 8    1  0.7052796E-009  0.1532962E+03  0.7561462E-02  0.1196480E+00
         -2   -1    0    0    0  501 -0.00000000000E+00  0.00000000000E+00  0.49333814873E+02  0.49333814873E+02  0.00000000000E+00 0.  1.
          2   -1    0    0  501    0  0.00000000000E+00 -0.00000000000E+00 -0.12591764030E+04  0.12591764030E+04  0.00000000000E+00 0. -1.
         25    2    1    2    0    0 -0.73178055897E+02  0.10730666487E+03 -0.11004414649E+04  0.11151184697E+04  0.12509210862E+03 0.  0.
         23    2    1    2    0    0  0.73178055897E+02 -0.10730666487E+03 -0.10940112317E+03  0.19339174810E+03  0.92531153086E+02 0.  0.
          5    1    3    3  502    0 -0.68802656939E+02  0.12177300075E+03 -0.10815620654E+04  0.10905761977E+04  0.41800000000E+01 0.  1.
         -5    1    3    3    0  502 -0.43753989584E+01 -0.14466335883E+02 -0.18879399552E+02  0.24542272050E+02  0.41800000000E+01 0.  1.
        -11    1    4    4    0    0  0.16845715017E+02 -0.90703939239E+02 -0.35153746148E+02  0.98725723984E+02  0.00000000000E+00 0. -1.
         11    1    4    4    0    0  0.56332340880E+02 -0.16602725633E+02 -0.74247377018E+02  0.94666024114E+02  0.00000000000E+00 0.  1.
</event>
<event>
 8    1  0.7052796E-009  0.8824258E+02  0.7561462E-02  0.1307164E+00
         -1   -1    0    0    0  501 -0.00000000000E+00  0.00000000000E+00  0.27948565542E+02  0.27948565542E+02  0.00000000000E+00 0.  1.
          1   -1    0    0  501    0  0.00000000000E+00 -0.00000000000E+00 -0.72987953143E+03  0.72987953143E+03  0.00000000000E+00 0. -1.
         25    2    1    2    0    0  0.53884403419E+02 -0.14843726272E+02 -0.57470448470E+03  0.59081028574E+03  0.12509070253E+03 0.  0.
         23    2    1    2    0    0 -0.53884403419E+02  0.14843726272E+02 -0.12722648119E+03  0.16701781123E+03  0.92652612548E+02 0.  0.
          5    1    3    3  502    0  0.43074290113E+02  0.78212999302E+01 -0.55936131764E+03  0.56108744709E+03  0.41800000000E+01 0. -1.
         -5    1    3    3    0  502  0.10810113306E+02 -0.22665026203E+02 -0.15343167060E+02  0.29722838658E+02  0.41800000000E+01 0. -1.
        -11    1    4    4    0    0 -0.31205861982E+02  0.53672161298E+02 -0.61557608387E+02  0.87429090530E+02  0.00000000000E+00 0.  1.
         11    1    4    4    0    0 -0.22678541437E+02 -0.38828435026E+02 -0.65668872801E+02  0.79588720703E+02  0.00000000000E+00 0. -1.
</event>
<event>
 8    1  0.7052796E-009  0.1010175E+03  0.7561462E-02  0.1278171E+00
         -1   -1    0    0    0  501 -0.00000000000E+00  0.00000000000E+00  0.47324076234E+03  0.47324076234E+03  0.00000000000E+00 0.  1.
          1   -1    0    0  501    0  0.00000000000E+00 -0.00000000000E+00 -0.23683799288E+02  0.23683799288E+02  0.00000000000E+00 0. -1.
         25    2    1    2    0    0 -0.10005567452E+02  0.30810465918E+01  0.32488149118E+03  0.34828774254E+03  0.12508702598E+03 0.  0.
         23    2    1    2    0    0  0.10005567452E+02 -0.30810465918E+01  0.12467547187E+03  0.14863681908E+03  0.80245414022E+02 0.  0.
          5    1    3    3  502    0  0.25392723478E+02  0.53875826990E+02  0.11717380786E+03  0.13150881639E+03  0.41800000000E+01 0.  1.
         -5    1    3    3    0  502 -0.35398290930E+02 -0.50794780398E+02  0.20770768331E+03  0.21677892615E+03  0.41800000000E+01 0.  1.
        -11    1    4    4    0    0  0.11923265198E+00  0.38010678909E+02  0.68477409135E+02  0.78319738824E+02  0.00000000000E+00 0.  1.
         11    1    4    4    0    0  0.98863348004E+01 -0.41091725500E+02  0.56198062736E+02  0.70317080256E+02  0.00000000000E+00 0. -1.
</event>
<event>
 8    1  0.7052796E-009  0.1087423E+03  0.7561462E-02  0.1262917E+00
          2   -1    0    0  501    0  0.00000000000E+00  0.00000000000E+00  0.33622814532E+03  0.33622814532E+03  0.00000000000E+00 0. -1.
         -2   -1    0    0    0  501 -0.00000000000E+00 -0.00000000000E+00 -0.41491461923E+02  0.41491461923E+02  0.00000000000E+00 0.  1.
         25    2    1    2    0    0 -0.27614690132E+02 -0.56910574437E+01  0.22766752922E+03  0.26129255856E+03  0.12508532308E+03 0.  0.
         23    2    1    2    0    0  0.27614690132E+02  0.56910574437E+01  0.67069154175E+02  0.11642704868E+03  0.90895692844E+02 0.  0.
          5    1    3    3  502    0  0.45773147833E+02  0.16435313893E+02  0.63765987363E+02  0.80304882477E+02  0.41800000000E+01 0.  1.
         -5    1    3    3    0  502 -0.73387837965E+02 -0.22126371337E+02  0.16390154186E+03  0.18098767608E+03  0.41800000000E+01 0.  1.
        -11    1    4    4    0    0 -0.18499137045E+02 -0.28863092530E+02  0.40240971432E+02  0.52864278711E+02  0.00000000000E+00 0. -1.
         11    1    4    4    0    0  0.46113827178E+02  0.34554149973E+02  0.26828182742E+02  0.63562769973E+02  0.00000000000E+00 0.  1.
</event>
<event>
 8    1  0.7052796E-009  0.1155426E+03  0.7561462E-02  0.1250637E+00
         -1   -1    0    0    0  501 -0.00000000000E+00  0.00000000000E+00  0.14480957641E+03  0.14480957641E+03  0.00000000000E+00 0.  1.
          1   -1    0    0  501    0  0.00000000000E+00 -0.00000000000E+00 -0.10918965884E+03  0.10918965884E+03  0.00000000000E+00 0. -1.
         25    2    1    2    0    0  0.42250369289E+02 -0.50408282328E+02  0.32757849275E+02  0.14506677757E+03  0.12508079242E+03 0.  0.
         23    2    1    2    0    0 -0.42250369289E+02  0.50408282328E+02  0.28620683016E+01  0.10893245768E+03  0.86787097365E+02 0.  0.
          5    1    3    3  502    0 -0.38238163487E+02 -0.16151158786E+02  0.39211432983E+02  0.57254047486E+02  0.41800000000E+01 0. -1.
         -5    1    3    3    0  502  0.80488532776E+02 -0.34257123542E+02 -0.64535837087E+01  0.87812730083E+02  0.41800000000E+01 0. -1.
        -11    1    4    4    0    0  0.11413221141E+02  0.46616450990E+02  0.20682826711E+02  0.52260256797E+02  0.00000000000E+00 0.  1.
         11    1    4    4    0    0 -0.53663590430E+02  0.37918313376E+01 -0.17820758409E+02  0.56672200884E+02  0.00000000000E+00 0. -1.
</event>
<event>
 8    1  0.7052796E-009  0.1213761E+03  0.7561462E-02  0.1240844E+00
         -2   -1    0    0    0  501 -0.00000000000E+00  0.00000000000E+00  0.37977534420E+02  0.37977534420E+02  0.00000000000E+00 0.  1.
          2   -1    0    0  501    0  0.00000000000E+00 -0.00000000000E+00 -0.59000788029E+03  0.59000788029E+03  0.00000000000E+00 0. -1.
         25    2    1    2    0    0 -0.15823210912E+02 -0.91770793161E+02 -0.38915765331E+03  0.41924225020E+03  0.12509249677E+03 0.  0.
         23    2    1    2    0    0  0.15823210912E+02  0.91770793161E+02 -0.16287269256E+03  0.20874316450E+03  0.91509246877E+02 0.  0.
          5    1    3    3  502    0  0.29093636466E+02 -0.64088338799E+02 -0.33923695330E+03  0.34648656213E+03  0.41800000000E+01 0.  1.
         -5    1    3    3    0  502 -0.44916847377E+02 -0.27682454361E+02 -0.49920700004E+02  0.72755688071E+02  0.41800000000E+01 0.  1.
        -11    1    4    4    0    0 -0.26200141216E+02  0.11295873206E+02 -0.87044386801E+01  0.29829706736E+02  0.00000000000E+00 0.  1.
         11    1    4    4    0    0  0.42023352127E+02  0.80474919955E+02 -0.15416825388E+03  0.17891345777E+03  0.00000000000E+00 0. -1.
</event>
<event>
 8    1  0.7052796E-009  0.1090335E+03  0.7561462E-02  0.1262370E+00
         -1   -1    0    0    0  501 -0.00000000000E+00  0.00000000000E+00  0.13681590037E+03  0.13681590037E+03  0.00000000000E+00 0.  1.
          1   -1    0    0  501    0  0.00000000000E+00 -0.00000000000E+00 -0.25572895814E+03  0.25572895814E+03  0.00000000000E+00 0. -1.
         25    2    1    2    0    0  0.36104595997E+02 -0.22523062589E+02 -0.21594505216E+03  0.25316117292E+03  0.12508990256E+03 0.  0.
         23    2    1    2    0    0 -0.36104595997E+02  0.22523062589E+02  0.97031994398E+02  0.13938368559E+03  0.90563644310E+02 0.  0.
          5    1    3    3  502    0 -0.29218814548E+02 -0.51521709068E+02 -0.11473856680E+03  0.12919224721E+03  0.41800000000E+01 0. -1.
         -5    1    3    3    0  502  0.65323410545E+02  0.28998646480E+02 -0.10120648536E+03  0.12396892571E+03  0.41800000000E+01 0. -1.
        -11    1    4    4    0    0 -0.44117671456E+02  0.45129918585E+02  0.33449919179E+02  0.71428114768E+02  0.00000000000E+00 0. -1.
         11    1    4    4    0    0  0.80130754590E+01 -0.22606855996E+02  0.63582075219E+02  0.67955570820E+02  0.00000000000E+00 0.  1.
</event>
<event>
 8    1  0.7052796E-009  0.9672316E+02  0.7561462E-02  0.1287342E+00
         -1   -1    0    0    0  501 -0.00000000000E+00  0.00000000000E+00  0.92178276845E+02  0.92178276845E+02  0.00000000000E+00 0.  1.
          1   -1    0    0  501    0  0.00000000000E+00 -0.00000000000E+00 -0.21448878536E+03  0.21448878536E+03  0.00000000000E+00 0. -1.
         25    2    1    2    0    0 -0.31835239674E+02  0.26323264011E+02  0.20637284375E+02  0.13335876409E+03  0.12510901543E+03 0.  0.
         23    2    1    2    0    0  0.31835239674E+02 -0.26323264011E+02 -0.14294779289E+03  0.17330829811E+03  0.88855489355E+02 0.  0.
          5    1    3    3  502    0  0.15639145485E+02 -0.26233484270E+02  0.48225921206E+02  0.57236268612E+02  0.41800000000E+01 0.  1.
         -5    1    3    3    0  502 -0.47474385160E+02  0.52556748281E+02 -0.27588636831E+02  0.76122495482E+02  0.41800000000E+01 0.  1.
        -11    1    4    4    0    0 -0.24077567305E+02 -0.26439625823E+02 -0.87672744518E+02  0.94685232176E+02  0.00000000000E+00 0.  1.
         11    1    4    4    0    0  0.55912806979E+02  0.11636181151E+00 -0.55275048371E+02  0.78623065934E+02  0.00000000000E+00 0. -1.
</event>
<event>
 8    1  0.7052796E-009  0.7759411E+02  0.7561462E-02  0.1336021E+00
          2   -1    0    0  501    0  0.00000000000E+00  0.00000000000E+00  0.40201029846E+03  0.40201029846E+03  0.00000000000E+00 0. -1.
         -2   -1    0    0    0  501 -0.00000000000E+00 -0.00000000000E+00 -0.34890002237E+02  0.34890002237E+02  0.00000000000E+00 0.  1.
         25    2    1    2    0    0  0.41690813233E+02  0.12923871302E+02  0.23959670854E+03  0.27378752033E+03  0.12509145930E+03 0.  0.
         23    2    1    2    0    0 -0.41690813233E+02 -0.12923871302E+02  0.12752358768E+03  0.16311278036E+03  0.91860564685E+02 0.  0.
          5    1    3    3  502    0 -0.14691631391E+02 -0.18679070890E+02  0.19174715534E+03  0.19325940004E+03  0.41800000000E+01 0.  1.
         -5    1    3    3    0  502  0.56382444624E+02  0.31602942192E+02  0.47849553200E+02  0.80528120296E+02  0.41800000000E+01 0.  1.
        -11    1    4    4    0    0 -0.40983450844E+02  0.10936598288E+02  0.13215602189E+03  0.13879649328E+03  0.00000000000E+00 0. -1.
         11    1    4    4    0    0 -0.70736238871E+00 -0.23860469590E+02 -0.46324342088E+01  0.24316287079E+02  0.00000000000E+00 0.  1.
</event>
<event>
 8    1  0.7052796E-009  0.1026111E+03  0.7561462E-02  0.1274899E+00
         -2   -1    0    0    0  501 -0.00000000000E+00  0.00000000000E+00  0.56480520830E+02  0.56480520830E+02  0.00000000000E+00 0.  1.
          2   -1    0    0  501    0  0.00000000000E+00 -0.00000000000E+00 -0.39272377740E+03  0.39272377740E+03  0.00000000000E+00 0. -1.
         25    2    1    2    0    0  0.42883267600E+02 -0.61549483294E+02 -0.88701258144E+02  0.17071420417E+03  0.12509241693E+03 0.  0.
         23    2    1    2    0    0 -0.42883267600E+02  0.61549483294E+02 -0.24754199842E+03  0.27849009406E+03  0.10321035787E+03 0.  0.
          5    1    3    3  502    0  0.29133249591E+01 -0.78858082440E+02 -0.98090375914E+02  0.12596141820E+03  0.41800000000E+01 0. -1.
         -5    1    3    3    0  502  0.39969942641E+02  0.17308599146E+02  0.93891177705E+01  0.44752785965E+02  0.41800000000E+01 0. -1.
        -11    1    4    4    0    0 -0.98250233787E+01  0.43864641379E+02 -0.23453905491E+03  0.23880788540E+03  0.00000000000E+00 0. -1.
         11    1    4    4    0    0 -0.33058244221E+02  0.17684841916E+02 -0.13002943510E+02  0.39682208665E+02  0.00000000000E+00 0.  1.
</event>
<event>
 8    1  0.7052796E-009  0.5604827E+02  0.7561462E-02  0.1415206E+00
          3   -1    0    0  501    0  0.00000000000E+00  0.00000000000E+00  0.20323943504E+03  0.20323943504E+03  0.00000000000E+00 0. -1.
         -3   -1    0    0    0  501 -0.00000000000E+00 -0.00000000000E+00 -0.96198875330E+02  0.96198875330E+02  0.00000000000E+00 0.  1.
         25    2    1    2    0    0  0.50502853257E+02 -0.10317362193E+02 -0.16506547593E+02  0.13629757306E+03  0.12509027203E+03 0.  0.
         23    2    1    2    0    0 -0.50502853257E+02  0.10317362193E+02  0.12354710731E+03  0.16314073732E+03  0.93241762635E+02 0.  0.
          5    1    3    3  502    0  0.15824305696E+02 -0.17878442882E+02 -0.68807634549E+02  0.72952109927E+02  0.41800000000E+01 0. -1.
         -5    1    3    3    0  502  0.34678547561E+02  0.75610806890E+01  0.52301086956E+02  0.63345463128E+02  0.41800000000E+01 0. -1.
        -11    1    4    4    0    0 -0.31840261057E+02  0.26750093960E+01  0.13582347524E+03  0.13953126648E+03  0.00000000000E+00 0. -1.
         11    1    4    4    0    0 -0.18662592200E+02  0.76423527971E+01 -0.12276367929E+02  0.23609470842E+02  0.00000000000E+00 0.  1.
</event>
<event>
 8    1  0.7052796E-009  0.1389053E+03  0.7561462E-02  0.1214810E+00
         -2   -1    0    0    0  501 -0.00000000000E+00  0.00000000000E+00  0.10092153330E+03  0.10092153330E+03  0.00000000000E+00 0. -1.
          2   -1    0    0  501    0  0.00000000000E+00 -0.00000000000E+00 -0.28563634447E+03  0.28563634447E+03  0.00000000000E+00 0.  1.
         25    2    1    2    0    0  0.99616819096E+01 -0.12158191338E+03 -0.47055099492E+02  0.18094536710E+03  0.12508255960E+03 0.  0.
         23    2    1    2    0    0 -0.99616819096E+01  0.12158191338E+03 -0.13765971168E+03  0.20561251067E+03  0.91896199897E+02 0.  0.
          5    1    3    3  502    0  0.52222339185E+02 -0.73435452692E+02 -0.68490479843E+02  0.11326233554E+03  0.41800000000E+01 0.  1.
         -5    1    3    3    0  502 -0.42260657275E+02 -0.48146460691E+02  0.21435380351E+02  0.67683031560E+02  0.41800000000E+01 0.  1.
        -11    1    4    4    0    0 -0.13718703198E+02  0.53920761843E+02 -0.40323000954E+01  0.55784503396E+02  0.00000000000E+00 0. -1.
         11    1    4    4    0    0  0.37570212887E+01  0.67661151540E+02 -0.13362741158E+03  0.14982800727E+03  0.00000000000E+00 0.  1.
</event>
<event>
 8    1  0.7052796E-009  0.1475179E+03  0.7561462E-02  0.1203557E+00
          1   -1    0    0  501    0  0.00000000000E+00  0.00000000000E+00  0.12560047229E+03  0.12560047229E+03  0.00000000000E+00 0. -1.
         -1   -1    0    0    0  501 -0.00000000000E+00 -0.00000000000E+00 -0.22095555497E+03  0.22095555497E+03  0.00000000000E+00 0.  1.
         25    2    1    2    0    0 -0.90089138684E+02 -0.58404850494E+02  0.19265879615E+02  0.16595864673E+03  0.12507565245E+03 0.  0.
         23    2    1    2    0    0  0.90089138684E+02  0.58404850494E+02 -0.11462096230E+03  0.18059738053E+03  0.89164283122E+02 0.  0.
          5    1    3    3  502    0 -0.11483393114E+03 -0.67736033079E+02  0.72287423892E+00  0.13339039270E+03  0.41800000000E+01 0.  1.
         -5    1    3    3    0  502  0.24744792454E+02  0.93311825854E+01  0.18543005377E+02  0.32568254028E+02  0.41800000000E+01 0.  1.
        -11    1    4    4    0    0 -0.12565905294E+01  0.42057578493E+02 -0.15560529232E+02  0.44861442224E+02  0.00000000000E+00 0.  1.
         11    1    4    4    0    0  0.91345729213E+02  0.16347272001E+02 -0.99060433068E+02  0.13573593830E+03  0.00000000000E+00 0. -1.
</event>
<event>
 8    1  0.7052796E-009  0.9236252E+02  0.7561462E-02  0.1297229E+00
         -2   -1    0    0    0  501 -0.00000000000E+00  0.00000000000E+00  0.17474809058E+03  0.17474809058E+03  0.00000000000E+00 0.  1.
          2   -1    0    0  501    0  0.00000000000E+00 -0.00000000000E+00 -0.83165426493E+02  0.83165426493E+02  0.00000000000E+00 0. -1.
         25    2    1    2    0    0 -0.11259846753E+02  0.39453219383E+02  0.85746598332E+02  0.15710511344E+03  0.12508475876E+03 0.  0.
         23    2    1    2    0    0  0.11259846753E+02 -0.39453219383E+02  0.58360657512E+01  0.10080840363E+03  0.91896321528E+02 0.  0.
          5    1    3    3  502    0 -0.61396296511E+02  0.41485660514E+02  0.75210902461E+02  0.10566322682E+03  0.41800000000E+01 0. -1.
         -5    1    3    3    0  502  0.50136449758E+02 -0.20324411311E+01  0.10535695872E+02  0.51441886618E+02  0.41800000000E+01 0. -1.
        -11    1    4    4    0    0  0.25580937079E+02 -0.10110598236E+02 -0.37526364871E+02  0.46527804579E+02  0.00000000000E+00 0. -1.
         11    1    4    4    0    0 -0.14321090325E+02 -0.29342621147E+02  0.43362430622E+02  0.54280599051E+02  0.00000000000E+00 0.  1.
</event>
<event>
 8    1  0.7052796E-009  0.1335611E+03  0.7561462E-02  0.1222265E+00
          2   -1    0    0  501    0  0.00000000000E+00  0.00000000000E+00  0.30322683457E+03  0.30322683457E+03  0.00000000000E+00 0. -1.
         -2   -1    0    0    0  501 -0.00000000000E+00 -0.00000000000E+00 -0.89399544627E+02  0.89399544627E+02  0.00000000000E+00 0.  1.
         25    2    1    2    0    0  0.79229469422E+02 -0.64369916299E+02  0.30401998427E+02  0.16429447915E+03  0.12509036502E+03 0.  0.
         23    2    1    2    0    0 -0.79229469422E+02  0.64369916299E+02  0.18342529151E+03  0.22833190004E+03  0.89832199472E+02 0.  0.
          5    1    3    3  502    0  0.91106264286E+02 -0.91434645520E+02  0.13135105160E+02  0.12981005039E+03  0.41800000000E+01 0. -1.
         -5    1    3    3    0  502 -0.11876794864E+02  0.27064729221E+02  0.17266893268E+02  0.34484428764E+02  0.41800000000E+01 0. -1.
        -11    1    4    4    0    0 -0.30725210248E+02  0.47893753102E+02  0.16392399724E+03  0.17351924101E+03  0.00000000000E+00 0. -1.
         11    1    4    4    0    0 -0.48504259174E+02  0.16476163197E+02  0.19501294274E+02  0.54812659032E+02  0.00000000000E+00 0.  1.
</event>
<event>
 8    1  0.7052796E-009  0.1092025E+03  0.7561462E-02  0.1262054E+00
         -1   -1    0    0    0  501 -0.00000000000E+00  0.00000000000E+00  0.71011686855E+02  0.71011686855E+02  0.00000000000E+00 0.  1.
          1   -1    0    0  501    0  0.00000000000E+00 -0.00000000000E+00 -0.23393464472E+03  0.23393464472E+03  0.00000000000E+00 0. -1.
         25    2    1    2    0    0  0.61949995250E+02  0.12615410413E+02 -0.62172108276E+02  0.15333007012E+03  0.12509112225E+03 0.  0.
         23    2    1    2    0    0 -0.61949995250E+02 -0.12615410413E+02 -0.10075084959E+03  0.15161626145E+03  0.94020245440E+02 0.  0.
          5    1    3    3  502    0  0.92891474927E+02 -0.19425334559E+02 -0.47794491303E+02  0.10633887124E+03  0.41800000000E+01 0. -1.
         -5    1    3    3    0  502 -0.30941479678E+02  0.32040744972E+02 -0.14377616973E+02  0.46991198886E+02  0.41800000000E+01 0. -1.
        -11    1    4    4    0    0 -0.51218431396E+02 -0.29172486239E+02 -0.11302426420E+02  0.60017551691E+02  0.00000000000E+00 0.  1.
         11    1    4    4    0    0 -0.10731563854E+02  0.16557075826E+02 -0.89448423167E+02  0.91598709761E+02  0.00000000000E+00 0. -1.
</event>
<event>
 8    1  0.7052796E-009  0.1744009E+03  0.7561462E-02  0.1173335E+00
          2   -1    0    0  501    0  0.00000000000E+00  0.00000000000E+00  0.15148829115E+04  0.15148829115E+04  0.00000000000E+00 0.  1.
         -2   -1    0    0    0  501 -0.00000000000E+00 -0.00000000000E+00 -0.21423405778E+02  0.21423405778E+02  0.00000000000E+00 0. -1.
         25    2    1    2    0    0 -0.10078336617E+03  0.10298107336E+03  0.70950444385E+03  0.73471568389E+03  0.12509273339E+03 0.  0.
         23    2    1    2    0    0  0.10078336617E+03 -0.10298107336E+03  0.78395506183E+03  0.80159063334E+03  0.84850551724E+02 0.  0.
          5    1    3    3  502    0 -0.38336326481E+02 -0.20265233025E+02  0.90153011632E+02  0.10012687703E+03  0.41800000000E+01 0. -1.
         -5    1    3    3    0  502 -0.62447039686E+02  0.12324630639E+03  0.61935143222E+03  0.63458880686E+03  0.41800000000E+01 0. -1.
        -11    1    4    4    0    0  0.48471648872E+02  0.32679980848E+01  0.21029711106E+03  0.21583571409E+03  0.00000000000E+00 0. -1.
         11    1    4    4    0    0  0.52311717295E+02 -0.10624907145E+03  0.57365795077E+03  0.58575491926E+03  0.00000000000E+00 0.  1.
</event>
<event>
 8    1  0.7052796E-009  0.1629905E+03  0.7561462E-02  0.1185361E+00
         -1   -1    0    0    0  501 -0.00000000000E+00  0.00000000000E+00  0.93869307164E+02  0.93869307164E+02  0.00000000000E+00 0. -1.
          1   -1    0    0  501    0  0.00000000000E+00 -0.00000000000E+00 -0.37668278144E+03  0.37668278144E+03  0.00000000000E+00 0.  1.
         25    2    1    2    0    0 -0.35491530608E+02  0.13607777254E+03 -0.22569597802E+03  0.29387077414E+03  0.12507816945E+03 0.  0.
         23    2    1    2    0    0  0.35491530608E+02 -0.13607777254E+03 -0.57117496251E+02  0.17668131447E+03  0.90427150673E+02 0.  0.
          5    1    3    3  502    0 -0.57987161360E+02  0.14102546093E+02 -0.45900946958E+02  0.75403992073E+02  0.41800000000E+01 0.  1.
         -5    1    3    3    0  502  0.22495630752E+02  0.12197522645E+03 -0.17979503106E+03  0.21846678206E+03  0.41800000000E+01 0.  1.
        -11    1    4    4    0    0 -0.26181390646E+01 -0.10500748435E+02 -0.43405759277E+02  0.44734553851E+02  0.00000000000E+00 0.  1.
         11    1    4    4    0    0  0.38109669672E+02 -0.12557702411E+03 -0.13711736974E+02  0.13194676061E+03  0.00000000000E+00 0. -1.
</event>
<event>
 8    1  0.7052796E-009  0.2364585E+03  0.7561462E-02  0.1122175E+00
         -2   -1    0    0    0  501 -0.00000000000E+00  0.00000000000E+00  0.25517406109E+02  0.25517406109E+02  0.00000000000E+00 0.  1.
          2   -1    0    0  501    0  0.00000000000E+00 -0.00000000000E+00 -0.21944872588E+04  0.21944872588E+04  0.00000000000E+00 0. -1.
         25    2    1    2    0    0 -0.17089720105E+03  0.12234271279E+03 -0.11536902771E+04  0.11793317818E+04  0.12509437792E+03 0.  0.
         23    2    1    2    0    0  0.17089720105E+03 -0.12234271279E+03 -0.10152795756E+04  0.10406728831E+04  0.89631692688E+02 0.  0.
          5    1    3    3  502    0  0.16864617097E+02 -0.43859273113E+01 -0.76169992975E+02  0.78249548868E+02  0.41800000000E+01 0. -1.
         -5    1    3    3    0  502 -0.18776181814E+03  0.12672864010E+03 -0.10775202841E+04  0.11010822329E+04  0.41800000000E+01 0. -1.
        -11    1    4    4    0    0  0.65064940100E+02  0.20652586340E+01 -0.27882979806E+03  0.28632807758E+03  0.00000000000E+00 0. -1.
         11    1    4    4    0    0  0.10583226095E+03 -0.12440797142E+03 -0.73644977750E+03  0.75434480550E+03  0.00000000000E+00 0.  1.
</event>
<event>
 8    1  0.7052796E-009  0.7915712E+02  0.7561462E-02  0.1331461E+00
         -1   -1    0    0    0  501 -0.00000000000E+00  0.00000000000E+00  0.34502500417E+02  0.34502500417E+02  0.00000000000E+00 0.  1.
          1   -1    0    0  501    0  0.00000000000E+00 -0.00000000000E+00 -0.34409870696E+03  0.34409870696E+03  0.00000000000E+00 0. -1.
         25    2    1    2    0    0 -0.16044968847E+00  0.88918917987E+01 -0.16401541687E+03  0.20646564222E+03  0.12509161827E+03 0.  0.
         23    2    1    2    0    0  0.16044968847E+00 -0.88918917987E+01 -0.14558078967E+03  0.17213556516E+03  0.91420976736E+02 0.  0.
          5    1    3    3  502    0 -0.29511108448E+02 -0.19388188841E+02  0.18597039231E+01  0.35605312623E+02  0.41800000000E+01 0. -1.
         -5    1    3    3    0  502  0.29350658759E+02  0.28280080640E+02 -0.16587512080E+03  0.17086032960E+03  0.41800000000E+01 0. -1.
        -11    1    4    4    0    0  0.40689312251E+02 -0.26113345180E+01 -0.33445488812E+02  0.52735566000E+02  0.00000000000E+00 0.  1.
         11    1    4    4    0    0 -0.40528862562E+02 -0.62805572808E+01 -0.11213530086E+03  0.11939999916E+03  0.00000000000E+00 0. -1.
</event>
<event>
 8    1  0.7052796E-009  0.1358184E+03  0.7561462E-02  0.1219069E+00
         -2   -1    0    0    0  501 -0.00000000000E+00  0.00000000000E+00  0.85284797262E+02  0.85284797262E+02  0.00000000000E+00 0. -1.
          2   -1    0    0  501    0  0.00000000000E+00 -0.00000000000E+00 -0.24384776584E+03  0.24384776584E+03  0.00000000000E+00 0.  1.
         25    2    1    2    0    0  0.16913526182E+02  0.77612755613E+02 -0.36368952445E+02  0.15257604730E+03  0.12508773843E+03 0.  0.
         23    2    1    2    0    0 -0.16913526182E+02 -0.77612755613E+02 -0.12219401613E+03  0.17655651580E+03  0.99654495597E+02 0.  0.
          5    1    3    3  502    0 -0.42183539789E+02 -0.50237896432E+01  0.46398377527E+01  0.42938211256E+02  0.41800000000E+01 0. -1.
         -5    1    3    3    0  502  0.59097065971E+02  0.82636545256E+02 -0.41008790198E+02  0.10963783604E+03  0.41800000000E+01 0. -1.
        -11    1    4    4    0    0  0.24860197390E+02 -0.81603784925E+02 -0.86122762762E+02  0.12122020209E+03  0.00000000000E+00 0. -1.
         11    1    4    4    0    0 -0.41773723572E+02  0.39910293125E+01 -0.36071253368E+02  0.55336313716E+02  0.00000000000E+00 0.  1.
</event>
<event>
 8    1  0.7052796E-009  0.1116693E+03  0.7561462E-02  0.1257510E+00
          1   -1    0    0  501    0  0.00000000000E+00  0.00000000000E+00  0.98790249720E+03  0.98790249720E+03  0.00000000000E+00 0. -1.
         -1   -1    0    0    0  501 -0.00000000000E+00 -0.00000000000E+00 -0.19082582143E+02  0.19082582143E+02  0.00000000000E+00 0.  1.
         25    2    1    2    0    0  0.81206108530E+02 -0.78905869927E+01  0.51447458416E+03  0.53571180055E+03  0.12508533920E+03 0.  0.
         23    2    1    2    0    0 -0.81206108530E+02  0.78905869927E+01  0.45434533090E+03  0.47127327879E+03  0.94932239865E+02 0.  0.
          5    1    3    3  502    0 -0.96518135342E+01  0.20641309063E+02  0.30136722232E+03  0.30225634193E+03  0.41800000000E+01 0.  1.
         -5    1    3    3    0  502  0.90857922065E+02 -0.28531896055E+02  0.21310736184E+03  0.23345545863E+03  0.41800000000E+01 0.  1.
        -11    1    4    4    0    0 -0.76106266699E+02 -0.18209168427E+02  0.42295158124E+03  0.43012995445E+03  0.00000000000E+00 0. -1.
         11    1    4    4    0    0 -0.50998418316E+01  0.26099755420E+02  0.31393749658E+02  0.41143324335E+02  0.00000000000E+00 0.  1.
</event>
<event>
 8    1  0.7052796E-009  0.1003646E+03  0.7561462E-02  0.1279531E+00
         -1   -1    0    0    0  501 -0.00000000000E+00  0.00000000000E+00  0.84018390992E+03  0.84018390992E+03  0.00000000000E+00 0.  1.
          1   -1    0    0  501    0  0.00000000000E+00 -0.00000000000E+00 -0.14918464340E+02  0.14918464340E+02  0.00000000000E+00 0. -1.
         25    2    1    2    0    0  0.22698494989E+02 -0.84696911811E+01  0.48795077814E+03  0.50430953030E+03  0.12508070641E+03 0.  0.
         23    2    1    2    0    0 -0.22698494989E+02  0.84696911811E+01  0.33731466743E+03  0.35079284396E+03  0.93206636907E+02 0.  0.
          5    1    3    3  502    0  0.69231505632E+02  0.89082994368E+01  0.36500291689E+03  0.37164090317E+03  0.41800000000E+01 0.  1.
         -5    1    3    3    0  502 -0.46533010643E+02 -0.17377990618E+02  0.12294786126E+03  0.13266862713E+03  0.41800000000E+01 0.  1.
        -11    1    4    4    0    0 -0.51546070554E+02  0.75128378475E+01  0.29504860805E+03  0.29961161732E+03  0.00000000000E+00 0.  1.
         11    1    4    4    0    0  0.28847575565E+02  0.95685333361E+00  0.42266059386E+02  0.51181226639E+02  0.00000000000E+00 0. -1.
</event>
<event>
 8    1  0.7052796E-009  0.9523762E+02  0.7561462E-02  0.1290642E+00
          2   -1    0    0  501    0  0.00000000000E+00  0.00000000000E+00  0.29445769248E+03  0.29445769248E+03  0.00000000000E+00 0.  1.
         -2   -1    0    0    0  501 -0.00000000000E+00 -0.00000000000E+00 -0.42192667031E+02  0.42192667031E+02  0.00000000000E+00 0. -1.
         25    2    1    2    0    0 -0.21090841626E+02  0.72073512510E+01  0.16534314695E+03  0.20852282183E+03  0.12508653592E+03 0.  0.
         23    2    1    2    0    0  0.21090841626E+02 -0.72073512510E+01  0.86921878499E+02  0.12812753768E+03  0.91457549926E+02 0.  0.
          5    1    3    3  502    0 -0.37202486454E+02  0.44319027521E+02  0.15648918238E+03  0.16689678787E+03  0.41800000000E+01 0. -1.
         -5    1    3    3    0  502  0.16111644828E+02 -0.37111676270E+02  0.88539645699E+01  0.41626033960E+02  0.41800000000E+01 0. -1.
        -11    1    4    4    0    0  0.33819198595E+02 -0.42474322121E+02  0.37036194841E+02  0.65722796361E+02  0.00000000000E+00 0.  1.
         11    1    4    4    0    0 -0.12728356969E+02  0.35266970870E+02  0.49885683657E+02  0.62404741321E+02  0.00000000000E+00 0. -1.
</event>
<event>
 8    1  0.7052796E-009  0.1483573E+03  0.7561462E-02  0.1202506E+00
          1   -1    0    0  501    0  0.00000000000E+00  0.00000000000E+00  0.28710182909E+03  0.28710182909E+03  0.00000000000E+00 0. -1.
         -1   -1    0    0    0  501 -0.00000000000E+00 -0.00000000000E+00 -0.98397216470E+02  0.98397216470E+02  0.00000000000E+00 0.  1.
         25    2    1    2    0    0 -0.44583938989E+02 -0.11837369281E+03  0.98406638398E+02  0.20329934082E+03  0.12508675682E+03 0.  0.
         23    2    1    2    0    0  0.44583938989E+02  0.11837369281E+03  0.90297974220E+02  0.18219970474E+03  0.95094424091E+02 0.  0.
          5    1    3    3  502    0  0.17842828180E+02 -0.98157133937E+02  0.21545264605E+02  0.10215116390E+03  0.41800000000E+01 0.  1.
         -5    1    3    3    0  502 -0.62426767170E+02 -0.20216558873E+02  0.76861373793E+02  0.10114817692E+03  0.41800000000E+01 0.  1.
        -11    1    4    4    0    0 -0.83192252907E+00  0.43712145383E+02 -0.14207586961E+02  0.45970634935E+02  0.00000000000E+00 0.  1.
         11    1    4    4    0    0  0.45415861519E+02  0.74661547427E+02  0.10450556118E+03  0.13622906980E+03  0.00000000000E+00 0. -1.
</event>
<event>
 8    1  0.7052796E-009  0.1518286E+03  0.7561462E-02  0.1198244E+00
          2   -1    0    0  501    0  0.00000000000E+00  0.00000000000E+00  0.13734089822E+04  0.13734089822E+04  0.00000000000E+00 0. -1.
         -2   -1    0    0    0  501 -0.00000000000E+00 -0.00000000000E+00 -0.19052295155E+02  0.19052295155E+02  0.00000000000E+00 0.  1.
         25    2    1    2    0    0 -0.11836940760E+03  0.16898700241E+02  0.72787121877E+03  0.74815865040E+03  0.12509185557E+03 0.  0.
         23    2    1    2    0    0  0.11836940760E+03 -0.16898700241E+02  0.62648546831E+03  0.64430262699E+03  0.91350700142E+02 0.  0.
          5    1    3    3  502    0 -0.23253918784E+02  0.49594895154E+02  0.43532200884E+03  0.43877456871E+03  0.41800000000E+01 0. -1.
         -5    1    3    3    0  502 -0.95115488815E+02 -0.32696194913E+02  0.29254920993E+03  0.30938408169E+03  0.41800000000E+01 0. -1.
        -11    1    4    4    0    0  0.57029313973E+02  0.35675972929E+02  0.34280441994E+03  0.34934222194E+03  0.00000000000E+00 0. -1.
         11    1    4    4    0    0  0.61340093626E+02 -0.52574673170E+02  0.28368104838E+03  0.29496040506E+03  0.00000000000E+00 0.  1.
</event>
<event>
 8    1  0.7052796E-009  0.1043439E+03  0.7561462E-02  0.1271418E+00
         -1   -1    0    0    0  501 -0.00000000000E+00  0.00000000000E+00  0.78677085607E+03  0.78677085607E+03  0.00000000000E+00 0.  1.
          1   -1    0    0  501    0  0.00000000000E+00 -0.00000000000E+00 -0.24687448591E+02  0.24687448591E+02  0.00000000000E+00 0. -1.
         25    2    1    2    0    0  0.21669275285E+01 -0.67705060361E+02  0.57542379580E+03  0.59275078564E+03  0.12510906575E+03 0.  0.
         23    2    1    2    0    0 -0.21669275285E+01  0.67705060361E+02  0.18665961168E+03  0.21870751902E+03  0.91665137699E+02 0.  0.
          5    1    3    3  502    0 -0.15371807087E+02 -0.10144139994E+03  0.45289203027E+03  0.46438702992E+03  0.41800000000E+01 0.  1.
         -5    1    3    3    0  502  0.17538734616E+02  0.33736339574E+02  0.12253176553E+03  0.12836375572E+03  0.41800000000E+01 0.  1.
        -11    1    4    4    0    0 -0.16463960759E+01  0.31984189688E+02  0.36387074228E+01  0.32232579818E+02  0.00000000000E+00 0. -1.
         11    1    4    4    0    0 -0.52053145256E+00  0.35720870674E+02  0.18302090426E+03  0.18647493920E+03  0.00000000000E+00 0.  1.
</event>
<event>
 8    1  0.7052796E-009  0.6211707E+02  0.7561462E-02  0.1389156E+00
          2   -1    0    0  501    0  0.00000000000E+00  0.00000000000E+00  0.23716149716E+03  0.23716149716E+03  0.00000000000E+00 0. -1.
         -2   -1    0    0    0  501 -0.00000000000E+00 -0.00000000000E+00 -0.54342552585E+02  0.54342552585E+02  0.00000000000E+00 0.  1.
         25    2    1    2    0    0 -0.13381539077E+02 -0.22056774959E+01  0.14099090628E+03  0.18896797412E+03  0.12508608631E+03 0.  0.
         23    2    1    2    0    0  0.13381539077E+02  0.22056774959E+01  0.41828038292E+02  0.10253607562E+03  0.92628998782E+02 0.  0.
          5    1    3    3  502    0  0.18777730196E+02  0.56732385833E+01  0.15238814393E+03  0.15370233440E+03  0.41800000000E+01 0. -1.
         -5    1    3    3    0  502 -0.32159269272E+02 -0.78789160791E+01 -0.11397237656E+02  0.35265639721E+02  0.41800000000E+01 0. -1.
        -11    1    4    4    0    0  0.35932130283E+02 -0.18300916436E+02  0.55930713135E+02  0.68951332118E+02  0.00000000000E+00 0. -1.
         11    1    4    4    0    0 -0.22550591206E+02  0.20506593932E+02 -0.14102674844E+02  0.33584743503E+02  0.00000000000E+00 0.  1.
</event>
<event>
 8    1  0.7052796E-009  0.1315003E+03  0.7561462E-02  0.1225246E+00
          1   -1    0    0  501    0  0.00000000000E+00  0.00000000000E+00  0.78719765489E+03  0.78719765489E+03  0.00000000000E+00 0.  1.
         -1   -1    0    0    0  501 -0.00000000000E+00 -0.00000000000E+00 -0.33233800095E+02  0.33233800095E+02  0.00000000000E+00 0. -1.
         25    2    1    2    0    0 -0.77579342632E+02 -0.73690505821E+02  0.53908966668E+03  0.56366235622E+03  0.12509491613E+03 0.  0.
         23    2    1    2    0    0  0.77579342632E+02  0.73690505821E+02  0.21487418812E+03  0.25676909878E+03  0.91162537890E+02 0.  0.
          5    1    3    3  502    0 -0.45984558130E+02  0.12508412349E+02  0.35182266958E+03  0.35506014026E+03  0.41800000000E+01 0.  1.
         -5    1    3    3    0  502 -0.31594784502E+02 -0.86198918170E+02  0.18726699710E+03  0.20860221596E+03  0.41800000000E+01 0.  1.
        -11    1    4    4    0    0  0.40188739779E+02 -0.48721296062E+00  0.19924571174E+02  0.44859343708E+02  0.00000000000E+00 0. -1.
         11    1    4    4    0    0  0.37390602853E+02  0.74177718781E+02  0.19494961695E+03  0.21190975507E+03  0.00000000000E+00 0.  1.
</event>
<event>
 8    1  0.7052796E-009  0.1104730E+03  0.7561462E-02  0.1259697E+00
         -2   -1    0    0    0  501 -0.00000000000E+00  0.00000000000E+00  0.16590261146E+02  0.16590261146E+02  0.00000000000E+00 0.  1.
          2   -1    0    0  501    0  0.00000000000E+00 -0.00000000000E+00 -0.79898233104E+03  0.79898233104E+03  0.00000000000E+00 0. -1.
         25    2    1    2    0    0 -0.37001624697E+02  0.13809758145E+01 -0.49950385226E+03  0.51625788759E+03  0.12508829180E+03 0.  0.
         23    2    1    2    0    0  0.37001624697E+02 -0.13809758145E+01 -0.28288821763E+03  0.29931470460E+03  0.90512548248E+02 0.  0.
          5    1    3    3  502    0 -0.25058186494E+02 -0.58085924740E+02 -0.33345746534E+03  0.33943076017E+03  0.41800000000E+01 0.  1.
         -5    1    3    3    0  502 -0.11943438203E+02  0.59466900555E+02 -0.16604638693E+03  0.17682712741E+03  0.41800000000E+01 0.  1.
        -11    1    4    4    0    0  0.29713991538E+02  0.42726920250E+02 -0.17369307779E+03  0.18132235460E+03  0.00000000000E+00 0. -1.
         11    1    4    4    0    0  0.72876331585E+01 -0.44107896065E+02 -0.10919513984E+03  0.11799235000E+03  0.00000000000E+00 0.  1.
</event>
<event>
 8    1  0.7052796E-009  0.2198690E+03  0.7561462E-02  0.1133981E+00
         -2   -1    0    0    0  501 -0.00000000000E+00  0.00000000000E+00  0.30406901034E+03  0.30406901034E+03  0.00000000000E+00 0.  1.
          2   -1    0    0  501    0  0.00000000000E+00 -0.00000000000E+00 -0.31083657497E+03  0.31083657497E+03  0.00000000000E+00 0. -1.
         25    2    1    2    0    0  0.97287601154E+02  0.18903516681E+03  0.19019024842E+03  0.31147899615E+03  0.12509061843E+03 0.  0.
         23    2    1    2    0    0 -0.97287601154E+02 -0.18903516681E+03 -0.19695781305E+03  0.30342658917E+03  0.89867364849E+02 0.  0.
          5    1    3    3  502    0  0.46883839775E+02  0.26755744770E+02 -0.29133959181E+01  0.54221071421E+02  0.41800000000E+01 0. -1.
         -5    1    3    3    0  502  0.50403761379E+02  0.16227942204E+03  0.19310364434E+03  0.25725792473E+03  0.41800000000E+01 0. -1.
        -11    1    4    4    0    0 -0.10026607281E+03 -0.17923157899E+03 -0.14732868842E+03  0.25275083916E+03  0.00000000000E+00 0.  1.
         11    1    4    4    0    0  0.29784716572E+01 -0.98035878191E+01 -0.49629124631E+02  0.50675750011E+02  0.00000000000E+00 0. -1.
</event>
<event>
 8    1  0.7052796E-009  0.1001612E+03  0.7561462E-02  0.1279957E+00
          2   -1    0    0  501    0  0.00000000000E+00  0.00000000000E+00  0.92120507864E+03  0.92120507864E+03  0.00000000000E+00 0. -1.
         -2   -1    0    0    0  501 -0.00000000000E+00 -0.00000000000E+00 -0.16495127735E+02  0.16495127735E+02  0.00000000000E+00 0.  1.
         25    2    1    2    0    0 -0.41578915870E+02  0.17386845597E+02  0.71278390316E+03  0.72507935566E+03  0.12509224894E+03 0.  0.
         23    2    1    2    0    0  0.41578915870E+02 -0.17386845597E+02  0.19192604774E+03  0.21262085072E+03  0.79629829296E+02 0.  0.
          5    1    3    3  502    0  0.10981458563E+02 -0.40331784453E+02  0.11953517156E+03  0.12670191360E+03  0.41800000000E+01 0. -1.
         -5    1    3    3    0  502 -0.52560374433E+02  0.57718630051E+02  0.59324873160E+03  0.59837744206E+03  0.41800000000E+01 0. -1.
        -11    1    4    4    0    0  0.11146883441E+02  0.25338686634E+02  0.23816586455E+02  0.36517555246E+02  0.00000000000E+00 0.  1.
         11    1    4    4    0    0  0.30432032429E+02 -0.42725532231E+02  0.16810946128E+03  0.17610329547E+03  0.00000000000E+00 0. -1.
</event>
<event>
 8    1  0.7052796E-009  0.9517855E+02  0.7561462E-02  0.1290774E+00
          1   -1    0    0  501    0  0.00000000000E+00  0.00000000000E+00  0.32686414058E+03  0.32686414058E+03  0.00000000000E+00 0. -1.
         -1   -1    0    0    0  501 -0.00000000000E+00 -0.00000000000E+00 -0.39881343811E+02  0.39881343811E+02  0.00000000000E+00 0.  1.
         25    2    1    2    0    0  0.28400182551E+02 -0.19702557752E+02  0.15491033816E+03  0.20208971818E+03  0.12509308603E+03 0.  0.
         23    2    1    2    0    0 -0.28400182551E+02  0.19702557752E+02  0.13207245861E+03  0.16465576621E+03  0.92052299665E+02 0.  0.
          5    1    3    3  502    0 -0.47051356633E+02  0.68899856547E+01  0.41590425141E+02  0.63313015461E+02  0.41800000000E+01 0.  1.
         -5    1    3    3    0  502  0.75451539183E+02 -0.26592543406E+02  0.11331991302E+03  0.13877670272E+03  0.41800000000E+01 0.  1.
        -11    1    4    4    0    0 -0.36038023824E+01 -0.17463935719E+02 -0.65609473597E+01  0.19000591377E+02  0.00000000000E+00 0.  1.
         11    1    4    4    0    0 -0.24796380168E+02  0.37166493471E+02  0.13863340597E+03  0.14565517484E+03  0.00000000000E+00 0. -1.
</event>
<event>
 8    1  0.7052796E-009  0.7212528E+02  0.7561462E-02  0.1353012E+00
         -2   -1    0    0    0  501 -0.00000000000E+00  0.00000000000E+00  0.90527434736E+02  0.90527434736E+02  0.00000000000E+00 0.  1.
          2   -1    0    0  501    0  0.00000000000E+00 -0.00000000000E+00 -0.20594350191E+03  0.20594350191E+03  0.00000000000E+00 0. -1.
         25    2    1    2    0    0  0.10114019690E+02 -0.78841842824E+01  0.25388839686E+02  0.12827937191E+03  0.12508617159E+03 0.  0.
         23    2    1    2    0    0 -0.10114019690E+02  0.78841842824E+01 -0.14080490686E+03  0.16819156474E+03  0.91092957441E+02 0.  0.
          5    1    3    3  502    0  0.14091106120E+02 -0.39404865167E+02 -0.38364150015E+02  0.56926119461E+02  0.41800000000E+01 0.  1.
         -5    1    3    3    0  502 -0.39770864303E+01  0.31520680885E+02  0.63752989701E+02  0.71353252454E+02  0.41800000000E+01 0.  1.
        -11    1    4    4    0    0  0.90462264521E+00 -0.30347775503E+02 -0.10784859026E+02  0.32219854194E+02  0.00000000000E+00 0.  1.
         11    1    4    4    0    0 -0.11018642335E+02  0.38231959785E+02 -0.13002004784E+03  0.13597171054E+03  0.00000000000E+00 0. -1.
</event>
<event>
 8    1  0.7052796E-009  0.1088129E+03  0.7561462E-02  0.1262784E+00
         -1   -1    0    0    0  501 -0.00000000000E+00  0.00000000000E+00  0.35902056335E+02  0.35902056335E+02  0.00000000000E+00 0.  1.
          1   -1    0    0  501    0  0.00000000000E+00 -0.00000000000E+00 -0.36876331897E+03  0.36876331897E+03  0.00000000000E+00 0. -1.
         25    2    1    2    0    0  0.96963698654E+01 -0.28893558058E+02 -0.14484696085E+03  0.19379679691E+03  0.12509076360E+03 0.  0.
         23    2    1    2    0    0 -0.96963698654E+01  0.28893558058E+02 -0.18801430179E+03  0.21086857840E+03  0.90483823931E+02 0.  0.
          5    1    3    3  502    0  0.19656819563E+01  0.49260141536E+02 -0.65401306741E+02  0.82007492177E+02  0.41800000000E+01 0. -1.
         -5    1    3    3    0  502  0.77306879090E+01 -0.78153699594E+02 -0.79445654109E+02  0.11178930473E+03  0.41800000000E+01 0. -1.
        -11    1    4    4    0    0 -0.15029340840E+02  0.57998279505E+02 -0.15680841631E+03  0.16786471022E+03  0.00000000000E+00 0. -1.
         11    1    4    4    0    0  0.53329709744E+01 -0.29104721447E+02 -0.31205885480E+02  0.43003868181E+02  0.00000000000E+00 0.  1.
</event>
<event>
 8    1  0.7052796E-009  0.1530456E+03  0.7561462E-02  0.1196780E+00
          1   -1    0    0  501    0  0.00000000000E+00  0.00000000000E+00  0.12874429085E+04  0.12874429085E+04  0.00000000000E+00 0. -1.
         -1   -1    0    0    0  501 -0.00000000000E+00 -0.00000000000E+00 -0.19735997595E+02  0.19735997595E+02  0.00000000000E+00 0.  1.
         25    2    1    2    0    0 -0.10899382860E+03  0.17950656827E+02  0.75168116934E+03  0.76998404470E+03  0.12509583526E+03 0.  0.
         23    2    1    2    0    0  0.10899382860E+03 -0.17950656827E+02  0.51602574155E+03  0.53719486138E+03  0.10046826563E+03 0.  0.
          5    1    3    3  502    0 -0.99514791240E+02  0.60859712729E+02  0.44113807498E+03  0.45631937489E+03  0.41800000000E+01 0.  1.
         -5    1    3    3    0  502 -0.94790373560E+01 -0.42909055902E+02  0.31054309437E+03  0.31366466981E+03  0.41800000000E+01 0.  1.
        -11    1    4    4    0    0  0.70708070743E+02 -0.56788074660E+02  0.37936935918E+03  0.39005849225E+03  0.00000000000E+00 0. -1.
         11    1    4    4    0    0  0.38285757853E+02  0.38837417833E+02  0.13665638237E+03  0.14713636913E+03  0.00000000000E+00 0.  1.
</event>
<event>
 8    1  0.7052796E-009  0.8605294E+02  0.7561462E-02  0.1312702E+00
          1   -1    0    0  501    0  0.00000000000E+00  0.00000000000E+00  0.10202639127E+04  0.10202639127E+04  0.00000000000E+00 0. -1.
         -1   -1    0    0    0  501 -0.00000000000E+00 -0.00000000000E+00 -0.25500608963E+02  0.25500608963E+02  0.00000000000E+00 0.  1.
         25    2    1    2    0    0  0.23356039761E+02  0.52915388677E+02  0.87394976720E+03  0.88474920293E+03  0.12508962202E+03 0.  0.
         23    2    1    2    0    0 -0.23356039761E+02 -0.52915388677E+02  0.12081353655E+03  0.16101531875E+03  0.89355913662E+02 0.  0.
          5    1    3    3  502    0  0.35200595465E+02 -0.57566183311E+01  0.71047089512E+02  0.79607674905E+02  0.41800000000E+01 0. -1.
         -5    1    3    3    0  502 -0.11844555704E+02  0.58672007008E+02  0.80290267769E+03  0.80514152802E+03  0.41800000000E+01 0. -1.
        -11    1    4    4    0    0 -0.38996685069E+02 -0.34883027690E+02  0.17791388070E+02  0.55263917312E+02  0.00000000000E+00 0.  1.
         11    1    4    4    0    0  0.15640645308E+02 -0.18032360987E+02  0.10302214848E+03  0.10575140144E+03  0.00000000000E+00 0. -1.
</event>
<event>
 8    1  0.7052796E-009  0.6976462E+02  0.7561462E-02  0.1360895E+00
         -3   -1    0    0    0  501 -0.00000000000E+00  0.00000000000E+00  0.56771475819E+02  0.56771475819E+02  0.00000000000E+00 0.  1.
          3   -1    0    0  501    0  0.00000000000E+00 -0.00000000000E+00 -0.24474219404E+03  0.24474219404E+03  0.00000000000E+00 0. -1.
         25    2    1    2    0    0  0.39966412721E+02 -0.14232352071E+02 -0.82957111527E+02  0.15597870762E+03  0.12509037088E+03 0.  0.
         23    2    1    2    0    0 -0.39966412721E+02  0.14232352071E+02 -0.10501360669E+03  0.14553496224E+03  0.91393072226E+02 0.  0.
          5    1    3    3  502    0  0.29307886184E+01 -0.23144538874E+02  0.29111364736E+02  0.37539354795E+02  0.41800000000E+01 0.  1.
         -5    1    3    3    0  502  0.37035624102E+02  0.89121868031E+01 -0.11206847626E+03  0.11843935283E+03  0.41800000000E+01 0.  1.
        -11    1    4    4    0    0 -0.50012436267E+02 -0.10242489419E+02 -0.10745592746E+03  0.11896608221E+03  0.00000000000E+00 0. -1.
         11    1    4    4    0    0  0.10046023547E+02  0.24474841490E+02  0.24423207638E+01  0.26568880025E+02  0.00000000000E+00 0.  1.
</event>
<event>
 8    1  0.7052796E-009  0.3016927E+03  0.7561462E-02  0.1084397E+00
         -1   -1    0    0    0  501 -0.00000000000E+00  0.00000000000E+00  0.71524673843E+03  0.71524673843E+03  0.00000000000E+00 0.  1.
          1   -1    0    0  501    0  0.00000000000E+00 -0.00000000000E+00 -0.14385175007E+03  0.14385175007E+03  0.00000000000E+00 0. -1.
         25    2    1    2    0    0 -0.97262234121E+01  0.28047758807E+03  0.43452702194E+03  0.53218730928E+03  0.12508925825E+03 0.  0.
         23    2    1    2    0    0  0.97262234121E+01 -0.28047758807E+03  0.13686796642E+03  0.32691117922E+03  0.96828725259E+02 0.  0.
          5    1    3    3  502    0 -0.41749934408E+02  0.23847308673E+02  0.59475090851E+02  0.76593145815E+02  0.41800000000E+01 0. -1.
         -5    1    3    3    0  502  0.32023710996E+02  0.25663027940E+03  0.37505193109E+03  0.45559416346E+03  0.41800000000E+01 0. -1.
        -11    1    4    4    0    0  0.46510062036E+02 -0.79108382846E+02  0.34480836146E+02  0.98031883428E+02  0.00000000000E+00 0. -1.
         11    1    4    4    0    0 -0.36783838624E+02 -0.20136920522E+03  0.10238713027E+03  0.22887929579E+03  0.00000000000E+00 0.  1.
</event>
<event>
 8    1  0.7052796E-009  0.1872849E+03  0.7561462E-02  0.1160933E+00
          2   -1    0    0  501    0  0.00000000000E+00  0.00000000000E+00  0.54794335235E+03  0.54794335235E+03  0.00000000000E+00 0. -1.
         -2   -1    0    0    0  501 -0.00000000000E+00 -0.00000000000E+00 -0.77786534897E+02  0.77786534897E+02  0.00000000000E+00 0.  1.
         25    2    1    2    0    0 -0.14711798664E+03  0.60768356387E+02  0.35589023887E+03  0.40943982465E+03  0.12508642115E+03 0.  0.
         23    2    1    2    0    0  0.14711798664E+03 -0.60768356387E+02  0.11426657859E+03  0.21629006260E+03  0.91586271159E+02 0.  0.
          5    1    3    3  502    0  0.12019988427E+02  0.26090446820E+02  0.11512883709E+03  0.11873210630E+03  0.41800000000E+01 0. -1.
         -5    1    3    3    0  502 -0.15913797507E+03  0.34677909567E+02  0.24076140178E+03  0.29070771835E+03  0.41800000000E+01 0. -1.
        -11    1    4    4    0    0  0.14667053442E+03 -0.27356299046E+02  0.84086661401E+02  0.17126347944E+03  0.00000000000E+00 0. -1.
         11    1    4    4    0    0  0.44745222034E+00 -0.33412057341E+02  0.30179917186E+02  0.45026583155E+02  0.00000000000E+00 0.  1.
</event>
<event>
 8    1  0.7052796E-009  0.9497628E+02  0.7561462E-02  0.1291230E+00
         -3   -1    0    0    0  501 -0.00000000000E+00  0.00000000000E+00  0.25540664961E+03  0.25540664961E+03  0.00000000000E+00 0.  1.
          3   -1    0    0  501    0  0.00000000000E+00 -0.00000000000E+00 -0.67040634989E+02  0.67040634989E+02  0.00000000000E+00 0. -1.
         25    2    1    2    0    0  0.10752025557E+02 -0.62781427185E+02  0.15292485545E+03  0.20758061810E+03  0.12508632196E+03 0.  0.
         23    2    1    2    0    0 -0.10752025557E+02  0.62781427185E+02  0.35441159170E+02  0.11486666650E+03  0.88775906965E+02 0.  0.
          5    1    3    3  502    0  0.30267214911E+02 -0.41238276989E+02 -0.54419125241E+00  0.51327072112E+02  0.41800000000E+01 0.  1.
         -5    1    3    3    0  502 -0.19515189354E+02 -0.21543150196E+02  0.15346904671E+03  0.15625354598E+03  0.41800000000E+01 0.  1.
        -11    1    4    4    0    0  0.26929773371E+02 -0.88303917336E+01  0.94155070529E+01  0.29863695101E+02  0.00000000000E+00 0.  1.
         11    1    4    4    0    0 -0.37681798928E+02  0.71611818919E+02  0.26025652117E+02  0.85002971403E+02  0.00000000000E+00 0. -1.
</event>
<event>
 8    1  0.7052796E-009  0.9251077E+02  0.7561462E-02  0.1296883E+00
          2   -1    0    0  501    0  0.00000000000E+00  0.00000000000E+00  0.12008958598E+03  0.12008958598E+03  0.00000000000E+00 0. -1.
         -2   -1    0    0    0  501 -0.00000000000E+00 -0.00000000000E+00 -0.11436976819E+03  0.11436976819E+03  0.00000000000E+00 0.  1.
         25    2    1    2    0    0 -0.24345750799E+02  0.97720613965E-01  0.38583881951E+02  0.13314892188E+03  0.12508874578E+03 0.  0.
         23    2    1    2    0    0  0.24345750799E+02 -0.97720613965E-01 -0.32864064154E+02  0.10131043229E+03  0.92687819297E+02 0.  0.
          5    1    3    3  502    0  0.10941545823E+02  0.45337361424E+02  0.56043694078E+02  0.73031238603E+02  0.41800000000E+01 0.  1.
         -5    1    3    3    0  502 -0.35287296622E+02 -0.45239640810E+02 -0.17459812127E+02  0.60117683281E+02  0.41800000000E+01 0.  1.
        -11    1    4    4    0    0  0.10839748173E+02  0.38384488669E+02  0.11041260689E+02  0.41385728801E+02  0.00000000000E+00 0.  1.
         11    1    4    4    0    0  0.13506002626E+02 -0.38482209283E+02 -0.43905324843E+02  0.59924703485E+02  0.00000000000E+00 0. -1.
</event>
<event>
 8    1  0.7052796E-009  0.1302784E+03  0.7561462E-02  0.1227043E+00
          1   -1    0    0  501    0  0.00000000000E+00  0.00000000000E+00  0.23053899625E+03  0.23053899625E+03  0.00000000000E+00 0. -1.
         -1   -1    0    0    0  501 -0.00000000000E+00 -0.00000000000E+00 -0.30220945274E+03  0.30220945274E+03  0.00000000000E+00 0.  1.
         25    2    1    2    0    0  0.20364767827E+02  0.11508696804E+03 -0.24860576746E+03  0.30184777339E+03  0.12509003439E+03 0.  0.
         23    2    1    2    0    0 -0.20364767827E+02 -0.11508696804E+03  0.17693531096E+03  0.23090067561E+03  0.91374415176E+02 0.  0.
          5    1    3    3  502    0  0.21869242268E+01  0.93591495161E+02 -0.25585733687E+03  0.27247862271E+03  0.41800000000E+01 0.  1.
         -5    1    3    3    0  502  0.18177843600E+02  0.21495472882E+02  0.72515694140E+01  0.29369150674E+02  0.41800000000E+01 0.  1.
        -11    1    4    4    0    0 -0.26274993312E+02 -0.12451620289E+03  0.12717615646E+03  0.17991229760E+03  0.00000000000E+00 0.  1.
         11    1    4    4    0    0  0.59102254850E+01  0.94292348485E+01  0.49759154498E+02  0.50988378003E+02  0.00000000000E+00 0. -1.
</event>
<event>
 8    1  0.7052796E-009  0.1202304E+03  0.7561462E-02  0.1242717E+00
         -3   -1    0    0    0  501 -0.00000000000E+00  0.00000000000E+00  0.45618019375E+02  0.45618019375E+02  0.00000000000E+00 0.  1.
          3   -1    0    0  501    0  0.00000000000E+00 -0.00000000000E+00 -0.43461481316E+03  0.43461481316E+03  0.00000000000E+00 0. -1.
         25    2    1    2    0    0  0.71125261993E+02 -0.29583902808E+02 -0.29064566158E+03  0.32566336072E+03  0.12509082191E+03 0.  0.
         23    2    1    2    0    0 -0.71125261993E+02  0.29583902808E+02 -0.98351132206E+02  0.15456947181E+03  0.91020691113E+02 0.  0.
          5    1    3    3  502    0  0.82884320021E+02 -0.51487203071E+02 -0.12762879735E+03  0.16070882022E+03  0.41800000000E+01 0.  1.
         -5    1    3    3    0  502 -0.11759058028E+02  0.21903300263E+02 -0.16301686423E+03  0.16495454050E+03  0.41800000000E+01 0.  1.
        -11    1    4    4    0    0 -0.87199710444E+02  0.38979195802E+01 -0.83620468032E+02  0.12087748323E+03  0.00000000000E+00 0. -1.
         11    1    4    4    0    0  0.16074448451E+02  0.25685983228E+02 -0.14730664174E+02  0.33691988579E+02  0.00000000000E+00 0.  1.
</event>
<event>
 8    1  0.7052796E-009  0.5512209E+02  0.7561462E-02  0.1419522E+00
          2   -1    0    0  501    0  0.00000000000E+00  0.00000000000E+00  0.20866760423E+03  0.20866760423E+03  0.00000000000E+00 0. -1.
         -2   -1    0    0    0  501 -0.00000000000E+00 -0.00000000000E+00 -0.68432598347E+02  0.68432598347E+02  0.00000000000E+00 0.  1.
         25    2    1    2    0    0 -0.37345622533E+02  0.30186800548E+02  0.92447297024E+02  0.16278666228E+03  0.12508819385E+03 0.  0.
         23    2    1    2    0    0  0.37345622533E+02 -0.30186800548E+02  0.47787708855E+02  0.11431354029E+03  0.92075957378E+02 0.  0.
          5    1    3    3  502    0  0.75548067961E-01  0.17184814092E+02  0.11544322752E+03  0.11679013110E+03  0.41800000000E+01 0.  1.
         -5    1    3    3    0  502 -0.37421170601E+02  0.13001986455E+02 -0.22995930496E+02  0.45996531177E+02  0.41800000000E+01 0.  1.
        -11    1    4    4    0    0  0.27318191889E+02 -0.81440935806E+01  0.73595395152E+02  0.78923330238E+02  0.00000000000E+00 0. -1.
         11    1    4    4    0    0  0.10027430644E+02 -0.22042706967E+02 -0.25807686297E+02  0.35390210055E+02  0.00000000000E+00 0.  1.
</event>
<event>
 8    1  0.7052796E-009  0.8752002E+02  0.7561462E-02  0.1308971E+00
          3   -1    0    0  501    0  0.00000000000E+00  0.00000000000E+00  0.63030355111E+02  0.63030355111E+02  0.00000000000E+00 0. -1.
         -3   -1    0    0    0  501 -0.00000000000E+00 -0.00000000000E+00 -0.28318603967E+03  0.28318603967E+03  0.00000000000E+00 0.  1.
         25    2    1    2    0    0  0.45061221572E+02  0.21320819739E+02 -0.42998114261E+02  0.14136007510E+03  0.12509493178E+03 0.  0.
         23    2    1    2    0    0 -0.45061221572E+02 -0.21320819739E+02 -0.17715757030E+03  0.20485631969E+03  0.89978975082E+02 0.  0.
          5    1    3    3  502    0  0.34996989194E+01  0.30619745172E+02  0.38389951986E+02  0.49407261616E+02  0.41800000000E+01 0. -1.
         -5    1    3    3    0  502  0.41561522653E+02 -0.92989254335E+01 -0.81388066247E+02  0.91952813480E+02  0.41800000000E+01 0. -1.
        -11    1    4    4    0    0  0.26178005618E+02  0.18210907959E+01 -0.30940212973E+02  0.40569707031E+02  0.00000000000E+00 0.  1.
         11    1    4    4    0    0 -0.71239227190E+02 -0.23141910535E+02 -0.14621735733E+03  0.16428661266E+03  0.00000000000E+00 0. -1.
</event>
<event>
 8    1  0.7052796E-009  0.1151229E+03  0.7561462E-02  0.1251367E+00
         -1   -1    0    0    0  501 -0.00000000000E+00  0.00000000000E+00  0.23300242539E+03  0.23300242539E+03  0.00000000000E+00 0.  1.
          1   -1    0    0  501    0  0.00000000000E+00 -0.00000000000E+00 -0.92397991609E+02  0.92397991609E+02  0.00000000000E+00 0. -1.
         25    2    1    2    0    0 -0.62489961990E+02 -0.37876138980E+02  0.14111757001E+03  0.20224753403E+03  0.12510115587E+03 0.  0.
         23    2    1    2    0    0  0.62489961990E+02  0.37876138980E+02 -0.51313623197E+00  0.12315288297E+03  0.99130076269E+02 0.  0.
          5    1    3    3  502    0 -0.14153491255E+02  0.35009759346E+02  0.97059072665E+02  0.10423022858E+03  0.41800000000E+01 0.  1.
         -5    1    3    3    0  502 -0.48336470735E+02 -0.72885898326E+02  0.44058497343E+02  0.98017305442E+02  0.41800000000E+01 0.  1.
        -11    1    4    4    0    0  0.68786502088E+02  0.25721306681E+01  0.30925182770E+02  0.75462345942E+02  0.00000000000E+00 0.  1.
         11    1    4    4    0    0 -0.62965400987E+01  0.35304008312E+02 -0.31438319002E+02  0.47690537026E+02  0.00000000000E+00 0. -1.
</event>
<event>
 8    1  0.7052796E-009  0.3476298E+03  0.7561462E-02  0.1063592E+00
         -1   -1    0    0    0  501 -0.00000000000E+00  0.00000000000E+00  0.30687997042E+03  0.30687997042E+03  0.00000000000E+00 0.  1.
          1   -1    0    0  501    0  0.00000000000E+00 -0.00000000000E+00 -0.49806185896E+03  0.49806185896E+03  0.00000000000E+00 0. -1.
         25    2    1    2    0    0 -0.12193858094E+03 -0.31514340822E+03 -0.26465801434E+03  0.44707412725E+03  0.12508807073E+03 0.  0.
         23    2    1    2    0    0  0.12193858094E+03  0.31514340822E+03  0.73476125796E+02  0.35786770213E+03  0.92120388065E+02 0.  0.
          5    1    3    3  502    0 -0.55235030021E+02 -0.25799544366E+03 -0.15326970494E+03  0.30515837256E+03  0.41800000000E+01 0. -1.
         -5    1    3    3    0  502 -0.66703550922E+02 -0.57147964556E+02 -0.11138830940E+03  0.14191575469E+03  0.41800000000E+01 0. -1.
        -11    1    4    4    0    0  0.92938707954E+02  0.29173149000E+03  0.41923833065E+02  0.30903474477E+03  0.00000000000E+00 0.  1.
         11    1    4    4    0    0  0.28999872989E+02  0.23411918220E+02  0.31552292731E+02  0.48832957362E+02  0.00000000000E+00 0. -1.
</event>
<event>
 8    1  0.7052796E-009  0.1434459E+03  0.7561462E-02  0.1208766E+00
         -1   -1    0    0    0  501 -0.00000000000E+00  0.00000000000E+00  0.14399421413E+03  0.14399421413E+03  0.00000000000E+00 0.  1.
          1   -1    0    0  501    0  0.00000000000E+00 -0.00000000000E+00 -0.14797844523E+03  0.14797844523E+03  0.00000000000E+00 0. -1.
         25    2    1    2    0    0 -0.82402759286E+02 -0.49700436337E+02 -0.22659022238E+02  0.15943757203E+03  0.12508621018E+03 0.  0.
         23    2    1    2    0    0  0.82402759286E+02  0.49700436337E+02  0.18674791147E+02  0.13253508733E+03  0.89198954242E+02 0.  0.
          5    1    3    3  502    0  0.11034269167E+02 -0.61818766626E+02 -0.24384649222E+01  0.62982009450E+02  0.41800000000E+01 0.  1.
         -5    1    3    3    0  502 -0.93437028453E+02  0.12118330289E+02 -0.20220557316E+02  0.96455562584E+02  0.41800000000E+01 0.  1.
        -11    1    4    4    0    0 -0.17214938541E+02 -0.21366040044E+01 -0.43885850412E+01  0.17893542531E+02  0.00000000000E+00 0. -1.
         11    1    4    4    0    0  0.99617697827E+02  0.51837040341E+02  0.23063376188E+02  0.11464154479E+03  0.00000000000E+00 0.  1.
</event>
<event>
 8    1  0.7052796E-009  0.1096339E+03  0.7561462E-02  0.1261249E+00
          1   -1    0    0  501    0  0.00000000000E+00  0.00000000000E+00  0.67165835758E+02  0.67165835758E+02  0.00000000000E+00 0. -1.
         -1   -1    0    0    0  501 -0.00000000000E+00 -0.00000000000E+00 -0.21678923439E+03  0.21678923439E+03  0.00000000000E+00 0.  1.
         25    2    1    2    0    0 -0.43713716718E+02 -0.27349337760E+02 -0.70191272009E+02  0.15242279847E+03  0.12508804708E+03 0.  0.
         23    2    1    2    0    0  0.43713716718E+02  0.27349337760E+02 -0.79432126623E+02  0.13153227168E+03  0.91281983152E+02 0.  0.
          5    1    3    3  502    0 -0.17758709619E+02 -0.67708745246E+02 -0.76578714348E+02  0.10383456959E+03  0.41800000000E+01 0. -1.
         -5    1    3    3    0  502 -0.25955007099E+02  0.40359407486E+02  0.63874423391E+01  0.48588228881E+02  0.41800000000E+01 0. -1.
        -11    1    4    4    0    0  0.27413984307E+02  0.59177262553E+02 -0.67437781729E+02  0.93815400353E+02  0.00000000000E+00 0.  1.
         11    1    4    4    0    0  0.16299732411E+02 -0.31827924793E+02 -0.11994344894E+02  0.37716871327E+02  0.00000000000E+00 0. -1.
</event>
<event>
 8    1  0.7052796E-009  0.1225514E+03  0.7561462E-02  0.1238946E+00
          1   -1    0    0  501    0  0.00000000000E+00  0.00000000000E+00  0.11068275827E+04  0.11068275827E+04  0.00000000000E+00 0. -1.
         -1   -1    0    0    0  501 -0.00000000000E+00 -0.00000000000E+00 -0.15204389821E+02  0.15204389821E+02  0.00000000000E+00 0.  1.
         25    2    1    2    0    0 -0.60458400546E+02 -0.14096533759E+02  0.56292863309E+03  0.57999127459E+03  0.12508917695E+03 0.  0.
         23    2    1    2    0    0  0.60458400546E+02  0.14096533759E+02  0.52869455982E+03  0.54204069796E+03  0.10215796690E+03 0.  0.
          5    1    3    3  502    0  0.19784136251E+02 -0.37573822920E+02  0.32452129047E+03  0.32731444298E+03  0.41800000000E+01 0. -1.
         -5    1    3    3    0  502 -0.80242536797E+02  0.23477289161E+02  0.23840734262E+03  0.25267683161E+03  0.41800000000E+01 0. -1.
        -11    1    4    4    0    0  0.69592283463E+01  0.52441169570E+02  0.26745811980E+03  0.27263960272E+03  0.00000000000E+00 0.  1.
         11    1    4    4    0    0  0.53499172199E+02 -0.38344635810E+02  0.26123644002E+03  0.26940109524E+03  0.00000000000E+00 0. -1.
</event>
<event>
 8    1  0.7052796E-009  0.1608327E+03  0.7561462E-02  0.1187760E+00
         -2   -1    0    0    0  501 -0.00000000000E+00  0.00000000000E+00  0.64283853413E+02  0.64283853413E+02  0.00000000000E+00 0. -1.
          2   -1    0    0  501    0  0.00000000000E+00 -0.00000000000E+00 -0.47737860377E+03  0.47737860377E+03  0.00000000000E+00 0.  1.
         25    2    1    2    0    0 -0.13234589004E+03  0.28014423091E+02 -0.25961701857E+03  0.31835290187E+03  0.12508929323E+03 0.  0.
         23    2    1    2    0    0  0.13234589004E+03 -0.28014423091E+02 -0.15347773178E+03  0.22330955532E+03  0.89506987613E+02 0.  0.
          5    1    3    3  502    0 -0.13437349256E+02 -0.32078160255E+02 -0.12131679641E+03  0.12627275324E+03  0.41800000000E+01 0.  1.
         -5    1    3    3    0  502 -0.11890854078E+03  0.60092583345E+02 -0.13830022216E+03  0.19208014862E+03  0.41800000000E+01 0.  1.
        -11    1    4    4    0    0  0.18944182853E+02  0.22314790744E+02 -0.47953789757E+01  0.29661888163E+02  0.00000000000E+00 0.  1.
         11    1    4    4    0    0  0.11340170719E+03 -0.50329213834E+02 -0.14868235281E+03  0.19364766715E+03  0.00000000000E+00 0. -1.
</event>
<event>
 8    1  0.7052796E-009  0.9683469E+02  0.7561462E-02  0.1287097E+00
         -4   -1    0    0    0  501 -0.00000000000E+00  0.00000000000E+00  0.63447685934E+02  0.63447685934E+02  0.00000000000E+00 0.  1.
          4   -1    0    0  501    0  0.00000000000E+00 -0.00000000000E+00 -0.30025505800E+03  0.30025505800E+03  0.00000000000E+00 0. -1.
         25    2    1    2    0    0 -0.40247392999E+02 -0.49060839894E+02 -0.20451086244E+03  0.24798915959E+03  0.12508841579E+03 0.  0.
         23    2    1    2    0    0  0.40247392999E+02  0.49060839894E+02 -0.32296509625E+02  0.11571358434E+03  0.91212665860E+02 0.  0.
          5    1    3    3  502    0  0.19872519211E+02 -0.42382109432E+02 -0.15492736996E+02  0.49483911722E+02  0.41800000000E+01 0.  1.
         -5    1    3    3    0  502 -0.60119912210E+02 -0.66787304621E+01 -0.18901812545E+03  0.19850524787E+03  0.41800000000E+01 0.  1.
        -11    1    4    4    0    0  0.55097091774E+02  0.33269796544E+02  0.12849876825E+02  0.65632981179E+02  0.00000000000E+00 0.  1.
         11    1    4    4    0    0 -0.14849698776E+02  0.15791043350E+02 -0.45146386450E+02  0.50080603164E+02  0.00000000000E+00 0. -1.
</event>
<event>
 8    1  0.7052796E-009  0.1011767E+03  0.7561462E-02  0.1277841E+00
         -2   -1    0    0    0  501 -0.00000000000E+00  0.00000000000E+00  0.22935691268E+03  0.22935691268E+03  0.00000000000E+00 0.  1.
          2   -1    0    0  501    0  0.00000000000E+00 -0.00000000000E+00 -0.70539973479E+02  0.70539973479E+02  0.00000000000E+00 0. -1.
         25    2    1    2    0    0 -0.52442352835E+02 -0.30577826756E+01  0.13314882270E+03  0.19009610691E+03  0.12509344694E+03 0.  0.
         23    2    1    2    0    0  0.52442352835E+02  0.30577826756E+01  0.25668116494E+02  0.10980077925E+03  0.92939811242E+02 0.  0.
          5    1    3    3  502    0 -0.57920447788E+02 -0.37801459829E+02  0.20874027035E+02  0.72366608611E+02  0.41800000000E+01 0.  1.
         -5    1    3    3    0  502  0.54780949525E+01  0.34743677153E+02  0.11227479567E+03  0.11772949830E+03  0.41800000000E+01 0.  1.
        -11    1    4    4    0    0 -0.15528561420E+02 -0.20488611566E+02  0.27761136924E+02  0.37836492266E+02  0.00000000000E+00 0.  1.
         11    1    4    4    0    0  0.67970914255E+02  0.23546394241E+02 -0.20930204302E+01  0.71964286983E+02  0.00000000000E+00 0. -1.
</event>
<event>
 8    1  0.7052796E-009  0.1872911E+03  0.7561462E-02  0.1160927E+00
         -2   -1    0    0    0  501 -0.00000000000E+00  0.00000000000E+00  0.41033613522E+02  0.41033613522E+02  0.00000000000E+00 0. -1.
          2   -1    0    0  501    0  0.00000000000E+00 -0.00000000000E+00 -0.11325678669E+04  0.11325678669E+04  0.00000000000E+00 0.  1.
         25    2    1    2    0    0  0.17941799051E+03 -0.32531165453E+02 -0.67302449755E+03  0.70842071904E+03  0.12509535888E+03 0.  0.
         23    2    1    2    0    0 -0.17941799051E+03  0.32531165453E+02 -0.41850975581E+03  0.46518076137E+03  0.89407119372E+02 0.  0.
          5    1    3    3  502    0  0.29482026096E+02 -0.27557535498E+02 -0.36932544533E+02  0.54864313275E+02  0.41800000000E+01 0.  1.
         -5    1    3    3    0  502  0.14993596441E+03 -0.49736299550E+01 -0.63609195302E+03  0.65355640576E+03  0.41800000000E+01 0.  1.
        -11    1    4    4    0    0 -0.10091477555E+03  0.60947003654E+01 -0.32449576288E+03  0.33988003387E+03  0.00000000000E+00 0.  1.
         11    1    4    4    0    0 -0.78503214953E+02  0.26436465088E+02 -0.94013992933E+02  0.12530072750E+03  0.00000000000E+00 0. -1.
</event>
<event>
 8    1  0.7052796E-009  0.1133109E+03  0.7561462E-02  0.1254559E+00
         -1   -1    0    0    0  501 -0.00000000000E+00  0.00000000000E+00  0.11281229972E+03  0.11281229972E+03  0.00000000000E+00 0.  1.
          1   -1    0    0  501    0  0.00000000000E+00 -0.00000000000E+00 -0.18082131068E+03  0.18082131068E+03  0.00000000000E+00 0. -1.
         25    2    1    2    0    0 -0.64297600423E+02 -0.53035556921E+02  0.11606536509E+02  0.15076021749E+03  0.12508788818E+03 0.  0.
         23    2    1    2    0    0  0.64297600423E+02  0.53035556921E+02 -0.79615547467E+02  0.14287339292E+03  0.84422859978E+02 0.  0.
          5    1    3    3  502    0 -0.16866288740E+02 -0.81985033688E+02  0.34349992177E+02  0.90572687976E+02  0.41800000000E+01 0. -1.
         -5    1    3    3    0  502 -0.47431311683E+02  0.28949476767E+02 -0.22743455668E+02  0.60187529512E+02  0.41800000000E+01 0. -1.
        -11    1    4    4    0    0  0.38000227789E+02  0.46388721238E+02 -0.12854367727E+01  0.59979855934E+02  0.00000000000E+00 0.  1.
         11    1    4    4    0    0  0.26297372633E+02  0.66468356830E+01 -0.78330110695E+02  0.82893536982E+02  0.00000000000E+00 0. -1.
</event>
<event>
 8    1  0.7052796E-009  0.9598754E+02  0.7561462E-02  0.1288967E+00
         -3   -1    0    0    0  501 -0.00000000000E+00  0.00000000000E+00  0.12693899661E+03  0.12693899661E+03  0.00000000000E+00 0.  1.
          3   -1    0    0  501    0  0.00000000000E+00 -0.00000000000E+00 -0.11334872042E+03  0.11334872042E+03  0.00000000000E+00 0. -1.
         25    2    1    2    0    0 -0.14442823118E+02 -0.17117557643E+02  0.53917844236E+02  0.13803891386E+03  0.12508397936E+03 0.  0.
         23    2    1    2    0    0  0.14442823118E+02  0.17117557643E+02 -0.40327568042E+02  0.10224880317E+03  0.91251844291E+02 0.  0.
          5    1    3    3  502    0 -0.61285893997E+02 -0.29558598168E+02  0.57609021435E+02  0.89252133192E+02  0.41800000000E+01 0.  1.
         -5    1    3    3    0  502  0.46843070879E+02  0.12441040525E+02 -0.36911771988E+01  0.48786780667E+02  0.41800000000E+01 0.  1.
        -11    1    4    4    0    0  0.89251759631E+00  0.44551406443E+02 -0.52901738644E+02  0.69168044322E+02  0.00000000000E+00 0. -1.
         11    1    4    4    0    0  0.13550305522E+02 -0.27433848800E+02  0.12574170602E+02  0.33080758850E+02  0.00000000000E+00 0.  1.
</event>
<event>
 8    1  0.7052796E-009  0.1296124E+03  0.7561462E-02  0.1228032E+00
         -1   -1    0    0    0  501 -0.00000000000E+00  0.00000000000E+00  0.78937665246E+02  0.78937665246E+02  0.00000000000E+00 0.  1.
          1   -1    0    0  501    0  0.00000000000E+00 -0.00000000000E+00 -0.22439366987E+03  0.22439366987E+03  0.00000000000E+00 0. -1.
         25    2    1    2    0    0  0.69024706873E+02 -0.21306041345E+02 -0.97215157651E+02  0.17411858609E+03  0.12509251612E+03 0.  0.
         23    2    1    2    0    0 -0.69024706873E+02  0.21306041345E+02 -0.48240846971E+02  0.12921274902E+03  0.95657710808E+02 0.  0.
          5    1    3    3  502    0  0.10294381578E+03  0.18455276718E+01 -0.72685592351E+02  0.12610116143E+03  0.41800000000E+01 0.  1.
         -5    1    3    3    0  502 -0.33919108905E+02 -0.23151569017E+02 -0.24529565300E+02  0.48017424657E+02  0.41800000000E+01 0.  1.
        -11    1    4    4    0    0 -0.70020807597E+02 -0.20595634050E+02 -0.47893757007E+02  0.87297798361E+02  0.00000000000E+00 0.  1.
         11    1    4    4    0    0  0.99610072335E+00  0.41901675396E+02 -0.34708996412E+00  0.41914950663E+02  0.00000000000E+00 0. -1.
</event>
<event>
 8    1  0.7052796E-009  0.1292257E+03  0.7561462E-02  0.1228609E+00
         -1   -1    0    0    0  501 -0.00000000000E+00  0.00000000000E+00  0.62645573530E+02  0.62645573530E+02  0.00000000000E+00 0.  1.
          1   -1    0    0  501    0  0.00000000000E+00 -0.00000000000E+00 -0.55197382018E+03  0.55197382018E+03  0.00000000000E+00 0. -1.
         25    2    1    2    0    0  0.86316660366E+02 -0.76808361396E+02 -0.99784099118E+02  0.19737038900E+03  0.12509242096E+03 0.  0.
         23    2    1    2    0    0 -0.86316660366E+02  0.76808361396E+02 -0.38954414753E+03  0.41724900470E+03  0.94878863902E+02 0.  0.
          5    1    3    3  502    0  0.89397253056E+02 -0.33916580122E+02 -0.81390250369E+01  0.96051649593E+02  0.41800000000E+01 0.  1.
         -5    1    3    3    0  502 -0.30805926899E+01 -0.42891781274E+02 -0.91645074082E+02  0.10131873941E+03  0.41800000000E+01 0.  1.
        -11    1    4    4    0    0 -0.36359276535E+02  0.52813658899E+02 -0.32891534871E+03  0.33510682800E+03  0.00000000000E+00 0. -1.
         11    1    4    4    0    0 -0.49957383831E+02  0.23994702497E+02 -0.60628798819E+02  0.82142176702E+02  0.00000000000E+00 0.  1.
</event>
<event>
 8    1  0.7052796E-009  0.1625514E+03  0.7561462E-02  0.1185846E+00
          2   -1    0    0  501    0  0.00000000000E+00  0.00000000000E+00  0.38388259901E+03  0.38388259901E+03  0.00000000000E+00 0. -1.
         -2   -1    0    0    0  501 -0.00000000000E+00 -0.00000000000E+00 -0.10052617751E+03  0.10052617751E+03  0.00000000000E+00 0.  1.
         25    2    1    2    0    0  0.99361878475E+02 -0.12532816998E+03  0.11500827675E+03  0.23335433175E+03  0.12508959726E+03 0.  0.
         23    2    1    2    0    0 -0.99361878475E+02  0.12532816998E+03  0.16834814475E+03  0.25105444477E+03  0.95432192223E+02 0.  0.
          5    1    3    3  502    0  0.10300421889E+02 -0.69444823532E+01 -0.25791870406E+02  0.28931254817E+02  0.41800000000E+01 0. -1.
         -5    1    3    3    0  502  0.89061456586E+02 -0.11838368763E+03  0.14080014715E+03  0.20442307694E+03  0.41800000000E+01 0. -1.
        -11    1    4    4    0    0 -0.42418013791E+02  0.81705823253E+02  0.32860338140E+02  0.97749328745E+02  0.00000000000E+00 0.  1.
         11    1    4    4    0    0 -0.56943864684E+02  0.43622346729E+02  0.13548780661E+03  0.15330511602E+03  0.00000000000E+00 0. -1.
</event>
<event>
 8    1  0.7052796E-009  0.3200821E+03  0.7561462E-02  0.1075612E+00
         -2   -1    0    0    0  501 -0.00000000000E+00  0.00000000000E+00  0.76404877382E+02  0.76404877382E+02  0.00000000000E+00 0.  1.
          2   -1    0    0  501    0  0.00000000000E+00 -0.00000000000E+00 -0.13841580925E+04  0.13841580925E+04  0.00000000000E+00 0. -1.
         25    2    1    2    0    0 -0.29930280521E+03  0.60473028214E+02 -0.61269753523E+03  0.69590569413E+03  0.12508920455E+03 0.  0.
         23    2    1    2    0    0  0.29930280521E+03 -0.60473028214E+02 -0.69505567987E+03  0.76465727574E+03  0.91428632639E+02 0.  0.
          5    1    3    3  502    0  0.12014855462E+02  0.14555399180E+00 -0.20202328936E+02  0.23874346738E+02  0.41800000000E+01 0. -1.
         -5    1    3    3    0  502 -0.31131766067E+03  0.60327474222E+02 -0.59249520629E+03  0.67203134739E+03  0.41800000000E+01 0. -1.
        -11    1    4    4    0    0  0.76395200066E+02 -0.40601201568E+02 -0.12294214548E+03  0.15033115212E+03  0.00000000000E+00 0.  1.
         11    1    4    4    0    0  0.22290760515E+03 -0.19871826646E+02 -0.57211353439E+03  0.61432612362E+03  0.00000000000E+00 0. -1.
</event>
<event>
 8    1  0.7052796E-009  0.1459152E+03  0.7561462E-02  0.1205584E+00
          2   -1    0    0  501    0  0.00000000000E+00  0.00000000000E+00  0.18858309587E+03  0.18858309587E+03  0.00000000000E+00 0. -1.
         -2   -1    0    0    0  501 -0.00000000000E+00 -0.00000000000E+00 -0.13547586934E+03  0.13547586934E+03  0.00000000000E+00 0.  1.
         25    2    1    2    0    0  0.97992599247E+02 -0.48956489242E+02  0.70994897915E+02  0.18079105433E+03  0.12508334202E+03 0.  0.
         23    2    1    2    0    0 -0.97992599247E+02  0.48956489242E+02 -0.17887671393E+02  0.14326791088E+03  0.90589393164E+02 0.  0.
          5    1    3    3  502    0  0.99766238623E+02  0.10246788087E+02  0.68186910495E+02  0.12134754302E+03  0.41800000000E+01 0.  1.
         -5    1    3    3    0  502 -0.17736393756E+01 -0.59203277329E+02  0.28079874207E+01  0.59443511307E+02  0.41800000000E+01 0.  1.
        -11    1    4    4    0    0 -0.10503552964E+02  0.43131804468E+02  0.18813096745E+02  0.48214207353E+02  0.00000000000E+00 0. -1.
         11    1    4    4    0    0 -0.87489046283E+02  0.58246847739E+01 -0.36700768138E+02  0.95053703526E+02  0.00000000000E+00 0.  1.
</event>
<event>
 8    1  0.7052796E-009  0.8710597E+02  0.7561462E-02  0.1310015E+00
         -1   -1    0    0    0  501 -0.00000000000E+00  0.00000000000E+00  0.60332707833E+02  0.60332707833E+02  0.00000000000E+00 0.  1.
          1   -1    0    0  501    0  0.00000000000E+00 -0.00000000000E+00 -0.32574780809E+03  0.32574780809E+03  0.00000000000E+00 0. -1.
         25    2    1    2    0    0 -0.71752618712E+02  0.25272006773E+02 -0.20523440673E+03  0.25210161313E+03  0.12508776526E+03 0.  0.
         23    2    1    2    0    0  0.71752618712E+02 -0.25272006773E+02 -0.60180693525E+02  0.13397890279E+03  0.92420332731E+02 0.  0.
          5    1    3    3  502    0  0.91729939964E+01  0.12007096070E+02  0.12079917435E+02  0.19791689674E+02  0.41800000000E+01 0. -1.
         -5    1    3    3    0  502 -0.80925612709E+02  0.13264910703E+02 -0.21731432417E+03  0.23230992346E+03  0.41800000000E+01 0. -1.
        -11    1    4    4    0    0  0.22235389790E+02 -0.11459952049E+02  0.24436525736E+02  0.34969799115E+02  0.00000000000E+00 0.  1.
         11    1    4    4    0    0  0.49517228922E+02 -0.13812054724E+02 -0.84617219261E+02  0.99009103679E+02  0.00000000000E+00 0. -1.
</event>
<event>
 8    1  0.7052796E-009  0.8106899E+02  0.7561462E-02  0.1326045E+00
         -3   -1    0    0    0  501 -0.00000000000E+00  0.00000000000E+00  0.76721090525E+03  0.76721090525E+03  0.00000000000E+00 0.  1.
          3   -1    0    0  501    0  0.00000000000E+00 -0.00000000000E+00 -0.21011199948E+02  0.21011199948E+02  0.00000000000E+00 0. -1.
         25    2    1    2    0    0 -0.31095519016E+02 -0.23498159254E+02  0.25370431533E+03  0.28553919535E+03  0.12509059787E+03 0.  0.
         23    2    1    2    0    0  0.31095519016E+02  0.23498159254E+02  0.49249538998E+03  0.50268290985E+03  0.92840206330E+02 0.  0.
          5    1    3    3  502    0 -0.11109668233E+02  0.14342052845E+02 -0.80456642539E+01  0.20281132152E+02  0.41800000000E+01 0. -1.
         -5    1    3    3    0  502 -0.19985850783E+02 -0.37840212099E+02  0.26174997958E+03  0.26525806320E+03  0.41800000000E+01 0. -1.
        -11    1    4    4    0    0  0.60540827831E+02 -0.34078113660E+01  0.31103301780E+03  0.31688853430E+03  0.00000000000E+00 0. -1.
         11    1    4    4    0    0 -0.29445308815E+02  0.26905970620E+02  0.18146237218E+03  0.18579437554E+03  0.00000000000E+00 0.  1.
</event>
<event>
 8    1  0.7052796E-009  0.1402621E+03  0.7561462E-02  0.1212977E+00
         -2   -1    0    0    0  501 -0.00000000000E+00  0.00000000000E+00  0.24373331981E+02  0.24373331981E+02  0.00000000000E+00 0.  1.
          2   -1    0    0  501    0  0.00000000000E+00 -0.00000000000E+00 -0.12834896826E+04  0.12834896826E+04  0.00000000000E+00 0. -1.
         25    2    1    2    0    0  0.12101049289E+03 -0.39754801108E+02 -0.87859938538E+03  0.89655339870E+03  0.12508850116E+03 0.  0.
         23    2    1    2    0    0 -0.12101049289E+03  0.39754801108E+02 -0.38051696522E+03  0.41130961587E+03  0.90324169978E+02 0.  0.
          5    1    3    3  502    0  0.42373889998E+02  0.13448636797E+02 -0.74496910944E+02  0.86854329342E+02  0.41800000000E+01 0.  1.
         -5    1    3    3    0  502  0.78636602896E+02 -0.53203437905E+02 -0.80410247444E+03  0.80969906935E+03  0.41800000000E+01 0. -1.
        -11    1    4    4    0    0 -0.94819979992E+02  0.19439635528E+01 -0.32829666016E+03  0.34172109193E+03  0.00000000000E+00 0. -1.
         11    1    4    4    0    0 -0.26190512901E+02  0.37810837555E+02 -0.52220305064E+02  0.69588523936E+02  0.00000000000E+00 0.  1.
</event>
<event>
 8    1  0.7052796E-009  0.9885470E+02  0.7561462E-02  0.1282723E+00
         -1   -1    0    0    0  501 -0.00000000000E+00  0.00000000000E+00  0.44880744083E+02  0.44880744083E+02  0.00000000000E+00 0.  1.
          1   -1    0    0  501    0  0.00000000000E+00 -0.00000000000E+00 -0.25496777339E+03  0.25496777339E+03  0.00000000000E+00 0. -1.
         25    2    1    2    0    0 -0.28192639697E+01 -0.18029710898E+02 -0.13183076245E+03  0.18264535395E+03  0.12508779583E+03 0.  0.
         23    2    1    2    0    0  0.28192639697E+01  0.18029710898E+02 -0.78256266855E+02  0.11720316352E+03  0.85320100286E+02 0.  0.
          5    1    3    3  502    0  0.46457979790E+02  0.28928852215E+02 -0.79856161039E+02  0.96900470755E+02  0.41800000000E+01 0. -1.
         -5    1    3    3    0  502 -0.49277243760E+02 -0.46958563113E+02 -0.51974601411E+02  0.85744883194E+02  0.41800000000E+01 0. -1.
        -11    1    4    4    0    0  0.30554692490E+02  0.31418967272E+02 -0.14101825343E+02  0.46039137868E+02  0.00000000000E+00 0.  1.
         11    1    4    4    0    0 -0.27735428521E+02 -0.13389256374E+02 -0.64154441511E+02  0.71164025653E+02  0.00000000000E+00 0. -1.
</event>
<event>
 8    1  0.7052796E-009  0.1127137E+03  0.7561462E-02  0.1255626E+00
          1   -1    0    0  501    0  0.00000000000E+00  0.00000000000E+00  0.90831100250E+03  0.90831100250E+03  0.00000000000E+00 0. -1.
         -1   -1    0    0    0  501 -0.00000000000E+00 -0.00000000000E+00 -0.31559268797E+02  0.31559268797E+02  0.00000000000E+00 0.  1.
         25    2    1    2    0    0  0.55235326886E+02  0.65492943917E+02  0.19789109788E+03  0.24929599167E+03  0.12508931931E+03 0.  0.
         23    2    1    2    0    0 -0.55235326886E+02 -0.65492943917E+02  0.67886063582E+03  0.69057427962E+03  0.93278109796E+02 0.  0.
          5    1    3    3  502    0  0.93174355017E+01  0.48716677385E+02  0.47288075918E+01  0.49999632808E+02  0.41800000000E+01 0.  1.
         -5    1    3    3    0  502  0.45917891384E+02  0.16776266533E+02  0.19316229029E+03  0.19929635887E+03  0.41800000000E+01 0.  1.
        -11    1    4    4    0    0 -0.76280347955E+02 -0.71656120487E+02  0.55255856012E+03  0.56238265749E+03  0.00000000000E+00 0. -1.
         11    1    4    4    0    0  0.21045021069E+02  0.61631765698E+01  0.12630207571E+03  0.12819162213E+03  0.00000000000E+00 0.  1.
</event>
<event>
 8    1  0.7052796E-009  0.8096053E+02  0.7561462E-02  0.1326347E+00
          1   -1    0    0  501    0  0.00000000000E+00  0.00000000000E+00  0.41903269393E+02  0.41903269393E+02  0.00000000000E+00 0. -1.
         -1   -1    0    0    0  501 -0.00000000000E+00 -0.00000000000E+00 -0.30363193272E+03  0.30363193272E+03  0.00000000000E+00 0.  1.
         25    2    1    2    0    0  0.28881672886E+01 -0.29668630394E+02 -0.12891481751E+03  0.18208648117E+03  0.12509151575E+03 0.  0.
         23    2    1    2    0    0 -0.28881672886E+01  0.29668630394E+02 -0.13281384582E+03  0.16344872094E+03  0.90484239494E+02 0.  0.
          5    1    3    3  502    0  0.33145900691E+02 -0.11988531565E+02  0.11494810262E+02  0.37309230555E+02  0.41800000000E+01 0. -1.
         -5    1    3    3    0  502 -0.30257733402E+02 -0.17680098829E+02 -0.14040962777E+03  0.14477725062E+03  0.41800000000E+01 0. -1.
        -11    1    4    4    0    0 -0.37782615726E+02  0.39720822865E+02 -0.55387881172E+02  0.77930014763E+02  0.00000000000E+00 0. -1.
         11    1    4    4    0    0  0.34894448437E+02 -0.10052192472E+02 -0.77425964646E+02  0.85518706180E+02  0.00000000000E+00 0.  1.
</event>
<event>
 8    1  0.7052796E-009  0.1156160E+03  0.7561462E-02  0.1250510E+00
         -1   -1    0    0    0  501 -0.00000000000E+00  0.00000000000E+00  0.47623826291E+02  0.47623826291E+02  0.00000000000E+00 0.  1.
          1   -1    0    0  501    0  0.00000000000E+00 -0.00000000000E+00 -0.37138340059E+03  0.37138340059E+03  0.00000000000E+00 0. -1.
         25    2    1    2    0    0 -0.58823758788E+02  0.47215215113E+02 -0.15063547545E+03  0.20983061195E+03  0.12509327764E+03 0.  0.
         23    2    1    2    0    0  0.58823758788E+02 -0.47215215113E+02 -0.17312409884E+03  0.20917661493E+03  0.89963278598E+02 0.  0.
          5    1    3    3  502    0 -0.84029172321E+02  0.39709297167E+02 -0.49770722077E+02  0.10550984437E+03  0.41800000000E+01 0.  1.
         -5    1    3    3    0  502  0.25205413533E+02  0.75059179464E+01 -0.10086475338E+03  0.10432076758E+03  0.41800000000E+01 0.  1.
        -11    1    4    4    0    0  0.76905072802E+02 -0.20995415872E+02 -0.90380773650E+02  0.12051506941E+03  0.00000000000E+00 0.  1.
         11    1    4    4    0    0 -0.18081314014E+02 -0.26219799242E+02 -0.82743325192E+02  0.88661545512E+02  0.00000000000E+00 0. -1.
</event>
<event>
 8    1  0.7052796E-009  0.1193193E+03  0.7561462E-02  0.1244224E+00
          1   -1    0    0  501    0  0.00000000000E+00  0.00000000000E+00  0.12626501834E+03  0.12626501834E+03  0.00000000000E+00 0. -1.
         -1   -1    0    0    0  501 -0.00000000000E+00 -0.00000000000E+00 -0.13263147874E+03  0.13263147874E+03  0.00000000000E+00 0.  1.
         25    2    1    2    0    0 -0.43124130804E+02 -0.44293238327E+02  0.30447405542E+02  0.14281143452E+03  0.12508588932E+03 0.  0.
         23    2    1    2    0    0  0.43124130804E+02  0.44293238327E+02 -0.36813865942E+02  0.11608506256E+03  0.91098295295E+02 0.  0.
          5    1    3    3  502    0 -0.81239020666E+02 -0.45920812732E+02 -0.65120634690E+00  0.93415180728E+02  0.41800000000E+01 0. -1.
         -5    1    3    3    0  502  0.38114889861E+02  0.16275744050E+01  0.31098611889E+02  0.49396253795E+02  0.41800000000E+01 0. -1.
        -11    1    4    4    0    0  0.19249887815E+02 -0.26148595163E+02 -0.24542638948E+02  0.40701945118E+02  0.00000000000E+00 0.  1.
         11    1    4    4    0    0  0.23874242990E+02  0.70441833491E+02 -0.12271226995E+02  0.75383117445E+02  0.00000000000E+00 0. -1.
</event>
<event>
 8    1  0.7052796E-009  0.1177043E+03  0.7561462E-02  0.1246933E+00
          3   -1    0    0  501    0  0.00000000000E+00  0.00000000000E+00  0.10977377671E+03  0.10977377671E+03  0.00000000000E+00 0. -1.
         -3   -1    0    0    0  501 -0.00000000000E+00 -0.00000000000E+00 -0.12884405896E+03  0.12884405896E+03  0.00000000000E+00 0.  1.
         25    2    1    2    0    0 -0.34924356945E+02 -0.27206140024E+02 -0.22851072645E+02  0.13464507789E+03  0.12508893123E+03 0.  0.
         23    2    1    2    0    0  0.34924356945E+02  0.27206140024E+02  0.37807903884E+01  0.10397275778E+03  0.94000825643E+02 0.  0.
          5    1    3    3  502    0 -0.19770205853E+02 -0.76842923803E+02 -0.22490673012E+02  0.82577229007E+02  0.41800000000E+01 0.  1.
         -5    1    3    3    0  502 -0.15154151092E+02  0.49636783778E+02 -0.36039963287E+00  0.52067848881E+02  0.41800000000E+01 0.  1.
        -11    1    4    4    0    0  0.38923844345E+02 -0.28370751136E+02  0.80511022424E+00  0.48172745210E+02  0.00000000000E+00 0.  1.
         11    1    4    4    0    0 -0.39994874005E+01  0.55576891160E+02  0.29756801642E+01  0.55800012571E+02  0.00000000000E+00 0. -1.
</event>
<event>
 8    1  0.7052796E-009  0.8161312E+02  0.7561462E-02  0.1324535E+00
         -1   -1    0    0    0  501 -0.00000000000E+00  0.00000000000E+00  0.26129680010E+03  0.26129680010E+03  0.00000000000E+00 0.  1.
          1   -1    0    0  501    0  0.00000000000E+00 -0.00000000000E+00 -0.50306888860E+02  0.50306888860E+02  0.00000000000E+00 0. -1.
         25    2    1    2    0    0 -0.25694802147E+02 -0.39144767268E+01  0.15567702585E+03  0.20139133079E+03  0.12509031039E+03 0.  0.
         23    2    1    2    0    0  0.25694802147E+02  0.39144767268E+01  0.55312885386E+02  0.11021235817E+03  0.91715334691E+02 0.  0.
          5    1    3    3  502    0 -0.46784729012E+02  0.21269795869E+02  0.10674399943E+02  0.52655771755E+02  0.41800000000E+01 0. -1.
         -5    1    3    3    0  502  0.21089926865E+02 -0.25184272595E+02  0.14500262591E+03  0.14873555904E+03  0.41800000000E+01 0. -1.
        -11    1    4    4    0    0 -0.18547574259E+02  0.23691963235E+02  0.53900660850E+02  0.61730080778E+02  0.00000000000E+00 0.  1.
         11    1    4    4    0    0  0.44242376406E+02 -0.19777486508E+02  0.14122245365E+01  0.48482277388E+02  0.00000000000E+00 0. -1.
</event>
<event>
 8    1  0.7052796E-009  0.4132513E+03  0.7561462E-02  0.1039285E+00
         -2   -1    0    0    0  501 -0.00000000000E+00  0.00000000000E+00  0.18951655167E+03  0.18951655167E+03  0.00000000000E+00 0.  1.
          2   -1    0    0  501    0  0.00000000000E+00 -0.00000000000E+00 -0.91336062826E+03  0.91336062826E+03  0.00000000000E+00 0. -1.
         25    2    1    2    0    0  0.33972820439E+03 -0.20918794405E+03 -0.42262321463E+03  0.59450190086E+03  0.12508908741E+03 0.  0.
         23    2    1    2    0    0 -0.33972820439E+03  0.20918794405E+03 -0.30122086197E+03  0.50837527907E+03  0.92393548927E+02 0.  0.
          5    1    3    3  502    0  0.18723206174E+03 -0.18366301097E+03 -0.24440717234E+03  0.35852515230E+03  0.41800000000E+01 0. -1.
         -5    1    3    3    0  502  0.15249614266E+03 -0.25524933087E+02 -0.17821604229E+03  0.23597674856E+03  0.41800000000E+01 0. -1.
        -11    1    4    4    0    0 -0.15997521259E+03  0.45285885058E+02 -0.12103609344E+03  0.20565168597E+03  0.00000000000E+00 0.  1.
         11    1    4    4    0    0 -0.17975299180E+03  0.16390205900E+03 -0.18018476853E+03  0.30272359309E+03  0.00000000000E+00 0. -1.
</event>
<event>
 8    1  0.7052796E-009  0.3324741E+03  0.7561462E-02  0.1070047E+00
         -2   -1    0    0    0  501 -0.00000000000E+00  0.00000000000E+00  0.15253841720E+03  0.15253841720E+03  0.00000000000E+00 0.  1.
          2   -1    0    0  501    0  0.00000000000E+00 -0.00000000000E+00 -0.82522921577E+03  0.82522921577E+03  0.00000000000E+00 0. -1.
         25    2    1    2    0    0  0.30159682044E+03  0.12629978339E+03 -0.45586617584E+03  0.57478132190E+03  0.12508924953E+03 0.  0.
         23    2    1    2    0    0 -0.30159682044E+03 -0.12629978339E+03 -0.21682462273E+03  0.40298631107E+03  0.92047664333E+02 0.  0.
          5    1    3    3  502    0  0.47770569154E+01  0.21943785833E+02 -0.86952564295E+02  0.89903119228E+02  0.41800000000E+01 0. -1.
         -5    1    3    3    0  502  0.29681976352E+03  0.10435599756E+03 -0.36891361155E+03  0.48487820267E+03  0.41800000000E+01 0. -1.
        -11    1    4    4    0    0 -0.17359018377E+03 -0.63242528001E+02 -0.68168396095E+02  0.19692663476E+03  0.00000000000E+00 0. -1.
         11    1    4    4    0    0 -0.12800663666E+03 -0.63057255392E+02 -0.14865622663E+03  0.20605967632E+03  0.00000000000E+00 0.  1.
</event>
<event>
 8    1  0.7052796E-009  0.1123161E+03  0.7561462E-02  0.1256340E+00
          2   -1    0    0  501    0  0.00000000000E+00  0.00000000000E+00  0.49248479705E+02  0.49248479705E+02  0.00000000000E+00 0. -1.
         -2   -1    0    0    0  501 -0.00000000000E+00 -0.00000000000E+00 -0.40156235801E+03  0.40156235801E+03  0.00000000000E+00 0.  1.
         25    2    1    2    0    0 -0.36773086781E+02  0.75699993198E+02 -0.18734320054E+03  0.24047381348E+03  0.12508969302E+03 0.  0.
         23    2    1    2    0    0  0.36773086781E+02 -0.75699993198E+02 -0.16497067777E+03  0.21033702424E+03  0.99717552920E+02 0.  0.
          5    1    3    3  502    0  0.11541471697E+01 -0.39705683064E+01 -0.14024073605E+03  0.14036393381E+03  0.41800000000E+01 0.  1.
         -5    1    3    3    0  502 -0.37927233951E+02  0.79670561505E+02 -0.47102464488E+02  0.10010987966E+03  0.41800000000E+01 0.  1.
        -11    1    4    4    0    0 -0.46454867551E+01  0.22954474564E+02 -0.32305393795E+02  0.39901465111E+02  0.00000000000E+00 0. -1.
         11    1    4    4    0    0  0.41418573536E+02 -0.98654467763E+02 -0.13266528398E+03  0.17043555913E+03  0.00000000000E+00 0.  1.
</event>
<event>
 8    1  0.7052796E-009  0.1238622E+03  0.7561462E-02  0.1236858E+00
          1   -1    0    0  501    0  0.00000000000E+00  0.00000000000E+00  0.98351804127E+02  0.98351804127E+02  0.00000000000E+00 0. -1.
         -1   -1    0    0    0  501 -0.00000000000E+00 -0.00000000000E+00 -0.31657263625E+03  0.31657263625E+03  0.00000000000E+00 0.  1.
         25    2    1    2    0    0 -0.43164897397E+02  0.73932680213E+02 -0.24348883941E+03  0.28681525778E+03  0.12508767967E+03 0.  0.
         23    2    1    2    0    0  0.43164897397E+02 -0.73932680213E+02  0.25268007283E+02  0.12810918261E+03  0.91892550869E+02 0.  0.
          5    1    3    3  502    0 -0.61277090135E+02  0.65169200273E+01 -0.18694570125E+03  0.19688453377E+03  0.41800000000E+01 0.  1.
         -5    1    3    3    0  502  0.18112192739E+02  0.67415760186E+02 -0.56543138163E+02  0.89930724008E+02  0.41800000000E+01 0.  1.
        -11    1    4    4    0    0 -0.22863364080E+02 -0.24763871345E+02 -0.14489974465E+02  0.36687083572E+02  0.00000000000E+00 0.  1.
         11    1    4    4    0    0  0.66028261477E+02 -0.49168808868E+02  0.39757981748E+02  0.91422099034E+02  0.00000000000E+00 0. -1.
</event>
<event>
 8    1  0.7052796E-009  0.3858457E+03  0.7561462E-02  0.1048794E+00
         -2   -1    0    0    0  501 -0.00000000000E+00  0.00000000000E+00  0.89890268899E+02  0.89890268899E+02  0.00000000000E+00 0.  1.
          2   -1    0    0  501    0  0.00000000000E+00 -0.00000000000E+00 -0.18076028795E+04  0.18076028795E+04  0.00000000000E+00 0. -1.
         25    2    1    2    0    0  0.33915184655E+03 -0.16023447422E+03 -0.11014719095E+04  0.11702935945E+04  0.12509063935E+03 0.  0.
         23    2    1    2    0    0 -0.33915184655E+03  0.16023447422E+03 -0.61624070110E+03  0.72719955395E+03  0.91474192110E+02 0.  0.
          5    1    3    3  502    0 -0.32354040711E+01  0.40870088213E+01 -0.18553910111E+01  0.69344326670E+01  0.41800000000E+01 0. -1.
         -5    1    3    3    0  502  0.34238725062E+03 -0.16432148304E+03 -0.10996165185E+04  0.11633591618E+04  0.41800000000E+01 0. -1.
        -11    1    4    4    0    0 -0.30069702193E+03  0.10622354619E+03 -0.49067905516E+03  0.58520772033E+03  0.00000000000E+00 0.  1.
         11    1    4    4    0    0 -0.38454824627E+02  0.54010928024E+02 -0.12556164594E+03  0.14199183361E+03  0.00000000000E+00 0. -1.
</event>
<event>
 8    1  0.7052796E-009  0.2053338E+03  0.7561462E-02  0.1145315E+00
         -2   -1    0    0    0  501 -0.00000000000E+00  0.00000000000E+00  0.22211638106E+03  0.22211638106E+03  0.00000000000E+00 0.  1.
          2   -1    0    0  501    0  0.00000000000E+00 -0.00000000000E+00 -0.24681648053E+03  0.24681648053E+03  0.00000000000E+00 0. -1.
         25    2    1    2    0    0 -0.12970218759E+03  0.13833328083E+03  0.65962693350E+02  0.23655236437E+03  0.12508872901E+03 0.  0.
         23    2    1    2    0    0  0.12970218759E+03 -0.13833328083E+03 -0.90662792811E+02  0.23238049722E+03  0.99107010048E+02 0.  0.
          5    1    3    3  502    0 -0.65804595110E+02 -0.28194803070E+01  0.45608205785E+02  0.80223282417E+02  0.41800000000E+01 0.  1.
         -5    1    3    3    0  502 -0.63897592476E+02  0.14115276113E+03  0.20354487564E+02  0.15632908195E+03  0.41800000000E+01 0.  1.
        -11    1    4    4    0    0  0.55584118090E+02 -0.56344213636E+02 -0.92630016811E+02  0.12183835442E+03  0.00000000000E+00 0. -1.
         11    1    4    4    0    0  0.74118069497E+02 -0.81989067189E+02  0.19672240003E+01  0.11054214280E+03  0.00000000000E+00 0.  1.
</event>
<event>
 8    1  0.7052796E-009  0.1910422E+03  0.7561462E-02  0.1157525E+00
         -1   -1    0    0    0  501 -0.00000000000E+00  0.00000000000E+00  0.98551008759E+03  0.98551008759E+03  0.00000000000E+00 0.  1.
          1   -1    0    0  501    0  0.00000000000E+00 -0.00000000000E+00 -0.75023585728E+02  0.75023585728E+02  0.00000000000E+00 0. -1.
         25    2    1    2    0    0  0.12760357041E+03  0.13081529678E+03  0.79731924104E+03  0.82750006677E+03  0.12507228037E+03 0.  0.
         23    2    1    2    0    0 -0.12760357041E+03 -0.13081529678E+03  0.11316726083E+03  0.23303360655E+03  0.90013997843E+02 0.  0.
          5    1    3    3  502    0  0.99735822872E+02  0.11093751208E+03  0.76760937111E+03  0.78198208737E+03  0.41800000000E+01 0.  1.
         -5    1    3    3    0  502  0.27867747537E+02  0.19877784698E+02  0.29709869929E+02  0.45517979398E+02  0.41800000000E+01 0.  1.
        -11    1    4    4    0    0 -0.11029910689E+03 -0.60201332748E+02  0.45294942880E+02  0.13357292127E+03  0.00000000000E+00 0. -1.
         11    1    4    4    0    0 -0.17304463517E+02 -0.70613964031E+02  0.67872317946E+02  0.99460685284E+02  0.00000000000E+00 0.  1.
</event>
<event>
 8    1  0.7052796E-009  0.1866738E+03  0.7561462E-02  0.1161496E+00
          2   -1    0    0  501    0  0.00000000000E+00  0.00000000000E+00  0.61768573998E+03  0.61768573998E+03  0.00000000000E+00 0. -1.
         -2   -1    0    0    0  501 -0.00000000000E+00 -0.00000000000E+00 -0.65275232609E+02  0.65275232609E+02  0.00000000000E+00 0.  1.
         25    2    1    2    0    0  0.76359697275E+01  0.16912122207E+03  0.27594348482E+03  0.34705993920E+03  0.12508196832E+03 0.  0.
         23    2    1    2    0    0 -0.76359697275E+01 -0.16912122207E+03  0.27646702256E+03  0.33590103339E+03  0.87949951011E+02 0.  0.
          5    1    3    3  502    0 -0.46131413162E+02  0.84058372515E+02  0.73294269538E+02  0.12076191294E+03  0.41800000000E+01 0. -1.
         -5    1    3    3    0  502  0.53767382889E+02  0.85062849552E+02  0.20264921528E+03  0.22629802626E+03  0.41800000000E+01 0. -1.
        -11    1    4    4    0    0  0.21037350277E+02 -0.92000540911E+02  0.83061469436E+02  0.12572142753E+03  0.00000000000E+00 0.  1.
         11    1    4    4    0    0 -0.28673320005E+02 -0.77120681155E+02  0.19340555312E+03  0.21017960586E+03  0.00000000000E+00 0. -1.
</event>
<event>
 8    1  0.7052796E-009  0.1372167E+03  0.7561462E-02  0.1217124E+00
          1   -1    0    0  501    0  0.00000000000E+00  0.00000000000E+00  0.16693329335E+03  0.16693329335E+03  0.00000000000E+00 0. -1.
         -1   -1    0    0    0  501 -0.00000000000E+00 -0.00000000000E+00 -0.20854872310E+03  0.20854872310E+03  0.00000000000E+00 0.  1.
         25    2    1    2    0    0 -0.10314130917E+03 -0.61345470657E+00 -0.13430973341E+03  0.21053449920E+03  0.12508862810E+03 0.  0.
         23    2    1    2    0    0  0.10314130917E+03  0.61345470657E+00  0.92694303663E+02  0.16494751725E+03  0.89313736527E+02 0.  0.
          5    1    3    3  502    0 -0.11770911629E+03  0.12112851683E+02 -0.58278256781E+02  0.13196963608E+03  0.41800000000E+01 0.  1.
         -5    1    3    3    0  502  0.14567807119E+02 -0.12726306389E+02 -0.76031476629E+02  0.78564863120E+02  0.41800000000E+01 0.  1.
        -11    1    4    4    0    0  0.27944955106E+02 -0.41515823985E+02  0.38388330606E+02  0.63072562051E+02  0.00000000000E+00 0.  1.
         11    1    4    4    0    0  0.75196354063E+02  0.42129278692E+02  0.54305973057E+02  0.10187495520E+03  0.00000000000E+00 0. -1.
</event>
<event>
 8    1  0.7052796E-009  0.1124933E+03  0.7561462E-02  0.1256021E+00
         -2   -1    0    0    0  501 -0.00000000000E+00  0.00000000000E+00  0.10549998200E+02  0.10549998200E+02  0.00000000000E+00 0.  1.
          2   -1    0    0  501    0  0.00000000000E+00 -0.00000000000E+00 -0.13215631143E+04  0.13215631143E+04  0.00000000000E+00 0. -1.
         25    2    1    2    0    0  0.29090596027E+02  0.33001858077E+02 -0.87374939111E+03  0.88375195166E+03  0.12507648935E+03 0.  0.
         23    2    1    2    0    0 -0.29090596027E+02 -0.33001858077E+02 -0.43726372500E+03  0.44836116084E+03  0.88841318894E+02 0.  0.
          5    1    3    3  502    0 -0.43277224086E+02  0.39646210732E+02 -0.33859259516E+03  0.34366721992E+03  0.41800000000E+01 0.  1.
         -5    1    3    3    0  502  0.72367820113E+02 -0.66443526543E+01 -0.53515679594E+03  0.54008473174E+03  0.41800000000E+01 0.  1.
        -11    1    4    4    0    0  0.28671259224E+02 -0.47833678887E+01 -0.74965333611E+02  0.80403500902E+02  0.00000000000E+00 0.  1.
         11    1    4    4    0    0 -0.57761855251E+02 -0.28218490189E+02 -0.36229839138E+03  0.36795765994E+03  0.00000000000E+00 0. -1.
</event>
<event>
 8    1  0.7052796E-009  0.1220137E+03  0.7561462E-02  0.1239812E+00
         -2   -1    0    0    0  501 -0.00000000000E+00  0.00000000000E+00  0.44271419566E+03  0.44271419566E+03  0.00000000000E+00 0.  1.
          2   -1    0    0  501    0  0.00000000000E+00 -0.00000000000E+00 -0.52576708992E+02  0.52576708992E+02  0.00000000000E+00 0. -1.
         25    2    1    2    0    0 -0.10496857642E+03  0.14722076391E+02  0.19419401422E+03  0.25415629036E+03  0.12509581609E+03 0.  0.
         23    2    1    2    0    0  0.10496857642E+03 -0.14722076391E+02  0.19594347244E+03  0.24113461429E+03  0.92287140200E+02 0.  0.
          5    1    3    3  502    0 -0.10950746231E+03 -0.88295709915E+01  0.20080141725E+03  0.22892908770E+03  0.41800000000E+01 0.  1.
         -5    1    3    3    0  502  0.45388858928E+01  0.23551647383E+02 -0.66074030235E+01  0.25227202665E+02  0.41800000000E+01 0.  1.
        -11    1    4    4    0    0  0.85776765279E+02 -0.23046824278E+02  0.20088073893E+03  0.21964034430E+03  0.00000000000E+00 0.  1.
         11    1    4    4    0    0  0.19191811139E+02  0.83247478865E+01 -0.49372664827E+01  0.21494269992E+02  0.00000000000E+00 0. -1.
</event>
<event>
 8    1  0.7052796E-009  0.1047915E+03  0.7561462E-02  0.1270531E+00
         -1   -1    0    0    0  501 -0.00000000000E+00  0.00000000000E+00  0.81699704987E+02  0.81699704987E+02  0.00000000000E+00 0.  1.
          1   -1    0    0  501    0  0.00000000000E+00 -0.00000000000E+00 -0.16361057124E+03  0.16361057124E+03  0.00000000000E+00 0. -1.
         25    2    1    2    0    0 -0.14386855781E+02 -0.42454787188E+01 -0.53607766073E+01  0.12610147328E+03  0.12509131836E+03 0.  0.
         23    2    1    2    0    0  0.14386855781E+02  0.42454787188E+01 -0.76550089648E+02  0.11920880294E+03  0.90143312373E+02 0.  0.
          5    1    3    3  502    0 -0.50688921753E+02  0.37710753786E+02 -0.23567107756E+02  0.67559963792E+02  0.41800000000E+01 0. -1.
         -5    1    3    3    0  502  0.36302065972E+02 -0.41956232504E+02  0.18206331149E+02  0.58541509493E+02  0.41800000000E+01 0. -1.
        -11    1    4    4    0    0  0.32561760745E+02 -0.34740051884E+02 -0.32552690550E+02  0.57678567334E+02  0.00000000000E+00 0.  1.
         11    1    4    4    0    0 -0.18174904965E+02  0.38985530602E+02 -0.43997399098E+02  0.61530235610E+02  0.00000000000E+00 0. -1.
</event>
<event>
 8    1  0.7052796E-009  0.1656520E+03  0.7561462E-02  0.1182460E+00
          2   -1    0    0  501    0  0.00000000000E+00  0.00000000000E+00  0.42330766133E+03  0.42330766133E+03  0.00000000000E+00 0. -1.
         -2   -1    0    0    0  501 -0.00000000000E+00 -0.00000000000E+00 -0.26938993788E+03  0.26938993788E+03  0.00000000000E+00 0.  1.
         25    2    1    2    0    0  0.13453104713E+03  0.75110431023E+02 -0.20911256620E+03  0.28830481726E+03  0.12510564664E+03 0.  0.
         23    2    1    2    0    0 -0.13453104713E+03 -0.75110431023E+02  0.36303028965E+03  0.40439278195E+03  0.89455862849E+02 0.  0.
          5    1    3    3  502    0  0.54662376029E+02  0.44559107615E+02 -0.97243914730E+01  0.71312871308E+02  0.41800000000E+01 0. -1.
         -5    1    3    3    0  502  0.79868671097E+02  0.30551323408E+02 -0.19938817473E+03  0.21699194595E+03  0.41800000000E+01 0. -1.
        -11    1    4    4    0    0 -0.54186369624E+02  0.13078492949E+02  0.82691295668E+02  0.99724921710E+02  0.00000000000E+00 0.  1.
         11    1    4    4    0    0 -0.80344677503E+02 -0.88188923972E+02  0.28033899399E+03  0.30466786024E+03  0.00000000000E+00 0. -1.
</event>
<event>
 8    1  0.7052796E-009  0.1493787E+03  0.7561462E-02  0.1201238E+00
          1   -1    0    0  501    0  0.00000000000E+00  0.00000000000E+00  0.36943177441E+02  0.36943177441E+02  0.00000000000E+00 0. -1.
         -1   -1    0    0    0  501 -0.00000000000E+00 -0.00000000000E+00 -0.64570029270E+03  0.64570029270E+03  0.00000000000E+00 0.  1.
         25    2    1    2    0    0 -0.62836352369E+02  0.84300530739E+02 -0.28288407541E+03  0.32668906872E+03  0.12508941138E+03 0.  0.
         23    2    1    2    0    0  0.62836352369E+02 -0.84300530739E+02 -0.32587303986E+03  0.35595440143E+03  0.97238424129E+02 0.  0.
          5    1    3    3  502    0  0.16855120083E+02 -0.23516141255E+02 -0.47934532398E+02  0.56145309410E+02  0.41800000000E+01 0. -1.
         -5    1    3    3    0  502 -0.79691472452E+02  0.10781667199E+03 -0.23494954301E+03  0.27054375931E+03  0.41800000000E+01 0. -1.
        -11    1    4    4    0    0 -0.13867040678E+02 -0.49049041151E+02 -0.18339128337E+03  0.19034302212E+03  0.00000000000E+00 0.  1.
         11    1    4    4    0    0  0.76703393047E+02 -0.35251489588E+02 -0.14248175649E+03  0.16561137931E+03  0.00000000000E+00 0. -1.
</event>
<event>
 8    1  0.7052796E-009  0.1141401E+03  0.7561462E-02  0.1253090E+00
         -1   -1    0    0    0  501 -0.00000000000E+00  0.00000000000E+00  0.30130641958E+02  0.30130641958E+02  0.00000000000E+00 0.  1.
          1   -1    0    0  501    0  0.00000000000E+00 -0.00000000000E+00 -0.58321977829E+03  0.58321977829E+03  0.00000000000E+00 0. -1.
         25    2    1    2    0    0  0.66069383816E+02 -0.34813838670E+02 -0.30987808406E+03  0.34241644094E+03  0.12508966864E+03 0.  0.
         23    2    1    2    0    0 -0.66069383816E+02  0.34813838670E+02 -0.24321105227E+03  0.27093397931E+03  0.93147401239E+02 0.  0.
          5    1    3    3  502    0 -0.31252671075E+02 -0.61092109056E+01 -0.27327342269E+02  0.42169988650E+02  0.41800000000E+01 0.  1.
         -5    1    3    3    0  502  0.97322054891E+02 -0.28704627765E+02 -0.28255074179E+03  0.30024645229E+03  0.41800000000E+01 0.  1.
        -11    1    4    4    0    0 -0.17433557511E+01  0.30057766015E+02 -0.14721465063E+02  0.33514625474E+02  0.00000000000E+00 0.  1.
         11    1    4    4    0    0 -0.64326028065E+02  0.47560726554E+01 -0.22848958721E+03  0.23741935384E+03  0.00000000000E+00 0. -1.
</event>
<event>
 8    1  0.7052796E-009  0.9101325E+02  0.7561462E-02  0.1300416E+00
          1   -1    0    0  501    0  0.00000000000E+00  0.00000000000E+00  0.47610981785E+02  0.47610981785E+02  0.00000000000E+00 0. -1.
         -1   -1    0    0    0  501 -0.00000000000E+00 -0.00000000000E+00 -0.62806086314E+03  0.62806086314E+03  0.00000000000E+00 0.  1.
         25    2    1    2    0    0  0.80751303792E+00 -0.36446554745E+02 -0.55921713586E+03  0.57419522980E+03  0.12508938188E+03 0.  0.
         23    2    1    2    0    0 -0.80751303792E+00  0.36446554745E+02 -0.21232745493E+02  0.10147661512E+03  0.92291226586E+02 0.  0.
          5    1    3    3  502    0 -0.50199819891E+02 -0.17206011950E+02 -0.11614452713E+03  0.12776185795E+03  0.41800000000E+01 0.  1.
         -5    1    3    3    0  502  0.51007332929E+02 -0.19240542794E+02 -0.44307260872E+03  0.44643337185E+03  0.41800000000E+01 0.  1.
        -11    1    4    4    0    0 -0.27195033983E+01  0.55201154496E+02 -0.44907741560E+02  0.71212838789E+02  0.00000000000E+00 0.  1.
         11    1    4    4    0    0  0.19119903604E+01 -0.18754599751E+02  0.23674996067E+02  0.30263776330E+02  0.00000000000E+00 0. -1.
</event>
<event>
 8    1  0.7052796E-009  0.9922490E+02  0.7561462E-02  0.1281934E+00
          1   -1    0    0  501    0  0.00000000000E+00  0.00000000000E+00  0.79317791443E+03  0.79317791443E+03  0.00000000000E+00 0. -1.
         -1   -1    0    0    0  501 -0.00000000000E+00 -0.00000000000E+00 -0.23953914184E+02  0.23953914184E+02  0.00000000000E+00 0.  1.
         25    2    1    2    0    0  0.59749255552E+02  0.14095161469E+02  0.60999272855E+03  0.62570558753E+03  0.12509079211E+03 0.  0.
         23    2    1    2    0    0 -0.59749255552E+02 -0.14095161469E+02  0.15923127169E+03  0.19142624108E+03  0.86722319922E+02 0.  0.
          5    1    3    3  502    0 -0.56003805880E+00  0.30489799101E+02  0.32264248284E+02  0.44591429773E+02  0.41800000000E+01 0.  1.
         -5    1    3    3    0  502  0.60309293611E+02 -0.16394637631E+02  0.57772848027E+03  0.58111415776E+03  0.41800000000E+01 0.  1.
        -11    1    4    4    0    0 -0.49701604543E+02  0.31168802008E+02  0.74364307474E+02  0.94719554152E+02  0.00000000000E+00 0. -1.
         11    1    4    4    0    0 -0.10047651009E+02 -0.45263963477E+02  0.84866964220E+02  0.96706686927E+02  0.00000000000E+00 0.  1.
</event>
<event>
 8    1  0.7052796E-009  0.1710596E+03  0.7561462E-02  0.1176747E+00
         -2   -1    0    0    0  501 -0.00000000000E+00  0.00000000000E+00  0.16843929317E+02  0.16843929317E+02  0.00000000000E+00 0.  1.
          2   -1    0    0  501    0  0.00000000000E+00 -0.00000000000E+00 -0.18988136421E+04  0.18988136421E+04  0.00000000000E+00 0. -1.
         25    2    1    2    0    0  0.91712084870E+02  0.10092930433E+03 -0.12025612535E+04  0.12167165835E+04  0.12509134742E+03 0.  0.
         23    2    1    2    0    0 -0.91712084870E+02 -0.10092930433E+03 -0.67940845928E+03  0.69894098790E+03  0.91240446295E+02 0.  0.
          5    1    3    3  502    0  0.11199349990E+03  0.37268097161E+02 -0.76285483688E+03  0.77194328136E+03  0.41800000000E+01 0. -1.
         -5    1    3    3    0  502 -0.20281415028E+02  0.63661207167E+02 -0.43970641661E+03  0.44477330215E+03  0.41800000000E+01 0. -1.
        -11    1    4    4    0    0 -0.80164209049E+02 -0.30612538555E+02 -0.46921743529E+03  0.47699940200E+03  0.00000000000E+00 0. -1.
         11    1    4    4    0    0 -0.11547875821E+02 -0.70316765773E+02 -0.21019102399E+03  0.22194158590E+03  0.00000000000E+00 0.  1.
</event>
<event>
 8    1  0.7052796E-009  0.9835883E+02  0.7561462E-02  0.1283785E+00
          1   -1    0    0  501    0  0.00000000000E+00  0.00000000000E+00  0.70549076726E+02  0.70549076726E+02  0.00000000000E+00 0. -1.
         -1   -1    0    0    0  501 -0.00000000000E+00 -0.00000000000E+00 -0.31009826002E+03  0.31009826002E+03  0.00000000000E+00 0.  1.
         25    2    1    2    0    0  0.38507275744E+02  0.52889893793E+02 -0.32428400172E+02  0.14484665284E+03  0.12509516598E+03 0.  0.
         23    2    1    2    0    0 -0.38507275744E+02 -0.52889893793E+02 -0.20712078312E+03  0.23580068390E+03  0.91775773371E+02 0.  0.
          5    1    3    3  502    0  0.69994759890E+02  0.49217865064E+02 -0.58376499975E+02  0.10366751084E+03  0.41800000000E+01 0.  1.
         -5    1    3    3    0  502 -0.31487484146E+02  0.36720287294E+01  0.25948099804E+02  0.41179142005E+02  0.41800000000E+01 0.  1.
        -11    1    4    4    0    0 -0.76896692292E+00 -0.38774143070E+02 -0.18659362812E+03  0.19058123606E+03  0.00000000000E+00 0.  1.
         11    1    4    4    0    0 -0.37738308822E+02 -0.14115750723E+02 -0.20527154998E+02  0.45219447846E+02  0.00000000000E+00 0. -1.
</event>
<event>
 8    1  0.7052796E-009  0.1225831E+03  0.7561462E-02  0.1238896E+00
         -1   -1    0    0    0  501 -0.00000000000E+00  0.00000000000E+00  0.17850107284E+03  0.17850107284E+03  0.00000000000E+00 0.  1.
          1   -1    0    0  501    0  0.00000000000E+00 -0.00000000000E+00 -0.12306988081E+03  0.12306988081E+03  0.00000000000E+00 0. -1.
         25    2    1    2    0    0 -0.71037018465E+02 -0.68646431055E+02 -0.11843010798E+00  0.15939675001E+03  0.12509484162E+03 0.  0.
         23    2    1    2    0    0  0.71037018465E+02  0.68646431055E+02  0.55549622137E+02  0.14217420364E+03  0.85843771895E+02 0.  0.
          5    1    3    3  502    0 -0.81608556704E+02 -0.24492847117E+02 -0.44113330167E+02  0.96038088203E+02  0.41800000000E+01 0.  1.
         -5    1    3    3    0  502  0.10571538239E+02 -0.44153583937E+02  0.43994900059E+02  0.63358661811E+02  0.41800000000E+01 0.  1.
        -11    1    4    4    0    0  0.48555621964E+02  0.75182774651E+01 -0.95872151488E+01  0.50060839132E+02  0.00000000000E+00 0. -1.
         11    1    4    4    0    0  0.22481396502E+02  0.61128153590E+02  0.65136837286E+02  0.92113364511E+02  0.00000000000E+00 0.  1.
</event>
<event>
 8    1  0.7052796E-009  0.1225777E+03  0.7561462E-02  0.1238904E+00
         -1   -1    0    0    0  501 -0.00000000000E+00  0.00000000000E+00  0.86650831116E+02  0.86650831116E+02  0.00000000000E+00 0.  1.
          1   -1    0    0  501    0  0.00000000000E+00 -0.00000000000E+00 -0.19519140699E+03  0.19519140699E+03  0.00000000000E+00 0. -1.
         25    2    1    2    0    0  0.52183989588E+02 -0.40842424842E+02 -0.94373649077E+02  0.17013207428E+03  0.12508902679E+03 0.  0.
         23    2    1    2    0    0 -0.52183989588E+02  0.40842424842E+02 -0.14166926802E+02  0.11171016383E+03  0.88809833077E+02 0.  0.
          5    1    3    3  502    0  0.88307337461E+02 -0.13890613532E+02 -0.85971423667E+02  0.12409549984E+03  0.41800000000E+01 0. -1.
         -5    1    3    3    0  502 -0.36123347872E+02 -0.26951811309E+02 -0.84022254102E+01  0.46036574440E+02  0.41800000000E+01 0. -1.
        -11    1    4    4    0    0 -0.72904528393E+02  0.49313040427E+02 -0.74101061285E+01  0.88327548869E+02  0.00000000000E+00 0.  1.
         11    1    4    4    0    0  0.20720538805E+02 -0.84706155848E+01 -0.67568206733E+01  0.23382614960E+02  0.00000000000E+00 0. -1.
</event>
<event>
 8    1  0.7052796E-009  0.1097632E+03  0.7561462E-02  0.1261009E+00
          3   -1    0    0  501    0  0.00000000000E+00  0.00000000000E+00  0.28017745560E+03  0.28017745560E+03  0.00000000000E+00 0. -1.
         -3   -1    0    0    0  501 -0.00000000000E+00 -0.00000000000E+00 -0.61993557531E+02  0.61993557531E+02  0.00000000000E+00 0.  1.
         25    2    1    2    0    0  0.70123356336E+01  0.36736703277E+02  0.20274383813E+03  0.24114647646E+03  0.12509117071E+03 0.  0.
         23    2    1    2    0    0 -0.70123356336E+01 -0.36736703277E+02  0.15440059936E+02  0.10102453667E+03  0.92567831021E+02 0.  0.
          5    1    3    3  502    0 -0.41371874485E+02 -0.24191441964E+02  0.10972031072E+03  0.11980349263E+03  0.41800000000E+01 0. -1.
         -5    1    3    3    0  502  0.48384210119E+02  0.60928145241E+02  0.93023527411E+02  0.12134298382E+03  0.41800000000E+01 0. -1.
        -11    1    4    4    0    0  0.30440255043E+01 -0.64192391419E+02 -0.63230915551E+01  0.64574845677E+02  0.00000000000E+00 0.  1.
         11    1    4    4    0    0 -0.10056361138E+02  0.27455688142E+02  0.21763151491E+02  0.36449690994E+02  0.00000000000E+00 0. -1.
</event>
<event>
 8    1  0.7052796E-009  0.1498984E+03  0.7561462E-02  0.1200598E+00
         -2   -1    0    0    0  501 -0.00000000000E+00  0.00000000000E+00  0.35744488797E+02  0.35744488797E+02  0.00000000000E+00 0.  1.
          2   -1    0    0  501    0  0.00000000000E+00 -0.00000000000E+00 -0.63930206883E+03  0.63930206883E+03  0.00000000000E+00 0. -1.
         25    2    1    2    0    0  0.90807208074E+02 -0.51277996545E+02 -0.29548838883E+03  0.33739666684E+03  0.12509093051E+03 0.  0.
         23    2    1    2    0    0 -0.90807208074E+02  0.51277996545E+02 -0.30806919121E+03  0.33764989079E+03  0.90694212657E+02 0.  0.
          5    1    3    3  502    0 -0.31463959683E+02 -0.14264263150E+02 -0.71024606464E+02  0.79091194741E+02  0.41800000000E+01 0.  1.
         -5    1    3    3    0  502  0.12227116776E+03 -0.37013733395E+02 -0.22446378236E+03  0.25830547210E+03  0.41800000000E+01 0.  1.
        -11    1    4    4    0    0 -0.94833311999E+02  0.70101308232E+02 -0.24882263700E+03  0.27535478053E+03  0.00000000000E+00 0.  1.
         11    1    4    4    0    0  0.40261039251E+01 -0.18823311687E+02 -0.59246554214E+02  0.62295110256E+02  0.00000000000E+00 0. -1.
</event>
<event>
 8    1  0.7052796E-009  0.1732214E+03  0.7561462E-02  0.1174529E+00
          1   -1    0    0  501    0  0.00000000000E+00  0.00000000000E+00  0.17396061438E+04  0.17396061438E+04  0.00000000000E+00 0. -1.
         -1   -1    0    0    0  501 -0.00000000000E+00 -0.00000000000E+00 -0.27386629779E+02  0.27386629779E+02  0.00000000000E+00 0.  1.
         25    2    1    2    0    0 -0.14452948803E+03 -0.18348022752E+02  0.13732801667E+04  0.13866402267E+04  0.12508908448E+03 0.  0.
         23    2    1    2    0    0  0.14452948803E+03  0.18348022752E+02  0.33893934726E+03  0.38035254687E+03  0.92535160553E+02 0.  0.
          5    1    3    3  502    0 -0.13874226388E+02  0.40144776034E+02  0.48670494136E+03  0.48857268604E+03  0.41800000000E+01 0.  1.
         -5    1    3    3    0  502 -0.13065526165E+03 -0.58492798786E+02  0.88657522536E+03  0.89806754063E+03  0.41800000000E+01 0.  1.
        -11    1    4    4    0    0  0.10030684054E+03 -0.19688324963E+02  0.27705477911E+03  0.29531075670E+03  0.00000000000E+00 0. -1.
         11    1    4    4    0    0  0.44222647495E+02  0.38036347715E+02  0.61884568148E+02  0.85041790161E+02  0.00000000000E+00 0.  1.
</event>
<event>
 8    1  0.7052796E-009  0.1185246E+03  0.7561462E-02  0.1245551E+00
          4   -1    0    0  501    0  0.00000000000E+00  0.00000000000E+00  0.14202534464E+03  0.14202534464E+03  0.00000000000E+00 0. -1.
         -4   -1    0    0    0  501 -0.00000000000E+00 -0.00000000000E+00 -0.11853555581E+03  0.11853555581E+03  0.00000000000E+00 0.  1.
         25    2    1    2    0    0 -0.32540533744E+02  0.57026628559E+02  0.39708025518E+02  0.14675026962E+03  0.12509193276E+03 0.  0.
         23    2    1    2    0    0  0.32540533744E+02 -0.57026628559E+02 -0.16218236690E+02  0.11381063083E+03  0.91536363199E+02 0.  0.
          5    1    3    3  502    0 -0.54482469885E+02 -0.22174009418E+02  0.15501971294E+02  0.60973844658E+02  0.41800000000E+01 0. -1.
         -5    1    3    3    0  502  0.21941936141E+02  0.79200637977E+02  0.24206054224E+02  0.85776424959E+02  0.41800000000E+01 0. -1.
        -11    1    4    4    0    0 -0.21977722383E+02 -0.21309948162E+02 -0.34495596678E+02  0.46120281461E+02  0.00000000000E+00 0.  1.
         11    1    4    4    0    0  0.54518256127E+02 -0.35716680397E+02  0.18277359989E+02  0.67690349370E+02  0.00000000000E+00 0. -1.
</event>
<event>
 8    1  0.7052796E-009  0.9816487E+02  0.7561462E-02  0.1284203E+00
          2   -1    0    0  501    0  0.00000000000E+00  0.00000000000E+00  0.32533625785E+02  0.32533625785E+02  0.00000000000E+00 0. -1.
         -2   -1    0    0    0  501 -0.00000000000E+00 -0.00000000000E+00 -0.41017095507E+03  0.41017095507E+03  0.00000000000E+00 0.  1.
         25    2    1    2    0    0  0.21383840829E+02 -0.18423663659E+02 -0.17844954997E+03  0.21974771965E+03  0.12509243932E+03 0.  0.
         23    2    1    2    0    0 -0.21383840829E+02  0.18423663659E+02 -0.19918777932E+03  0.22295686121E+03  0.96110824053E+02 0.  0.
          5    1    3    3  502    0 -0.29464057210E+02 -0.54041560096E+02 -0.11715228121E+03  0.13240373967E+03  0.41800000000E+01 0. -1.
         -5    1    3    3    0  502  0.50847898039E+02  0.35617896437E+02 -0.61297268759E+02  0.87343979981E+02  0.41800000000E+01 0. -1.
        -11    1    4    4    0    0  0.89855492791E+01  0.36149765475E+02 -0.24084663775E+02  0.44357825340E+02  0.00000000000E+00 0. -1.
         11    1    4    4    0    0 -0.30369390108E+02 -0.17726101816E+02 -0.17510311554E+03  0.17859903587E+03  0.00000000000E+00 0.  1.
</event>
<event>
 8    1  0.7052796E-009  0.5800287E+02  0.7561462E-02  0.1406409E+00
          1   -1    0    0  501    0  0.00000000000E+00  0.00000000000E+00  0.46197149812E+03  0.46197149812E+03  0.00000000000E+00 0. -1.
         -1   -1    0    0    0  501 -0.00000000000E+00 -0.00000000000E+00 -0.30355585530E+02  0.30355585530E+02  0.00000000000E+00 0.  1.
         25    2    1    2    0    0 -0.30109403276E+02  0.37600136896E+02  0.26298971179E+03  0.29517961066E+03  0.12508823919E+03 0.  0.
         23    2    1    2    0    0  0.30109403276E+02 -0.37600136896E+02  0.16862620080E+03  0.19714747299E+03  0.90066553439E+02 0.  0.
          5    1    3    3  502    0 -0.21364583271E+02  0.33908757666E+02  0.27578242780E+03  0.27871072665E+03  0.41800000000E+01 0. -1.
         -5    1    3    3    0  502 -0.87448200049E+01  0.36913792299E+01 -0.12792716016E+02  0.16468884012E+02  0.41800000000E+01 0. -1.
        -11    1    4    4    0    0  0.31072999176E+02 -0.35502490424E+01  0.15857824269E+03  0.16163290074E+03  0.00000000000E+00 0. -1.
         11    1    4    4    0    0 -0.96359590011E+00 -0.34049887853E+02  0.10047958111E+02  0.35514572250E+02  0.00000000000E+00 0.  1.
</event>
<event>
 8    1  0.7052796E-009  0.8446221E+02  0.7561462E-02  0.1316845E+00
         -1   -1    0    0    0  501 -0.00000000000E+00  0.00000000000E+00  0.10774161554E+03  0.10774161554E+03  0.00000000000E+00 0.  1.
          1   -1    0    0  501    0  0.00000000000E+00 -0.00000000000E+00 -0.15244568357E+03  0.15244568357E+03  0.00000000000E+00 0. -1.
         25    2    1    2    0    0  0.51214848861E+02 -0.24122137157E+02  0.14550450225E+02  0.13807391049E+03  0.12509137026E+03 0.  0.
         23    2    1    2    0    0 -0.51214848861E+02  0.24122137157E+02 -0.59254518248E+02  0.12211338862E+03  0.90530345748E+02 0.  0.
          5    1    3    3  502    0  0.66367281108E+01 -0.53675006647E+02 -0.35398669099E+02  0.64773379351E+02  0.41800000000E+01 0.  1.
         -5    1    3    3    0  502  0.44578120750E+02  0.29552869490E+02  0.49949119324E+02  0.73300531144E+02  0.41800000000E+01 0.  1.
        -11    1    4    4    0    0 -0.39825004931E+02  0.28347367514E+02  0.11586775859E+02  0.50238009888E+02  0.00000000000E+00 0.  1.
         11    1    4    4    0    0 -0.11389843930E+02 -0.42252303570E+01 -0.70841294107E+02  0.71875378727E+02  0.00000000000E+00 0. -1.
</event>
<event>
 8    1  0.7052796E-009  0.1026789E+03  0.7561462E-02  0.1274761E+00
          1   -1    0    0  501    0  0.00000000000E+00  0.00000000000E+00  0.19515782633E+03  0.19515782633E+03  0.00000000000E+00 0. -1.
         -1   -1    0    0    0  501 -0.00000000000E+00 -0.00000000000E+00 -0.11199457746E+03  0.11199457746E+03  0.00000000000E+00 0.  1.
         25    2    1    2    0    0  0.57998075959E+02  0.82558779361E+02  0.42302955093E+02  0.16618024665E+03  0.12508639215E+03 0.  0.
         23    2    1    2    0    0 -0.57998075959E+02 -0.82558779361E+02  0.40860293778E+02  0.14097215715E+03  0.89575982372E+02 0.  0.
          5    1    3    3  502    0  0.22557976342E+02  0.15053057916E+02 -0.43430744362E+02  0.51372743796E+02  0.41800000000E+01 0.  1.
         -5    1    3    3    0  502  0.35440099617E+02  0.67505721445E+02  0.85733699455E+02  0.11480750285E+03  0.41800000000E+01 0.  1.
        -11    1    4    4    0    0 -0.41463932613E+02 -0.49298649312E+02 -0.21905006947E+02  0.68040016616E+02  0.00000000000E+00 0.  1.
         11    1    4    4    0    0 -0.16534143346E+02 -0.33260130049E+02  0.62765300725E+02  0.72932140529E+02  0.00000000000E+00 0. -1.
</event>
<event>
 8    1  0.7052796E-009  0.1211125E+03  0.7561462E-02  0.1241273E+00
          4   -1    0    0  501    0  0.00000000000E+00  0.00000000000E+00  0.30282383787E+02  0.30282383787E+02  0.00000000000E+00 0. -1.
         -4   -1    0    0    0  501 -0.00000000000E+00 -0.00000000000E+00 -0.77685275646E+03  0.77685275646E+03  0.00000000000E+00 0.  1.
         25    2    1    2    0    0  0.47301189924E+02  0.66090884924E+02 -0.59092073522E+03  0.60945897600E+03  0.12509004946E+03 0.  0.
         23    2    1    2    0    0 -0.47301189924E+02 -0.66090884924E+02 -0.15564963745E+03  0.19767616425E+03  0.90794540773E+02 0.  0.
          5    1    3    3  502    0  0.81516373066E+02  0.17711107996E+02 -0.25511194067E+03  0.26843654203E+03  0.41800000000E+01 0.  1.
         -5    1    3    3    0  502 -0.34215183143E+02  0.48379776927E+02 -0.33580879455E+03  0.34102243397E+03  0.41800000000E+01 0.  1.
        -11    1    4    4    0    0 -0.15207720037E+02  0.89760739028E+01  0.42299767681E+01  0.18158671617E+02  0.00000000000E+00 0. -1.
         11    1    4    4    0    0 -0.32093469886E+02 -0.75066958827E+02 -0.15987961422E+03  0.17951749263E+03  0.00000000000E+00 0.  1.
</event>
<event>
 8    1  0.7052796E-009  0.9995815E+02  0.7561462E-02  0.1280384E+00
          1   -1    0    0  501    0  0.00000000000E+00  0.00000000000E+00  0.13144150340E+03  0.13144150340E+03  0.00000000000E+00 0. -1.
         -1   -1    0    0    0  501 -0.00000000000E+00 -0.00000000000E+00 -0.14935045294E+03  0.14935045294E+03  0.00000000000E+00 0.  1.
         25    2    1    2    0    0  0.55566615481E+02 -0.32827876664E+02 -0.69257346887E+02  0.15687474130E+03  0.12509111126E+03 0.  0.
         23    2    1    2    0    0 -0.55566615481E+02  0.32827876664E+02  0.51348397344E+02  0.12391721504E+03  0.92485134105E+02 0.  0.
          5    1    3    3  502    0 -0.17768322123E+02  0.26761164910E+02 -0.51191473012E+02  0.60579802967E+02  0.41800000000E+01 0. -1.
         -5    1    3    3    0  502  0.73334937605E+02 -0.59589041573E+02 -0.18065873875E+02  0.96294938330E+02  0.41800000000E+01 0. -1.
        -11    1    4    4    0    0 -0.22711737414E+02  0.33026566858E+02 -0.20421295910E+02  0.44984513573E+02  0.00000000000E+00 0.  1.
         11    1    4    4    0    0 -0.32854878067E+02 -0.19869019359E+00  0.71769693254E+02  0.78932701464E+02  0.00000000000E+00 0. -1.
</event>
<event>
 8    1  0.7052796E-009  0.7518758E+02  0.7561462E-02  0.1343291E+00
         -3   -1    0    0    0  501 -0.00000000000E+00  0.00000000000E+00  0.39086170607E+02  0.39086170607E+02  0.00000000000E+00 0.  1.
          3   -1    0    0  501    0  0.00000000000E+00 -0.00000000000E+00 -0.35018847603E+03  0.35018847603E+03  0.00000000000E+00 0. -1.
         25    2    1    2    0    0 -0.17503169716E+02  0.27595395775E+02 -0.22411824925E+03  0.25873543705E+03  0.12508864825E+03 0.  0.
         23    2    1    2    0    0  0.17503169716E+02 -0.27595395775E+02 -0.86984056174E+02  0.13053920959E+03  0.91686380632E+02 0.  0.
          5    1    3    3  502    0 -0.67975607323E+01  0.49535735715E+02 -0.22818453607E+03  0.23363572254E+03  0.41800000000E+01 0. -1.
         -5    1    3    3    0  502 -0.10705608984E+02 -0.21940339940E+02  0.40662868131E+01  0.25099714517E+02  0.41800000000E+01 0. -1.
        -11    1    4    4    0    0  0.37274535461E+01  0.22843896386E+02  0.59567027024E+01  0.23900205420E+02  0.00000000000E+00 0.  1.
         11    1    4    4    0    0  0.13775716170E+02 -0.50439292160E+02 -0.92940758877E+02  0.10663900417E+03  0.00000000000E+00 0. -1.
</event>
<event>
 8    1  0.7052796E-009  0.1039441E+03  0.7561462E-02  0.1272214E+00
          2   -1    0    0  501    0  0.00000000000E+00  0.00000000000E+00  0.52721955955E+02  0.52721955955E+02  0.00000000000E+00 0. -1.
         -2   -1    0    0    0  501 -0.00000000000E+00 -0.00000000000E+00 -0.38001791844E+03  0.38001791844E+03  0.00000000000E+00 0.  1.
         25    2    1    2    0    0  0.34411023205E+02 -0.63350551605E+02 -0.26249908331E+03  0.29958255434E+03  0.12508607924E+03 0.  0.
         23    2    1    2    0    0 -0.34411023205E+02  0.63350551605E+02 -0.64796879174E+02  0.13315732006E+03  0.91295265085E+02 0.  0.
          5    1    3    3  502    0  0.43712820970E+02 -0.82601745999E+02 -0.26155007241E+03  0.27777647838E+03  0.41800000000E+01 0. -1.
         -5    1    3    3    0  502 -0.93017977649E+01  0.19251194394E+02 -0.94901089821E+00  0.21806075964E+02  0.41800000000E+01 0. -1.
        -11    1    4    4    0    0  0.15574556409E+02  0.25398474295E+02 -0.63771795298E+02  0.70388146583E+02  0.00000000000E+00 0.  1.
         11    1    4    4    0    0 -0.49985579614E+02  0.37952077309E+02 -0.10250838758E+01  0.62769173472E+02  0.00000000000E+00 0. -1.
</event>
<event>
 8    1  0.7052796E-009  0.1058964E+03  0.7561462E-02  0.1268363E+00
         -2   -1    0    0    0  501 -0.00000000000E+00  0.00000000000E+00  0.70015600146E+03  0.70015600146E+03  0.00000000000E+00 0.  1.
          2   -1    0    0  501    0  0.00000000000E+00 -0.00000000000E+00 -0.25800461514E+02  0.25800461514E+02  0.00000000000E+00 0. -1.
         25    2    1    2    0    0 -0.37521710221E+02 -0.20578583020E+02  0.55662516660E+03  0.57211012472E+03  0.12508821649E+03 0.  0.
         23    2    1    2    0    0  0.37521710221E+02  0.20578583020E+02  0.11773037335E+03  0.15384633826E+03  0.89313482565E+02 0.  0.
          5    1    3    3  502    0 -0.78173515630E+02 -0.26721672941E+02  0.26610641111E+03  0.27866689933E+03  0.41800000000E+01 0. -1.
         -5    1    3    3    0  502  0.40651805409E+02  0.61430899213E+01  0.29051875548E+03  0.29344322539E+03  0.41800000000E+01 0. -1.
        -11    1    4    4    0    0 -0.17805606585E+02 -0.13871665820E+02  0.42307767157E+01  0.22964368272E+02  0.00000000000E+00 0. -1.
         11    1    4    4    0    0  0.55327316806E+02  0.34450248840E+02  0.11349959664E+03  0.13088196998E+03  0.00000000000E+00 0.  1.
</event>
<event>
 8    1  0.7052796E-009  0.1702021E+03  0.7561462E-02  0.1177637E+00
         -2   -1    0    0    0  501 -0.00000000000E+00  0.00000000000E+00  0.57917212649E+02  0.57917212649E+02  0.00000000000E+00 0.  1.
          2   -1    0    0  501    0  0.00000000000E+00 -0.00000000000E+00 -0.64395404155E+03  0.64395404155E+03  0.00000000000E+00 0. -1.
         25    2    1    2    0    0  0.15286599257E+03 -0.13724454316E+02 -0.23111020052E+03  0.30433128839E+03  0.12509690635E+03 0.  0.
         23    2    1    2    0    0 -0.15286599257E+03  0.13724454316E+02 -0.35492662838E+03  0.39753996581E+03  0.92242834667E+02 0.  0.
          5    1    3    3  502    0  0.13998348499E+03  0.49002693845E+01 -0.10235305093E+03  0.17353100053E+03  0.41800000000E+01 0.  1.
         -5    1    3    3    0  502  0.12882507583E+02 -0.18624723700E+02 -0.12875714958E+03  0.13080028786E+03  0.41800000000E+01 0.  1.
        -11    1    4    4    0    0 -0.33286257437E+02  0.42761291627E+02 -0.13602596391E+03  0.14642255924E+03  0.00000000000E+00 0. -1.
         11    1    4    4    0    0 -0.11957973514E+03 -0.29036837311E+02 -0.21890066447E+03  0.25111740657E+03  0.00000000000E+00 0.  1.
</event>
<event>
 8    1  0.7052796E-009  0.1078337E+03  0.7561462E-02  0.1264635E+00
          1   -1    0    0  501    0  0.00000000000E+00  0.00000000000E+00  0.42912459075E+02  0.42912459075E+02  0.00000000000E+00 0. -1.
         -1   -1    0    0    0  501 -0.00000000000E+00 -0.00000000000E+00 -0.32530573652E+03  0.32530573652E+03  0.00000000000E+00 0.  1.
         25    2    1    2    0    0 -0.43998086860E+02  0.43628634304E+01 -0.14038962664E+03  0.19316516009E+03  0.12509462649E+03 0.  0.
         23    2    1    2    0    0  0.43998086860E+02 -0.43628634304E+01 -0.14200365080E+03  0.17505303551E+03  0.92323681551E+02 0.  0.
          5    1    3    3  502    0  0.24701628799E+02 -0.42415340548E+02 -0.57357623027E+02  0.75608206554E+02  0.41800000000E+01 0. -1.
         -5    1    3    3    0  502 -0.68699715659E+02  0.46778203978E+02 -0.83032003618E+02  0.11755695353E+03  0.41800000000E+01 0. -1.
        -11    1    4    4    0    0 -0.34569870547E+01 -0.29351916497E+02 -0.78553987078E+01  0.30580926251E+02  0.00000000000E+00 0. -1.
         11    1    4    4    0    0  0.47455073915E+02  0.24989053066E+02 -0.13414825209E+03  0.14447210926E+03  0.00000000000E+00 0.  1.
</event>
<event>
 8    1  0.7052796E-009  0.9235427E+02  0.7561462E-02  0.1297249E+00
         -1   -1    0    0    0  501 -0.00000000000E+00  0.00000000000E+00  0.26255760093E+02  0.26255760093E+02  0.00000000000E+00 0.  1.
          1   -1    0    0  501    0  0.00000000000E+00 -0.00000000000E+00 -0.55628169607E+03  0.55628169607E+03  0.00000000000E+00 0. -1.
         25    2    1    2    0    0  0.18121266996E+02  0.17756964965E+02 -0.17989170726E+03  0.22057169185E+03  0.12508858774E+03 0.  0.
         23    2    1    2    0    0 -0.18121266996E+02 -0.17756964965E+02 -0.35013422872E+03  0.36196576431E+03  0.88213073245E+02 0.  0.
          5    1    3    3  502    0  0.65592463686E+01 -0.36562151174E+02 -0.58487792621E+01  0.37835105791E+02  0.41800000000E+01 0. -1.
         -5    1    3    3    0  502  0.11562020627E+02  0.54319116139E+02 -0.17404292800E+03  0.18273658606E+03  0.41800000000E+01 0. -1.
        -11    1    4    4    0    0  0.35888029506E+02 -0.72907482117E+01 -0.12978117154E+03  0.13484901986E+03  0.00000000000E+00 0.  1.
         11    1    4    4    0    0 -0.54009296502E+02 -0.10466216753E+02 -0.22035305718E+03  0.22711674445E+03  0.00000000000E+00 0. -1.
</event>
<event>
 8    1  0.7052796E-009  0.9186425E+02  0.7561462E-02  0.1298399E+00
         -2   -1    0    0    0  501 -0.00000000000E+00  0.00000000000E+00  0.41485492651E+02  0.41485492651E+02  0.00000000000E+00 0. -1.
          2   -1    0    0  501    0  0.00000000000E+00 -0.00000000000E+00 -0.41516000246E+03  0.41516000246E+03  0.00000000000E+00 0.  1.
         25    2    1    2    0    0  0.16391149367E+02 -0.39108578560E+01 -0.33291043460E+03  0.35603291886E+03  0.12508444053E+03 0.  0.
         23    2    1    2    0    0 -0.16391149367E+02  0.39108578560E+01 -0.40764075211E+02  0.10061257625E+03  0.90427960749E+02 0.  0.
          5    1    3    3  502    0 -0.20884681142E+01 -0.62027833309E+02 -0.20567513595E+03  0.21487565649E+03  0.41800000000E+01 0. -1.
         -5    1    3    3    0  502  0.18479617481E+02  0.58116975453E+02 -0.12723529865E+03  0.14115726237E+03  0.41800000000E+01 0. -1.
        -11    1    4    4    0    0 -0.37331274301E+02  0.98926895500E+01  0.14468932734E+02  0.41241233759E+02  0.00000000000E+00 0. -1.
         11    1    4    4    0    0  0.20940124934E+02 -0.59818316940E+01 -0.55233007945E+02  0.59371342492E+02  0.00000000000E+00 0.  1.
</event>
<event>
 8    1  0.7052796E-009  0.9677793E+02  0.7561462E-02  0.1287221E+00
          1   -1    0    0  501    0  0.00000000000E+00  0.00000000000E+00  0.23237242551E+03  0.23237242551E+03  0.00000000000E+00 0. -1.
         -1   -1    0    0    0  501 -0.00000000000E+00 -0.00000000000E+00 -0.84537799991E+02  0.84537799991E+02  0.00000000000E+00 0.  1.
         25    2    1    2    0    0  0.71483134360E+02  0.37946045808E+02  0.12194652555E+03  0.19253116812E+03  0.12509018632E+03 0.  0.
         23    2    1    2    0    0 -0.71483134360E+02 -0.37946045808E+02  0.25888099963E+02  0.12437905737E+03  0.90830695821E+02 0.  0.
          5    1    3    3  502    0  0.47195537488E+02  0.18077093731E+02  0.14484189788E+03  0.15346285498E+03  0.41800000000E+01 0.  1.
         -5    1    3    3    0  502  0.24287596871E+02  0.19868952077E+02 -0.22895372324E+02  0.39068313148E+02  0.41800000000E+01 0.  1.
        -11    1    4    4    0    0 -0.10796936074E+02 -0.48415707961E+02  0.36893654396E+02  0.61820678908E+02  0.00000000000E+00 0. -1.
         11    1    4    4    0    0 -0.60686198286E+02  0.10469662153E+02 -0.11005554433E+02  0.62558378467E+02  0.00000000000E+00 0.  1.
</event>
<event>
 8    1  0.7052796E-009  0.9005001E+02  0.7561462E-02  0.1302731E+00
         -2   -1    0    0    0  501 -0.00000000000E+00  0.00000000000E+00  0.12181946086E+03  0.12181946086E+03  0.00000000000E+00 0.  1.
          2   -1    0    0  501    0  0.00000000000E+00 -0.00000000000E+00 -0.14219999472E+03  0.14219999472E+03  0.00000000000E+00 0. -1.
         25    2    1    2    0    0  0.10484604794E+02 -0.12371239608E+01 -0.85142337737E+02  0.15168327934E+03  0.12508853721E+03 0.  0.
         23    2    1    2    0    0 -0.10484604794E+02  0.12371239608E+01  0.64761803877E+02  0.11233617624E+03  0.91180413669E+02 0.  0.
          5    1    3    3  502    0  0.46477754943E+02  0.38404415448E+02 -0.13125311114E+02  0.61845185927E+02  0.41800000000E+01 0. -1.
         -5    1    3    3    0  502 -0.35993150149E+02 -0.39641539409E+02 -0.72017026623E+02  0.89838093412E+02  0.41800000000E+01 0. -1.
        -11    1    4    4    0    0 -0.69032185437E+01 -0.31894057261E+02  0.71267127573E+02  0.78382962354E+02  0.00000000000E+00 0.  1.
         11    1    4    4    0    0 -0.35813862504E+01  0.33131181222E+02 -0.65053236959E+01  0.33953213884E+02  0.00000000000E+00 0. -1.
</event>
<event>
 8    1  0.7052796E-009  0.1156085E+03  0.7561462E-02  0.1250523E+00
         -4   -1    0    0    0  501 -0.00000000000E+00  0.00000000000E+00  0.37725086513E+03  0.37725086513E+03  0.00000000000E+00 0.  1.
          4   -1    0    0  501    0  0.00000000000E+00 -0.00000000000E+00 -0.52784950365E+02  0.52784950365E+02  0.00000000000E+00 0. -1.
         25    2    1    2    0    0 -0.39285039246E+02 -0.66243379339E+02  0.10137396331E+03  0.17848140139E+03  0.12508969018E+03 0.  0.
         23    2    1    2    0    0  0.39285039246E+02  0.66243379339E+02  0.22309195146E+03  0.25155441411E+03  0.87052310931E+02 0.  0.
          5    1    3    3  502    0 -0.41023445048E+02  0.24088609248E+02  0.65772485401E+02  0.81281463907E+02  0.41800000000E+01 0. -1.
         -5    1    3    3    0  502  0.17384058016E+01 -0.90331988588E+02  0.35601477910E+02  0.97199937481E+02  0.41800000000E+01 0. -1.
        -11    1    4    4    0    0  0.14401160819E+02 -0.67444791560E+01  0.41977393499E+00  0.15907785584E+02  0.00000000000E+00 0. -1.
         11    1    4    4    0    0  0.24883878427E+02  0.72987858495E+02  0.22267217752E+03  0.23564662853E+03  0.00000000000E+00 0.  1.
</event>
<event>
 8    1  0.7052796E-009  0.1127762E+03  0.7561462E-02  0.1255514E+00
         -1   -1    0    0    0  501 -0.00000000000E+00  0.00000000000E+00  0.10007786204E+03  0.10007786204E+03  0.00000000000E+00 0.  1.
          1   -1    0    0  501    0  0.00000000000E+00 -0.00000000000E+00 -0.17211450381E+03  0.17211450381E+03  0.00000000000E+00 0. -1.
         25    2    1    2    0    0 -0.44735332666E+02  0.21372398640E+02 -0.10325767926E+03  0.16961146880E+03  0.12509145698E+03 0.  0.
         23    2    1    2    0    0  0.44735332666E+02 -0.21372398640E+02  0.31221037493E+02  0.10258089706E+03  0.84202481240E+02 0.  0.
          5    1    3    3  502    0 -0.59660766757E+02 -0.39500432406E+02 -0.52316179871E+02  0.88736386711E+02  0.41800000000E+01 0. -1.
         -5    1    3    3    0  502  0.14925434091E+02  0.60872831046E+02 -0.50941499391E+02  0.80875082087E+02  0.41800000000E+01 0. -1.
        -11    1    4    4    0    0  0.57097461791E+02 -0.39279335123E+02  0.38938365322E+02  0.79493286538E+02  0.00000000000E+00 0.  1.
         11    1    4    4    0    0 -0.12362129126E+02  0.17906936483E+02 -0.77173278292E+01  0.23087610520E+02  0.00000000000E+00 0. -1.
</event>
<event>
 8    1  0.7052796E-009  0.1702340E+03  0.7561462E-02  0.1177604E+00
          3   -1    0    0  501    0  0.00000000000E+00  0.00000000000E+00  0.78099150304E+02  0.78099150304E+02  0.00000000000E+00 0. -1.
         -3   -1    0    0    0  501 -0.00000000000E+00 -0.00000000000E+00 -0.74737835243E+03  0.74737835243E+03  0.00000000000E+00 0.  1.
         25    2    1    2    0    0  0.13317161681E+03 -0.76060120771E+02 -0.60418953120E+03  0.63577782669E+03  0.12509449951E+03 0.  0.
         23    2    1    2    0    0 -0.13317161681E+03  0.76060120771E+02 -0.65089670929E+02  0.18969967605E+03  0.90716483264E+02 0.  0.
          5    1    3    3  502    0 -0.91696611347E+01 -0.33767996380E+02 -0.44793863571E+02  0.56994060028E+02  0.41800000000E+01 0.  1.
         -5    1    3    3    0  502  0.14234127794E+03 -0.42292124390E+02 -0.55939566763E+03  0.57878376666E+03  0.41800000000E+01 0.  1.
        -11    1    4    4    0    0 -0.87547376668E+02  0.66805030403E+02 -0.84954254283E+02  0.13908515582E+03  0.00000000000E+00 0.  1.
         11    1    4    4    0    0 -0.45624240137E+02  0.92550903673E+01  0.19864583354E+02  0.50614520225E+02  0.00000000000E+00 0. -1.
</event>
<event>
 8    1  0.7052796E-009  0.4962467E+02  0.7561462E-02  0.1447377E+00
          1   -1    0    0  501    0  0.00000000000E+00  0.00000000000E+00  0.11462079863E+03  0.11462079863E+03  0.00000000000E+00 0. -1.
         -1   -1    0    0    0  501 -0.00000000000E+00 -0.00000000000E+00 -0.10581426201E+03  0.10581426201E+03  0.00000000000E+00 0.  1.
         25    2    1    2    0    0  0.12878616312E+02  0.42726658919E+00 -0.16878139499E+02  0.12687962097E+03  0.12509006879E+03 0.  0.
         23    2    1    2    0    0 -0.12878616312E+02 -0.42726658919E+00  0.25684676120E+02  0.93555439671E+02  0.89033007305E+02 0.  0.
          5    1    3    3  502    0 -0.10666742715E+02 -0.66466646094E+01 -0.68383634214E+02  0.69654514419E+02  0.41800000000E+01 0. -1.
         -5    1    3    3    0  502  0.23545359027E+02  0.70739311985E+01  0.51505494714E+02  0.57225106554E+02  0.41800000000E+01 0. -1.
        -11    1    4    4    0    0 -0.30451141249E+02  0.18186283216E+02  0.47940833513E+02  0.59635026776E+02  0.00000000000E+00 0. -1.
         11    1    4    4    0    0  0.17572524938E+02 -0.18613549806E+02 -0.22256157393E+02  0.33920412895E+02  0.00000000000E+00 0.  1.
</event>
<event>
 8    1  0.7052796E-009  0.1644991E+03  0.7561462E-02  0.1183709E+00
         -1   -1    0    0    0  501 -0.00000000000E+00  0.00000000000E+00  0.28214126382E+03  0.28214126382E+03  0.00000000000E+00 0.  1.
          1   -1    0    0  501    0  0.00000000000E+00 -0.00000000000E+00 -0.11595011514E+03  0.11595011514E+03  0.00000000000E+00 0. -1.
         25    2    1    2    0    0  0.87216246031E+02 -0.11356095985E+03  0.10637187012E+03  0.21786549746E+03  0.12509050747E+03 0.  0.
         23    2    1    2    0    0 -0.87216246031E+02  0.11356095985E+03  0.59819278560E+02  0.18022588150E+03  0.91652916487E+02 0.  0.
          5    1    3    3  502    0  0.11156981886E+03 -0.90719040298E+02  0.11377342423E+03  0.18341110439E+03  0.41800000000E+01 0.  1.
         -5    1    3    3    0  502 -0.24353572829E+02 -0.22841919553E+02 -0.74015541172E+01  0.34454393069E+02  0.41800000000E+01 0.  1.
        -11    1    4    4    0    0 -0.59682143080E+02  0.10800915397E+03  0.78718598296E+02  0.14637128565E+03  0.00000000000E+00 0.  1.
         11    1    4    4    0    0 -0.27534102952E+02  0.55518058817E+01 -0.18899319736E+02  0.33854595853E+02  0.00000000000E+00 0. -1.
</event>
<event>
 8    1  0.7052796E-009  0.8708324E+02  0.7561462E-02  0.1310073E+00
          2   -1    0    0  501    0  0.00000000000E+00  0.00000000000E+00  0.19308389368E+03  0.19308389368E+03  0.00000000000E+00 0. -1.
         -2   -1    0    0    0  501 -0.00000000000E+00 -0.00000000000E+00 -0.76261881449E+02  0.76261881449E+02  0.00000000000E+00 0.  1.
         25    2    1    2    0    0  0.26692015968E+02 -0.39296086149E+02  0.53471822687E+02  0.14410169619E+03  0.12509762956E+03 0.  0.
         23    2    1    2    0    0 -0.26692015968E+02  0.39296086149E+02  0.63350189545E+02  0.12524407894E+03  0.97037037726E+02 0.  0.
          5    1    3    3  502    0  0.47293359413E+02 -0.31038587305E+02 -0.25333907037E+02  0.62123546198E+02  0.41800000000E+01 0.  1.
         -5    1    3    3    0  502 -0.20601343446E+02 -0.82574988441E+01  0.78805729724E+02  0.81978149993E+02  0.41800000000E+01 0.  1.
        -11    1    4    4    0    0  0.27127873150E+02  0.29638084662E+02 -0.17625463518E+01  0.40217460558E+02  0.00000000000E+00 0.  1.
         11    1    4    4    0    0 -0.53819889118E+02  0.96580014875E+01  0.65112735896E+02  0.85026618381E+02  0.00000000000E+00 0. -1.
</event>
<event>
 8    1  0.7052796E-009  0.1251442E+03  0.7561462E-02  0.1234844E+00
         -2   -1    0    0    0  501 -0.00000000000E+00  0.00000000000E+00  0.63716475446E+03  0.63716475446E+03  0.00000000000E+00 0.  1.
          2   -1    0    0  501    0  0.00000000000E+00 -0.00000000000E+00 -0.28136307751E+02  0.28136307751E+02  0.00000000000E+00 0. -1.
         25    2    1    2    0    0  0.59764630591E+02  0.36475802458E+02  0.42372081570E+03  0.44731315478E+03  0.12508970198E+03 0.  0.
         23    2    1    2    0    0 -0.59764630591E+02 -0.36475802458E+02  0.18530763101E+03  0.21798790744E+03  0.90980846582E+02 0.  0.
          5    1    3    3  502    0 -0.41270548499E+01 -0.37599532362E+02  0.63571211237E+02  0.74091353839E+02  0.41800000000E+01 0.  1.
         -5    1    3    3    0  502  0.63891685441E+02  0.74075334820E+02  0.36014960447E+03  0.37322180094E+03  0.41800000000E+01 0.  1.
        -11    1    4    4    0    0 -0.79659409935E+02 -0.86689871277E+01  0.12042358768E+03  0.14464651188E+03  0.00000000000E+00 0. -1.
         11    1    4    4    0    0  0.19894779344E+02 -0.27806815330E+02  0.64884043332E+02  0.73341395563E+02  0.00000000000E+00 0.  1.
</event>
<event>
 8    1  0.7052796E-009  0.1115423E+03  0.7561462E-02  0.1257740E+00
         -1   -1    0    0    0  501 -0.00000000000E+00  0.00000000000E+00  0.34794265834E+03  0.34794265834E+03  0.00000000000E+00 0.  1.
          1   -1    0    0  501    0  0.00000000000E+00 -0.00000000000E+00 -0.60484231189E+02  0.60484231189E+02  0.00000000000E+00 0. -1.
         25    2    1    2    0    0 -0.49467731291E+02 -0.75229457039E+02  0.12115508389E+03  0.19604304278E+03  0.12509113727E+03 0.  0.
         23    2    1    2    0    0  0.49467731291E+02  0.75229457039E+02  0.16630334326E+03  0.21238384675E+03  0.96662137029E+02 0.  0.
          5    1    3    3  502    0 -0.43702212557E+02  0.12008255703E+02  0.93934215126E+02  0.10438003046E+03  0.41800000000E+01 0.  1.
         -5    1    3    3    0  502 -0.57655187343E+01 -0.87237712742E+02  0.27220868760E+02  0.91663012316E+02  0.41800000000E+01 0.  1.
        -11    1    4    4    0    0  0.24108400096E+02  0.37611845787E+02  0.51553182356E+01  0.44971582191E+02  0.00000000000E+00 0. -1.
         11    1    4    4    0    0  0.25359331196E+02  0.37617611252E+02  0.16114802503E+03  0.16741226456E+03  0.00000000000E+00 0.  1.
</event>
<event>
 8    1  0.7052796E-009  0.8912602E+02  0.7561462E-02  0.1304982E+00
         -2   -1    0    0    0  501 -0.00000000000E+00  0.00000000000E+00  0.34074910315E+03  0.34074910315E+03  0.00000000000E+00 0.  1.
          2   -1    0    0  501    0  0.00000000000E+00 -0.00000000000E+00 -0.79030092876E+02  0.79030092876E+02  0.00000000000E+00 0. -1.
         25    2    1    2    0    0 -0.37751732358E+02 -0.40609717955E+02  0.27939747486E+03  0.31110213997E+03  0.12508896852E+03 0.  0.
         23    2    1    2    0    0  0.37751732358E+02  0.40609717955E+02 -0.17678464586E+02  0.10867705606E+03  0.91781435570E+02 0.  0.
          5    1    3    3  502    0 -0.24753939855E+02  0.49791302909E+01  0.25740929143E+03  0.25867849735E+03  0.41800000000E+01 0.  1.
         -5    1    3    3    0  502 -0.12997792503E+02 -0.45588848246E+02  0.21988183427E+02  0.52423642612E+02  0.41800000000E+01 0.  1.
        -11    1    4    4    0    0  0.41893863880E+01 -0.28200616639E+02 -0.14660208215E+02  0.32058500308E+02  0.00000000000E+00 0. -1.
         11    1    4    4    0    0  0.33562345970E+02  0.68810334594E+02 -0.30182563712E+01  0.76618555751E+02  0.00000000000E+00 0.  1.
</event>
<event>
 8    1  0.7052796E-009  0.9658970E+02  0.7561462E-02  0.1287635E+00
          2   -1    0    0  501    0  0.00000000000E+00  0.00000000000E+00  0.19397411342E+03  0.19397411342E+03  0.00000000000E+00 0. -1.
         -2   -1    0    0    0  501 -0.00000000000E+00 -0.00000000000E+00 -0.67045463050E+02  0.67045463050E+02  0.00000000000E+00 0.  1.
         25    2    1    2    0    0 -0.19499307838E+02 -0.11036235219E+02  0.60881913247E+02  0.14091701443E+03  0.12509586764E+03 0.  0.
         23    2    1    2    0    0  0.19499307838E+02  0.11036235219E+02  0.66046737124E+02  0.12010256205E+03  0.97777463820E+02 0.  0.
          5    1    3    3  502    0 -0.59639011202E+02  0.17980892542E+02  0.66119401431E+02  0.90936086343E+02  0.41800000000E+01 0.  1.
         -5    1    3    3    0  502  0.40139703364E+02 -0.29017127762E+02 -0.52374881836E+01  0.49980928084E+02  0.41800000000E+01 0.  1.
        -11    1    4    4    0    0  0.46730296575E+02 -0.85416931927E+01  0.16940557960E+01  0.47534734307E+02  0.00000000000E+00 0.  1.
         11    1    4    4    0    0 -0.27230988738E+02  0.19577928412E+02  0.64352681328E+02  0.72567827738E+02  0.00000000000E+00 0. -1.
</event>
<event>
 8    1  0.7052796E-009  0.1904977E+03  0.7561462E-02  0.1158013E+00
          1   -1    0    0  501    0  0.00000000000E+00  0.00000000000E+00  0.11097446068E+03  0.11097446068E+03  0.00000000000E+00 0. -1.
         -1   -1    0    0    0  501 -0.00000000000E+00 -0.00000000000E+00 -0.39692173039E+03  0.39692173039E+03  0.00000000000E+00 0.  1.
         25    2    1    2    0    0 -0.13021838175E+03 -0.10547369242E+03 -0.23219827452E+03  0.31248146108E+03  0.12508836113E+03 0.  0.
         23    2    1    2    0    0  0.13021838175E+03  0.10547369242E+03 -0.53748995183E+02  0.19541472999E+03  0.84949605507E+02 0.  0.
          5    1    3    3  502    0 -0.47861490653E+02  0.24700069135E+02 -0.47419789500E+02  0.71881322602E+02  0.41800000000E+01 0. -1.
         -5    1    3    3    0  502 -0.82356891101E+02 -0.13017376155E+03 -0.18477848502E+03  0.24060013848E+03  0.41800000000E+01 0. -1.
        -11    1    4    4    0    0  0.29751688582E+02  0.49819699307E+02 -0.55857944044E+02  0.80543623741E+02  0.00000000000E+00 0. -1.
         11    1    4    4    0    0  0.10046669317E+03  0.55653993112E+02  0.21089488609E+01  0.11487110625E+03  0.00000000000E+00 0.  1.
</event>
<event>
 8    1  0.7052796E-009  0.9827664E+02  0.7561462E-02  0.1283962E+00
         -2   -1    0    0    0  501 -0.00000000000E+00  0.00000000000E+00  0.25427625880E+02  0.25427625880E+02  0.00000000000E+00 0.  1.
          2   -1    0    0  501    0  0.00000000000E+00 -0.00000000000E+00 -0.66072089126E+03  0.66072089126E+03  0.00000000000E+00 0. -1.
         25    2    1    2    0    0 -0.56574522955E+01 -0.38253954406E+02 -0.50558484572E+03  0.52226318982E+03  0.12508969354E+03 0.  0.
         23    2    1    2    0    0  0.56574522955E+01  0.38253954406E+02 -0.12970841966E+03  0.16388532731E+03  0.92405381796E+02 0.  0.
          5    1    3    3  502    0  0.48981321167E+02  0.17487883981E+02 -0.22703893166E+03  0.23295738838E+03  0.41800000000E+01 0.  1.
         -5    1    3    3    0  502 -0.54638773462E+02 -0.55741838387E+02 -0.27854591406E+03  0.28930580145E+03  0.41800000000E+01 0.  1.
        -11    1    4    4    0    0  0.26957417419E+02  0.35732586925E+02 -0.15027599297E+02  0.47215981011E+02  0.00000000000E+00 0. -1.
         11    1    4    4    0    0 -0.21299965124E+02  0.25213674810E+01 -0.11468082036E+03  0.11666934630E+03  0.00000000000E+00 0.  1.
</event>
<event>
 8    1  0.7052796E-009  0.1110524E+03  0.7561462E-02  0.1258633E+00
         -1   -1    0    0    0  501 -0.00000000000E+00  0.00000000000E+00  0.14557699640E+02  0.14557699640E+02  0.00000000000E+00 0.  1.
          1   -1    0    0  501    0  0.00000000000E+00 -0.00000000000E+00 -0.11656056540E+04  0.11656056540E+04  0.00000000000E+00 0. -1.
         25    2    1    2    0    0  0.82555476194E+01  0.42044034095E+02 -0.90405052899E+03  0.91366878075E+03  0.12508967621E+03 0.  0.
         23    2    1    2    0    0 -0.82555476194E+01 -0.42044034095E+02 -0.24699742536E+03  0.26649457287E+03  0.90419988757E+02 0.  0.
          5    1    3    3  502    0  0.90210036026E+01 -0.42282589295E+02 -0.20593646482E+03  0.21046732717E+03  0.41800000000E+01 0. -1.
         -5    1    3    3    0  502 -0.76545598313E+00  0.84326623390E+02 -0.69811406417E+03  0.70320145359E+03  0.41800000000E+01 0. -1.
        -11    1    4    4    0    0  0.15118426762E+02 -0.61805152222E+02 -0.20416484540E+03  0.21384977851E+03  0.00000000000E+00 0.  1.
         11    1    4    4    0    0 -0.23373974382E+02  0.19761118128E+02 -0.42832579955E+02  0.52644794364E+02  0.00000000000E+00 0. -1.
</event>
<event>
 8    1  0.7052796E-009  0.1320341E+03  0.7561462E-02  0.1224468E+00
          2   -1    0    0  501    0  0.00000000000E+00  0.00000000000E+00  0.42786486689E+03  0.42786486689E+03  0.00000000000E+00 0. -1.
         -2   -1    0    0    0  501 -0.00000000000E+00 -0.00000000000E+00 -0.42818629685E+02  0.42818629685E+02  0.00000000000E+00 0.  1.
         25    2    1    2    0    0 -0.74462760287E+02 -0.25887944505E+02  0.22819200136E+03  0.27190773591E+03  0.12508932417E+03 0.  0.
         23    2    1    2    0    0  0.74462760287E+02  0.25887944505E+02  0.15685423585E+03  0.19877576067E+03  0.93239816526E+02 0.  0.
          5    1    3    3  502    0  0.30802602122E+02  0.15281033598E+02  0.49065693073E+02  0.60060177506E+02  0.41800000000E+01 0. -1.
         -5    1    3    3    0  502 -0.10526536241E+03 -0.41168978103E+02  0.17912630828E+03  0.21184755840E+03  0.41800000000E+01 0. -1.
        -11    1    4    4    0    0  0.93876875257E+02  0.19458080260E+02  0.10082160654E+03  0.13912757074E+03  0.00000000000E+00 0.  1.
         11    1    4    4    0    0 -0.19414114970E+02  0.64298642446E+01  0.56032629312E+02  0.59648189930E+02  0.00000000000E+00 0. -1.
</event>
<event>
 8    1  0.7052796E-009  0.1473765E+03  0.7561462E-02  0.1203734E+00
          2   -1    0    0  501    0  0.00000000000E+00  0.00000000000E+00  0.75664612209E+03  0.75664612209E+03  0.00000000000E+00 0. -1.
         -2   -1    0    0    0  501 -0.00000000000E+00 -0.00000000000E+00 -0.38094465040E+02  0.38094465040E+02  0.00000000000E+00 0.  1.
         25    2    1    2    0    0  0.11037986764E+03  0.52385314786E+02  0.48773757995E+03  0.51813455226E+03  0.12509009140E+03 0.  0.
         23    2    1    2    0    0 -0.11037986764E+03 -0.52385314786E+02  0.23081407710E+03  0.27660603487E+03  0.91147265185E+02 0.  0.
          5    1    3    3  502    0  0.34591559318E+02  0.56421543648E+02  0.38313436532E+03  0.38883078692E+03  0.41800000000E+01 0.  1.
         -5    1    3    3    0  502  0.75788308324E+02 -0.40362288621E+01  0.10460321462E+03  0.12930376534E+03  0.41800000000E+01 0.  1.
        -11    1    4    4    0    0 -0.97404246548E+02  0.10815659342E+01  0.14657487420E+03  0.17599133722E+03  0.00000000000E+00 0.  1.
         11    1    4    4    0    0 -0.12975621094E+02 -0.53466880721E+02  0.84239202898E+02  0.10061469764E+03  0.00000000000E+00 0. -1.
</event>
<event>
 8    1  0.7052796E-009  0.1005723E+03  0.7561462E-02  0.1279097E+00
          1   -1    0    0  501    0  0.00000000000E+00  0.00000000000E+00  0.11405146693E+03  0.11405146693E+03  0.00000000000E+00 0. -1.
         -1   -1    0    0    0  501 -0.00000000000E+00 -0.00000000000E+00 -0.12521342331E+03  0.12521342331E+03  0.00000000000E+00 0.  1.
         25    2    1    2    0    0 -0.31839755947E+02  0.23413908043E+02 -0.32933114689E+02  0.13525509331E+03  0.12508944430E+03 0.  0.
         23    2    1    2    0    0  0.31839755947E+02 -0.23413908043E+02  0.21771158303E+02  0.10400979693E+03  0.93712717250E+02 0.  0.
          5    1    3    3  502    0 -0.76047656808E+02  0.12523320143E+02  0.27861152959E+01  0.77235448415E+02  0.41800000000E+01 0.  1.
         -5    1    3    3    0  502  0.44207900861E+02  0.10890587900E+02 -0.35719229985E+02  0.58019644898E+02  0.41800000000E+01 0.  1.
        -11    1    4    4    0    0  0.53218097702E+02 -0.15322922590E+02 -0.17919883425E+02  0.58207216921E+02  0.00000000000E+00 0.  1.
         11    1    4    4    0    0 -0.21378341755E+02 -0.80909854524E+01  0.39691041727E+02  0.45802580006E+02  0.00000000000E+00 0. -1.
</event>
<event>
 8    1  0.7052796E-009  0.9938653E+02  0.7561462E-02  0.1281591E+00
          1   -1    0    0  501    0  0.00000000000E+00  0.00000000000E+00  0.30326516873E+03  0.30326516873E+03  0.00000000000E+00 0. -1.
         -1   -1    0    0    0  501 -0.00000000000E+00 -0.00000000000E+00 -0.61420629591E+02  0.61420629591E+02  0.00000000000E+00 0.  1.
         25    2    1    2    0    0 -0.39338473922E+02  0.89621229555E+00  0.23055405755E+03  0.26524232572E+03  0.12509995673E+03 0.  0.
         23    2    1    2    0    0  0.39338473922E+02 -0.89621229555E+00  0.11290481591E+02  0.99443472600E+02  0.90626765037E+02 0.  0.
          5    1    3    3  502    0 -0.87959951719E+01 -0.59683807162E+02  0.13553357770E+03  0.14841276715E+03  0.41800000000E+01 0. -1.
         -5    1    3    3    0  502 -0.30542478751E+02  0.60580019457E+02  0.95020479845E+02  0.11682955857E+03  0.41800000000E+01 0. -1.
        -11    1    4    4    0    0  0.14294631885E+02 -0.29214253164E+02  0.40303604551E+02  0.51789860286E+02  0.00000000000E+00 0. -1.
         11    1    4    4    0    0  0.25043842038E+02  0.28318040869E+02 -0.29013122960E+02  0.47653612314E+02  0.00000000000E+00 0.  1.
</event>
<event>
 8    1  0.7052796E-009  0.1414014E+03  0.7561462E-02  0.1211456E+00
         -2   -1    0    0    0  501 -0.00000000000E+00  0.00000000000E+00  0.63738610121E+02  0.63738610121E+02  0.00000000000E+00 0.  1.
          2   -1    0    0  501    0  0.00000000000E+00 -0.00000000000E+00 -0.39471767282E+03  0.39471767282E+03  0.00000000000E+00 0. -1.
         25    2    1    2    0    0  0.27779646836E+02  0.95691781834E+02 -0.93370920680E+02  0.18518697910E+03  0.12508981777E+03 0.  0.
         23    2    1    2    0    0 -0.27779646836E+02 -0.95691781834E+02 -0.23760814202E+03  0.27326930385E+03  0.91048653926E+02 0.  0.
          5    1    3    3  502    0 -0.10821154159E+02  0.11151617409E+03 -0.88774931492E+02  0.14300844493E+03  0.41800000000E+01 0. -1.
         -5    1    3    3    0  502  0.38600800995E+02 -0.15824392252E+02 -0.45959891875E+01  0.42178534164E+02  0.41800000000E+01 0. -1.
        -11    1    4    4    0    0  0.25624189074E+02 -0.57952382017E+02 -0.15809076046E+03  0.17031666445E+03  0.00000000000E+00 0. -1.
         11    1    4    4    0    0 -0.53403835910E+02 -0.37739399817E+02 -0.79517381567E+02  0.10295263940E+03  0.00000000000E+00 0.  1.
</event>
<event>
 8    1  0.7052796E-009  0.1189260E+03  0.7561462E-02  0.1244879E+00
          1   -1    0    0  501    0  0.00000000000E+00  0.00000000000E+00  0.11618038266E+03  0.11618038266E+03  0.00000000000E+00 0. -1.
         -1   -1    0    0    0  501 -0.00000000000E+00 -0.00000000000E+00 -0.28906202447E+03  0.28906202447E+03  0.00000000000E+00 0.  1.
         25    2    1    2    0    0 -0.41262330118E+02  0.48650655999E+02 -0.23878251946E+03  0.27701032520E+03  0.12509261550E+03 0.  0.
         23    2    1    2    0    0  0.41262330118E+02 -0.48650655999E+02  0.65900877652E+02  0.12823208193E+03  0.89616264960E+02 0.  0.
          5    1    3    3  502    0  0.37582115384E+02  0.65022966771E+01 -0.13310702482E+03  0.13852670398E+03  0.41800000000E+01 0. -1.
         -5    1    3    3    0  502 -0.78844445502E+02  0.42148359322E+02 -0.10567549464E+03  0.13848362122E+03  0.41800000000E+01 0. -1.
        -11    1    4    4    0    0  0.60804530647E+02 -0.61587549369E+02  0.50847060152E+02  0.10037749105E+03  0.00000000000E+00 0. -1.
         11    1    4    4    0    0 -0.19542200529E+02  0.12936893370E+02  0.15053817500E+02  0.27854590877E+02  0.00000000000E+00 0.  1.
</event>
<event>
 8    1  0.7052796E-009  0.2967113E+03  0.7561462E-02  0.1086896E+00
         -2   -1    0    0    0  501 -0.00000000000E+00  0.00000000000E+00  0.23118960241E+03  0.23118960241E+03  0.00000000000E+00 0.  1.
          2   -1    0    0  501    0  0.00000000000E+00 -0.00000000000E+00 -0.41350925651E+03  0.41350925651E+03  0.00000000000E+00 0. -1.
         25    2    1    2    0    0 -0.11878594128E+03  0.25920708882E+03 -0.14300368350E+03  0.34263107846E+03  0.12509031814E+03 0.  0.
         23    2    1    2    0    0  0.11878594128E+03 -0.25920708882E+03 -0.39315970609E+02  0.30206778046E+03  0.91655789265E+02 0.  0.
          5    1    3    3  502    0 -0.41370900857E+02  0.17993340944E+03 -0.13993865362E+03  0.23170645750E+03  0.41800000000E+01 0. -1.
         -5    1    3    3    0  502 -0.77415040421E+02  0.79273679381E+02 -0.30650298718E+01  0.11092462096E+03  0.41800000000E+01 0. -1.
        -11    1    4    4    0    0  0.13001739662E+03 -0.20686294728E+03 -0.19970332295E+02  0.24514407306E+03  0.00000000000E+00 0.  1.
         11    1    4    4    0    0 -0.11231455345E+02 -0.52344141539E+02 -0.19345638314E+02  0.56923707402E+02  0.00000000000E+00 0. -1.
</event>
<event>
 8    1  0.7052796E-009  0.2717081E+03  0.7561462E-02  0.1100306E+00
          1   -1    0    0  501    0  0.00000000000E+00  0.00000000000E+00  0.21866544810E+03  0.21866544810E+03  0.00000000000E+00 0. -1.
         -1   -1    0    0    0  501 -0.00000000000E+00 -0.00000000000E+00 -0.38534348082E+03  0.38534348082E+03  0.00000000000E+00 0.  1.
         25    2    1    2    0    0  0.25315733987E+03 -0.82985253539E+02 -0.11814359857E+03  0.31714519460E+03  0.12509186041E+03 0.  0.
         23    2    1    2    0    0 -0.25315733987E+03  0.82985253539E+02 -0.48534434157E+02  0.28686373432E+03  0.94657380774E+02 0.  0.
          5    1    3    3  502    0  0.13272212152E+03 -0.51308513948E+02  0.43416591099E+01  0.14242207536E+03  0.41800000000E+01 0.  1.
         -5    1    3    3    0  502  0.12043521835E+03 -0.31676739591E+02 -0.12248525768E+03  0.17472311924E+03  0.41800000000E+01 0.  1.
        -11    1    4    4    0    0 -0.80230383047E+02  0.63732423420E+02 -0.47324111231E+02  0.11286411149E+03  0.00000000000E+00 0. -1.
         11    1    4    4    0    0 -0.17292695682E+03  0.19252830119E+02 -0.12103229256E+01  0.17399962283E+03  0.00000000000E+00 0.  1.
</event>
<event>
 8    1  0.7052796E-009  0.9461399E+02  0.7561462E-02  0.1292048E+00
          1   -1    0    0  501    0  0.00000000000E+00  0.00000000000E+00  0.37424621662E+03  0.37424621662E+03  0.00000000000E+00 0. -1.
         -1   -1    0    0    0  501 -0.00000000000E+00 -0.00000000000E+00 -0.39067837651E+02  0.39067837651E+02  0.00000000000E+00 0.  1.
         25    2    1    2    0    0  0.52592485259E+02 -0.59045756805E+01  0.16557320981E+03  0.21415859465E+03  0.12509429377E+03 0.  0.
         23    2    1    2    0    0 -0.52592485259E+02  0.59045756805E+01  0.16960516916E+03  0.19915545963E+03  0.89978609533E+02 0.  0.
          5    1    3    3  502    0  0.80634399348E+02 -0.41125566737E+02  0.11091297800E+03  0.14322143585E+03  0.41800000000E+01 0.  1.
         -5    1    3    3    0  502 -0.28041914088E+02  0.35220991056E+02  0.54660231810E+02  0.70937158798E+02  0.41800000000E+01 0.  1.
        -11    1    4    4    0    0 -0.19407407459E+02 -0.12701723615E+01 -0.59567674463E+01  0.20340695183E+02  0.00000000000E+00 0.  1.
         11    1    4    4    0    0 -0.33185077800E+02  0.71747480420E+01  0.17556193661E+03  0.17881476444E+03  0.00000000000E+00 0. -1.
</event>
<event>
 8    1  0.7052796E-009  0.8662308E+02  0.7561462E-02  0.1311242E+00
          1   -1    0    0  501    0  0.00000000000E+00  0.00000000000E+00  0.20252740946E+03  0.20252740946E+03  0.00000000000E+00 0. -1.
         -1   -1    0    0    0  501 -0.00000000000E+00 -0.00000000000E+00 -0.81859979468E+02  0.81859979468E+02  0.00000000000E+00 0.  1.
         25    2    1    2    0    0 -0.71469669192E+01  0.68112569167E+02  0.51317200949E+02  0.15156308302E+03  0.12509001481E+03 0.  0.
         23    2    1    2    0    0  0.71469669192E+01 -0.68112569167E+02  0.69350229044E+02  0.13282430591E+03  0.90235473944E+02 0.  0.
          5    1    3    3  502    0 -0.22133298625E+02  0.25757708938E+02 -0.38219961414E+02  0.51298931063E+02  0.41800000000E+01 0.  1.
         -5    1    3    3    0  502  0.14986331705E+02  0.42354860229E+02  0.89537162363E+02  0.10026415195E+03  0.41800000000E+01 0.  1.
        -11    1    4    4    0    0 -0.24283535422E+02 -0.71422245636E+01  0.58018576095E+02  0.63299736463E+02  0.00000000000E+00 0. -1.
         11    1    4    4    0    0  0.31430502341E+02 -0.60970344603E+02  0.11331652950E+02  0.69524569449E+02  0.00000000000E+00 0.  1.
</event>
<event>
 8    1  0.7052796E-009  0.1198642E+03  0.7561462E-02  0.1243321E+00
          1   -1    0    0  501    0  0.00000000000E+00  0.00000000000E+00  0.17983011906E+03  0.17983011906E+03  0.00000000000E+00 0. -1.
         -1   -1    0    0    0  501 -0.00000000000E+00 -0.00000000000E+00 -0.11495954627E+03  0.11495954627E+03  0.00000000000E+00 0.  1.
         25    2    1    2    0    0 -0.76709518286E+02 -0.13940124547E+02 -0.19284944365E+02  0.14865979719E+03  0.12509655852E+03 0.  0.
         23    2    1    2    0    0  0.76709518286E+02  0.13940124547E+02  0.84155517153E+02  0.14612986813E+03  0.90515799866E+02 0.  0.
          5    1    3    3  502    0 -0.62361366783E+01  0.49825119599E+02 -0.18042171402E+02  0.53520316635E+02  0.41800000000E+01 0. -1.
         -5    1    3    3    0  502 -0.70473381608E+02 -0.63765244147E+02 -0.12427729621E+01  0.95139480559E+02  0.41800000000E+01 0. -1.
        -11    1    4    4    0    0 -0.10701596292E+01 -0.12129909422E+02  0.59121618936E+02  0.60362618978E+02  0.00000000000E+00 0. -1.
         11    1    4    4    0    0  0.77779677916E+02  0.26070033970E+02  0.25033898216E+02  0.85767249156E+02  0.00000000000E+00 0.  1.
</event>
<event>
 8    1  0.7052796E-009  0.8135230E+02  0.7561462E-02  0.1325257E+00
          1   -1    0    0  501    0  0.00000000000E+00  0.00000000000E+00  0.51505832793E+03  0.51505832793E+03  0.00000000000E+00 0. -1.
         -1   -1    0    0    0  501 -0.00000000000E+00 -0.00000000000E+00 -0.22306278567E+02  0.22306278567E+02  0.00000000000E+00 0.  1.
         25    2    1    2    0    0 -0.13842045835E+01 -0.49469926991E+01  0.28914847425E+03  0.31508929700E+03  0.12509211071E+03 0.  0.
         23    2    1    2    0    0  0.13842045835E+01  0.49469926991E+01  0.20360357511E+03  0.22227530950E+03  0.89025325921E+02 0.  0.
          5    1    3    3  502    0  0.16910916160E+02 -0.48108317311E+02  0.24591536528E+03  0.25118166446E+03  0.41800000000E+01 0.  1.
         -5    1    3    3    0  502 -0.18295120744E+02  0.43161324612E+02  0.43233108971E+02  0.63907632538E+02  0.41800000000E+01 0.  1.
        -11    1    4    4    0    0 -0.21596410054E+02  0.25659020706E+02  0.27205324139E+02  0.43184718736E+02  0.00000000000E+00 0.  1.
         11    1    4    4    0    0  0.22980614638E+02 -0.20712028007E+02  0.17639825097E+03  0.17909059076E+03  0.00000000000E+00 0. -1.
</event>
<event>
 8    1  0.7052796E-009  0.2022966E+03  0.7561462E-02  0.1147816E+00
          1   -1    0    0  501    0  0.00000000000E+00  0.00000000000E+00  0.43608299955E+02  0.43608299955E+02  0.00000000000E+00 0. -1.
         -1   -1    0    0    0  501 -0.00000000000E+00 -0.00000000000E+00 -0.13274426566E+04  0.13274426566E+04  0.00000000000E+00 0.  1.
         25    2    1    2    0    0  0.12319541543E+02  0.19109849724E+03 -0.93926428846E+03  0.96671305265E+03  0.12508523432E+03 0.  0.
         23    2    1    2    0    0 -0.12319541543E+02 -0.19109849724E+03 -0.34457006816E+03  0.40433790388E+03  0.89945549589E+02 0.  0.
          5    1    3    3  502    0  0.45809269782E+02  0.15846998999E+03 -0.84988722883E+03  0.86575804995E+03  0.41800000000E+01 0. -1.
         -5    1    3    3    0  502 -0.33489728240E+02  0.32628507248E+02 -0.89377059636E+02  0.10095500271E+03  0.41800000000E+01 0. -1.
        -11    1    4    4    0    0 -0.39219748573E+01 -0.16825633234E+03 -0.21778330915E+03  0.27523652556E+03  0.00000000000E+00 0. -1.
         11    1    4    4    0    0 -0.83975666855E+01 -0.22842164899E+02 -0.12678675900E+03  0.12910137831E+03  0.00000000000E+00 0.  1.
</event>
<event>
 8    1  0.7052796E-009  0.1050045E+03  0.7561462E-02  0.1270111E+00
          4   -1    0    0  501    0  0.00000000000E+00  0.00000000000E+00  0.28239206900E+03  0.28239206900E+03  0.00000000000E+00 0. -1.
         -4   -1    0    0    0  501 -0.00000000000E+00 -0.00000000000E+00 -0.56140318267E+02  0.56140318267E+02  0.00000000000E+00 0.  1.
         25    2    1    2    0    0 -0.47769185488E+02 -0.35510034265E+02  0.97623704357E+02  0.16947055773E+03  0.12508806765E+03 0.  0.
         23    2    1    2    0    0  0.47769185488E+02  0.35510034265E+02  0.12862804637E+03  0.16906182954E+03  0.92162195489E+02 0.  0.
          5    1    3    3  502    0 -0.24121046411E+02  0.44857972531E+02  0.56064800554E+02  0.75860377277E+02  0.41800000000E+01 0. -1.
         -5    1    3    3    0  502 -0.23648139077E+02 -0.80368006796E+02  0.41558903803E+02  0.93610180448E+02  0.41800000000E+01 0. -1.
        -11    1    4    4    0    0 -0.10495153305E+01  0.25085215541E+02  0.11444509358E+03  0.11716675708E+03  0.00000000000E+00 0. -1.
         11    1    4    4    0    0  0.48818700819E+02  0.10424818724E+02  0.14182952793E+02  0.51895072454E+02  0.00000000000E+00 0.  1.
</event>
<event>
 8    1  0.7052796E-009  0.2704596E+03  0.7561462E-02  0.1101017E+00
          1   -1    0    0  501    0  0.00000000000E+00  0.00000000000E+00  0.11618380083E+04  0.11618380083E+04  0.00000000000E+00 0. -1.
         -1   -1    0    0    0  501 -0.00000000000E+00 -0.00000000000E+00 -0.74270315624E+02  0.74270315624E+02  0.00000000000E+00 0.  1.
         25    2    1    2    0    0  0.13271782444E+03 -0.21863138057E+03  0.35642622898E+03  0.45618135320E+03  0.12509224120E+03 0.  0.
         23    2    1    2    0    0 -0.13271782444E+03  0.21863138057E+03  0.73114146374E+03  0.77992697077E+03  0.91129239230E+02 0.  0.
          5    1    3    3  502    0  0.29540757866E+02 -0.19459034516E+01  0.45650794690E+01  0.30244921327E+02  0.41800000000E+01 0.  1.
         -5    1    3    3    0  502  0.10317706657E+03 -0.21668547712E+03  0.35186114951E+03  0.42593643187E+03  0.41800000000E+01 0.  1.
        -11    1    4    4    0    0 -0.27524208834E+02 -0.91731104749E+00  0.60758525358E+02  0.66708484732E+02  0.00000000000E+00 0.  1.
         11    1    4    4    0    0 -0.10519361560E+03  0.21954869161E+03  0.67038293838E+03  0.71321848603E+03  0.00000000000E+00 0. -1.
</event>
<event>
 8    1  0.7052796E-009  0.1403400E+03  0.7561462E-02  0.1212872E+00
          2   -1    0    0  501    0  0.00000000000E+00  0.00000000000E+00  0.88532249733E+02  0.88532249733E+02  0.00000000000E+00 0. -1.
         -2   -1    0    0    0  501 -0.00000000000E+00 -0.00000000000E+00 -0.23935055912E+03  0.23935055912E+03  0.00000000000E+00 0.  1.
         25    2    1    2    0    0  0.79530619323E+01  0.95288192581E+02 -0.69709087002E+02  0.17218854620E+03  0.12508576174E+03 0.  0.
         23    2    1    2    0    0 -0.79530619323E+01 -0.95288192581E+02 -0.81109222384E+02  0.15569426265E+03  0.92297923208E+02 0.  0.
          5    1    3    3  502    0  0.59630163940E+02  0.30105896055E+02 -0.57050251398E+02  0.87945011304E+02  0.41800000000E+01 0. -1.
         -5    1    3    3    0  502 -0.51677102007E+02  0.65182296526E+02 -0.12658835604E+02  0.84243534892E+02  0.41800000000E+01 0. -1.
        -11    1    4    4    0    0 -0.42037410929E+02 -0.85054269226E+02 -0.45038511501E+02  0.10502304580E+03  0.00000000000E+00 0. -1.
         11    1    4    4    0    0  0.34084348997E+02 -0.10233923354E+02 -0.36070710883E+02  0.50671216853E+02  0.00000000000E+00 0.  1.
</event>
<event>
 8    1  0.7052796E-009  0.1069020E+03  0.7561462E-02  0.1266417E+00
          1   -1    0    0  501    0  0.00000000000E+00  0.00000000000E+00  0.11242418759E+04  0.11242418759E+04  0.00000000000E+00 0. -1.
         -1   -1    0    0    0  501 -0.00000000000E+00 -0.00000000000E+00 -0.12465167201E+02  0.12465167201E+02  0.00000000000E+00 0.  1.
         25    2    1    2    0    0  0.24898016626E+02 -0.43271493065E+01  0.82109998041E+03  0.83095753662E+03  0.12508642760E+03 0.  0.
         23    2    1    2    0    0 -0.24898016626E+02  0.43271493065E+01  0.29067672824E+03  0.30574950644E+03  0.91384708210E+02 0.  0.
          5    1    3    3  502    0  0.64268478581E+02  0.33682279382E+02  0.45628873179E+03  0.46204092075E+03  0.41800000000E+01 0. -1.
         -5    1    3    3    0  502 -0.39370461954E+02 -0.38009428688E+02  0.36481124862E+03  0.36891661587E+03  0.41800000000E+01 0. -1.
        -11    1    4    4    0    0 -0.25556331893E+02  0.41674726573E+02  0.22447553047E+03  0.22973718182E+03  0.00000000000E+00 0. -1.
         11    1    4    4    0    0  0.65831526666E+00 -0.37347577267E+02  0.66201197779E+02  0.76012324619E+02  0.00000000000E+00 0.  1.
</event>
<event>
 8    1  0.7052796E-009  0.8223592E+02  0.7561462E-02  0.1322823E+00
         -1   -1    0    0    0  501 -0.00000000000E+00  0.00000000000E+00  0.86648957426E+03  0.86648957426E+03  0.00000000000E+00 0. -1.
          1   -1    0    0  501    0  0.00000000000E+00 -0.00000000000E+00 -0.29098158989E+02  0.29098158989E+02  0.00000000000E+00 0.  1.
         25    2    1    2    0    0 -0.47627396330E+01 -0.15980850832E+02  0.77096770760E+03  0.78122592311E+03  0.12507863728E+03 0.  0.
         23    2    1    2    0    0  0.47627396330E+01  0.15980850832E+02  0.66423707671E+02  0.11436181013E+03  0.91588445745E+02 0.  0.
          5    1    3    3  502    0  0.15336529763E+00  0.54151223059E+02  0.39526667378E+03  0.39898069412E+03  0.41800000000E+01 0.  1.
         -5    1    3    3    0  502 -0.49161049306E+01 -0.70132073891E+02  0.37570103382E+03  0.38224522900E+03  0.41800000000E+01 0.  1.
        -11    1    4    4    0    0 -0.14322819049E+02  0.14820108810E+02  0.85143782760E+02  0.87602754028E+02  0.00000000000E+00 0. -1.
         11    1    4    4    0    0  0.19085558682E+02  0.11607420224E+01 -0.18720075089E+02  0.26759056104E+02  0.00000000000E+00 0.  1.
</event>
<event>
 8    1  0.7052796E-009  0.8668811E+02  0.7561462E-02  0.1311076E+00
         -2   -1    0    0    0  501 -0.00000000000E+00  0.00000000000E+00  0.88505640808E+02  0.88505640808E+02  0.00000000000E+00 0. -1.
          2   -1    0    0  501    0  0.00000000000E+00 -0.00000000000E+00 -0.48898978208E+03  0.48898978208E+03  0.00000000000E+00 0.  1.
         25    2    1    2    0    0  0.27452353416E+02 -0.15569521467E+02  0.33411319269E+02  0.13326770492E+03  0.12509165924E+03 0.  0.
         23    2    1    2    0    0 -0.27452353416E+02  0.15569521467E+02 -0.43389546054E+03  0.44422771798E+03  0.89871870073E+02 0.  0.
          5    1    3    3  502    0 -0.22473367464E+01 -0.42033515500E+02 -0.34410853343E+02  0.54529314827E+02  0.41800000000E+01 0. -1.
         -5    1    3    3    0  502  0.29699690162E+02  0.26463994033E+02  0.67822172612E+02  0.78738390088E+02  0.41800000000E+01 0. -1.
        -11    1    4    4    0    0  0.14295809607E+02 -0.27562737589E+02 -0.91883081136E+02  0.96987500611E+02  0.00000000000E+00 0.  1.
         11    1    4    4    0    0 -0.41748163022E+02  0.43132259057E+02 -0.34201237941E+03  0.34724021736E+03  0.00000000000E+00 0. -1.
</event>
<event>
 8    1  0.7052796E-009  0.1508132E+03  0.7561462E-02  0.1199477E+00
          1   -1    0    0  501    0  0.00000000000E+00  0.00000000000E+00  0.82382096454E+03  0.82382096454E+03  0.00000000000E+00 0. -1.
         -1   -1    0    0    0  501 -0.00000000000E+00 -0.00000000000E+00 -0.43500637826E+02  0.43500637826E+02  0.00000000000E+00 0.  1.
         25    2    1    2    0    0  0.12436853959E+03  0.10316535172E+02  0.61937055160E+03  0.64408178452E+03  0.12508996931E+03 0.  0.
         23    2    1    2    0    0 -0.12436853959E+03 -0.10316535172E+02  0.16094977511E+03  0.22323981785E+03  0.91417840856E+02 0.  0.
          5    1    3    3  502    0  0.87186458953E+02  0.64971570720E+02  0.34103167078E+03  0.35797046876E+03  0.41800000000E+01 0. -1.
         -5    1    3    3    0  502  0.37182080633E+02 -0.54655035548E+02  0.27833888082E+03  0.28611131576E+03  0.41800000000E+01 0. -1.
        -11    1    4    4    0    0 -0.52307992672E+02 -0.14849505577E+02  0.91447567851E+01  0.55138557198E+02  0.00000000000E+00 0.  1.
         11    1    4    4    0    0 -0.72060546914E+02  0.45329704051E+01  0.15180501833E+03  0.16810126065E+03  0.00000000000E+00 0. -1.
</event>
<event>
 8    1  0.7052796E-009  0.1391064E+03  0.7561462E-02  0.1214537E+00
         -2   -1    0    0    0  501 -0.00000000000E+00  0.00000000000E+00  0.38755929000E+02  0.38755929000E+02  0.00000000000E+00 0.  1.
          2   -1    0    0  501    0  0.00000000000E+00 -0.00000000000E+00 -0.54532035256E+03  0.54532035256E+03  0.00000000000E+00 0. -1.
         25    2    1    2    0    0  0.52493768456E+02  0.78647099048E+02 -0.24450567296E+03  0.29046862663E+03  0.12509211420E+03 0.  0.
         23    2    1    2    0    0 -0.52493768456E+02 -0.78647099048E+02 -0.26205875060E+03  0.29360765492E+03  0.92680657900E+02 0.  0.
          5    1    3    3  502    0  0.82485185142E+02  0.91826345240E+02 -0.18559071390E+03  0.22292884276E+03  0.41800000000E+01 0. -1.
         -5    1    3    3    0  502 -0.29991416686E+02 -0.13179246193E+02 -0.58914959062E+02  0.67539783878E+02  0.41800000000E+01 0. -1.
        -11    1    4    4    0    0 -0.65561484159E+02 -0.31457702002E+02 -0.95704174235E+02  0.12019643999E+03  0.00000000000E+00 0.  1.
         11    1    4    4    0    0  0.13067715703E+02 -0.47189397046E+02 -0.16635457637E+03  0.17341121493E+03  0.00000000000E+00 0. -1.
</event>
<event>
 8    1  0.7052796E-009  0.1290213E+03  0.7561462E-02  0.1228915E+00
          1   -1    0    0  501    0  0.00000000000E+00  0.00000000000E+00  0.16794959058E+03  0.16794959058E+03  0.00000000000E+00 0. -1.
         -1   -1    0    0    0  501 -0.00000000000E+00 -0.00000000000E+00 -0.11939095049E+03  0.11939095049E+03  0.00000000000E+00 0.  1.
         25    2    1    2    0    0  0.84248092587E+02 -0.33266402557E+02  0.27036812037E+02  0.15678991501E+03  0.12509074146E+03 0.  0.
         23    2    1    2    0    0 -0.84248092587E+02  0.33266402557E+02  0.21521828052E+02  0.13055062607E+03  0.91519846157E+02 0.  0.
          5    1    3    3  502    0  0.63137171044E+01 -0.62635575577E+02  0.36461420269E+02  0.72869650195E+02  0.41800000000E+01 0. -1.
         -5    1    3    3    0  502  0.77934375483E+02  0.29369173020E+02 -0.94246082320E+01  0.83920264812E+02  0.41800000000E+01 0. -1.
        -11    1    4    4    0    0 -0.12443432441E+02 -0.19025831908E+02 -0.21998282702E+02  0.31634565472E+02  0.00000000000E+00 0.  1.
         11    1    4    4    0    0 -0.71804660146E+02  0.52292234465E+02  0.43520110754E+02  0.98916060597E+02  0.00000000000E+00 0. -1.
</event>
<event>
 8    1  0.7052796E-009  0.1060736E+03  0.7561462E-02  0.1268019E+00
         -2   -1    0    0    0  501 -0.00000000000E+00  0.00000000000E+00  0.10727063280E+02  0.10727063280E+02  0.00000000000E+00 0.  1.
          2   -1    0    0  501    0  0.00000000000E+00 -0.00000000000E+00 -0.11718502445E+04  0.11718502445E+04  0.00000000000E+00 0. -1.
         25    2    1    2    0    0 -0.13070832467E+02  0.17176954611E+02 -0.82680792180E+03  0.83649554244E+03  0.12509020162E+03 0.  0.
         23    2    1    2    0    0  0.13070832467E+02 -0.17176954611E+02 -0.33431525938E+03  0.34608176530E+03  0.86833180224E+02 0.  0.
          5    1    3    3  502    0  0.54488501899E+02 -0.18591793113E+01 -0.29090203529E+03  0.29599648634E+03  0.41800000000E+01 0.  1.
         -5    1    3    3    0  502 -0.67559334365E+02  0.19036133923E+02 -0.53590588651E+03  0.54049905610E+03  0.41800000000E+01 0.  1.
        -11    1    4    4    0    0  0.60574191197E+01 -0.51634506894E+02 -0.15929765885E+03  0.16756658003E+03  0.00000000000E+00 0.  1.
         11    1    4    4    0    0  0.70134133469E+01  0.34457552282E+02 -0.17501760053E+03  0.17851518526E+03  0.00000000000E+00 0. -1.
</event>
<event>
 8    1  0.7052796E-009  0.4666493E+02  0.7561462E-02  0.1464208E+00
          1   -1    0    0  501    0  0.00000000000E+00  0.00000000000E+00  0.11296938990E+03  0.11296938990E+03  0.00000000000E+00 0.  1.
         -1   -1    0    0    0  501 -0.00000000000E+00 -0.00000000000E+00 -0.14636238431E+03  0.14636238431E+03  0.00000000000E+00 0. -1.
         25    2    1    2    0    0 -0.71548467664E+01  0.37469274104E+02 -0.72321464539E+02  0.14944044471E+03  0.12508762508E+03 0.  0.
         23    2    1    2    0    0  0.71548467664E+01 -0.37469274104E+02  0.38928470136E+02  0.10989132950E+03  0.95422954145E+02 0.  0.
          5    1    3    3  502    0 -0.93662834774E+01  0.37034855474E+02 -0.10738643530E+03  0.11405536670E+03  0.41800000000E+01 0.  1.
         -5    1    3    3    0  502  0.22114367109E+01  0.43441863024E+00  0.35064970759E+02  0.35385078016E+02  0.41800000000E+01 0.  1.
        -11    1    4    4    0    0 -0.11480055684E+02 -0.25605392847E+02  0.67893245814E+02  0.73463736963E+02  0.00000000000E+00 0.  1.
         11    1    4    4    0    0  0.18634902451E+02 -0.11863881258E+02 -0.28964775678E+02  0.36427592536E+02  0.00000000000E+00 0. -1.
</event>
<event>
 8    1  0.7052796E-009  0.1451226E+03  0.7561462E-02  0.1206598E+00
         -1   -1    0    0    0  501 -0.00000000000E+00  0.00000000000E+00  0.82001371831E+02  0.82001371831E+02  0.00000000000E+00 0.  1.
          1   -1    0    0  501    0  0.00000000000E+00 -0.00000000000E+00 -0.37736479057E+03  0.37736479057E+03  0.00000000000E+00 0. -1.
         25    2    1    2    0    0 -0.18608179763E+02 -0.10576709963E+03 -0.27172359301E+03  0.31782746182E+03  0.12509053030E+03 0.  0.
         23    2    1    2    0    0  0.18608179763E+02  0.10576709963E+03 -0.23639825728E+02  0.14153870058E+03  0.89114637868E+02 0.  0.
          5    1    3    3  502    0  0.22258906498E+02 -0.11600727221E+03 -0.16460829315E+03  0.20264873229E+03  0.41800000000E+01 0. -1.
         -5    1    3    3    0  502 -0.40867086261E+02  0.10240172574E+02 -0.10711529986E+03  0.11517872953E+03  0.41800000000E+01 0. -1.
        -11    1    4    4    0    0  0.43543025830E+02  0.90612311890E+02 -0.39870707363E+02  0.10814924628E+03  0.00000000000E+00 0. -1.
         11    1    4    4    0    0 -0.24934846068E+02  0.15154787741E+02  0.16230881635E+02  0.33389454302E+02  0.00000000000E+00 0.  1.
</event>
<event>
 8    1  0.7052796E-009  0.1084820E+03  0.7561462E-02  0.1263407E+00
          1   -1    0    0  501    0  0.00000000000E+00  0.00000000000E+00  0.65441256218E+03  0.65441256218E+03  0.00000000000E+00 0. -1.
         -1   -1    0    0    0  501 -0.00000000000E+00 -0.00000000000E+00 -0.22655207453E+02  0.22655207453E+02  0.00000000000E+00 0.  1.
         25    2    1    2    0    0  0.47425242289E+02 -0.18937447997E+01  0.27405932157E+03  0.30497481932E+03  0.12509352023E+03 0.  0.
         23    2    1    2    0    0 -0.47425242289E+02  0.18937447997E+01  0.35769803315E+03  0.37209295031E+03  0.90843496591E+02 0.  0.
          5    1    3    3  502    0 -0.31781922168E+02 -0.18456544595E+02  0.16507957669E+03  0.16917291053E+03  0.41800000000E+01 0.  1.
         -5    1    3    3    0  502  0.79207164457E+02  0.16562799795E+02  0.10897974488E+03  0.13580190879E+03  0.41800000000E+01 0.  1.
        -11    1    4    4    0    0 -0.23049585275E+02  0.44354724691E+02  0.13204747147E+03  0.14119192507E+03  0.00000000000E+00 0.  1.
         11    1    4    4    0    0 -0.24375657014E+02 -0.42460979891E+02  0.22565056168E+03  0.23090102524E+03  0.00000000000E+00 0. -1.
</event>
<event>
 8    1  0.7052796E-009  0.1487395E+03  0.7561462E-02  0.1202031E+00
          1   -1    0    0  501    0  0.00000000000E+00  0.00000000000E+00  0.11445286046E+03  0.11445286046E+03  0.00000000000E+00 0. -1.
         -1   -1    0    0    0  501 -0.00000000000E+00 -0.00000000000E+00 -0.21312499010E+03  0.21312499010E+03  0.00000000000E+00 0.  1.
         25    2    1    2    0    0  0.88811190750E+02 -0.59575653795E+02 -0.82155484150E+02  0.18393979084E+03  0.12509051503E+03 0.  0.
         23    2    1    2    0    0 -0.88811190750E+02  0.59575653795E+02 -0.16516645482E+02  0.14363805972E+03  0.94458490859E+02 0.  0.
          5    1    3    3  502    0  0.33002013774E+02 -0.88817981361E+02 -0.73946896374E+02  0.12026380424E+03  0.41800000000E+01 0. -1.
         -5    1    3    3    0  502  0.55809176976E+02  0.29242327566E+02 -0.82085877756E+01  0.63675986600E+02  0.41800000000E+01 0. -1.
        -11    1    4    4    0    0 -0.65862193686E+02 -0.96456201706E+01 -0.22994795939E+02  0.70424620594E+02  0.00000000000E+00 0.  1.
         11    1    4    4    0    0 -0.22948997065E+02  0.69221273966E+02  0.64781504575E+01  0.73213439129E+02  0.00000000000E+00 0. -1.
</event>
<event>
 8    1  0.7052796E-009  0.1224710E+03  0.7561462E-02  0.1239075E+00
         -1   -1    0    0    0  501 -0.00000000000E+00  0.00000000000E+00  0.16968932155E+02  0.16968932155E+02  0.00000000000E+00 0.  1.
          1   -1    0    0  501    0  0.00000000000E+00 -0.00000000000E+00 -0.11572114139E+04  0.11572114139E+04  0.00000000000E+00 0. -1.
         25    2    1    2    0    0  0.78123375098E+02 -0.34829002842E+01 -0.79323962314E+03  0.80684042612E+03  0.12508789374E+03 0.  0.
         23    2    1    2    0    0 -0.78123375098E+02  0.34829002842E+01 -0.34700285857E+03  0.36733991991E+03  0.91718267377E+02 0.  0.
          5    1    3    3  502    0  0.74126911074E+02 -0.46035040858E+02 -0.68246226185E+03  0.68803069348E+03  0.41800000000E+01 0. -1.
         -5    1    3    3    0  502  0.39964640239E+01  0.42552140573E+02 -0.11077736130E+03  0.11880973263E+03  0.41800000000E+01 0. -1.
        -11    1    4    4    0    0  0.13855379987E+02  0.16719094849E+02 -0.12176071261E+03  0.12368173196E+03  0.00000000000E+00 0. -1.
         11    1    4    4    0    0 -0.91978755085E+02 -0.13236194565E+02 -0.22524214597E+03  0.24365818795E+03  0.00000000000E+00 0.  1.
</event>
<event>
 8    1  0.7052796E-009  0.1805161E+03  0.7561462E-02  0.1167305E+00
         -3   -1    0    0    0  501 -0.00000000000E+00  0.00000000000E+00  0.85364008432E+02  0.85364008432E+02  0.00000000000E+00 0.  1.
          3   -1    0    0  501    0  0.00000000000E+00 -0.00000000000E+00 -0.39360960968E+03  0.39360960968E+03  0.00000000000E+00 0. -1.
         25    2    1    2    0    0 -0.80479626940E+02 -0.12650289152E+03 -0.18803594493E+03  0.27108083344E+03  0.12508936708E+03 0.  0.
         23    2    1    2    0    0  0.80479626940E+02  0.12650289152E+03 -0.12020965632E+03  0.20789278468E+03  0.79303824202E+02 0.  0.
          5    1    3    3  502    0 -0.65172619833E+02  0.20982162172E+01 -0.55531392810E+02  0.85750107141E+02  0.41800000000E+01 0. -1.
         -5    1    3    3    0  502 -0.15307007107E+02 -0.12860110773E+03 -0.13250455212E+03  0.18533072630E+03  0.41800000000E+01 0. -1.
        -11    1    4    4    0    0  0.68914349416E+02  0.41744232558E+02 -0.37384036988E+02  0.88821927073E+02  0.00000000000E+00 0.  1.
         11    1    4    4    0    0  0.11565277524E+02  0.84758658960E+02 -0.82825619330E+02  0.11907085760E+03  0.00000000000E+00 0. -1.
</event>
<event>
 8    1  0.7052796E-009  0.8654059E+02  0.7561462E-02  0.1311452E+00
         -2   -1    0    0    0  501 -0.00000000000E+00  0.00000000000E+00  0.11788749158E+03  0.11788749158E+03  0.00000000000E+00 0.  1.
          2   -1    0    0  501    0  0.00000000000E+00 -0.00000000000E+00 -0.12910774364E+03  0.12910774364E+03  0.00000000000E+00 0. -1.
         25    2    1    2    0    0  0.34608685525E+02  0.93642048295E+01 -0.52331570461E+02  0.14025669812E+03  0.12509156108E+03 0.  0.
         23    2    1    2    0    0 -0.34608685525E+02 -0.93642048295E+01  0.41111318395E+02  0.10673853710E+03  0.91747072737E+02 0.  0.
          5    1    3    3  502    0  0.29597062664E+02  0.45326625986E+02 -0.78398404132E+02  0.95363888931E+02  0.41800000000E+01 0.  1.
         -5    1    3    3    0  502  0.50116228613E+01 -0.35962421156E+02  0.26066833672E+02  0.44892809188E+02  0.41800000000E+01 0.  1.
        -11    1    4    4    0    0  0.82606006424E+01  0.25610612041E+02  0.43734183947E+02  0.51349973881E+02  0.00000000000E+00 0. -1.
         11    1    4    4    0    0 -0.42869286167E+02 -0.34974816870E+02 -0.26228655516E+01  0.55388563218E+02  0.00000000000E+00 0.  1.
</event>
<event>
 8    1  0.7052796E-009  0.8304325E+02  0.7561462E-02  0.1320630E+00
          2   -1    0    0  501    0  0.00000000000E+00  0.00000000000E+00  0.27584383052E+03  0.27584383052E+03  0.00000000000E+00 0. -1.
         -2   -1    0    0    0  501 -0.00000000000E+00 -0.00000000000E+00 -0.46884957097E+02  0.46884957097E+02  0.00000000000E+00 0.  1.
         25    2    1    2    0    0  0.16578712449E+02  0.54528024189E+01  0.19501738740E+03  0.23234331484E+03  0.12508816011E+03 0.  0.
         23    2    1    2    0    0 -0.16578712449E+02 -0.54528024189E+01  0.33941486026E+02  0.90385472783E+02  0.81932426157E+02 0.  0.
          5    1    3    3  502    0 -0.46515876342E+02  0.15355879786E+02  0.36017209729E+02  0.60944578040E+02  0.41800000000E+01 0.  1.
         -5    1    3    3    0  502  0.63094588790E+02 -0.99030773675E+01  0.15900017767E+03  0.17139873680E+03  0.41800000000E+01 0.  1.
        -11    1    4    4    0    0 -0.73776984513E+01 -0.27794842750E+02  0.52539188623E+02  0.59894491058E+02  0.00000000000E+00 0. -1.
         11    1    4    4    0    0 -0.92010139973E+01  0.22342040331E+02 -0.18597702597E+02  0.30490981726E+02  0.00000000000E+00 0.  1.
</event>
<event>
 8    1  0.7052796E-009  0.1032000E+03  0.7561462E-02  0.1273707E+00
          1   -1    0    0  501    0  0.00000000000E+00  0.00000000000E+00  0.24702790290E+03  0.24702790290E+03  0.00000000000E+00 0. -1.
         -1   -1    0    0    0  501 -0.00000000000E+00 -0.00000000000E+00 -0.76124454766E+02  0.76124454766E+02  0.00000000000E+00 0.  1.
         25    2    1    2    0    0 -0.52914005706E+02 -0.64245950609E+02  0.76005382167E+02  0.16838166146E+03  0.12509249230E+03 0.  0.
         23    2    1    2    0    0  0.52914005706E+02  0.64245950609E+02  0.94898065964E+02  0.15477069620E+03  0.89559428923E+02 0.  0.
          5    1    3    3  502    0 -0.72966864701E+01 -0.13938292331E+02 -0.34763136436E+02  0.38385748416E+02  0.41800000000E+01 0. -1.
         -5    1    3    3    0  502 -0.45617319236E+02 -0.50307658278E+02  0.11076851860E+03  0.12999591305E+03  0.41800000000E+01 0. -1.
        -11    1    4    4    0    0  0.53622936905E+02 -0.40569443374E+01  0.37643658920E+02  0.65642388870E+02  0.00000000000E+00 0. -1.
         11    1    4    4    0    0 -0.70893119906E+00  0.68302894947E+02  0.57254407044E+02  0.89128307330E+02  0.00000000000E+00 0.  1.
</event>
<event>
 8    1  0.7052796E-009  0.1254273E+03  0.7561462E-02  0.1234403E+00
          2   -1    0    0  501    0  0.00000000000E+00  0.00000000000E+00  0.99788050018E+02  0.99788050018E+02  0.00000000000E+00 0. -1.
         -2   -1    0    0    0  501 -0.00000000000E+00 -0.00000000000E+00 -0.17190933459E+03  0.17190933459E+03  0.00000000000E+00 0.  1.
         25    2    1    2    0    0  0.57161364644E+02 -0.40045967525E+02 -0.14383205001E+02  0.14396683513E+03  0.12509385240E+03 0.  0.
         23    2    1    2    0    0 -0.57161364644E+02  0.40045967525E+02 -0.57738079566E+02  0.12773054947E+03  0.90057239094E+02 0.  0.
          5    1    3    3  502    0 -0.20377491429E+02 -0.54603420558E+02  0.13883177358E+02  0.60058227639E+02  0.41800000000E+01 0. -1.
         -5    1    3    3    0  502  0.77538856073E+02  0.14557453032E+02 -0.28266382359E+02  0.83908607494E+02  0.41800000000E+01 0. -1.
        -11    1    4    4    0    0 -0.64242081851E+02 -0.81038207015E+01 -0.38942983349E+02  0.75559730959E+02  0.00000000000E+00 0.  1.
         11    1    4    4    0    0  0.70807172066E+01  0.48149788227E+02 -0.18795096217E+02  0.52170818513E+02  0.00000000000E+00 0. -1.
</event>
<event>
 8    1  0.7052796E-009  0.8888808E+02  0.7561462E-02  0.1305567E+00
          2   -1    0    0  501    0  0.00000000000E+00  0.00000000000E+00  0.51960616391E+03  0.51960616391E+03  0.00000000000E+00 0. -1.
         -2   -1    0    0    0  501 -0.00000000000E+00 -0.00000000000E+00 -0.27008596440E+02  0.27008596440E+02  0.00000000000E+00 0.  1.
         25    2    1    2    0    0  0.73641016931E+01  0.46992135810E+02  0.28559170124E+03  0.31539317234E+03  0.12509093699E+03 0.  0.
         23    2    1    2    0    0 -0.73641016931E+01 -0.46992135810E+02  0.20700586623E+03  0.23122158801E+03  0.91375616486E+02 0.  0.
          5    1    3    3  502    0 -0.19355600909E+02  0.44388776375E+02  0.27440759634E+02  0.55816399417E+02  0.41800000000E+01 0. -1.
         -5    1    3    3    0  502  0.26719702602E+02  0.26033594348E+01  0.25815094161E+03  0.25957677292E+03  0.41800000000E+01 0. -1.
        -11    1    4    4    0    0 -0.25888022999E+02  0.19861116557E+02  0.82061050360E+02  0.88310076842E+02  0.00000000000E+00 0.  1.
         11    1    4    4    0    0  0.18523921306E+02 -0.66853252367E+02  0.12494481587E+03  0.14291151117E+03  0.00000000000E+00 0. -1.
</event>
<event>
 8    1  0.7052796E-009  0.2389005E+03  0.7561462E-02  0.1120527E+00
         -2   -1    0    0    0  501 -0.00000000000E+00  0.00000000000E+00  0.83699954823E+02  0.83699954823E+02  0.00000000000E+00 0. -1.
          2   -1    0    0  501    0  0.00000000000E+00 -0.00000000000E+00 -0.78566280090E+03  0.78566280090E+03  0.00000000000E+00 0.  1.
         25    2    1    2    0    0 -0.18308369454E+03  0.14241461582E+03 -0.32670397664E+03  0.41974185222E+03  0.12508465992E+03 0.  0.
         23    2    1    2    0    0  0.18308369454E+03 -0.14241461582E+03 -0.37525886944E+03  0.44962090351E+03  0.86822668532E+02 0.  0.
          5    1    3    3  502    0 -0.36219072841E+02 -0.58202413463E+01 -0.64479603921E+01  0.37479928496E+02  0.41800000000E+01 0. -1.
         -5    1    3    3    0  502 -0.14686462170E+03  0.14823485717E+03 -0.32025601625E+03  0.38226192372E+03  0.41800000000E+01 0. -1.
        -11    1    4    4    0    0  0.84927392680E+02 -0.59735728451E+02 -0.92329923888E+02  0.13894543579E+03  0.00000000000E+00 0. -1.
         11    1    4    4    0    0  0.98156301861E+02 -0.82678887369E+02 -0.28292894555E+03  0.31067546772E+03  0.00000000000E+00 0.  1.
</event>
<event>
 8    1  0.7052796E-009  0.1465365E+03  0.7561462E-02  0.1204795E+00
          1   -1    0    0  501    0  0.00000000000E+00  0.00000000000E+00  0.33245913758E+03  0.33245913758E+03  0.00000000000E+00 0. -1.
         -1   -1    0    0    0  501 -0.00000000000E+00 -0.00000000000E+00 -0.68463209901E+02  0.68463209901E+02  0.00000000000E+00 0.  1.
         25    2    1    2    0    0 -0.95179679075E+02 -0.42335952525E+02  0.15583325824E+03  0.22535080739E+03  0.12508987902E+03 0.  0.
         23    2    1    2    0    0  0.95179679075E+02  0.42335952525E+02  0.10816266944E+03  0.17557154009E+03  0.90965369483E+02 0.  0.
          5    1    3    3  502    0  0.26809815900E+02 -0.34254516507E-01  0.65121425174E+01  0.27904261361E+02  0.41800000000E+01 0.  1.
         -5    1    3    3    0  502 -0.12198949497E+03 -0.42301698008E+02  0.14932111572E+03  0.19744654603E+03  0.41800000000E+01 0.  1.
        -11    1    4    4    0    0  0.10341214996E+03  0.58358237295E+02  0.84076138822E+02  0.14549417080E+03  0.00000000000E+00 0.  1.
         11    1    4    4    0    0 -0.82324708819E+01 -0.16022284770E+02  0.24086530620E+02  0.30077369290E+02  0.00000000000E+00 0. -1.
</event>
<event>
 8    1  0.7052796E-009  0.1041964E+03  0.7561462E-02  0.1271711E+00
          2   -1    0    0  501    0  0.00000000000E+00  0.00000000000E+00  0.11590108447E+04  0.11590108447E+04  0.00000000000E+00 0. -1.
         -2   -1    0    0    0  501 -0.00000000000E+00 -0.00000000000E+00 -0.15869857053E+02  0.15869857053E+02  0.00000000000E+00 0.  1.
         25    2    1    2    0    0  0.47950743421E+02  0.51272308448E+02  0.85331834482E+03  0.86528772480E+03  0.12507008307E+03 0.  0.
         23    2    1    2    0    0 -0.47950743421E+02 -0.51272308448E+02  0.28982264279E+03  0.30959297692E+03  0.83201704741E+02 0.  0.
          5    1    3    3  502    0  0.15933508525E+01 -0.37572608220E+02  0.35247627802E+03  0.35450139438E+03  0.41800000000E+01 0.  1.
         -5    1    3    3    0  502  0.46357392569E+02  0.88844916668E+02  0.50084206680E+03  0.51078633042E+03  0.41800000000E+01 0.  1.
        -11    1    4    4    0    0 -0.35065603903E+02 -0.39259255783E+02  0.28695680977E+03  0.29174491669E+03  0.00000000000E+00 0. -1.
         11    1    4    4    0    0 -0.12885139518E+02 -0.12013052666E+02  0.28658330187E+01  0.17848060221E+02  0.00000000000E+00 0.  1.
</event>
<event>
 8    1  0.7052796E-009  0.9314839E+02  0.7561462E-02  0.1295402E+00
         -2   -1    0    0    0  501 -0.00000000000E+00  0.00000000000E+00  0.15613840897E+03  0.15613840897E+03  0.00000000000E+00 0.  1.
          2   -1    0    0  501    0  0.00000000000E+00 -0.00000000000E+00 -0.83744451380E+02  0.83744451380E+02  0.00000000000E+00 0. -1.
         25    2    1    2    0    0 -0.93512851144E+00  0.36430734248E+02  0.27250493440E+02  0.13310521518E+03  0.12508531510E+03 0.  0.
         23    2    1    2    0    0  0.93512851144E+00 -0.36430734248E+02  0.45143464153E+02  0.10677764517E+03  0.89640728962E+02 0.  0.
          5    1    3    3  502    0 -0.46509386332E+02  0.24543574276E+02  0.56663612806E+02  0.77419296506E+02  0.41800000000E+01 0.  1.
         -5    1    3    3    0  502  0.45574257821E+02  0.11887159972E+02 -0.29413119367E+02  0.55685918678E+02  0.41800000000E+01 0.  1.
        -11    1    4    4    0    0  0.34844825668E+02 -0.38942685851E+02  0.50127447379E+02  0.72411709260E+02  0.00000000000E+00 0. -1.
         11    1    4    4    0    0 -0.33909697157E+02  0.25119516030E+01 -0.49839832256E+01  0.34365935909E+02  0.00000000000E+00 0.  1.
</event>
<event>
 8    1  0.7052796E-009  0.1192931E+03  0.7561462E-02  0.1244268E+00
          2   -1    0    0  501    0  0.00000000000E+00  0.00000000000E+00  0.12032671270E+04  0.12032671270E+04  0.00000000000E+00 0. -1.
         -2   -1    0    0    0  501 -0.00000000000E+00 -0.00000000000E+00 -0.16307590739E+02  0.16307590739E+02  0.00000000000E+00 0.  1.
         25    2    1    2    0    0 -0.73824401725E+02 -0.13943348872E+02  0.85468505747E+03  0.86705112039E+03  0.12508652465E+03 0.  0.
         23    2    1    2    0    0  0.73824401725E+02  0.13943348872E+02  0.33227447877E+03  0.35252359732E+03  0.90675785960E+02 0.  0.
          5    1    3    3  502    0 -0.68710529276E+02  0.39617262371E+02  0.66853168580E+03  0.67323305893E+03  0.41800000000E+01 0.  1.
         -5    1    3    3    0  502 -0.51138724485E+01 -0.53560611242E+02  0.18615337166E+03  0.19381806146E+03  0.41800000000E+01 0.  1.
        -11    1    4    4    0    0  0.82111121126E+01  0.35262655583E+02  0.48738966183E+02  0.60715435150E+02  0.00000000000E+00 0.  1.
         11    1    4    4    0    0  0.65613289612E+02 -0.21319306711E+02  0.28353551259E+03  0.29180816217E+03  0.00000000000E+00 0. -1.
</event>
<event>
 8    1  0.7052796E-009  0.1232559E+03  0.7561462E-02  0.1237820E+00
         -3   -1    0    0    0  501 -0.00000000000E+00  0.00000000000E+00  0.57367212503E+02  0.57367212503E+02  0.00000000000E+00 0.  1.
          3   -1    0    0  501    0  0.00000000000E+00 -0.00000000000E+00 -0.38775802488E+03  0.38775802488E+03  0.00000000000E+00 0. -1.
         25    2    1    2    0    0  0.90210829255E+02  0.15901264158E+02 -0.24213134758E+03  0.28751583150E+03  0.12508764914E+03 0.  0.
         23    2    1    2    0    0 -0.90210829255E+02 -0.15901264158E+02 -0.88259464802E+02  0.15760940589E+03  0.93059915000E+02 0.  0.
          5    1    3    3  502    0  0.11868239177E+03  0.24381897778E+02 -0.16495421942E+03  0.20471285734E+03  0.41800000000E+01 0.  1.
         -5    1    3    3    0  502 -0.28471562518E+02 -0.84806336203E+01 -0.77177128161E+02  0.82802974161E+02  0.41800000000E+01 0.  1.
        -11    1    4    4    0    0 -0.35966833660E+02  0.65737802811E+01  0.14439433605E+02  0.39310621383E+02  0.00000000000E+00 0. -1.
         11    1    4    4    0    0 -0.54243995595E+02 -0.22475044439E+02 -0.10269889841E+03  0.11829878450E+03  0.00000000000E+00 0.  1.
</event>
<event>
 8    1  0.7052796E-009  0.1118467E+03  0.7561462E-02  0.1257188E+00
         -2   -1    0    0    0  501 -0.00000000000E+00  0.00000000000E+00  0.75993449435E+03  0.75993449435E+03  0.00000000000E+00 0.  1.
          2   -1    0    0  501    0  0.00000000000E+00 -0.00000000000E+00 -0.21151511011E+02  0.21151511011E+02  0.00000000000E+00 0. -1.
         25    2    1    2    0    0  0.55727277683E+02 -0.16637011119E+02  0.50537891575E+03  0.52386810038E+03  0.12509044126E+03 0.  0.
         23    2    1    2    0    0 -0.55727277683E+02  0.16637011119E+02  0.23340406758E+03  0.25721790497E+03  0.91111317945E+02 0.  0.
          5    1    3    3  502    0  0.12880901139E+01 -0.53366705530E+02  0.10242881296E+03  0.11558026890E+03  0.41800000000E+01 0. -1.
         -5    1    3    3    0  502  0.54439187569E+02  0.36729694412E+02  0.40295010279E+03  0.40828783148E+03  0.41800000000E+01 0. -1.
        -11    1    4    4    0    0 -0.23550510548E+02 -0.35782103116E+02  0.13030731745E+03  0.13716771644E+03  0.00000000000E+00 0.  1.
         11    1    4    4    0    0 -0.32176767135E+02  0.52419114235E+02  0.10309675013E+03  0.12005018853E+03  0.00000000000E+00 0. -1.
</event>
<event>
 8    1  0.7052796E-009  0.7245620E+02  0.7561462E-02  0.1351934E+00
          1   -1    0    0  501    0  0.00000000000E+00  0.00000000000E+00  0.32498065608E+02  0.32498065608E+02  0.00000000000E+00 0. -1.
         -1   -1    0    0    0  501 -0.00000000000E+00 -0.00000000000E+00 -0.41853917051E+03  0.41853917051E+03  0.00000000000E+00 0.  1.
         25    2    1    2    0    0 -0.25621154513E+02 -0.26688305021E+02 -0.27182276640E+03  0.30150311803E+03  0.12509118538E+03 0.  0.
         23    2    1    2    0    0  0.25621154513E+02  0.26688305021E+02 -0.11421833849E+03  0.14953411809E+03  0.89139858875E+02 0.  0.
          5    1    3    3  502    0 -0.25089988004E+02  0.33298003952E+02 -0.21405335492E+03  0.21811596850E+03  0.41800000000E+01 0.  1.
         -5    1    3    3    0  502 -0.53116650911E+00 -0.59986308973E+02 -0.57769411488E+02  0.83387149524E+02  0.41800000000E+01 0.  1.
        -11    1    4    4    0    0  0.37253171347E+01  0.19467914537E+02  0.10687063460E+02  0.22518681346E+02  0.00000000000E+00 0. -1.
         11    1    4    4    0    0  0.21895837379E+02  0.72203904846E+01 -0.12490540195E+03  0.12701543674E+03  0.00000000000E+00 0.  1.
</event>
<event>
 8    1  0.7052796E-009  0.1169513E+03  0.7561462E-02  0.1248213E+00
          4   -1    0    0  501    0  0.00000000000E+00  0.00000000000E+00  0.53725718838E+03  0.53725718838E+03  0.00000000000E+00 0. -1.
         -4   -1    0    0    0  501 -0.00000000000E+00 -0.00000000000E+00 -0.38515252450E+02  0.38515252450E+02  0.00000000000E+00 0.  1.
         25    2    1    2    0    0  0.88603576676E+02 -0.26077736183E+02  0.30962644356E+03  0.34647655806E+03  0.12508728397E+03 0.  0.
         23    2    1    2    0    0 -0.88603576676E+02  0.26077736183E+02  0.18911549237E+03  0.22929588277E+03  0.91001594911E+02 0.  0.
          5    1    3    3  502    0  0.17985991378E+02 -0.30165843527E+02  0.75043180738E+01  0.36156067143E+02  0.41800000000E+01 0. -1.
         -5    1    3    3    0  502  0.70617585299E+02  0.40881073439E+01  0.30212212549E+03  0.31032049092E+03  0.41800000000E+01 0. -1.
        -11    1    4    4    0    0  0.17634403960E+02  0.98665409974E+01  0.46681543266E+02  0.50867350196E+02  0.00000000000E+00 0. -1.
         11    1    4    4    0    0 -0.10623798064E+03  0.16211195186E+02  0.14243394910E+03  0.17842853257E+03  0.00000000000E+00 0.  1.
</event>
<event>
 8    1  0.7052796E-009  0.1052289E+03  0.7561462E-02  0.1269669E+00
         -2   -1    0    0    0  501 -0.00000000000E+00  0.00000000000E+00  0.46125817758E+02  0.46125817758E+02  0.00000000000E+00 0.  1.
          2   -1    0    0  501    0  0.00000000000E+00 -0.00000000000E+00 -0.49231333793E+03  0.49231333793E+03  0.00000000000E+00 0. -1.
         25    2    1    2    0    0 -0.55071336925E+02 -0.81697386423E+02 -0.29033187920E+03  0.33113131595E+03  0.12509209896E+03 0.  0.
         23    2    1    2    0    0  0.55071336925E+02  0.81697386423E+02 -0.15585564098E+03  0.20730783975E+03  0.94753598860E+02 0.  0.
          5    1    3    3  502    0 -0.18153542755E+01  0.38058623285E+01 -0.18582758752E+03  0.18592241603E+03  0.41800000000E+01 0. -1.
         -5    1    3    3    0  502 -0.53255982649E+02 -0.85503248752E+02 -0.10450429168E+03  0.14520889991E+03  0.41800000000E+01 0. -1.
        -11    1    4    4    0    0  0.45998605461E+02  0.39781180272E+02 -0.18732207356E+02  0.63634185785E+02  0.00000000000E+00 0.  1.
         11    1    4    4    0    0  0.90727314637E+01  0.41916206151E+02 -0.13712343362E+03  0.14367365396E+03  0.00000000000E+00 0. -1.
</event>
<event>
 8    1  0.7052796E-009  0.1028941E+03  0.7561462E-02  0.1274325E+00
         -1   -1    0    0    0  501 -0.00000000000E+00  0.00000000000E+00  0.62188817692E+02  0.62188817692E+02  0.00000000000E+00 0.  1.
          1   -1    0    0  501    0  0.00000000000E+00 -0.00000000000E+00 -0.20776925271E+03  0.20776925271E+03  0.00000000000E+00 0. -1.
         25    2    1    2    0    0  0.28225856234E+02 -0.15721841284E+02 -0.67053592744E+02  0.14555698051E+03  0.12508706976E+03 0.  0.
         23    2    1    2    0    0 -0.28225856234E+02  0.15721841284E+02 -0.78526842270E+02  0.12440108989E+03  0.90913645596E+02 0.  0.
          5    1    3    3  502    0  0.73945834215E+02 -0.29201230999E+02 -0.30149744225E+02  0.85130357491E+02  0.41800000000E+01 0. -1.
         -5    1    3    3    0  502 -0.45719977981E+02  0.13479389716E+02 -0.36903848518E+02  0.60426623016E+02  0.41800000000E+01 0. -1.
        -11    1    4    4    0    0  0.15155486627E+02 -0.17891126998E+02  0.54591359109E+01  0.24074537691E+02  0.00000000000E+00 0.  1.
         11    1    4    4    0    0 -0.43381342861E+02  0.33612968282E+02 -0.83985978181E+02  0.10032655220E+03  0.00000000000E+00 0. -1.
</event>
<event>
 8    1  0.7052796E-009  0.1076485E+03  0.7561462E-02  0.1264987E+00
         -2   -1    0    0    0  501 -0.00000000000E+00  0.00000000000E+00  0.20172552949E+02  0.20172552949E+02  0.00000000000E+00 0. -1.
          2   -1    0    0  501    0  0.00000000000E+00 -0.00000000000E+00 -0.13286134878E+04  0.13286134878E+04  0.00000000000E+00 0.  1.
         25    2    1    2    0    0  0.63431614403E+02  0.57734896384E+02 -0.10572263332E+04  0.10680505522E+04  0.12509026516E+03 0.  0.
         23    2    1    2    0    0 -0.63431614403E+02 -0.57734896384E+02 -0.25121460164E+03  0.28073548856E+03  0.91360552163E+02 0.  0.
          5    1    3    3  502    0  0.23644778465E+02  0.46529446998E+02 -0.13365267041E+03  0.14354293327E+03  0.41800000000E+01 0. -1.
         -5    1    3    3    0  502  0.39786835938E+02  0.11205449387E+02 -0.92357366278E+03  0.92450761890E+03  0.41800000000E+01 0. -1.
        -11    1    4    4    0    0 -0.11663555068E+02  0.22825163867E+02 -0.28639429053E+02  0.38434925769E+02  0.00000000000E+00 0. -1.
         11    1    4    4    0    0 -0.51768059334E+02 -0.80560060251E+02 -0.22257517259E+03  0.24230056279E+03  0.00000000000E+00 0.  1.
</event>
<event>
 8    1  0.7052796E-009  0.8978791E+02  0.7561462E-02  0.1303366E+00
          1   -1    0    0  501    0  0.00000000000E+00  0.00000000000E+00  0.86012497539E+02  0.86012497539E+02  0.00000000000E+00 0. -1.
         -1   -1    0    0    0  501 -0.00000000000E+00 -0.00000000000E+00 -0.18249809298E+03  0.18249809298E+03  0.00000000000E+00 0.  1.
         25    2    1    2    0    0  0.37483204218E+02 -0.47445450578E+02 -0.42027491625E+02  0.14516300407E+03  0.12509966554E+03 0.  0.
         23    2    1    2    0    0 -0.37483204218E+02  0.47445450578E+02 -0.54458103817E+02  0.12334758645E+03  0.92697791952E+02 0.  0.
          5    1    3    3  502    0  0.36412332517E+02 -0.96738403498E+01  0.39782846210E+02  0.54950781605E+02  0.41800000000E+01 0. -1.
         -5    1    3    3    0  502  0.10708717004E+01 -0.37771610228E+02 -0.81810337835E+02  0.90212222465E+02  0.41800000000E+01 0. -1.
        -11    1    4    4    0    0  0.21634448953E+02 -0.75451486122E+01 -0.32338814702E+02  0.39633036540E+02  0.00000000000E+00 0.  1.
         11    1    4    4    0    0 -0.59117653170E+02  0.54990599190E+02 -0.22119289114E+02  0.83714549910E+02  0.00000000000E+00 0. -1.
</event>
<event>
 8    1  0.7052796E-009  0.1047118E+03  0.7561462E-02  0.1270689E+00
         -1   -1    0    0    0  501 -0.00000000000E+00  0.00000000000E+00  0.37357668098E+02  0.37357668098E+02  0.00000000000E+00 0. -1.
          1   -1    0    0  501    0  0.00000000000E+00 -0.00000000000E+00 -0.52536425879E+03  0.52536425879E+03  0.00000000000E+00 0.  1.
         25    2    1    2    0    0 -0.24750342343E+02  0.21226931303E+02 -0.43342771491E+03  0.45229354383E+03  0.12508678461E+03 0.  0.
         23    2    1    2    0    0  0.24750342343E+02 -0.21226931303E+02 -0.54578875786E+02  0.11042838306E+03  0.90290708513E+02 0.  0.
          5    1    3    3  502    0 -0.68343727923E+02  0.77235150060E+01 -0.14854889780E+03  0.16375214584E+03  0.41800000000E+01 0. -1.
         -5    1    3    3    0  502  0.43593385580E+02  0.13503416297E+02 -0.28487881711E+03  0.28854139800E+03  0.41800000000E+01 0. -1.
        -11    1    4    4    0    0  0.42452165754E+02 -0.47057028754E+02 -0.27718440339E+02  0.69172698857E+02  0.00000000000E+00 0. -1.
         11    1    4    4    0    0 -0.17701823411E+02  0.25830097451E+02 -0.26860435447E+02  0.41255684200E+02  0.00000000000E+00 0.  1.
</event>
<event>
 8    1  0.7052796E-009  0.1302981E+03  0.7561462E-02  0.1227014E+00
          4   -1    0    0  501    0  0.00000000000E+00  0.00000000000E+00  0.15883854402E+03  0.15883854402E+03  0.00000000000E+00 0.  1.
         -4   -1    0    0    0  501 -0.00000000000E+00 -0.00000000000E+00 -0.21564876614E+03  0.21564876614E+03  0.00000000000E+00 0. -1.
         25    2    1    2    0    0 -0.91924028020E+02 -0.20297324232E+02  0.88197777034E+02  0.17969037845E+03  0.12509107057E+03 0.  0.
         23    2    1    2    0    0  0.91924028020E+02  0.20297324232E+02 -0.14500799916E+03  0.19479693171E+03  0.89758099830E+02 0.  0.
          5    1    3    3  502    0 -0.39308773901E+02 -0.62803862838E+02  0.79169303908E+01  0.74630121800E+02  0.41800000000E+01 0.  1.
         -5    1    3    3    0  502 -0.52615254119E+02  0.42506538606E+02  0.80280846643E+02  0.10506025665E+03  0.41800000000E+01 0.  1.
        -11    1    4    4    0    0  0.30814299269E+02  0.43451654632E+02 -0.26572435897E+02  0.59528662669E+02  0.00000000000E+00 0.  1.
         11    1    4    4    0    0  0.61109728751E+02 -0.23154330399E+02 -0.11843556326E+03  0.13526826904E+03  0.00000000000E+00 0. -1.
</event>
<event>
 8    1  0.7052796E-009  0.8974188E+02  0.7561462E-02  0.1303478E+00
         -3   -1    0    0    0  501 -0.00000000000E+00  0.00000000000E+00  0.18596055305E+03  0.18596055305E+03  0.00000000000E+00 0.  1.
          3   -1    0    0  501    0  0.00000000000E+00 -0.00000000000E+00 -0.86706448522E+02  0.86706448522E+02  0.00000000000E+00 0. -1.
         25    2    1    2    0    0 -0.47166069601E+02  0.16816490284E+02  0.99352679481E+02  0.16740627463E+03  0.12508586411E+03 0.  0.
         23    2    1    2    0    0  0.47166069601E+02 -0.16816490284E+02 -0.98574956162E-01  0.10526072694E+03  0.92587139770E+02 0.  0.
          5    1    3    3  502    0  0.89646571315E+01  0.58518925593E+02  0.22637910504E+02  0.63519895482E+02  0.41800000000E+01 0. -1.
         -5    1    3    3    0  502 -0.56130726732E+02 -0.41702435309E+02  0.76714768977E+02  0.10388637915E+03  0.41800000000E+01 0. -1.
        -11    1    4    4    0    0  0.13063677397E+02 -0.42097890631E+01  0.45164201931E+02  0.47203677051E+02  0.00000000000E+00 0.  1.
         11    1    4    4    0    0  0.34102392204E+02 -0.12606701221E+02 -0.45262776887E+02  0.58057049884E+02  0.00000000000E+00 0. -1.
</event>
<event>
 8    1  0.7052796E-009  0.1244156E+03  0.7561462E-02  0.1235985E+00
          2   -1    0    0  501    0  0.00000000000E+00  0.00000000000E+00  0.83667283012E+03  0.83667283012E+03  0.00000000000E+00 0.  1.
         -2   -1    0    0    0  501 -0.00000000000E+00 -0.00000000000E+00 -0.43083904648E+02  0.43083904648E+02  0.00000000000E+00 0. -1.
         25    2    1    2    0    0  0.22893109488E+02  0.10057445355E+03  0.68772074968E+03  0.70657433132E+03  0.12509252964E+03 0.  0.
         23    2    1    2    0    0 -0.22893109488E+02 -0.10057445355E+03  0.10586817579E+03  0.17318240345E+03  0.90248318825E+02 0.  0.
          5    1    3    3  502    0  0.42211121760E+02  0.40770441506E+02  0.10418741191E+03  0.11965156456E+03  0.41800000000E+01 0.  1.
         -5    1    3    3    0  502 -0.19318012271E+02  0.59804012039E+02  0.58353333777E+03  0.58692276676E+03  0.41800000000E+01 0.  1.
        -11    1    4    4    0    0  0.19116948421E+02 -0.75944247579E+02  0.95302668521E+02  0.12335146973E+03  0.00000000000E+00 0.  1.
         11    1    4    4    0    0 -0.42010057909E+02 -0.24630205966E+02  0.10565507272E+02  0.49830933720E+02  0.00000000000E+00 0. -1.
</event>
<event>
 8    1  0.7052796E-009  0.1027350E+03  0.7561462E-02  0.1274648E+00
          2   -1    0    0  501    0  0.00000000000E+00  0.00000000000E+00  0.66441106212E+02  0.66441106212E+02  0.00000000000E+00 0. -1.
         -2   -1    0    0    0  501 -0.00000000000E+00 -0.00000000000E+00 -0.18650926865E+03  0.18650926865E+03  0.00000000000E+00 0.  1.
         25    2    1    2    0    0 -0.26304432589E+02 -0.17163413321E+01 -0.75884817543E+02  0.14866338273E+03  0.12508967516E+03 0.  0.
         23    2    1    2    0    0  0.26304432589E+02  0.17163413321E+01 -0.44183344894E+02  0.10428699213E+03  0.90712401354E+02 0.  0.
          5    1    3    3  502    0 -0.47041015965E+02  0.42390967465E+02 -0.76939122019E+02  0.99734408319E+02  0.41800000000E+01 0. -1.
         -5    1    3    3    0  502  0.20736583376E+02 -0.44107308797E+02  0.10543044765E+01  0.48928974416E+02  0.41800000000E+01 0. -1.
        -11    1    4    4    0    0  0.17062411151E+02  0.45368759703E+02 -0.14126469639E+02  0.50487695290E+02  0.00000000000E+00 0. -1.
         11    1    4    4    0    0  0.92420214380E+01 -0.43652418371E+02 -0.30056875255E+02  0.53799296836E+02  0.00000000000E+00 0.  1.
</event>
<event>
 8    1  0.7052796E-009  0.1329079E+03  0.7561462E-02  0.1223204E+00
         -1   -1    0    0    0  501 -0.00000000000E+00  0.00000000000E+00  0.35517525090E+02  0.35517525090E+02  0.00000000000E+00 0.  1.
          1   -1    0    0  501    0  0.00000000000E+00 -0.00000000000E+00 -0.63823407335E+03  0.63823407335E+03  0.00000000000E+00 0. -1.
         25    2    1    2    0    0  0.30901378357E+02 -0.89648362893E+02 -0.22845894003E+03  0.27718683816E+03  0.12508929537E+03 0.  0.
         23    2    1    2    0    0 -0.30901378357E+02  0.89648362893E+02 -0.37425760823E+03  0.39656476028E+03  0.90571119147E+02 0.  0.
          5    1    3    3  502    0  0.73767903114E+02 -0.23137701410E+02 -0.12155931780E+03  0.14412215965E+03  0.41800000000E+01 0.  1.
         -5    1    3    3    0  502 -0.42866524758E+02 -0.66510661483E+02 -0.10689962223E+03  0.13306467851E+03  0.41800000000E+01 0.  1.
        -11    1    4    4    0    0 -0.89343270493E+01  0.86502005525E+02 -0.35960966807E+03  0.36997504312E+03  0.00000000000E+00 0. -1.
         11    1    4    4    0    0 -0.21967051307E+02  0.31463573676E+01 -0.14647940159E+02  0.26589717162E+02  0.00000000000E+00 0.  1.
</event>
<event>
 8    1  0.7052796E-009  0.4279388E+03  0.7561462E-02  0.1034513E+00
         -2   -1    0    0    0  501 -0.00000000000E+00  0.00000000000E+00  0.10167622883E+03  0.10167622883E+03  0.00000000000E+00 0.  1.
          2   -1    0    0  501    0  0.00000000000E+00 -0.00000000000E+00 -0.19058947163E+04  0.19058947163E+04  0.00000000000E+00 0. -1.
         25    2    1    2    0    0 -0.30416432907E+03  0.29559083355E+03 -0.10147929151E+04  0.11069508727E+04  0.12508274941E+03 0.  0.
         23    2    1    2    0    0  0.30416432907E+03 -0.29559083355E+03 -0.78942557242E+03  0.90062007241E+03  0.89632028233E+02 0.  0.
          5    1    3    3  502    0 -0.63722074022E+02  0.31218521854E+02 -0.29337086602E+03  0.30185929877E+03  0.41800000000E+01 0. -1.
         -5    1    3    3    0  502 -0.24044225505E+03  0.26437231170E+03 -0.72142204907E+03  0.80509157398E+03  0.41800000000E+01 0. -1.
        -11    1    4    4    0    0  0.55631519055E+02 -0.85367587929E+02 -0.25838640566E+03  0.27775173377E+03  0.00000000000E+00 0. -1.
         11    1    4    4    0    0  0.24853281001E+03 -0.21022324562E+03 -0.53103916676E+03  0.62286833864E+03  0.00000000000E+00 0.  1.
</event>
<event>
 8    1  0.7052796E-009  0.1519015E+03  0.7561462E-02  0.1198156E+00
          2   -1    0    0  501    0  0.00000000000E+00  0.00000000000E+00  0.17420353303E+03  0.17420353303E+03  0.00000000000E+00 0. -1.
         -2   -1    0    0    0  501 -0.00000000000E+00 -0.00000000000E+00 -0.40983094426E+03  0.40983094426E+03  0.00000000000E+00 0.  1.
         25    2    1    2    0    0 -0.13685927137E+03  0.56105968944E+01 -0.34103528268E+03  0.38821817613E+03  0.12508536800E+03 0.  0.
         23    2    1    2    0    0  0.13685927137E+03 -0.56105968944E+01  0.10540787145E+03  0.19581630116E+03  0.92039477842E+02 0.  0.
          5    1    3    3  502    0 -0.53740238773E+02  0.24899843205E+02 -0.31710587692E+02  0.67313068766E+02  0.41800000000E+01 0.  1.
         -5    1    3    3    0  502 -0.83119032594E+02 -0.19289246310E+02 -0.30932469499E+03  0.32090510736E+03  0.41800000000E+01 0.  1.
        -11    1    4    4    0    0  0.11014143342E+03  0.30303987689E+02  0.50296840852E+02  0.12481682269E+03  0.00000000000E+00 0.  1.
         11    1    4    4    0    0  0.26717837942E+02 -0.35914584584E+02  0.55111030596E+02  0.70999478473E+02  0.00000000000E+00 0. -1.
</event>
<event>
 8    1  0.7052796E-009  0.9825472E+02  0.7561462E-02  0.1284009E+00
         -2   -1    0    0    0  501 -0.00000000000E+00  0.00000000000E+00  0.13853077624E+02  0.13853077624E+02  0.00000000000E+00 0.  1.
          2   -1    0    0  501    0  0.00000000000E+00 -0.00000000000E+00 -0.10675420680E+04  0.10675420680E+04  0.00000000000E+00 0. -1.
         25    2    1    2    0    0 -0.35347058720E+02 -0.21277566235E+02 -0.74929856708E+03  0.76078846843E+03  0.12509437110E+03 0.  0.
         23    2    1    2    0    0  0.35347058720E+02  0.21277566235E+02 -0.30439042334E+03  0.32060667724E+03  0.91831161837E+02 0.  0.
          5    1    3    3  502    0  0.41284398476E+02 -0.12190056912E+02 -0.43430832115E+03  0.43645640019E+03  0.41800000000E+01 0.  1.
         -5    1    3    3    0  502 -0.76631457196E+02 -0.90875093225E+01 -0.31499024593E+03  0.32433206824E+03  0.41800000000E+01 0.  1.
        -11    1    4    4    0    0 -0.14824575889E+02 -0.90353021626E+01 -0.91913697095E+01  0.19643981587E+02  0.00000000000E+00 0.  1.
         11    1    4    4    0    0  0.50171634609E+02  0.30312868398E+02 -0.29519905363E+03  0.30096269565E+03  0.00000000000E+00 0. -1.
</event>
<event>
 8    1  0.7052796E-009  0.1433983E+03  0.7561462E-02  0.1208828E+00
          2   -1    0    0  501    0  0.00000000000E+00  0.00000000000E+00  0.18421544811E+04  0.18421544811E+04  0.00000000000E+00 0. -1.
         -2   -1    0    0    0  501 -0.00000000000E+00 -0.00000000000E+00 -0.11778860554E+02  0.11778860554E+02  0.00000000000E+00 0.  1.
         25    2    1    2    0    0 -0.93590928236E+01  0.95735533221E+02  0.11346870037E+04  0.11456067770E+04  0.12508959233E+03 0.  0.
         23    2    1    2    0    0  0.93590928236E+01 -0.95735533221E+02  0.69568861681E+03  0.70832656466E+03  0.92146544715E+02 0.  0.
          5    1    3    3  502    0  0.51470334282E+02  0.74196463794E+02  0.76301779094E+03  0.76835404095E+03  0.41800000000E+01 0. -1.
         -5    1    3    3    0  502 -0.60829427106E+02  0.21539069427E+02  0.37166921280E+03  0.37725273605E+03  0.41800000000E+01 0. -1.
        -11    1    4    4    0    0 -0.36195498667E+02 -0.15305881195E+02  0.16246135784E+03  0.16714687229E+03  0.00000000000E+00 0. -1.
         11    1    4    4    0    0  0.45554591491E+02 -0.80429652026E+02  0.53322725897E+03  0.54117969237E+03  0.00000000000E+00 0.  1.
</event>
<event>
 8    1  0.7052796E-009  0.1117232E+03  0.7561462E-02  0.1257412E+00
          1   -1    0    0  501    0  0.00000000000E+00  0.00000000000E+00  0.92567468555E+02  0.92567468555E+02  0.00000000000E+00 0. -1.
         -1   -1    0    0    0  501 -0.00000000000E+00 -0.00000000000E+00 -0.14705694721E+03  0.14705694721E+03  0.00000000000E+00 0.  1.
         25    2    1    2    0    0  0.24350672373E+02  0.20663912581E+02 -0.59484327211E+02  0.14214608279E+03  0.12508865312E+03 0.  0.
         23    2    1    2    0    0 -0.24350672373E+02 -0.20663912581E+02  0.49948485580E+01  0.97478332975E+02  0.91962624796E+02 0.  0.
          5    1    3    3  502    0  0.58377028599E+02 -0.31659944804E+02 -0.31336695627E+02  0.73550597998E+02  0.41800000000E+01 0.  1.
         -5    1    3    3    0  502 -0.34026356226E+02  0.52323857385E+02 -0.28147631584E+02  0.68595484789E+02  0.41800000000E+01 0.  1.
        -11    1    4    4    0    0 -0.30432268421E+02 -0.53179626219E+02 -0.82920986973E+01  0.61830045341E+02  0.00000000000E+00 0.  1.
         11    1    4    4    0    0  0.60815960484E+01  0.32515713638E+02  0.13286947255E+02  0.35648287634E+02  0.00000000000E+00 0. -1.
</event>
<event>
 8    1  0.7052796E-009  0.9859061E+02  0.7561462E-02  0.1283288E+00
          1   -1    0    0  501    0  0.00000000000E+00  0.00000000000E+00  0.59959745906E+03  0.59959745906E+03  0.00000000000E+00 0. -1.
         -1   -1    0    0    0  501 -0.00000000000E+00 -0.00000000000E+00 -0.36195468905E+02  0.36195468905E+02  0.00000000000E+00 0.  1.
         25    2    1    2    0    0 -0.99189098406E+01  0.44175053566E+02  0.49772926343E+03  0.51520066913E+03  0.12508992632E+03 0.  0.
         23    2    1    2    0    0  0.99189098406E+01 -0.44175053566E+02  0.65672726723E+02  0.12059225883E+03  0.90442057283E+02 0.  0.
          5    1    3    3  502    0  0.31838024510E+02  0.47809098900E+02  0.43991468327E+03  0.44366853697E+03  0.41800000000E+01 0. -1.
         -5    1    3    3    0  502 -0.41756934350E+02 -0.36340453338E+01  0.57814580159E+02  0.71532132156E+02  0.41800000000E+01 0. -1.
        -11    1    4    4    0    0 -0.36494928137E+02 -0.52094886486E+01  0.97540920817E+01  0.38133461212E+02  0.00000000000E+00 0. -1.
         11    1    4    4    0    0  0.46413837977E+02 -0.38965564917E+02  0.55918634642E+02  0.82458797622E+02  0.00000000000E+00 0.  1.
</event>
<event>
 8    1  0.7052796E-009  0.1370428E+03  0.7561462E-02  0.1217364E+00
          1   -1    0    0  501    0  0.00000000000E+00  0.00000000000E+00  0.61703904164E+03  0.61703904164E+03  0.00000000000E+00 0. -1.
         -1   -1    0    0    0  501 -0.00000000000E+00 -0.00000000000E+00 -0.39444423277E+02  0.39444423277E+02  0.00000000000E+00 0.  1.
         25    2    1    2    0    0  0.89474498474E+01  0.91728953938E+02  0.17541914782E+03  0.23433891428E+03  0.12509433030E+03 0.  0.
         23    2    1    2    0    0 -0.89474498474E+01 -0.91728953938E+02  0.40217547054E+03  0.42214455064E+03  0.89256118441E+02 0.  0.
          5    1    3    3  502    0 -0.27071678827E+02  0.11094067499E+03  0.13216507357E+03  0.17471630786E+03  0.41800000000E+01 0. -1.
         -5    1    3    3    0  502  0.36019128675E+02 -0.19211721052E+02  0.43254074250E+02  0.59622606413E+02  0.41800000000E+01 0. -1.
        -11    1    4    4    0    0  0.31932846557E+02 -0.56091292082E+02  0.13650689699E+03  0.15099692932E+03  0.00000000000E+00 0.  1.
         11    1    4    4    0    0 -0.40880296404E+02 -0.35637661856E+02  0.26566857355E+03  0.27114762132E+03  0.00000000000E+00 0. -1.
</event>
<event>
 8    1  0.7052796E-009  0.1103648E+03  0.7561462E-02  0.1259896E+00
          2   -1    0    0  501    0  0.00000000000E+00  0.00000000000E+00  0.19578161400E+04  0.19578161400E+04  0.00000000000E+00 0. -1.
         -2   -1    0    0    0  501 -0.00000000000E+00 -0.00000000000E+00 -0.13730004531E+02  0.13730004531E+02  0.00000000000E+00 0.  1.
         25    2    1    2    0    0  0.29341071839E+02 -0.16389976462E+02  0.17629986164E+04  0.17677493808E+04  0.12507686429E+03 0.  0.
         23    2    1    2    0    0 -0.29341071839E+02  0.16389976462E+02  0.18108751903E+03  0.20379676372E+03  0.87240481013E+02 0.  0.
          5    1    3    3  502    0 -0.25504140294E+02 -0.56018147395E+02  0.85841839511E+03  0.86063238811E+03  0.41800000000E+01 0.  1.
         -5    1    3    3    0  502  0.54845212133E+02  0.39628170933E+02  0.90458022132E+03  0.90711699269E+03  0.41800000000E+01 0.  1.
        -11    1    4    4    0    0  0.70656601422E+01  0.44619357273E+02  0.67498773904E+02  0.81221272308E+02  0.00000000000E+00 0.  1.
         11    1    4    4    0    0 -0.36406731981E+02 -0.28229380811E+02  0.11358874513E+03  0.12257549141E+03  0.00000000000E+00 0. -1.
</event>
<event>
 8    1  0.7052796E-009  0.8676574E+02  0.7561462E-02  0.1310878E+00
         -3   -1    0    0    0  501 -0.00000000000E+00  0.00000000000E+00  0.10897671632E+03  0.10897671632E+03  0.00000000000E+00 0.  1.
          3   -1    0    0  501    0  0.00000000000E+00 -0.00000000000E+00 -0.16342990519E+03  0.16342990519E+03  0.00000000000E+00 0. -1.
         25    2    1    2    0    0  0.37324026935E+02 -0.33321509645E+02  0.31144499741E+02  0.13827874012E+03  0.12509046372E+03 0.  0.
         23    2    1    2    0    0 -0.37324026935E+02  0.33321509645E+02 -0.85597688610E+02  0.13412788139E+03  0.90332265992E+02 0.  0.
          5    1    3    3  502    0  0.36693688462E+01 -0.42724404450E+02 -0.40073172725E+02  0.58840212232E+02  0.41800000000E+01 0.  1.
         -5    1    3    3    0  502  0.33654658089E+02  0.94028948045E+01  0.71217672466E+02  0.79438527890E+02  0.41800000000E+01 0.  1.
        -11    1    4    4    0    0 -0.19161456308E+02  0.59996820433E+02 -0.79264982937E+02  0.10124088794E+03  0.00000000000E+00 0.  1.
         11    1    4    4    0    0 -0.18162570627E+02 -0.26675310788E+02 -0.63327056727E+01  0.32886993455E+02  0.00000000000E+00 0. -1.
</event>
<event>
 8    1  0.7052796E-009  0.1512846E+03  0.7561462E-02  0.1198903E+00
         -1   -1    0    0    0  501 -0.00000000000E+00  0.00000000000E+00  0.74052000806E+02  0.74052000806E+02  0.00000000000E+00 0.  1.
          1   -1    0    0  501    0  0.00000000000E+00 -0.00000000000E+00 -0.49709952851E+03  0.49709952851E+03  0.00000000000E+00 0. -1.
         25    2    1    2    0    0 -0.97259538660E+02 -0.88330762053E+02 -0.34037450789E+03  0.38569887044E+03  0.12508825544E+03 0.  0.
         23    2    1    2    0    0  0.97259538660E+02  0.88330762053E+02 -0.82673019809E+02  0.18545265887E+03  0.10146979400E+03 0.  0.
          5    1    3    3  502    0 -0.12563828713E+01  0.19225223874E+01  0.10143639583E+02  0.11208943493E+02  0.41800000000E+01 0.  1.
         -5    1    3    3    0  502 -0.96003155788E+02 -0.90253284441E+02 -0.35051814748E+03  0.37448992694E+03  0.41800000000E+01 0.  1.
        -11    1    4    4    0    0  0.11845321983E+03  0.81174376466E+02 -0.72873314116E+02  0.16103094297E+03  0.00000000000E+00 0.  1.
         11    1    4    4    0    0 -0.21193681170E+02  0.71563855871E+01 -0.97997056926E+01  0.24421715907E+02  0.00000000000E+00 0. -1.
</event>
<event>
 8    1  0.7052796E-009  0.1764515E+03  0.7561462E-02  0.1171282E+00
          1   -1    0    0  501    0  0.00000000000E+00  0.00000000000E+00  0.11605627425E+03  0.11605627425E+03  0.00000000000E+00 0. -1.
         -1   -1    0    0    0  501 -0.00000000000E+00 -0.00000000000E+00 -0.34191206708E+03  0.34191206708E+03  0.00000000000E+00 0.  1.
         25    2    1    2    0    0 -0.61269182324E+02 -0.15490373192E+03 -0.12848614601E+03  0.24474923977E+03  0.12507766301E+03 0.  0.
         23    2    1    2    0    0  0.61269182324E+02  0.15490373192E+03 -0.97369646820E+02  0.21321910157E+03  0.90732895276E+02 0.  0.
          5    1    3    3  502    0 -0.56028562193E+02 -0.72083722213E+02  0.40789858165E+00  0.91394209723E+02  0.41800000000E+01 0.  1.
         -5    1    3    3    0  502 -0.52406201308E+01 -0.82820009706E+02 -0.12889404460E+03  0.15335503004E+03  0.41800000000E+01 0.  1.
        -11    1    4    4    0    0  0.69688214427E+02  0.94421951048E+02 -0.27705749309E+02  0.12058010041E+03  0.00000000000E+00 0. -1.
         11    1    4    4    0    0 -0.84190321024E+01  0.60481780871E+02 -0.69663897511E+02  0.92639001157E+02  0.00000000000E+00 0.  1.
</event>
<event>
 8    1  0.7052796E-009  0.1012858E+03  0.7561462E-02  0.1277615E+00
          1   -1    0    0  501    0  0.00000000000E+00  0.00000000000E+00  0.16330774861E+03  0.16330774861E+03  0.00000000000E+00 0. -1.
         -1   -1    0    0    0  501 -0.00000000000E+00 -0.00000000000E+00 -0.73184894634E+02  0.73184894634E+02  0.00000000000E+00 0.  1.
         25    2    1    2    0    0  0.96067630941E+01 -0.29579872640E+01  0.54017689028E+02  0.13662296690E+03  0.12508750845E+03 0.  0.
         23    2    1    2    0    0 -0.96067630941E+01  0.29579872640E+01  0.36105164950E+02  0.99869676347E+02  0.92570674254E+02 0.  0.
          5    1    3    3  502    0 -0.48045135614E+02 -0.24947129186E+02  0.51331703703E+02  0.74720214908E+02  0.41800000000E+01 0. -1.
         -5    1    3    3    0  502  0.57651898708E+02  0.21989141922E+02  0.26859853253E+01  0.61902751992E+02  0.41800000000E+01 0. -1.
        -11    1    4    4    0    0 -0.46730697039E+02 -0.86689420118E+01  0.11061005938E+01  0.47540846226E+02  0.00000000000E+00 0.  1.
         11    1    4    4    0    0  0.37123933945E+02  0.11626929276E+02  0.34999064357E+02  0.52328830121E+02  0.00000000000E+00 0. -1.
</event>
<event>
 8    1  0.7052796E-009  0.1072875E+03  0.7561462E-02  0.1265677E+00
         -3   -1    0    0    0  501 -0.00000000000E+00  0.00000000000E+00  0.37713123712E+03  0.37713123712E+03  0.00000000000E+00 0.  1.
          3   -1    0    0  501    0  0.00000000000E+00 -0.00000000000E+00 -0.40255499159E+02  0.40255499159E+02  0.00000000000E+00 0. -1.
         25    2    1    2    0    0  0.56105365125E+02 -0.10106976128E+02  0.18362467688E+03  0.22938663014E+03  0.12510092392E+03 0.  0.
         23    2    1    2    0    0 -0.56105365125E+02  0.10106976128E+02  0.15325106108E+03  0.18800010614E+03  0.92780327785E+02 0.  0.
          5    1    3    3  502    0  0.58039576011E+02  0.49307718179E+02  0.85427761532E+02  0.11452169356E+03  0.41800000000E+01 0. -1.
         -5    1    3    3    0  502 -0.19342108866E+01 -0.59414694307E+02  0.98196915347E+02  0.11486493658E+03  0.41800000000E+01 0. -1.
        -11    1    4    4    0    0 -0.62111953685E+02 -0.51388987287E+01  0.15888557431E+03  0.17067199182E+03  0.00000000000E+00 0.  1.
         11    1    4    4    0    0  0.60065885603E+01  0.15245874857E+02 -0.56345132294E+01  0.17328114312E+02  0.00000000000E+00 0. -1.
</event>
<event>
 8    1  0.7052796E-009  0.2685204E+03  0.7561462E-02  0.1102129E+00
          1   -1    0    0  501    0  0.00000000000E+00  0.00000000000E+00  0.11623808185E+04  0.11623808185E+04  0.00000000000E+00 0. -1.
         -1   -1    0    0    0  501 -0.00000000000E+00 -0.00000000000E+00 -0.91539670739E+02  0.91539670739E+02  0.00000000000E+00 0.  1.
         25    2    1    2    0    0 -0.25977247090E+02 -0.25387418067E+03  0.87275644356E+03  0.91786743235E+03  0.12509954681E+03 0.  0.
         23    2    1    2    0    0  0.25977247090E+02  0.25387418067E+03  0.19808470422E+03  0.33605305691E+03  0.92559116424E+02 0.  0.
          5    1    3    3  502    0 -0.72426441981E+02 -0.16145144237E+03  0.47654528881E+03  0.50835523252E+03  0.41800000000E+01 0. -1.
         -5    1    3    3    0  502  0.46449194891E+02 -0.92422738305E+02  0.39621115475E+03  0.40951219983E+03  0.41800000000E+01 0. -1.
        -11    1    4    4    0    0  0.25634528874E+02  0.12305889484E+03  0.42296996177E+02  0.13262600256E+03  0.00000000000E+00 0.  1.
         11    1    4    4    0    0  0.34271821619E+00  0.13081528584E+03  0.15578770805E+03  0.20342705435E+03  0.00000000000E+00 0. -1.
</event>
<event>
 8    1  0.7052796E-009  0.1166131E+03  0.7561462E-02  0.1248791E+00
          1   -1    0    0  501    0  0.00000000000E+00  0.00000000000E+00  0.60046964370E+03  0.60046964370E+03  0.00000000000E+00 0. -1.
         -1   -1    0    0    0  501 -0.00000000000E+00 -0.00000000000E+00 -0.24510011375E+02  0.24510011375E+02  0.00000000000E+00 0.  1.
         25    2    1    2    0    0  0.26978451054E+02  0.44101059819E+02  0.28886898799E+03  0.31900826334E+03  0.12509292369E+03 0.  0.
         23    2    1    2    0    0 -0.26978451054E+02 -0.44101059819E+02  0.28709064434E+03  0.30597139174E+03  0.92329378846E+02 0.  0.
          5    1    3    3  502    0  0.57201167868E+02 -0.21411155973E+02  0.10649768437E+03  0.12283989736E+03  0.41800000000E+01 0. -1.
         -5    1    3    3    0  502 -0.30222716814E+02  0.65512215792E+02  0.18237130362E+03  0.19616836598E+03  0.41800000000E+01 0. -1.
        -11    1    4    4    0    0  0.50112604779E+01 -0.62589404223E+02  0.22614978436E+03  0.23470464678E+03  0.00000000000E+00 0. -1.
         11    1    4    4    0    0 -0.31989711532E+02  0.18488344404E+02  0.60940859976E+02  0.71266744960E+02  0.00000000000E+00 0.  1.
</event>
<event>
 8    1  0.7052796E-009  0.1258520E+03  0.7561462E-02  0.1233744E+00
         -1   -1    0    0    0  501 -0.00000000000E+00  0.00000000000E+00  0.28654699708E+02  0.28654699708E+02  0.00000000000E+00 0.  1.
          1   -1    0    0  501    0  0.00000000000E+00 -0.00000000000E+00 -0.70585059835E+03  0.70585059835E+03  0.00000000000E+00 0. -1.
         25    2    1    2    0    0  0.78872382984E+02  0.13103811206E+02 -0.46341170933E+03  0.48661121899E+03  0.12508998135E+03 0.  0.
         23    2    1    2    0    0 -0.78872382984E+02 -0.13103811206E+02 -0.21378418931E+03  0.24789407907E+03  0.96722449171E+02 0.  0.
          5    1    3    3  502    0 -0.16592190852E+02  0.39392726259E+02 -0.82400496019E+02  0.92921482035E+02  0.41800000000E+01 0.  1.
         -5    1    3    3    0  502  0.95464573836E+02 -0.26288915053E+02 -0.38101121331E+03  0.39368973696E+03  0.41800000000E+01 0.  1.
        -11    1    4    4    0    0 -0.33869575177E+02 -0.43657110214E+02 -0.47252891048E+02  0.72704381623E+02  0.00000000000E+00 0.  1.
         11    1    4    4    0    0 -0.45002807808E+02  0.30553299007E+02 -0.16653129826E+03  0.17518969745E+03  0.00000000000E+00 0. -1.
</event>
<event>
 8    1  0.7052796E-009  0.9919445E+02  0.7561462E-02  0.1281999E+00
          1   -1    0    0  501    0  0.00000000000E+00  0.00000000000E+00  0.43041181450E+03  0.43041181450E+03  0.00000000000E+00 0. -1.
         -1   -1    0    0    0  501 -0.00000000000E+00 -0.00000000000E+00 -0.28105815121E+02  0.28105815121E+02  0.00000000000E+00 0.  1.
         25    2    1    2    0    0 -0.17186294679E+02  0.86913316228E+01  0.22916974991E+03  0.26179935986E+03  0.12509685280E+03 0.  0.
         23    2    1    2    0    0  0.17186294679E+02 -0.86913316228E+01  0.17313624947E+03  0.19671826976E+03  0.91383854184E+02 0.  0.
          5    1    3    3  502    0 -0.61011797073E+01  0.63699283610E+02  0.16165846317E+03  0.17391306518E+03  0.41800000000E+01 0.  1.
         -5    1    3    3    0  502 -0.11085114972E+02 -0.55007951988E+02  0.67511286739E+02  0.87886294682E+02  0.41800000000E+01 0.  1.
        -11    1    4    4    0    0 -0.28768540364E+02 -0.13515417998E+02  0.12885960512E+03  0.13272186433E+03  0.00000000000E+00 0. -1.
         11    1    4    4    0    0  0.45954835043E+02  0.48240863751E+01  0.44276644345E+02  0.63996405428E+02  0.00000000000E+00 0.  1.
</event>
<event>
 8    1  0.7052796E-009  0.1367176E+03  0.7561462E-02  0.1217815E+00
         -1   -1    0    0    0  501 -0.00000000000E+00  0.00000000000E+00  0.25925255090E+02  0.25925255090E+02  0.00000000000E+00 0.  1.
          1   -1    0    0  501    0  0.00000000000E+00 -0.00000000000E+00 -0.12831272817E+04  0.12831272817E+04  0.00000000000E+00 0. -1.
         25    2    1    2    0    0 -0.77738421648E+02 -0.69935586134E+02 -0.10299679043E+04  0.10427931403E+04  0.12509756652E+03 0.  0.
         23    2    1    2    0    0  0.77738421648E+02  0.69935586134E+02 -0.22723412232E+03  0.26625939651E+03  0.91238541599E+02 0.  0.
          5    1    3    3  502    0 -0.14402249418E+02 -0.79063365255E+02 -0.32109351746E+03  0.33102410768E+03  0.41800000000E+01 0. -1.
         -5    1    3    3    0  502 -0.63336172230E+02  0.91277791214E+01 -0.70887438684E+03  0.71176903261E+03  0.41800000000E+01 0. -1.
        -11    1    4    4    0    0  0.18107807198E+02 -0.16049459196E+02 -0.12157599092E+02  0.27079236283E+02  0.00000000000E+00 0.  1.
         11    1    4    4    0    0  0.59630614450E+02  0.85985045330E+02 -0.21507652323E+03  0.23918016023E+03  0.00000000000E+00 0. -1.
</event>
<event>
 8    1  0.7052796E-009  0.1593103E+03  0.7561462E-02  0.1189478E+00
          4   -1    0    0  501    0  0.00000000000E+00  0.00000000000E+00  0.11400066884E+04  0.11400066884E+04  0.00000000000E+00 0. -1.
         -4   -1    0    0    0  501 -0.00000000000E+00 -0.00000000000E+00 -0.24969849564E+02  0.24969849564E+02  0.00000000000E+00 0.  1.
         25    2    1    2    0    0  0.61200367844E+02 -0.11633376685E+03  0.64715620508E+03  0.67211424182E+03  0.12508944780E+03 0.  0.
         23    2    1    2    0    0 -0.61200367844E+02  0.11633376685E+03  0.46788063379E+03  0.49286229618E+03  0.81987347701E+02 0.  0.
          5    1    3    3  502    0  0.72728635873E+01  0.22589567040E+02  0.38123291073E+02  0.45100341529E+02  0.41800000000E+01 0.  1.
         -5    1    3    3    0  502  0.53927504257E+02 -0.13892333389E+03  0.60903291401E+03  0.62701390029E+03  0.41800000000E+01 0.  1.
        -11    1    4    4    0    0 -0.64436804569E+02  0.57028278710E+02  0.18811070183E+03  0.20685734819E+03  0.00000000000E+00 0.  1.
         11    1    4    4    0    0  0.32364367248E+01  0.59305488141E+02  0.27976993196E+03  0.28600494799E+03  0.00000000000E+00 0. -1.
</event>
<event>
 8    1  0.7052796E-009  0.1129948E+03  0.7561462E-02  0.1255122E+00
         -2   -1    0    0    0  501 -0.00000000000E+00  0.00000000000E+00  0.74875780970E+02  0.74875780970E+02  0.00000000000E+00 0.  1.
          2   -1    0    0  501    0  0.00000000000E+00 -0.00000000000E+00 -0.28051059723E+03  0.28051059723E+03  0.00000000000E+00 0. -1.
         25    2    1    2    0    0 -0.59533863472E+02  0.70050073714E+02 -0.15142975655E+03  0.21687317201E+03  0.12510678576E+03 0.  0.
         23    2    1    2    0    0  0.59533863472E+02 -0.70050073714E+02 -0.54205059709E+02  0.13851320619E+03  0.88297372912E+02 0.  0.
          5    1    3    3  502    0  0.13375964452E+02 -0.11605974122E+02 -0.88882115663E+02  0.90725508790E+02  0.41800000000E+01 0.  1.
         -5    1    3    3    0  502 -0.72909827924E+02  0.81656047835E+02 -0.62547640889E+02  0.12614766322E+03  0.41800000000E+01 0.  1.
        -11    1    4    4    0    0  0.54274026012E+02 -0.39202015713E+02  0.94183070186E+01  0.67610446253E+02  0.00000000000E+00 0.  1.
         11    1    4    4    0    0  0.52598374602E+01 -0.30848058001E+02 -0.63623366728E+02  0.70902759934E+02  0.00000000000E+00 0. -1.
</event>
<event>
 8    1  0.7052796E-009  0.8292792E+02  0.7561462E-02  0.1320942E+00
         -2   -1    0    0    0  501 -0.00000000000E+00  0.00000000000E+00  0.65504097254E+02  0.65504097254E+02  0.00000000000E+00 0.  1.
          2   -1    0    0  501    0  0.00000000000E+00 -0.00000000000E+00 -0.29064524639E+03  0.29064524639E+03  0.00000000000E+00 0. -1.
         25    2    1    2    0    0 -0.18211274627E+01  0.42505571395E+02 -0.27975901709E+02  0.13505968214E+03  0.12509367114E+03 0.  0.
         23    2    1    2    0    0  0.18211274627E+01 -0.42505571395E+02 -0.19716524743E+03  0.22108966150E+03  0.90534322365E+02 0.  0.
          5    1    3    3  502    0 -0.31374187197E+02 -0.67559087542E+01  0.36380234216E+02  0.48692666460E+02  0.41800000000E+01 0.  1.
         -5    1    3    3    0  502  0.29553059734E+02  0.49261480150E+02 -0.64356135924E+02  0.86367015679E+02  0.41800000000E+01 0.  1.
        -11    1    4    4    0    0  0.32345507083E+02 -0.22269077380E+02 -0.17255169866E+03  0.17696392951E+03  0.00000000000E+00 0. -1.
         11    1    4    4    0    0 -0.30524379620E+02 -0.20236494015E+02 -0.24613548761E+02  0.44125731992E+02  0.00000000000E+00 0.  1.
</event>
<event>
 8    1  0.7052796E-009  0.2147139E+03  0.7561462E-02  0.1137887E+00
          1   -1    0    0  501    0  0.00000000000E+00  0.00000000000E+00  0.83134245059E+03  0.83134245059E+03  0.00000000000E+00 0. -1.
         -1   -1    0    0    0  501 -0.00000000000E+00 -0.00000000000E+00 -0.66219364915E+02  0.66219364915E+02  0.00000000000E+00 0.  1.
         25    2    1    2    0    0 -0.74919545580E+02 -0.18658814974E+03  0.51568483691E+03  0.56745670556E+03  0.12509270853E+03 0.  0.
         23    2    1    2    0    0  0.74919545580E+02  0.18658814974E+03  0.24943824876E+03  0.33010510995E+03  0.79510173797E+02 0.  0.
          5    1    3    3  502    0  0.16398876446E+02 -0.47840338874E+02  0.43319847393E+02  0.66721081754E+02  0.41800000000E+01 0.  1.
         -5    1    3    3    0  502 -0.91318422026E+02 -0.13874781086E+03  0.47236498952E+03  0.50073562380E+03  0.41800000000E+01 0.  1.
        -11    1    4    4    0    0  0.66856845848E+02  0.74305699022E+02  0.87255332329E+02  0.13268258274E+03  0.00000000000E+00 0.  1.
         11    1    4    4    0    0  0.80626997328E+01  0.11228245071E+03  0.16218291643E+03  0.19742252720E+03  0.00000000000E+00 0. -1.
</event>
<event>
 8    1  0.7052796E-009  0.1153791E+03  0.7561462E-02  0.1250921E+00
          2   -1    0    0  501    0  0.00000000000E+00  0.00000000000E+00  0.43851734953E+03  0.43851734953E+03  0.00000000000E+00 0. -1.
         -2   -1    0    0    0  501 -0.00000000000E+00 -0.00000000000E+00 -0.34029474256E+02  0.34029474256E+02  0.00000000000E+00 0.  1.
         25    2    1    2    0    0 -0.55615602992E+02  0.10423583851E+02  0.22625408783E+03  0.26465077727E+03  0.12508946900E+03 0.  0.
         23    2    1    2    0    0  0.55615602992E+02 -0.10423583851E+02  0.17823378745E+03  0.20789604652E+03  0.90839070742E+02 0.  0.
          5    1    3    3  502    0 -0.83249634003E+02  0.43468777231E+02  0.15595260906E+03  0.18209537289E+03  0.41800000000E+01 0. -1.
         -5    1    3    3    0  502  0.27634031011E+02 -0.33045193380E+02  0.70301478773E+02  0.82555404384E+02  0.41800000000E+01 0. -1.
        -11    1    4    4    0    0 -0.15009167174E+02 -0.16836846076E+02  0.99107747419E+02  0.10164201928E+03  0.00000000000E+00 0. -1.
         11    1    4    4    0    0  0.70624770166E+02  0.64132622246E+01  0.79126040027E+02  0.10625402724E+03  0.00000000000E+00 0.  1.
</event>
<event>
 8    1  0.7052796E-009  0.1561332E+03  0.7561462E-02  0.1193133E+00
         -1   -1    0    0    0  501 -0.00000000000E+00  0.00000000000E+00  0.15719069756E+03  0.15719069756E+03  0.00000000000E+00 0.  1.
          1   -1    0    0  501    0  0.00000000000E+00 -0.00000000000E+00 -0.18282901175E+03  0.18282901175E+03  0.00000000000E+00 0. -1.
         25    2    1    2    0    0 -0.11820192726E+03  0.52179382537E+02 -0.21179905857E+02  0.18108200296E+03  0.12509084623E+03 0.  0.
         23    2    1    2    0    0  0.11820192726E+03 -0.52179382537E+02 -0.44584083332E+01  0.15893770635E+03  0.92449626947E+02 0.  0.
          5    1    3    3  502    0 -0.14460763200E+03  0.49609959923E+02 -0.16591566061E+02  0.15383519695E+03  0.41800000000E+01 0.  1.
         -5    1    3    3    0  502  0.26405704739E+02  0.25694226131E+01 -0.45883397962E+01  0.27246806004E+02  0.41800000000E+01 0.  1.
        -11    1    4    4    0    0  0.46744100398E+02 -0.53820880094E+01 -0.44353640776E+02  0.64662378888E+02  0.00000000000E+00 0. -1.
         11    1    4    4    0    0  0.71457826867E+02 -0.46797294527E+02  0.39895232443E+02  0.94275327458E+02  0.00000000000E+00 0.  1.
</event>
<event>
 8    1  0.7052796E-009  0.9487011E+02  0.7561462E-02  0.1291469E+00
         -1   -1    0    0    0  501 -0.00000000000E+00  0.00000000000E+00  0.51508856084E+02  0.51508856084E+02  0.00000000000E+00 0.  1.
          1   -1    0    0  501    0  0.00000000000E+00 -0.00000000000E+00 -0.25176784941E+03  0.25176784941E+03  0.00000000000E+00 0. -1.
         25    2    1    2    0    0  0.12725046128E+02  0.20195070266E+02 -0.83579243280E+02  0.15232576218E+03  0.12509148754E+03 0.  0.
         23    2    1    2    0    0 -0.12725046128E+02 -0.20195070266E+02 -0.11667975004E+03  0.15095094331E+03  0.92748345296E+02 0.  0.
          5    1    3    3  502    0  0.47086263689E+02  0.42302999845E+02 -0.90657893781E+02  0.11064802813E+03  0.41800000000E+01 0.  1.
         -5    1    3    3    0  502 -0.34361217561E+02 -0.22107929580E+02  0.70786505005E+01  0.41677734050E+02  0.41800000000E+01 0.  1.
        -11    1    4    4    0    0  0.26200603432E+02  0.17129346832E+02 -0.79519393891E+02  0.85458879866E+02  0.00000000000E+00 0.  1.
         11    1    4    4    0    0 -0.38925649559E+02 -0.37324417098E+02 -0.37160356152E+02  0.65492063448E+02  0.00000000000E+00 0. -1.
</event>
<event>
 8    1  0.7052796E-009  0.2648026E+03  0.7561462E-02  0.1104292E+00
         -1   -1    0    0    0  501 -0.00000000000E+00  0.00000000000E+00  0.77437076820E+03  0.77437076820E+03  0.00000000000E+00 0.  1.
          1   -1    0    0  501    0  0.00000000000E+00 -0.00000000000E+00 -0.11404699747E+03  0.11404699747E+03  0.00000000000E+00 0. -1.
         25    2    1    2    0    0 -0.17403767547E+03  0.17856632389E+03  0.15775020306E+03  0.32048190438E+03  0.12509388457E+03 0.  0.
         23    2    1    2    0    0  0.17403767547E+03 -0.17856632389E+03  0.50257356767E+03  0.56793586130E+03  0.88294434224E+02 0.  0.
          5    1    3    3  502    0 -0.18847912608E+02 -0.18793428812E+02  0.23463680331E+02  0.35727489008E+02  0.41800000000E+01 0. -1.
         -5    1    3    3    0  502 -0.15518976286E+03  0.19735975271E+03  0.13428652273E+03  0.28475441537E+03  0.41800000000E+01 0. -1.
        -11    1    4    4    0    0  0.89716592066E+02 -0.68339300535E+02  0.31516628397E+03  0.33473737981E+03  0.00000000000E+00 0.  1.
         11    1    4    4    0    0  0.84321083405E+02 -0.11022702336E+03  0.18740728370E+03  0.23319848149E+03  0.00000000000E+00 0. -1.
</event>
<event>
 8    1  0.7052796E-009  0.1492312E+03  0.7561462E-02  0.1201421E+00
         -2   -1    0    0    0  501 -0.00000000000E+00  0.00000000000E+00  0.28347175691E+03  0.28347175691E+03  0.00000000000E+00 0.  1.
          2   -1    0    0  501    0  0.00000000000E+00 -0.00000000000E+00 -0.99165721376E+02  0.99165721376E+02  0.00000000000E+00 0. -1.
         25    2    1    2    0    0 -0.34618905660E+02  0.11724239824E+03  0.14026337501E+03  0.22420106290E+03  0.12509218066E+03 0.  0.
         23    2    1    2    0    0  0.34618905660E+02 -0.11724239824E+03  0.44042660524E+02  0.15843641539E+03  0.90653699331E+02 0.  0.
          5    1    3    3  502    0 -0.14160494203E+02 -0.24622787894E+02  0.39975620996E+02  0.49217110376E+02  0.41800000000E+01 0. -1.
         -5    1    3    3    0  502 -0.20458411457E+02  0.14186518613E+03  0.10028775402E+03  0.17498395252E+03  0.41800000000E+01 0. -1.
        -11    1    4    4    0    0  0.38388502389E+02 -0.77992883917E+02  0.69676465323E+02  0.11140635923E+03  0.00000000000E+00 0.  1.
         11    1    4    4    0    0 -0.37695967288E+01 -0.39249514318E+02 -0.25633804799E+02  0.47030056158E+02  0.00000000000E+00 0. -1.
</event>
<event>
 8    1  0.7052796E-009  0.6859417E+02  0.7561462E-02  0.1364940E+00
         -1   -1    0    0    0  501 -0.00000000000E+00  0.00000000000E+00  0.19488236484E+03  0.19488236484E+03  0.00000000000E+00 0.  1.
          1   -1    0    0  501    0  0.00000000000E+00 -0.00000000000E+00 -0.97990453764E+02  0.97990453764E+02  0.00000000000E+00 0. -1.
         25    2    1    2    0    0  0.14361627970E+02 -0.31719550889E+02  0.13650918769E+03  0.18840075772E+03  0.12509077072E+03 0.  0.
         23    2    1    2    0    0 -0.14361627970E+02  0.31719550889E+02 -0.39617276615E+02  0.10447206088E+03  0.90180356132E+02 0.  0.
          5    1    3    3  502    0 -0.67189359323E+01 -0.23570888471E+02 -0.18943620561E+02  0.31258023663E+02  0.41800000000E+01 0. -1.
         -5    1    3    3    0  502  0.21080563902E+02 -0.81486624184E+01  0.15545280825E+03  0.15714273406E+03  0.41800000000E+01 0. -1.
        -11    1    4    4    0    0 -0.43869734612E+01  0.59583704946E+02 -0.65629794283E+01  0.60104376964E+02  0.00000000000E+00 0.  1.
         11    1    4    4    0    0 -0.99746545086E+01 -0.27864154056E+02 -0.33054297187E+02  0.44367683919E+02  0.00000000000E+00 0. -1.
</event>
<event>
 8    1  0.7052796E-009  0.1138288E+03  0.7561462E-02  0.1253639E+00
         -2   -1    0    0    0  501 -0.00000000000E+00  0.00000000000E+00  0.38760918007E+02  0.38760918007E+02  0.00000000000E+00 0.  1.
          2   -1    0    0  501    0  0.00000000000E+00 -0.00000000000E+00 -0.45258272789E+03  0.45258272789E+03  0.00000000000E+00 0. -1.
         25    2    1    2    0    0 -0.92279885544E+01 -0.67936817399E+02 -0.17217336988E+03  0.22358873326E+03  0.12509070874E+03 0.  0.
         23    2    1    2    0    0  0.92279885544E+01  0.67936817399E+02 -0.24164844000E+03  0.26775491263E+03  0.92726251699E+02 0.  0.
          5    1    3    3  502    0 -0.58625575884E+02 -0.22655599276E+02 -0.12957414187E+03  0.14407347073E+03  0.41800000000E+01 0.  1.
         -5    1    3    3    0  502  0.49397587329E+02 -0.45281218123E+02 -0.42599228011E+02  0.79515262533E+02  0.41800000000E+01 0.  1.
        -11    1    4    4    0    0  0.39599541909E+02  0.38335191525E+02 -0.20309092287E+03  0.21043676861E+03  0.00000000000E+00 0. -1.
         11    1    4    4    0    0 -0.30371553354E+02  0.29601625874E+02 -0.38557517123E+02  0.57318144023E+02  0.00000000000E+00 0.  1.
</event>
<event>
 8    1  0.7052796E-009  0.1171511E+03  0.7561462E-02  0.1247872E+00
          1   -1    0    0  501    0  0.00000000000E+00  0.00000000000E+00  0.53148360801E+03  0.53148360801E+03  0.00000000000E+00 0. -1.
         -1   -1    0    0    0  501 -0.00000000000E+00 -0.00000000000E+00 -0.32915349906E+02  0.32915349906E+02  0.00000000000E+00 0.  1.
         25    2    1    2    0    0 -0.66103682296E+02 -0.20919227153E+02  0.28420701973E+03  0.31816255125E+03  0.12508584284E+03 0.  0.
         23    2    1    2    0    0  0.66103682296E+02  0.20919227153E+02  0.21436123838E+03  0.24623640667E+03  0.99369595807E+02 0.  0.
          5    1    3    3  502    0  0.10032693654E+02 -0.34261833046E+02  0.20228195592E+03  0.20545070026E+03  0.41800000000E+01 0.  1.
         -5    1    3    3    0  502 -0.76136375950E+02  0.13342605893E+02  0.81925063811E+02  0.11271185100E+03  0.41800000000E+01 0.  1.
        -11    1    4    4    0    0  0.85299212181E+02 -0.86053312890E+01  0.14505052540E+03  0.16849232102E+03  0.00000000000E+00 0. -1.
         11    1    4    4    0    0 -0.19195529885E+02  0.29524558442E+02  0.69310712977E+02  0.77744085641E+02  0.00000000000E+00 0.  1.
</event>
<event>
 8    1  0.7052796E-009  0.1168371E+03  0.7561462E-02  0.1248408E+00
         -1   -1    0    0    0  501 -0.00000000000E+00  0.00000000000E+00  0.15892904262E+02  0.15892904262E+02  0.00000000000E+00 0.  1.
          1   -1    0    0  501    0  0.00000000000E+00 -0.00000000000E+00 -0.10720794782E+04  0.10720794782E+04  0.00000000000E+00 0. -1.
         25    2    1    2    0    0 -0.26121137907E+02  0.45624582319E+02 -0.77914388787E+03  0.79087049760E+03  0.12508808738E+03 0.  0.
         23    2    1    2    0    0  0.26121137907E+02 -0.45624582319E+02 -0.27704268610E+03  0.29710188490E+03  0.93557275142E+02 0.  0.
          5    1    3    3  502    0 -0.55710643644E+02 -0.20797113271E+02 -0.26702919310E+03  0.27360237225E+03  0.41800000000E+01 0.  1.
         -5    1    3    3    0  502  0.29589505736E+02  0.66421695589E+02 -0.51211469478E+03  0.51726812535E+03  0.41800000000E+01 0.  1.
        -11    1    4    4    0    0  0.29099483549E+02  0.20143782327E+02 -0.14875657329E+03  0.15290869826E+03  0.00000000000E+00 0. -1.
         11    1    4    4    0    0 -0.29783456417E+01 -0.65768364646E+02 -0.12828611282E+03  0.14419318664E+03  0.00000000000E+00 0.  1.
</event>
<event>
 8    1  0.7052796E-009  0.1597807E+03  0.7561462E-02  0.1188945E+00
         -1   -1    0    0    0  501 -0.00000000000E+00  0.00000000000E+00  0.21629123576E+03  0.21629123576E+03  0.00000000000E+00 0.  1.
          1   -1    0    0  501    0  0.00000000000E+00 -0.00000000000E+00 -0.16558087669E+03  0.16558087669E+03  0.00000000000E+00 0. -1.
         25    2    1    2    0    0 -0.17207762327E+02 -0.15158678150E+03  0.56849893883E+00  0.19728784752E+03  0.12509001630E+03 0.  0.
         23    2    1    2    0    0  0.17207762327E+02  0.15158678150E+03  0.50141860125E+02  0.18458426493E+03  0.91008160704E+02 0.  0.
          5    1    3    3  502    0 -0.68143078878E+01 -0.27216546919E+02 -0.54011391057E+02  0.61007196151E+02  0.41800000000E+01 0.  1.
         -5    1    3    3    0  502 -0.10393454439E+02 -0.12437023458E+03  0.54579889996E+02  0.13628065136E+03  0.41800000000E+01 0.  1.
        -11    1    4    4    0    0  0.42541846651E+02  0.10501739806E+03  0.63534822267E+02  0.12990433500E+03  0.00000000000E+00 0.  1.
         11    1    4    4    0    0 -0.25334084324E+02  0.46569383434E+02 -0.13392962142E+02  0.54679929928E+02  0.00000000000E+00 0. -1.
</event>
<event>
 8    1  0.7052796E-009  0.1309183E+03  0.7561462E-02  0.1226100E+00
         -2   -1    0    0    0  501 -0.00000000000E+00  0.00000000000E+00  0.31943103563E+02  0.31943103563E+02  0.00000000000E+00 0.  1.
          2   -1    0    0  501    0  0.00000000000E+00 -0.00000000000E+00 -0.55292720737E+03  0.55292720737E+03  0.00000000000E+00 0. -1.
         25    2    1    2    0    0  0.68463807299E+02  0.27682671435E+02 -0.33046633546E+03  0.36098302311E+03  0.12508845229E+03 0.  0.
         23    2    1    2    0    0 -0.68463807299E+02 -0.27682671435E+02 -0.19051776835E+03  0.22388728783E+03  0.91514339774E+02 0.  0.
          5    1    3    3  502    0  0.10451511472E+03  0.12426064629E+02 -0.22590357932E+03  0.24925431960E+03  0.41800000000E+01 0. -1.
         -5    1    3    3    0  502 -0.36051307422E+02  0.15256606806E+02 -0.10456275613E+03  0.11172870351E+03  0.41800000000E+01 0. -1.
        -11    1    4    4    0    0 -0.73486177038E+02  0.14288642071E+02 -0.13107590781E+03  0.15094792849E+03  0.00000000000E+00 0.  1.
         11    1    4    4    0    0  0.50223697386E+01 -0.41971313506E+02 -0.59441860541E+02  0.72939359332E+02  0.00000000000E+00 0. -1.
</event>
<event>
 8    1  0.7052796E-009  0.2878099E+03  0.7561462E-02  0.1091498E+00
          1   -1    0    0  501    0  0.00000000000E+00  0.00000000000E+00  0.38739785437E+03  0.38739785437E+03  0.00000000000E+00 0. -1.
         -1   -1    0    0    0  501 -0.00000000000E+00 -0.00000000000E+00 -0.35326124492E+03  0.35326124492E+03  0.00000000000E+00 0.  1.
         25    2    1    2    0    0  0.27039824947E+02  0.27354791125E+03 -0.20510824159E+03  0.36507003242E+03  0.12508847236E+03 0.  0.
         23    2    1    2    0    0 -0.27039824947E+02 -0.27354791125E+03  0.23924485104E+03  0.37558906687E+03  0.90936442209E+02 0.  0.
          5    1    3    3  502    0 -0.48362496858E+02  0.10936416363E+03 -0.10049121355E+03  0.15625430487E+03  0.41800000000E+01 0.  1.
         -5    1    3    3    0  502  0.75402321804E+02  0.16418374762E+03 -0.10461702804E+03  0.20881572755E+03  0.41800000000E+01 0.  1.
        -11    1    4    4    0    0 -0.70644489412E+01 -0.14358316050E+03  0.66233668436E+02  0.15828117150E+03  0.00000000000E+00 0.  1.
         11    1    4    4    0    0 -0.19975376006E+02 -0.12996475076E+03  0.17301118260E+03  0.21730789537E+03  0.00000000000E+00 0. -1.
</event>
<event>
 8    1  0.7052796E-009  0.1195488E+03  0.7561462E-02  0.1243843E+00
          2   -1    0    0  501    0  0.00000000000E+00  0.00000000000E+00  0.97886539247E+03  0.97886539247E+03  0.00000000000E+00 0. -1.
         -2   -1    0    0    0  501 -0.00000000000E+00 -0.00000000000E+00 -0.24705345287E+02  0.24705345287E+02  0.00000000000E+00 0.  1.
         25    2    1    2    0    0  0.62548233792E+02 -0.50234260758E+02  0.76819205666E+03  0.78243341897E+03  0.12508899510E+03 0.  0.
         23    2    1    2    0    0 -0.62548233792E+02  0.50234260758E+02  0.18596799052E+03  0.22113731879E+03  0.88779827429E+02 0.  0.
          5    1    3    3  502    0  0.49755937774E+02  0.16248754666E+02  0.58032624479E+03  0.58269691793E+03  0.41800000000E+01 0. -1.
         -5    1    3    3    0  502  0.12792296018E+02 -0.66483015424E+02  0.18786581187E+03  0.19973650104E+03  0.41800000000E+01 0. -1.
        -11    1    4    4    0    0 -0.52660017455E+02 -0.13417349309E+02  0.71737356775E+02  0.89996394694E+02  0.00000000000E+00 0.  1.
         11    1    4    4    0    0 -0.98882163364E+01  0.63651610067E+02  0.11423063375E+03  0.13114092410E+03  0.00000000000E+00 0. -1.
</event>
<event>
 8    1  0.7052796E-009  0.1083486E+03  0.7561462E-02  0.1263659E+00
         -2   -1    0    0    0  501 -0.00000000000E+00  0.00000000000E+00  0.51875671134E+02  0.51875671134E+02  0.00000000000E+00 0.  1.
          2   -1    0    0  501    0  0.00000000000E+00 -0.00000000000E+00 -0.38123269861E+03  0.38123269861E+03  0.00000000000E+00 0. -1.
         25    2    1    2    0    0 -0.24570274612E+02 -0.53563782871E+02 -0.28408527142E+03  0.31594432513E+03  0.12507436953E+03 0.  0.
         23    2    1    2    0    0  0.24570274612E+02  0.53563782871E+02 -0.45271756049E+02  0.11716404461E+03  0.90582030354E+02 0.  0.
          5    1    3    3  502    0  0.48106857500E+02 -0.42741240088E+02 -0.12470373603E+03  0.14039080284E+03  0.41800000000E+01 0. -1.
         -5    1    3    3    0  502 -0.72677132112E+02 -0.10822542783E+02 -0.15938153539E+03  0.17555352229E+03  0.41800000000E+01 0. -1.
        -11    1    4    4    0    0 -0.69311368991E+00  0.53344100789E+02  0.11899262249E+02  0.54659545714E+02  0.00000000000E+00 0.  1.
         11    1    4    4    0    0  0.25263388302E+02  0.21968208161E+00 -0.57171018298E+02  0.62504498894E+02  0.00000000000E+00 0. -1.
</event>
<event>
 8    1  0.7052796E-009  0.1173195E+03  0.7561462E-02  0.1247586E+00
          1   -1    0    0  501    0  0.00000000000E+00  0.00000000000E+00  0.19883428278E+03  0.19883428278E+03  0.00000000000E+00 0. -1.
         -1   -1    0    0    0  501 -0.00000000000E+00 -0.00000000000E+00 -0.10934598257E+03  0.10934598257E+03  0.00000000000E+00 0.  1.
         25    2    1    2    0    0  0.85933434484E+02  0.18389209533E+02  0.93172791080E+02  0.17902780797E+03  0.12508824422E+03 0.  0.
         23    2    1    2    0    0 -0.85933434484E+02 -0.18389209533E+02 -0.36844908641E+01  0.12915245737E+03  0.94573059499E+02 0.  0.
          5    1    3    3  502    0 -0.28208680326E+02 -0.89231844808E+00  0.45631389473E+02  0.53816558634E+02  0.41800000000E+01 0. -1.
         -5    1    3    3    0  502  0.11414211481E+03  0.19281527981E+02  0.47541401607E+02  0.12521124934E+03  0.41800000000E+01 0. -1.
        -11    1    4    4    0    0 -0.50921623357E+02 -0.21179935320E+02  0.43562864030E+02  0.70280328030E+02  0.00000000000E+00 0. -1.
         11    1    4    4    0    0 -0.35011811127E+02  0.27907257876E+01 -0.47247354894E+02  0.58872129342E+02  0.00000000000E+00 0.  1.
</event>
<event>
 8    1  0.7052796E-009  0.9515416E+02  0.7561462E-02  0.1290829E+00
          1   -1    0    0  501    0  0.00000000000E+00  0.00000000000E+00  0.41103838458E+02  0.41103838458E+02  0.00000000000E+00 0. -1.
         -1   -1    0    0    0  501 -0.00000000000E+00 -0.00000000000E+00 -0.34581167152E+03  0.34581167152E+03  0.00000000000E+00 0.  1.
         25    2    1    2    0    0 -0.37640709803E+02  0.18480857840E+02 -0.12415416675E+03  0.18115897471E+03  0.12508377935E+03 0.  0.
         23    2    1    2    0    0  0.37640709803E+02 -0.18480857840E+02 -0.18055366631E+03  0.20575653526E+03  0.89318308561E+02 0.  0.
          5    1    3    3  502    0  0.21230594071E+02  0.32233457945E+02  0.43664213794E+01  0.39067530909E+02  0.41800000000E+01 0.  1.
         -5    1    3    3    0  502 -0.58871303874E+02 -0.13752600105E+02 -0.12852058813E+03  0.14209144380E+03  0.41800000000E+01 0.  1.
        -11    1    4    4    0    0  0.16845291508E+02  0.32069354784E+02 -0.35388494048E+02  0.50641414606E+02  0.00000000000E+00 0. -1.
         11    1    4    4    0    0  0.20795418295E+02 -0.50550212625E+02 -0.14516517226E+03  0.15511512066E+03  0.00000000000E+00 0.  1.
</event>
<event>
 8    1  0.7052796E-009  0.1412474E+03  0.7561462E-02  0.1211660E+00
         -3   -1    0    0    0  501 -0.00000000000E+00  0.00000000000E+00  0.27110789458E+03  0.27110789458E+03  0.00000000000E+00 0.  1.
          3   -1    0    0  501    0  0.00000000000E+00 -0.00000000000E+00 -0.95476110442E+02  0.95476110442E+02  0.00000000000E+00 0. -1.
         25    2    1    2    0    0 -0.10798156581E+03 -0.20193275322E+02  0.44007818123E+02  0.17220123992E+03  0.12509513200E+03 0.  0.
         23    2    1    2    0    0  0.10798156581E+03  0.20193275322E+02  0.13162396602E+03  0.19438276511E+03  0.91607881858E+02 0.  0.
          5    1    3    3  502    0 -0.13352427322E+03 -0.70319404033E+01  0.49520151169E+02  0.14264605671E+03  0.41800000000E+01 0.  1.
         -5    1    3    3    0  502  0.25542707408E+02 -0.13161334918E+02 -0.55123330461E+01  0.29555183203E+02  0.41800000000E+01 0.  1.
        -11    1    4    4    0    0  0.34061320592E+02 -0.15704999689E+02 -0.19465825548E+01  0.37558085140E+02  0.00000000000E+00 0. -1.
         11    1    4    4    0    0  0.73920245216E+02  0.35898275011E+02  0.13357054857E+03  0.15682467997E+03  0.00000000000E+00 0.  1.
</event>
<event>
 8    1  0.7052796E-009  0.9731563E+02  0.7561462E-02  0.1286044E+00
          2   -1    0    0  501    0  0.00000000000E+00  0.00000000000E+00  0.62456438739E+03  0.62456438739E+03  0.00000000000E+00 0. -1.
         -2   -1    0    0    0  501 -0.00000000000E+00 -0.00000000000E+00 -0.32914099208E+02  0.32914099208E+02  0.00000000000E+00 0.  1.
         25    2    1    2    0    0  0.38324295594E+02  0.75962210464E+02  0.39567784877E+03  0.42361284823E+03  0.12509147105E+03 0.  0.
         23    2    1    2    0    0 -0.38324295594E+02 -0.75962210464E+02  0.19597243942E+03  0.23386563837E+03  0.95125867919E+02 0.  0.
          5    1    3    3  502    0  0.34852435156E+02  0.46907237897E+02  0.51015980227E+02  0.77685802062E+02  0.41800000000E+01 0. -1.
         -5    1    3    3    0  502  0.34718604374E+01  0.29054972567E+02  0.34466186854E+03  0.34592704617E+03  0.41800000000E+01 0. -1.
        -11    1    4    4    0    0  0.16452563993E+02 -0.32987084004E+02  0.14704878877E+02  0.39687126827E+02  0.00000000000E+00 0.  1.
         11    1    4    4    0    0 -0.54776859586E+02 -0.42975126460E+02  0.18126756054E+03  0.19417851154E+03  0.00000000000E+00 0. -1.
</event>
<event>
 8    1  0.7052796E-009  0.1173215E+03  0.7561462E-02  0.1247582E+00
          1   -1    0    0  501    0  0.00000000000E+00  0.00000000000E+00  0.15025284118E+03  0.15025284118E+03  0.00000000000E+00 0. -1.
         -1   -1    0    0    0  501 -0.00000000000E+00 -0.00000000000E+00 -0.19453697662E+03  0.19453697662E+03  0.00000000000E+00 0.  1.
         25    2    1    2    0    0 -0.19257750974E+02 -0.95306570870E+02  0.67286748870E+02  0.17213023591E+03  0.12508840121E+03 0.  0.
         23    2    1    2    0    0  0.19257750974E+02  0.95306570870E+02 -0.11157088431E+03  0.17265958189E+03  0.88932927368E+02 0.  0.
          5    1    3    3  502    0 -0.28105413641E+02 -0.74313660660E+01 -0.29090783638E+02  0.41338669188E+02  0.41800000000E+01 0. -1.
         -5    1    3    3    0  502  0.88476626667E+01 -0.87875204804E+02  0.96377532507E+02  0.13079156672E+03  0.41800000000E+01 0. -1.
        -11    1    4    4    0    0 -0.23914243670E+02  0.27205080201E+02 -0.15498196408E+01  0.36254784236E+02  0.00000000000E+00 0. -1.
         11    1    4    4    0    0  0.43171994645E+02  0.68101490669E+02 -0.11002106467E+03  0.13640479766E+03  0.00000000000E+00 0.  1.
</event>
<event>
 8    1  0.7052796E-009  0.1115001E+03  0.7561462E-02  0.1257817E+00
          2   -1    0    0  501    0  0.00000000000E+00  0.00000000000E+00  0.64000046874E+02  0.64000046874E+02  0.00000000000E+00 0. -1.
         -2   -1    0    0    0  501 -0.00000000000E+00 -0.00000000000E+00 -0.28137068891E+03  0.28137068891E+03  0.00000000000E+00 0.  1.
         25    2    1    2    0    0 -0.83219134572E+02  0.39862537844E+01 -0.11707830728E+03  0.19051406349E+03  0.12508782424E+03 0.  0.
         23    2    1    2    0    0  0.83219134572E+02 -0.39862537844E+01 -0.10029233475E+03  0.15485667230E+03  0.83550714935E+02 0.  0.
          5    1    3    3  502    0 -0.16037902865E+01 -0.43640245113E+02 -0.75221030958E+02  0.87078809335E+02  0.41800000000E+01 0.  1.
         -5    1    3    3    0  502 -0.81615344286E+02  0.47626498897E+02 -0.41857276323E+02  0.10343525415E+03  0.41800000000E+01 0.  1.
        -11    1    4    4    0    0  0.44687198287E+02 -0.93060398487E+01 -0.10612425249E+03  0.11552447808E+03  0.00000000000E+00 0.  1.
         11    1    4    4    0    0  0.38531936285E+02  0.53197860643E+01  0.58319177360E+01  0.39332194220E+02  0.00000000000E+00 0. -1.
</event>
<event>
 8    1  0.7052796E-009  0.8703335E+02  0.7561462E-02  0.1310199E+00
          3   -1    0    0  501    0  0.00000000000E+00  0.00000000000E+00  0.19783436198E+03  0.19783436198E+03  0.00000000000E+00 0. -1.
         -3   -1    0    0    0  501 -0.00000000000E+00 -0.00000000000E+00 -0.77895800789E+02  0.77895800789E+02  0.00000000000E+00 0.  1.
         25    2    1    2    0    0 -0.32300542450E+02  0.57278579840E+01  0.12429871129E+03  0.17936889090E+03  0.12508755332E+03 0.  0.
         23    2    1    2    0    0  0.32300542450E+02 -0.57278579840E+01 -0.43601500904E+01  0.96361271875E+02  0.90500554743E+02 0.  0.
          5    1    3    3  502    0  0.42703725380E+02 -0.78423211611E+01  0.15150131566E+02  0.46174766367E+02  0.41800000000E+01 0.  1.
         -5    1    3    3    0  502 -0.75004267830E+02  0.13570179145E+02  0.10914857972E+03  0.13319412453E+03  0.41800000000E+01 0.  1.
        -11    1    4    4    0    0 -0.43396110914E+01  0.12468301272E+02 -0.39988884883E+02  0.42111775968E+02  0.00000000000E+00 0.  1.
         11    1    4    4    0    0  0.36640153541E+02 -0.18196159256E+02  0.35628734792E+02  0.54249495907E+02  0.00000000000E+00 0. -1.
</event>
<event>
 8    1  0.7052796E-009  0.1275885E+03  0.7561462E-02  0.1231078E+00
         -2   -1    0    0    0  501 -0.00000000000E+00  0.00000000000E+00  0.21645036291E+02  0.21645036291E+02  0.00000000000E+00 0.  1.
          2   -1    0    0  501    0  0.00000000000E+00 -0.00000000000E+00 -0.12136216993E+04  0.12136216993E+04  0.00000000000E+00 0. -1.
         25    2    1    2    0    0  0.10139936219E+03  0.61130779704E+02 -0.73130109377E+03  0.75131078620E+03  0.12509118606E+03 0.  0.
         23    2    1    2    0    0 -0.10139936219E+03 -0.61130779704E+02 -0.46067556928E+03  0.48395594944E+03  0.89289293757E+02 0.  0.
          5    1    3    3  502    0 -0.52689243802E+01  0.13373875774E+02 -0.51922310222E+01  0.15844676719E+02  0.41800000000E+01 0.  1.
         -5    1    3    3    0  502  0.10666828657E+03  0.47756903930E+02 -0.72610886275E+03  0.73546610948E+03  0.41800000000E+01 0.  1.
        -11    1    4    4    0    0 -0.37807754470E+02 -0.44371099849E+01 -0.41932829490E+02  0.56634586890E+02  0.00000000000E+00 0.  1.
         11    1    4    4    0    0 -0.63591607721E+02 -0.56693669719E+02 -0.41874273979E+03  0.42732136255E+03  0.00000000000E+00 0. -1.
</event>
<event>
 8    1  0.7052796E-009  0.9503581E+02  0.7561462E-02  0.1291095E+00
          2   -1    0    0  501    0  0.00000000000E+00  0.00000000000E+00  0.40975031040E+03  0.40975031040E+03  0.00000000000E+00 0. -1.
         -2   -1    0    0    0  501 -0.00000000000E+00 -0.00000000000E+00 -0.30814482891E+02  0.30814482891E+02  0.00000000000E+00 0.  1.
         25    2    1    2    0    0 -0.30224041212E+02 -0.41752122021E+01  0.20903253215E+03  0.24550502982E+03  0.12508874892E+03 0.  0.
         23    2    1    2    0    0  0.30224041212E+02  0.41752122021E+01  0.16990329536E+03  0.19505976347E+03  0.90830922525E+02 0.  0.
          5    1    3    3  502    0 -0.12818357449E+02 -0.64269516442E+02  0.97447068815E+02  0.11750865778E+03  0.41800000000E+01 0. -1.
         -5    1    3    3    0  502 -0.17405683763E+02  0.60094304240E+02  0.11158546333E+03  0.12799637205E+03  0.41800000000E+01 0. -1.
        -11    1    4    4    0    0  0.28135607991E+02 -0.21829501610E+02  0.16463802350E+03  0.16844529783E+03  0.00000000000E+00 0. -1.
         11    1    4    4    0    0  0.20884332206E+01  0.26004713812E+02  0.52652718599E+01  0.26614465644E+02  0.00000000000E+00 0.  1.
</event>
<event>
 8    1  0.7052796E-009  0.1251758E+03  0.7561462E-02  0.1234795E+00
          1   -1    0    0  501    0  0.00000000000E+00  0.00000000000E+00  0.65082682074E+02  0.65082682074E+02  0.00000000000E+00 0. -1.
         -1   -1    0    0    0  501 -0.00000000000E+00 -0.00000000000E+00 -0.30493094010E+03  0.30493094010E+03  0.00000000000E+00 0.  1.
         25    2    1    2    0    0  0.11060764882E+02 -0.76808377170E+02 -0.19082920946E+03  0.24100755573E+03  0.12508791872E+03 0.  0.
         23    2    1    2    0    0 -0.11060764882E+02  0.76808377170E+02 -0.49019048565E+02  0.12900606645E+03  0.90652251680E+02 0.  0.
          5    1    3    3  502    0  0.21933913939E+02 -0.10267670019E+03 -0.97074002172E+02  0.14305396059E+03  0.41800000000E+01 0. -1.
         -5    1    3    3    0  502 -0.10873149057E+02  0.25868323021E+02 -0.93755207289E+02  0.97953595136E+02  0.41800000000E+01 0. -1.
        -11    1    4    4    0    0  0.29442855131E+02  0.69858080013E+02 -0.19115300669E+02  0.78182016992E+02  0.00000000000E+00 0. -1.
         11    1    4    4    0    0 -0.40503620013E+02  0.69502971574E+01 -0.29903747896E+02  0.50824049455E+02  0.00000000000E+00 0.  1.
</event>
<event>
 8    1  0.7052796E-009  0.1348372E+03  0.7561462E-02  0.1220450E+00
          1   -1    0    0  501    0  0.00000000000E+00  0.00000000000E+00  0.51446032717E+03  0.51446032717E+03  0.00000000000E+00 0. -1.
         -1   -1    0    0    0  501 -0.00000000000E+00 -0.00000000000E+00 -0.44370884452E+02  0.44370884452E+02  0.00000000000E+00 0.  1.
         25    2    1    2    0    0  0.27752083169E+02 -0.89009692514E+02  0.16972665099E+03  0.23053776394E+03  0.12509045154E+03 0.  0.
         23    2    1    2    0    0 -0.27752083169E+02  0.89009692514E+02  0.30036279172E+03  0.32829344768E+03  0.94158789574E+02 0.  0.
          5    1    3    3  502    0  0.37296069590E+01  0.28135495861E+02  0.66817228068E+02  0.72715407323E+02  0.41800000000E+01 0. -1.
         -5    1    3    3    0  502  0.24022476209E+02 -0.11714518837E+03  0.10290942292E+03  0.15782235662E+03  0.41800000000E+01 0. -1.
        -11    1    4    4    0    0 -0.16443438968E+02  0.10245260544E+03  0.28975051929E+03  0.30776985960E+03  0.00000000000E+00 0. -1.
         11    1    4    4    0    0 -0.11308644200E+02 -0.13442912922E+02  0.10612272427E+02  0.20523588077E+02  0.00000000000E+00 0.  1.
</event>
<event>
 8    1  0.7052796E-009  0.1086575E+03  0.7561462E-02  0.1263076E+00
          2   -1    0    0  501    0  0.00000000000E+00  0.00000000000E+00  0.89005736738E+03  0.89005736738E+03  0.00000000000E+00 0. -1.
         -2   -1    0    0    0  501 -0.00000000000E+00 -0.00000000000E+00 -0.24573997633E+02  0.24573997633E+02  0.00000000000E+00 0.  1.
         25    2    1    2    0    0 -0.19439160790E+02 -0.72201707911E+02  0.67708236011E+03  0.69258930691E+03  0.12509379710E+03 0.  0.
         23    2    1    2    0    0  0.19439160790E+02  0.72201707911E+02  0.18840100963E+03  0.22204205810E+03  0.90646387341E+02 0.  0.
          5    1    3    3  502    0  0.51511207117E+01  0.30487709710E+02  0.73848865291E+02  0.80169581468E+02  0.41800000000E+01 0.  1.
         -5    1    3    3    0  502 -0.24590281501E+02 -0.10268941762E+03  0.60323349482E+03  0.61241972544E+03  0.41800000000E+01 0.  1.
        -11    1    4    4    0    0 -0.41099409188E+01  0.41709281459E+02  0.15160230525E+02  0.44568917013E+02  0.00000000000E+00 0.  1.
         11    1    4    4    0    0  0.23549101708E+02  0.30492426452E+02  0.17324077911E+03  0.17747314109E+03  0.00000000000E+00 0. -1.
</event>
<event>
 8    1  0.7052796E-009  0.9869095E+02  0.7561462E-02  0.1283073E+00
          1   -1    0    0  501    0  0.00000000000E+00  0.00000000000E+00  0.47444178405E+02  0.47444178405E+02  0.00000000000E+00 0. -1.
         -1   -1    0    0    0  501 -0.00000000000E+00 -0.00000000000E+00 -0.32217987670E+03  0.32217987670E+03  0.00000000000E+00 0.  1.
         25    2    1    2    0    0 -0.46165029676E+02 -0.17225450632E+02 -0.19600669165E+03  0.23768143303E+03  0.12508362930E+03 0.  0.
         23    2    1    2    0    0  0.46165029676E+02  0.17225450632E+02 -0.78729006639E+02  0.13194262207E+03  0.93715916038E+02 0.  0.
          5    1    3    3  502    0 -0.51108609697E+02 -0.59991462962E+02 -0.16944676526E+03  0.18692443465E+03  0.41800000000E+01 0.  1.
         -5    1    3    3    0  502  0.49435800214E+01  0.42766012330E+02 -0.26559926394E+02  0.50756998376E+02  0.41800000000E+01 0.  1.
        -11    1    4    4    0    0  0.58444259424E+02  0.63203763545E+01 -0.93109454924E+02  0.11011380119E+03  0.00000000000E+00 0.  1.
         11    1    4    4    0    0 -0.12279229748E+02  0.10905074278E+02  0.14380448285E+02  0.21828820881E+02  0.00000000000E+00 0. -1.
</event>
<event>
 8    1  0.7052796E-009  0.9268147E+02  0.7561462E-02  0.1296485E+00
          1   -1    0    0  501    0  0.00000000000E+00  0.00000000000E+00  0.38165782276E+02  0.38165782276E+02  0.00000000000E+00 0. -1.
         -1   -1    0    0    0  501 -0.00000000000E+00 -0.00000000000E+00 -0.32571927949E+03  0.32571927949E+03  0.00000000000E+00 0.  1.
         25    2    1    2    0    0  0.29976510592E+02 -0.15934128388E+02 -0.15063706222E+03  0.19872518354E+03  0.12509071278E+03 0.  0.
         23    2    1    2    0    0 -0.29976510592E+02  0.15934128388E+02 -0.13691643499E+03  0.16515987822E+03  0.85902197697E+02 0.  0.
          5    1    3    3  502    0  0.43121598096E+02 -0.44608604451E+02 -0.21609416082E+02  0.65831900146E+02  0.41800000000E+01 0. -1.
         -5    1    3    3    0  502 -0.13145087504E+02  0.28674476063E+02 -0.12902764614E+03  0.13289328340E+03  0.41800000000E+01 0. -1.
        -11    1    4    4    0    0 -0.12566031603E+02  0.50830442834E+02 -0.66215042988E+02  0.84416058821E+02  0.00000000000E+00 0.  1.
         11    1    4    4    0    0 -0.17410478989E+02 -0.34896314445E+02 -0.70701392000E+02  0.80743819400E+02  0.00000000000E+00 0. -1.
</event>
<event>
 8    1  0.7052796E-009  0.8154707E+02  0.7561462E-02  0.1324718E+00
         -2   -1    0    0    0  501 -0.00000000000E+00  0.00000000000E+00  0.93058479511E+02  0.93058479511E+02  0.00000000000E+00 0.  1.
          2   -1    0    0  501    0  0.00000000000E+00 -0.00000000000E+00 -0.17809496850E+03  0.17809496850E+03  0.00000000000E+00 0. -1.
         25    2    1    2    0    0 -0.53448000579E+02  0.13664959863E+02 -0.93029855220E+02  0.16536472014E+03  0.12509003482E+03 0.  0.
         23    2    1    2    0    0  0.53448000579E+02 -0.13664959863E+02  0.79933662267E+01  0.10578872788E+03  0.89910739894E+02 0.  0.
          5    1    3    3  502    0 -0.37641411613E+02  0.14772600691E+00 -0.12297036649E+03  0.12867043610E+03  0.41800000000E+01 0.  1.
         -5    1    3    3    0  502 -0.15806588966E+02  0.13517233856E+02  0.29940511271E+02  0.36694284038E+02  0.41800000000E+01 0.  1.
        -11    1    4    4    0    0  0.22913259782E+01 -0.44313014248E+02  0.12160906078E+02  0.46008488816E+02  0.00000000000E+00 0.  1.
         11    1    4    4    0    0  0.51156674601E+02  0.30648054385E+02 -0.41675398510E+01  0.59780239061E+02  0.00000000000E+00 0. -1.
</event>
<event>
 8    1  0.7052796E-009  0.1301597E+03  0.7561462E-02  0.1227219E+00
         -1   -1    0    0    0  501 -0.00000000000E+00  0.00000000000E+00  0.69869302106E+03  0.69869302106E+03  0.00000000000E+00 0.  1.
          1   -1    0    0  501    0  0.00000000000E+00 -0.00000000000E+00 -0.40635017836E+02  0.40635017836E+02  0.00000000000E+00 0. -1.
         25    2    1    2    0    0 -0.68392446071E+02 -0.20277941508E+02  0.11711325181E+03  0.18561216915E+03  0.12509053520E+03 0.  0.
         23    2    1    2    0    0  0.68392446071E+02  0.20277941508E+02  0.54094475141E+03  0.55371586974E+03  0.94293789489E+02 0.  0.
          5    1    3    3  502    0  0.22740437699E+02  0.30357678114E+02  0.43800739618E+02  0.58092110638E+02  0.41800000000E+01 0.  1.
         -5    1    3    3    0  502 -0.91132883771E+02 -0.50635619623E+02  0.73312512196E+02  0.12752005851E+03  0.41800000000E+01 0.  1.
        -11    1    4    4    0    0  0.82051004704E+02  0.41988682451E+02  0.40290258197E+03  0.41331090886E+03  0.00000000000E+00 0.  1.
         11    1    4    4    0    0 -0.13658558632E+02 -0.21710740943E+02  0.13804216944E+03  0.14040496088E+03  0.00000000000E+00 0. -1.
</event>
<event>
 8    1  0.7052796E-009  0.1839508E+03  0.7561462E-02  0.1164033E+00
         -2   -1    0    0    0  501 -0.00000000000E+00  0.00000000000E+00  0.26116595882E+02  0.26116595882E+02  0.00000000000E+00 0.  1.
          2   -1    0    0  501    0  0.00000000000E+00 -0.00000000000E+00 -0.13805896400E+04  0.13805896400E+04  0.00000000000E+00 0. -1.
         25    2    1    2    0    0 -0.12348606305E+03 -0.85396348673E+02 -0.57572469903E+03  0.60798576866E+03  0.12508565742E+03 0.  0.
         23    2    1    2    0    0  0.12348606305E+03  0.85396348673E+02 -0.77874834512E+03  0.79872046725E+03  0.94678696876E+02 0.  0.
          5    1    3    3  502    0 -0.13198359303E+03 -0.31453335475E+02 -0.34255455401E+03  0.36846991195E+03  0.41800000000E+01 0.  1.
         -5    1    3    3    0  502  0.84975299737E+01 -0.53943013197E+02 -0.23317014502E+03  0.23951585671E+03  0.41800000000E+01 0.  1.
        -11    1    4    4    0    0  0.37098598074E+02  0.83062339806E+02 -0.41327583525E+03  0.42316967552E+03  0.00000000000E+00 0.  1.
         11    1    4    4    0    0  0.86387464978E+02  0.23340088663E+01 -0.36547250987E+03  0.37555079174E+03  0.00000000000E+00 0. -1.
</event>
<event>
 8    1  0.7052796E-009  0.1190436E+03  0.7561462E-02  0.1244683E+00
         -1   -1    0    0    0  501 -0.00000000000E+00  0.00000000000E+00  0.97647096206E+02  0.97647096206E+02  0.00000000000E+00 0.  1.
          1   -1    0    0  501    0  0.00000000000E+00 -0.00000000000E+00 -0.19591702535E+03  0.19591702535E+03  0.00000000000E+00 0. -1.
         25    2    1    2    0    0 -0.10310696597E+02  0.77512912924E+02 -0.90322189650E+02  0.17297433346E+03  0.12508980757E+03 0.  0.
         23    2    1    2    0    0  0.10310696597E+02 -0.77512912924E+02 -0.79477394988E+01  0.12058978810E+03  0.91455827029E+02 0.  0.
          5    1    3    3  502    0 -0.25348530422E+02 -0.15392659251E+02  0.13439166085E+02  0.32826293401E+02  0.41800000000E+01 0. -1.
         -5    1    3    3    0  502  0.15037833826E+02  0.92905572175E+02 -0.10376135574E+03  0.14014804006E+03  0.41800000000E+01 0. -1.
        -11    1    4    4    0    0  0.42664566265E+02 -0.18235332507E+02  0.15783395225E+02  0.49009265768E+02  0.00000000000E+00 0.  1.
         11    1    4    4    0    0 -0.32353869669E+02 -0.59277580417E+02 -0.23731134724E+02  0.71580522337E+02  0.00000000000E+00 0. -1.
</event>
<event>
 8    1  0.7052796E-009  0.9690326E+02  0.7561462E-02  0.1286946E+00
         -1   -1    0    0    0  501 -0.00000000000E+00  0.00000000000E+00  0.11310266896E+03  0.11310266896E+03  0.00000000000E+00 0.  1.
          1   -1    0    0  501    0  0.00000000000E+00 -0.00000000000E+00 -0.17196578305E+03  0.17196578305E+03  0.00000000000E+00 0. -1.
         25    2    1    2    0    0 -0.86744647703E+02  0.74121829004E+01 -0.29870883746E+02  0.15530401253E+03  0.12508993666E+03 0.  0.
         23    2    1    2    0    0  0.86744647703E+02 -0.74121829004E+01 -0.28992230337E+02  0.12976443948E+03  0.91753397607E+02 0.  0.
          5    1    3    3  502    0 -0.87517314724E+02  0.76736209411E+00 -0.71402790607E+02  0.11302964269E+03  0.41800000000E+01 0.  1.
         -5    1    3    3    0  502  0.77266702152E+00  0.66448208063E+01  0.41531906861E+02  0.42274369840E+02  0.41800000000E+01 0.  1.
        -11    1    4    4    0    0  0.73889264060E+01 -0.16834583191E+02 -0.44690196396E+02  0.48324042449E+02  0.00000000000E+00 0. -1.
         11    1    4    4    0    0  0.79355721297E+02  0.94224002906E+01  0.15697966059E+02  0.81440397029E+02  0.00000000000E+00 0.  1.
</event>
<event>
 8    1  0.7052796E-009  0.1366741E+03  0.7561462E-02  0.1217876E+00
          2   -1    0    0  501    0  0.00000000000E+00  0.00000000000E+00  0.57266763920E+03  0.57266763920E+03  0.00000000000E+00 0. -1.
         -2   -1    0    0    0  501 -0.00000000000E+00 -0.00000000000E+00 -0.42785607799E+02  0.42785607799E+02  0.00000000000E+00 0.  1.
         25    2    1    2    0    0 -0.56790844073E+02  0.93253683828E+02  0.23038193650E+03  0.28398132087E+03  0.12509238353E+03 0.  0.
         23    2    1    2    0    0  0.56790844073E+02 -0.93253683828E+02  0.29950009491E+03  0.33147192614E+03  0.90839867078E+02 0.  0.
          5    1    3    3  502    0 -0.93390164700E+02  0.45925586558E+02  0.16619473992E+03  0.19613527561E+03  0.41800000000E+01 0.  1.
         -5    1    3    3    0  502  0.36599320628E+02  0.47328097270E+02  0.64187196585E+02  0.87846045255E+02  0.41800000000E+01 0.  1.
        -11    1    4    4    0    0  0.29816235971E+02 -0.46378513100E+02  0.44653773056E+02  0.70950220950E+02  0.00000000000E+00 0.  1.
         11    1    4    4    0    0  0.26974608102E+02 -0.46875170728E+02  0.25484632185E+03  0.26052170519E+03  0.00000000000E+00 0. -1.
</event>
<event>
 8    1  0.7052796E-009  0.1219067E+03  0.7561462E-02  0.1239984E+00
          2   -1    0    0  501    0  0.00000000000E+00  0.00000000000E+00  0.14635819496E+03  0.14635819496E+03  0.00000000000E+00 0. -1.
         -2   -1    0    0    0  501 -0.00000000000E+00 -0.00000000000E+00 -0.13727159200E+03  0.13727159200E+03  0.00000000000E+00 0.  1.
         25    2    1    2    0    0 -0.88349291926E+02 -0.16720185244E+02  0.12204332636E+02  0.15454567796E+03  0.12510099465E+03 0.  0.
         23    2    1    2    0    0  0.88349291926E+02  0.16720185244E+02 -0.31177296827E+01  0.12908410901E+03  0.92562546318E+02 0.  0.
          5    1    3    3  502    0 -0.64266273471E+02 -0.70037256093E+02  0.31552840643E+01  0.95198736149E+02  0.41800000000E+01 0.  1.
         -5    1    3    3    0  502 -0.24083018454E+02  0.53317070849E+02  0.90490485716E+01  0.59346941807E+02  0.41800000000E+01 0.  1.
        -11    1    4    4    0    0  0.36394484440E+02  0.48038253544E+01  0.44444867736E+02  0.57645307734E+02  0.00000000000E+00 0. -1.
         11    1    4    4    0    0  0.51954807486E+02  0.11916359889E+02 -0.47562597418E+02  0.71438801271E+02  0.00000000000E+00 0.  1.
</event>
<event>
 8    1  0.7052796E-009  0.1528147E+03  0.7561462E-02  0.1197056E+00
         -1   -1    0    0    0  501 -0.00000000000E+00  0.00000000000E+00  0.24393564996E+02  0.24393564996E+02  0.00000000000E+00 0.  1.
          1   -1    0    0  501    0  0.00000000000E+00 -0.00000000000E+00 -0.12638168771E+04  0.12638168771E+04  0.00000000000E+00 0. -1.
         25    2    1    2    0    0 -0.97631790251E+02  0.84912539122E+02 -0.81849241601E+03  0.83804487080E+03  0.12508902684E+03 0.  0.
         23    2    1    2    0    0  0.97631790251E+02 -0.84912539122E+02 -0.42093089613E+03  0.45016557134E+03  0.93402979241E+02 0.  0.
          5    1    3    3  502    0 -0.76496634527E+02 -0.10958486169E+02 -0.45354488799E+03  0.46010027313E+03  0.41800000000E+01 0. -1.
         -5    1    3    3    0  502 -0.21135155724E+02  0.95871025290E+02 -0.36494752803E+03  0.37794459767E+03  0.41800000000E+01 0. -1.
        -11    1    4    4    0    0  0.55888324267E+02 -0.56565729360E+02 -0.37008700537E+03  0.37853345700E+03  0.00000000000E+00 0. -1.
         11    1    4    4    0    0  0.41743465984E+02 -0.28346809762E+02 -0.50843890761E+02  0.71632114333E+02  0.00000000000E+00 0.  1.
</event>
<event>
 8    1  0.7052796E-009  0.1619732E+03  0.7561462E-02  0.1186487E+00
         -2   -1    0    0    0  501 -0.00000000000E+00  0.00000000000E+00  0.39828031574E+02  0.39828031574E+02  0.00000000000E+00 0.  1.
          2   -1    0    0  501    0  0.00000000000E+00 -0.00000000000E+00 -0.72558106482E+03  0.72558106482E+03  0.00000000000E+00 0. -1.
         25    2    1    2    0    0 -0.13005147405E+03  0.96507958063E+01 -0.37295105196E+03  0.41442218437E+03  0.12508691368E+03 0.  0.
         23    2    1    2    0    0  0.13005147405E+03 -0.96507958063E+01 -0.31280198129E+03  0.35098691203E+03  0.91324745591E+02 0.  0.
          5    1    3    3  502    0  0.23671918982E+02 -0.92418473206E+01 -0.51489672208E+02  0.57571088528E+02  0.41800000000E+01 0.  1.
         -5    1    3    3    0  502 -0.15372339303E+03  0.18892643127E+02 -0.32146137975E+03  0.35685109584E+03  0.41800000000E+01 0.  1.
        -11    1    4    4    0    0  0.60697565579E+02 -0.34219959415E+02 -0.22949515549E+03  0.23984000184E+03  0.00000000000E+00 0. -1.
         11    1    4    4    0    0  0.69353908468E+02  0.24569163609E+02 -0.83306825801E+02  0.11114691019E+03  0.00000000000E+00 0.  1.
</event>
<event>
 8    1  0.7052796E-009  0.1151817E+03  0.7561462E-02  0.1251264E+00
          2   -1    0    0  501    0  0.00000000000E+00  0.00000000000E+00  0.10405164959E+03  0.10405164959E+03  0.00000000000E+00 0.  1.
         -2   -1    0    0    0  501 -0.00000000000E+00 -0.00000000000E+00 -0.20743362802E+03  0.20743362802E+03  0.00000000000E+00 0. -1.
         25    2    1    2    0    0  0.17885495977E+02  0.28745355443E+02  0.38963209679E+02  0.13532252395E+03  0.12509143597E+03 0.  0.
         23    2    1    2    0    0 -0.17885495977E+02 -0.28745355443E+02 -0.14234518811E+03  0.17616275366E+03  0.98106965967E+02 0.  0.
          5    1    3    3  502    0  0.60886048569E+02  0.50538326175E+02  0.12648293535E+02  0.80241417312E+02  0.41800000000E+01 0.  1.
         -5    1    3    3    0  502 -0.43000552592E+02 -0.21792970732E+02  0.26314916145E+02  0.55081106636E+02  0.41800000000E+01 0.  1.
        -11    1    4    4    0    0 -0.56731190558E+02 -0.29376128048E+02 -0.76052359502E+02  0.99324449493E+02  0.00000000000E+00 0. -1.
         11    1    4    4    0    0  0.38845694582E+02  0.63077260502E+00 -0.66292828608E+02  0.76838304162E+02  0.00000000000E+00 0.  1.
</event>
<event>
 8    1  0.7052796E-009  0.1122733E+03  0.7561462E-02  0.1256417E+00
         -2   -1    0    0    0  501 -0.00000000000E+00  0.00000000000E+00  0.10798883853E+03  0.10798883853E+03  0.00000000000E+00 0.  1.
          2   -1    0    0  501    0  0.00000000000E+00 -0.00000000000E+00 -0.18690956318E+03  0.18690956318E+03  0.00000000000E+00 0. -1.
         25    2    1    2    0    0  0.24634062890E+02  0.87357373062E+02 -0.47473819425E+02  0.16167699375E+03  0.12509012389E+03 0.  0.
         23    2    1    2    0    0 -0.24634062890E+02 -0.87357373062E+02 -0.31446905231E+02  0.13322140796E+03  0.92308656192E+02 0.  0.
          5    1    3    3  502    0  0.14385018904E+02  0.93078206879E+00 -0.70072284169E+02  0.71661653154E+02  0.41800000000E+01 0. -1.
         -5    1    3    3    0  502  0.10249043986E+02  0.86426590993E+02  0.22598464744E+02  0.90015340593E+02  0.41800000000E+01 0. -1.
        -11    1    4    4    0    0  0.29871586120E+02 -0.20911048380E+02  0.99965693526E+01  0.37808927524E+02  0.00000000000E+00 0.  1.
         11    1    4    4    0    0 -0.54505649010E+02 -0.66446324682E+02 -0.41443474583E+02  0.95412480438E+02  0.00000000000E+00 0. -1.
</event>
<event>
 8    1  0.7052796E-009  0.1589772E+03  0.7561462E-02  0.1189856E+00
         -1   -1    0    0    0  501 -0.00000000000E+00  0.00000000000E+00  0.53189291088E+02  0.53189291088E+02  0.00000000000E+00 0.  1.
          1   -1    0    0  501    0  0.00000000000E+00 -0.00000000000E+00 -0.57318094080E+03  0.57318094080E+03  0.00000000000E+00 0. -1.
         25    2    1    2    0    0 -0.10652279431E+03  0.57432311317E+02 -0.16184155275E+03  0.23766502306E+03  0.12508556631E+03 0.  0.
         23    2    1    2    0    0  0.10652279431E+03 -0.57432311317E+02 -0.35815009696E+03  0.38870520883E+03  0.90413889008E+02 0.  0.
          5    1    3    3  502    0 -0.13021121211E+03  0.68116439634E+02 -0.12905505654E+03  0.19562077887E+03  0.41800000000E+01 0.  1.
         -5    1    3    3    0  502  0.23688417799E+02 -0.10684128317E+02 -0.32786496204E+02  0.42044244184E+02  0.41800000000E+01 0.  1.
        -11    1    4    4    0    0  0.88908978084E+02 -0.47072486443E+01 -0.16227772120E+03  0.18509733485E+03  0.00000000000E+00 0.  1.
         11    1    4    4    0    0  0.17613816226E+02 -0.52725062673E+02 -0.19587237577E+03  0.20360787397E+03  0.00000000000E+00 0. -1.
</event>
<event>
 8    1  0.7052796E-009  0.2262922E+03  0.7561462E-02  0.1129277E+00
          2   -1    0    0  501    0  0.00000000000E+00  0.00000000000E+00  0.10537029659E+04  0.10537029659E+04  0.00000000000E+00 0. -1.
         -2   -1    0    0    0  501 -0.00000000000E+00 -0.00000000000E+00 -0.69119477114E+02  0.69119477114E+02  0.00000000000E+00 0.  1.
         25    2    1    2    0    0  0.19880172097E+03  0.94809160466E+02  0.27375386380E+03  0.37295934696E+03  0.12508635166E+03 0.  0.
         23    2    1    2    0    0 -0.19880172097E+03 -0.94809160466E+02  0.71082962495E+03  0.74986309602E+03  0.92222588878E+02 0.  0.
          5    1    3    3  502    0  0.47973084556E+02 -0.48413755037E+01  0.44786086224E+01  0.48604383483E+02  0.41800000000E+01 0.  1.
         -5    1    3    3    0  502  0.15082863641E+03  0.99650535969E+02  0.26927525518E+03  0.32435496347E+03  0.41800000000E+01 0.  1.
        -11    1    4    4    0    0 -0.84710402680E+02 -0.20335307012E+02  0.41670800495E+03  0.42571696985E+03  0.00000000000E+00 0. -1.
         11    1    4    4    0    0 -0.11409131829E+03 -0.74473853454E+02  0.29412162001E+03  0.32414612617E+03  0.00000000000E+00 0.  1.
</event>
<event>
 8    1  0.7052796E-009  0.9583233E+02  0.7561462E-02  0.1289312E+00
         -2   -1    0    0    0  501 -0.00000000000E+00  0.00000000000E+00  0.15162592564E+03  0.15162592564E+03  0.00000000000E+00 0.  1.
          2   -1    0    0  501    0  0.00000000000E+00 -0.00000000000E+00 -0.80361149448E+02  0.80361149448E+02  0.00000000000E+00 0. -1.
         25    2    1    2    0    0  0.83653534198E+01  0.12017378557E+02  0.42733829234E+02  0.13299534521E+03  0.12508870917E+03 0.  0.
         23    2    1    2    0    0 -0.83653534198E+01 -0.12017378557E+02  0.28530946963E+02  0.98991729879E+02  0.93653356184E+02 0.  0.
          5    1    3    3  502    0 -0.26547448663E+02  0.60244148627E+02  0.26950166363E+02  0.71259443875E+02  0.41800000000E+01 0.  1.
         -5    1    3    3    0  502  0.34912802083E+02 -0.48226770070E+02  0.15783662871E+02  0.61735901340E+02  0.41800000000E+01 0.  1.
        -11    1    4    4    0    0 -0.17573844922E+01 -0.38591001181E+02 -0.19824893255E+02  0.43420964580E+02  0.00000000000E+00 0. -1.
         11    1    4    4    0    0 -0.66079689275E+01  0.26573622624E+02  0.48355840218E+02  0.55570765299E+02  0.00000000000E+00 0.  1.
</event>
<event>
 8    1  0.7052796E-009  0.1418146E+03  0.7561462E-02  0.1210908E+00
          1   -1    0    0  501    0  0.00000000000E+00  0.00000000000E+00  0.14677333665E+03  0.14677333665E+03  0.00000000000E+00 0. -1.
         -1   -1    0    0    0  501 -0.00000000000E+00 -0.00000000000E+00 -0.18322764942E+03  0.18322764942E+03  0.00000000000E+00 0.  1.
         25    2    1    2    0    0  0.63691626694E+01 -0.11739217848E+03 -0.56736288522E+02  0.18079875997E+03  0.12509074854E+03 0.  0.
         23    2    1    2    0    0 -0.63691626694E+01  0.11739217848E+03  0.20281975744E+02  0.14920222610E+03  0.89601651398E+02 0.  0.
          5    1    3    3  502    0  0.48519783408E+02 -0.11328418171E+03 -0.61825140683E+02  0.13793946363E+03  0.41800000000E+01 0.  1.
         -5    1    3    3    0  502 -0.42150620738E+02 -0.41079967704E+01  0.50888521612E+01  0.42859296336E+02  0.41800000000E+01 0.  1.
        -11    1    4    4    0    0 -0.30508095809E+00  0.68131943514E+02  0.55885551526E+02  0.88120654053E+02  0.00000000000E+00 0. -1.
         11    1    4    4    0    0 -0.60640817113E+01  0.49260234962E+02 -0.35603575782E+02  0.61081572049E+02  0.00000000000E+00 0.  1.
</event>
<event>
 8    1  0.7052796E-009  0.1249851E+03  0.7561462E-02  0.1235093E+00
         -1   -1    0    0    0  501 -0.00000000000E+00  0.00000000000E+00  0.47446253001E+02  0.47446253001E+02  0.00000000000E+00 0.  1.
          1   -1    0    0  501    0  0.00000000000E+00 -0.00000000000E+00 -0.42535126278E+03  0.42535126278E+03  0.00000000000E+00 0. -1.
         25    2    1    2    0    0 -0.64166156419E+02  0.49777126942E+02 -0.27880389096E+03  0.31618474590E+03  0.12508447517E+03 0.  0.
         23    2    1    2    0    0  0.64166156419E+02 -0.49777126942E+02 -0.99101118813E+02  0.15661276988E+03  0.90063699357E+02 0.  0.
          5    1    3    3  502    0 -0.41303711873E+01  0.79694690216E+02 -0.12530125426E+03  0.14861419964E+03  0.41800000000E+01 0.  1.
         -5    1    3    3    0  502 -0.60035785231E+02 -0.29917563274E+02 -0.15350263671E+03  0.16757054627E+03  0.41800000000E+01 0.  1.
        -11    1    4    4    0    0  0.56992077214E+02 -0.46759420589E+01 -0.12241334899E+02  0.58479155085E+02  0.00000000000E+00 0.  1.
         11    1    4    4    0    0  0.71740792043E+01 -0.45101184883E+02 -0.86859783914E+02  0.98133614791E+02  0.00000000000E+00 0. -1.
</event>
<event>
 8    1  0.7052796E-009  0.1185772E+03  0.7561462E-02  0.1245463E+00
          2   -1    0    0  501    0  0.00000000000E+00  0.00000000000E+00  0.18664150524E+03  0.18664150524E+03  0.00000000000E+00 0.  1.
         -2   -1    0    0    0  501 -0.00000000000E+00 -0.00000000000E+00 -0.15672705464E+03  0.15672705464E+03  0.00000000000E+00 0. -1.
         25    2    1    2    0    0  0.46872646958E+02  0.48721160625E+02  0.12939964045E+03  0.19225693897E+03  0.12509063557E+03 0.  0.
         23    2    1    2    0    0 -0.46872646958E+02 -0.48721160625E+02 -0.99485189859E+02  0.15111162091E+03  0.91469243178E+02 0.  0.
          5    1    3    3  502    0  0.97967320516E+01 -0.36871736492E+02  0.74856798903E+02  0.84122016457E+02  0.41800000000E+01 0.  1.
         -5    1    3    3    0  502  0.37075914906E+02  0.85592897116E+02  0.54542841548E+02  0.10813492251E+03  0.41800000000E+01 0.  1.
        -11    1    4    4    0    0 -0.37604856483E+02  0.15385396953E+02 -0.12208394130E+02  0.42424999207E+02  0.00000000000E+00 0.  1.
         11    1    4    4    0    0 -0.92677904749E+01 -0.64106557577E+02 -0.87276795728E+02  0.10868662170E+03  0.00000000000E+00 0. -1.
</event>
<event>
 8    1  0.7052796E-009  0.8640253E+02  0.7561462E-02  0.1311805E+00
         -2   -1    0    0    0  501 -0.00000000000E+00  0.00000000000E+00  0.58761151043E+02  0.58761151043E+02  0.00000000000E+00 0.  1.
          2   -1    0    0  501    0  0.00000000000E+00 -0.00000000000E+00 -0.24723961824E+03  0.24723961824E+03  0.00000000000E+00 0. -1.
         25    2    1    2    0    0 -0.37853727133E+02  0.23045074725E+02 -0.68643811769E+02  0.14940744809E+03  0.12508650017E+03 0.  0.
         23    2    1    2    0    0  0.37853727133E+02 -0.23045074725E+02 -0.11983465543E+03  0.15659332119E+03  0.90538077474E+02 0.  0.
          5    1    3    3  502    0 -0.94003937771E+01  0.70418386552E+02 -0.60472443021E+02  0.93389000063E+02  0.41800000000E+01 0.  1.
         -5    1    3    3    0  502 -0.28453333355E+02 -0.47373311827E+02 -0.81713687479E+01  0.56018448030E+02  0.41800000000E+01 0.  1.
        -11    1    4    4    0    0  0.27096655286E+02 -0.22875445560E+02 -0.13410931257E+03  0.13871850076E+03  0.00000000000E+00 0. -1.
         11    1    4    4    0    0  0.10757071846E+02 -0.16962916491E+00  0.14274657139E+02  0.17874820424E+02  0.00000000000E+00 0.  1.
</event>
<event>
 8    1  0.7052796E-009  0.7616152E+02  0.7561462E-02  0.1340311E+00
         -2   -1    0    0    0  501 -0.00000000000E+00  0.00000000000E+00  0.38374213369E+02  0.38374213369E+02  0.00000000000E+00 0.  1.
          2   -1    0    0  501    0  0.00000000000E+00 -0.00000000000E+00 -0.46658592423E+03  0.46658592423E+03  0.00000000000E+00 0. -1.
         25    2    1    2    0    0  0.37597142079E+02 -0.13329356969E+02 -0.11640957387E+03  0.17547065227E+03  0.12509014377E+03 0.  0.
         23    2    1    2    0    0 -0.37597142079E+02  0.13329356969E+02 -0.31180213699E+03  0.32948948533E+03  0.98749842838E+02 0.  0.
          5    1    3    3  502    0 -0.65341487334E+01  0.22196923373E+02 -0.11630954536E+03  0.11866246774E+03  0.41800000000E+01 0. -1.
         -5    1    3    3    0  502  0.44131290812E+02 -0.35526280342E+02 -0.10002850197E+00  0.56808184529E+02  0.41800000000E+01 0. -1.
        -11    1    4    4    0    0  0.10431577491E+02 -0.13442675324E+02 -0.49091218685E+01  0.17709398814E+02  0.00000000000E+00 0.  1.
         11    1    4    4    0    0 -0.48028719570E+02  0.26772032293E+02 -0.30689301513E+03  0.31178008652E+03  0.00000000000E+00 0. -1.
</event>
<event>
 8    1  0.7052796E-009  0.9547180E+02  0.7561462E-02  0.1290117E+00
         -4   -1    0    0    0  501 -0.00000000000E+00  0.00000000000E+00  0.23297712700E+03  0.23297712700E+03  0.00000000000E+00 0.  1.
          4   -1    0    0  501    0  0.00000000000E+00 -0.00000000000E+00 -0.55472732039E+02  0.55472732039E+02  0.00000000000E+00 0. -1.
         25    2    1    2    0    0  0.37019221079E+01 -0.30266462465E+02  0.12376148775E+03  0.17858869819E+03  0.12508898550E+03 0.  0.
         23    2    1    2    0    0 -0.37019221079E+01  0.30266462465E+02  0.53742907206E+02  0.10986116085E+03  0.90837280948E+02 0.  0.
          5    1    3    3  502    0 -0.42699414696E+02 -0.20387690413E+02  0.12201098728E+03  0.13093147579E+03  0.41800000000E+01 0. -1.
         -5    1    3    3    0  502  0.46401336804E+02 -0.98787720518E+01  0.17505004664E+01  0.47657222394E+02  0.41800000000E+01 0. -1.
        -11    1    4    4    0    0 -0.44587069135E+02  0.32021775329E+02  0.31059824892E+02  0.63072288302E+02  0.00000000000E+00 0.  1.
         11    1    4    4    0    0  0.40885147028E+02 -0.17553128638E+01  0.22683082314E+02  0.46788872545E+02  0.00000000000E+00 0. -1.
</event>
<event>
 8    1  0.7052796E-009  0.7082918E+02  0.7561462E-02  0.1357296E+00
          2   -1    0    0  501    0  0.00000000000E+00  0.00000000000E+00  0.47176019736E+03  0.47176019736E+03  0.00000000000E+00 0. -1.
         -2   -1    0    0    0  501 -0.00000000000E+00 -0.00000000000E+00 -0.33669610008E+02  0.33669610008E+02  0.00000000000E+00 0.  1.
         25    2    1    2    0    0 -0.66465505616E+01 -0.63440412305E+02  0.26998280019E+03  0.30431384093E+03  0.12508932343E+03 0.  0.
         23    2    1    2    0    0  0.66465505616E+01  0.63440412305E+02  0.16810778716E+03  0.20111596643E+03  0.90102948358E+02 0.  0.
          5    1    3    3  502    0 -0.14736051411E+02 -0.55957820240E+02  0.28174896679E+03  0.28766018415E+03  0.41800000000E+01 0.  1.
         -5    1    3    3    0  502  0.80895008497E+01 -0.74825920648E+01 -0.11766166596E+02  0.16653656787E+02  0.41800000000E+01 0. -1.
        -11    1    4    4    0    0 -0.12085606738E+02  0.40361499919E+02  0.14346072310E+02  0.44507553928E+02  0.00000000000E+00 0.  1.
         11    1    4    4    0    0  0.18732157300E+02  0.23078912386E+02  0.15376171485E+03  0.15660841250E+03  0.00000000000E+00 0. -1.
</event>
<event>
 8    1  0.7052796E-009  0.7148374E+02  0.7561462E-02  0.1355119E+00
         -1   -1    0    0    0  501 -0.00000000000E+00  0.00000000000E+00  0.13830799467E+03  0.13830799467E+03  0.00000000000E+00 0.  1.
          1   -1    0    0  501    0  0.00000000000E+00 -0.00000000000E+00 -0.52045323027E+03  0.52045323027E+03  0.00000000000E+00 0. -1.
         25    2    1    2    0    0 -0.36304917140E+00  0.56211807937E+00 -0.49629083136E+03  0.51181311102E+03  0.12509046141E+03 0.  0.
         23    2    1    2    0    0  0.36304917140E+00 -0.56211807937E+00  0.11414559576E+03  0.14694811393E+03  0.92542332875E+02 0.  0.
          5    1    3    3  502    0  0.36146997543E+01  0.38379194233E+02 -0.45041186949E+03  0.45207781761E+03  0.41800000000E+01 0.  1.
         -5    1    3    3    0  502 -0.39777489257E+01 -0.37817076154E+02 -0.45878961875E+02  0.59735293404E+02  0.41800000000E+01 0.  1.
        -11    1    4    4    0    0  0.21881280923E+02 -0.25101693419E+02  0.58100303894E+01  0.33802986857E+02  0.00000000000E+00 0. -1.
         11    1    4    4    0    0 -0.21518231751E+02  0.24539575339E+02  0.10833556537E+03  0.11314512707E+03  0.00000000000E+00 0.  1.
</event>
<event>
 8    1  0.7052796E-009  0.1053831E+03  0.7561462E-02  0.1269367E+00
          2   -1    0    0  501    0  0.00000000000E+00  0.00000000000E+00  0.42004936807E+02  0.42004936807E+02  0.00000000000E+00 0. -1.
         -2   -1    0    0    0  501 -0.00000000000E+00 -0.00000000000E+00 -0.52616935887E+03  0.52616935887E+03  0.00000000000E+00 0.  1.
         25    2    1    2    0    0  0.59138295278E+01 -0.73458859974E+02 -0.12857925836E+03  0.19393589983E+03  0.12508928841E+03 0.  0.
         23    2    1    2    0    0 -0.59138295278E+01  0.73458859974E+02 -0.35558516371E+03  0.37423839585E+03  0.90456568540E+02 0.  0.
          5    1    3    3  502    0  0.35596604460E+02 -0.24765291909E+02  0.94088857262E+01  0.44569467835E+02  0.41800000000E+01 0. -1.
         -5    1    3    3    0  502 -0.29682774933E+02 -0.48693568065E+02 -0.13798814408E+03  0.14936643199E+03  0.41800000000E+01 0. -1.
        -11    1    4    4    0    0  0.37605626645E+02  0.41653932077E+02 -0.11868824534E+03  0.13128645320E+03  0.00000000000E+00 0. -1.
         11    1    4    4    0    0 -0.43519456173E+02  0.31804927897E+02 -0.23689691837E+03  0.24295194265E+03  0.00000000000E+00 0.  1.
</event>
<event>
 8    1  0.7052796E-009  0.9404729E+02  0.7561462E-02  0.1293336E+00
         -1   -1    0    0    0  501 -0.00000000000E+00  0.00000000000E+00  0.55667285738E+02  0.55667285738E+02  0.00000000000E+00 0.  1.
          1   -1    0    0  501    0  0.00000000000E+00 -0.00000000000E+00 -0.23636033545E+03  0.23636033545E+03  0.00000000000E+00 0. -1.
         25    2    1    2    0    0  0.21509847061E+02 -0.88863817223E+01 -0.62162338715E+02  0.14161158872E+03  0.12509214366E+03 0.  0.
         23    2    1    2    0    0 -0.21509847061E+02  0.88863817223E+01 -0.11853071100E+03  0.15041603246E+03  0.89631535029E+02 0.  0.
          5    1    3    3  502    0  0.55152519787E+02  0.32537580133E+02 -0.60290892910E+02  0.88050887149E+02  0.41800000000E+01 0. -1.
         -5    1    3    3    0  502 -0.33642672725E+02 -0.41423961856E+02 -0.18714458050E+01  0.53560701576E+02  0.41800000000E+01 0. -1.
        -11    1    4    4    0    0 -0.45653242277E+02  0.68773630732E+01 -0.11741246503E+03  0.12616340039E+03  0.00000000000E+00 0. -1.
         11    1    4    4    0    0  0.24143395216E+02  0.20090186491E+01 -0.11182459680E+01  0.24252632074E+02  0.00000000000E+00 0.  1.
</event>
<event>
 8    1  0.7052796E-009  0.2126061E+03  0.7561462E-02  0.1139519E+00
          1   -1    0    0  501    0  0.00000000000E+00  0.00000000000E+00  0.41456451861E+03  0.41456451861E+03  0.00000000000E+00 0. -1.
         -1   -1    0    0    0  501 -0.00000000000E+00 -0.00000000000E+00 -0.12142136341E+03  0.12142136341E+03  0.00000000000E+00 0.  1.
         25    2    1    2    0    0  0.12118250790E+03 -0.15299316945E+03  0.17466731605E+03  0.29025628626E+03  0.12509168757E+03 0.  0.
         23    2    1    2    0    0 -0.12118250790E+03  0.15299316945E+03  0.11847583915E+03  0.24572959575E+03  0.90853726666E+02 0.  0.
          5    1    3    3  502    0  0.89859892930E+02 -0.16005047467E+03  0.10044481056E+03  0.20927873080E+03  0.41800000000E+01 0. -1.
         -5    1    3    3    0  502  0.31322614966E+02  0.70573052225E+01  0.74222505495E+02  0.80977555454E+02  0.41800000000E+01 0. -1.
        -11    1    4    4    0    0 -0.44859553253E+02  0.82642370615E+01  0.34933317125E+01  0.45748010872E+02  0.00000000000E+00 0. -1.
         11    1    4    4    0    0 -0.76322954644E+02  0.14472893239E+03  0.11498250744E+03  0.19998158488E+03  0.00000000000E+00 0.  1.
</event>
<event>
 8    1  0.7052796E-009  0.7960193E+02  0.7561462E-02  0.1330185E+00
          2   -1    0    0  501    0  0.00000000000E+00  0.00000000000E+00  0.81592727045E+03  0.81592727045E+03  0.00000000000E+00 0. -1.
         -2   -1    0    0    0  501 -0.00000000000E+00 -0.00000000000E+00 -0.30752856761E+02  0.30752856761E+02  0.00000000000E+00 0.  1.
         25    2    1    2    0    0  0.38221467564E+02 -0.52758817664E+02  0.68049983869E+03  0.69496277339E+03  0.12509537371E+03 0.  0.
         23    2    1    2    0    0 -0.38221467564E+02  0.52758817664E+02  0.10467457500E+03  0.15171735382E+03  0.88413886772E+02 0.  0.
          5    1    3    3  502    0  0.68894223969E+01 -0.26866634664E+01  0.56594293797E+03  0.56600668171E+03  0.41800000000E+01 0. -1.
         -5    1    3    3    0  502  0.31332045167E+02 -0.50072154197E+02  0.11455690072E+03  0.12895609168E+03  0.41800000000E+01 0. -1.
        -11    1    4    4    0    0 -0.26086151507E+02  0.67520947540E+02  0.36796724114E+02  0.81200767009E+02  0.00000000000E+00 0.  1.
         11    1    4    4    0    0 -0.12135316056E+02 -0.14762129877E+02  0.67877850890E+02  0.70516586813E+02  0.00000000000E+00 0. -1.
</event>
<event>
 8    1  0.7052796E-009  0.1479772E+03  0.7561462E-02  0.1202981E+00
          2   -1    0    0  501    0  0.00000000000E+00  0.00000000000E+00  0.14063415865E+03  0.14063415865E+03  0.00000000000E+00 0.  1.
         -2   -1    0    0    0  501 -0.00000000000E+00 -0.00000000000E+00 -0.17290473904E+03  0.17290473904E+03  0.00000000000E+00 0. -1.
         25    2    1    2    0    0  0.11012381798E+03 -0.91287208733E+01  0.78805390487E+01  0.16709293562E+03  0.12508939766E+03 0.  0.
         23    2    1    2    0    0 -0.11012381798E+03  0.91287208733E+01 -0.40151119433E+02  0.14644596206E+03  0.87313908288E+02 0.  0.
          5    1    3    3  502    0  0.12880150004E+03 -0.35566324381E+02  0.11862164595E+02  0.13421241817E+03  0.41800000000E+01 0. -1.
         -5    1    3    3    0  502 -0.18677682055E+02  0.26437603508E+02 -0.39816255462E+01  0.32880517456E+02  0.41800000000E+01 0. -1.
        -11    1    4    4    0    0 -0.10952705641E+03  0.26143094664E+02 -0.11594134342E+02  0.11319921128E+03  0.00000000000E+00 0.  1.
         11    1    4    4    0    0 -0.59676157612E+00 -0.17014373791E+02 -0.28556985091E+02  0.33246750779E+02  0.00000000000E+00 0. -1.
</event>
<event>
 8    1  0.7052796E-009  0.1031394E+03  0.7561462E-02  0.1273829E+00
         -2   -1    0    0    0  501 -0.00000000000E+00  0.00000000000E+00  0.51127227778E+02  0.51127227778E+02  0.00000000000E+00 0.  1.
          2   -1    0    0  501    0  0.00000000000E+00 -0.00000000000E+00 -0.33372409207E+03  0.33372409207E+03  0.00000000000E+00 0. -1.
         25    2    1    2    0    0 -0.13011790818E+02  0.40804601520E+02 -0.23932954783E+03  0.27342586413E+03  0.12509495795E+03 0.  0.
         23    2    1    2    0    0  0.13011790818E+02 -0.40804601520E+02 -0.43267316458E+02  0.11142545572E+03  0.93323358827E+02 0.  0.
          5    1    3    3  502    0  0.24524194507E+02 -0.33487608120E+02 -0.41899421381E+02  0.59126051161E+02  0.41800000000E+01 0. -1.
         -5    1    3    3    0  502 -0.37535985326E+02  0.74292209640E+02 -0.19743012645E+03  0.21429981297E+03  0.41800000000E+01 0. -1.
        -11    1    4    4    0    0  0.19744501084E+02  0.15134401667E+02  0.16056875021E+02  0.29609435528E+02  0.00000000000E+00 0.  1.
         11    1    4    4    0    0 -0.67327102652E+01 -0.55939003186E+02 -0.59324191478E+02  0.81816020189E+02  0.00000000000E+00 0. -1.
</event>
<event>
 8    1  0.7052796E-009  0.1336879E+03  0.7561462E-02  0.1222084E+00
         -2   -1    0    0    0  501 -0.00000000000E+00  0.00000000000E+00  0.88934663132E+02  0.88934663132E+02  0.00000000000E+00 0.  1.
          2   -1    0    0  501    0  0.00000000000E+00 -0.00000000000E+00 -0.33253500460E+03  0.33253500460E+03  0.00000000000E+00 0. -1.
         25    2    1    2    0    0  0.62155173090E+02 -0.72972194487E+02 -0.16267580535E+02  0.15841928514E+03  0.12507529340E+03 0.  0.
         23    2    1    2    0    0 -0.62155173090E+02  0.72972194487E+02 -0.22733276094E+03  0.26305038259E+03  0.91253015708E+02 0.  0.
          5    1    3    3  502    0 -0.14931416396E+02 -0.55653859789E+02 -0.46050131794E+02  0.73880892951E+02  0.41800000000E+01 0.  1.
         -5    1    3    3    0  502  0.77086589486E+02 -0.17318334698E+02  0.29782551259E+02  0.84538392194E+02  0.41800000000E+01 0.  1.
        -11    1    4    4    0    0  0.23007500088E+02  0.15798856034E+02 -0.32291755060E+02  0.42681452144E+02  0.00000000000E+00 0.  1.
         11    1    4    4    0    0 -0.85162673178E+02  0.57173338453E+02 -0.19504100588E+03  0.22036893045E+03  0.00000000000E+00 0. -1.
</event>
<event>
 8    1  0.7052796E-009  0.8931939E+02  0.7561462E-02  0.1304508E+00
          3   -1    0    0  501    0  0.00000000000E+00  0.00000000000E+00  0.42973031148E+03  0.42973031148E+03  0.00000000000E+00 0. -1.
         -3   -1    0    0    0  501 -0.00000000000E+00 -0.00000000000E+00 -0.30245928498E+02  0.30245928498E+02  0.00000000000E+00 0.  1.
         25    2    1    2    0    0 -0.83131289919E+01 -0.26181485724E+02  0.29710835704E+03  0.32353467492E+03  0.12508689677E+03 0.  0.
         23    2    1    2    0    0  0.83131289919E+01  0.26181485724E+02  0.10237602594E+03  0.13644156505E+03  0.85911999622E+02 0.  0.
          5    1    3    3  502    0 -0.26228124874E+02  0.29556763779E+02  0.29303217109E+02  0.49372743011E+02  0.41800000000E+01 0. -1.
         -5    1    3    3    0  502  0.17914995882E+02 -0.55738249503E+02  0.26780513993E+03  0.27416193191E+03  0.41800000000E+01 0. -1.
        -11    1    4    4    0    0 -0.82224901724E+01  0.50298045958E+02  0.92439606161E+02  0.10555843670E+03  0.00000000000E+00 0.  1.
         11    1    4    4    0    0  0.16535619164E+02 -0.24116560235E+02  0.99364197751E+01  0.30883128349E+02  0.00000000000E+00 0. -1.
</event>
<event>
 8    1  0.7052796E-009  0.1194004E+03  0.7561462E-02  0.1244089E+00
          3   -1    0    0  501    0  0.00000000000E+00  0.00000000000E+00  0.28253974387E+02  0.28253974387E+02  0.00000000000E+00 0. -1.
         -3   -1    0    0    0  501 -0.00000000000E+00 -0.00000000000E+00 -0.74860098221E+03  0.74860098221E+03  0.00000000000E+00 0.  1.
         25    2    1    2    0    0  0.43239180034E+02 -0.70436498583E+02 -0.51902519620E+03  0.54024384894E+03  0.12508131357E+03 0.  0.
         23    2    1    2    0    0 -0.43239180034E+02  0.70436498583E+02 -0.20132181162E+03  0.23661110765E+03  0.92862357332E+02 0.  0.
          5    1    3    3  502    0  0.87271751429E+01  0.30889179870E+02 -0.53314378162E+02  0.62371470544E+02  0.41800000000E+01 0. -1.
         -5    1    3    3    0  502  0.34512004891E+02 -0.10132567845E+03 -0.46571081804E+03  0.47787237840E+03  0.41800000000E+01 0. -1.
        -11    1    4    4    0    0 -0.54195084050E+02  0.69750935979E+02 -0.20640699572E+03  0.22451313567E+03  0.00000000000E+00 0.  1.
         11    1    4    4    0    0  0.10955904016E+02  0.68556260430E+00  0.50851840998E+01  0.12097971988E+02  0.00000000000E+00 0. -1.
</event>
<event>
 8    1  0.7052796E-009  0.1612594E+03  0.7561462E-02  0.1187282E+00
         -1   -1    0    0    0  501 -0.00000000000E+00  0.00000000000E+00  0.74455838989E+03  0.74455838989E+03  0.00000000000E+00 0.  1.
          1   -1    0    0  501    0  0.00000000000E+00 -0.00000000000E+00 -0.40941090641E+02  0.40941090641E+02  0.00000000000E+00 0. -1.
         25    2    1    2    0    0 -0.11184160175E+03  0.78404896265E+02  0.36532976405E+03  0.40959541759E+03  0.12508676175E+03 0.  0.
         23    2    1    2    0    0  0.11184160175E+03 -0.78404896265E+02  0.33828753520E+03  0.37590406295E+03  0.90606492190E+02 0.  0.
          5    1    3    3  502    0 -0.70974435974E+02 -0.12393186412E+02  0.23309582875E+03  0.24401249847E+03  0.41800000000E+01 0. -1.
         -5    1    3    3    0  502 -0.40867165778E+02  0.90798082677E+02  0.13223393531E+03  0.16558291912E+03  0.41800000000E+01 0. -1.
        -11    1    4    4    0    0  0.42438570709E+02 -0.68504649875E+02  0.10529676544E+03  0.13259460076E+03  0.00000000000E+00 0. -1.
         11    1    4    4    0    0  0.69403031042E+02 -0.99002463898E+01  0.23299076976E+03  0.24330946219E+03  0.00000000000E+00 0.  1.
</event>
<event>
 8    1  0.7052796E-009  0.2000073E+03  0.7561462E-02  0.1149733E+00
          1   -1    0    0  501    0  0.00000000000E+00  0.00000000000E+00  0.43425184310E+03  0.43425184310E+03  0.00000000000E+00 0. -1.
         -1   -1    0    0    0  501 -0.00000000000E+00 -0.00000000000E+00 -0.12429486504E+03  0.12429486504E+03  0.00000000000E+00 0.  1.
         25    2    1    2    0    0 -0.10265423370E+03  0.16962113168E+03  0.22290394674E+03  0.32347961144E+03  0.12507465586E+03 0.  0.
         23    2    1    2    0    0  0.10265423370E+03 -0.16962113168E+03  0.87053031316E+02  0.23506709670E+03  0.91482728866E+02 0.  0.
          5    1    3    3  502    0 -0.27152516209E+02  0.72125202090E+02  0.10570237303E+02  0.77900617646E+02  0.41800000000E+01 0.  1.
         -5    1    3    3    0  502 -0.75501717494E+02  0.97495929588E+02  0.21233370944E+03  0.24557899380E+03  0.41800000000E+01 0.  1.
        -11    1    4    4    0    0  0.52765013543E+02 -0.66453788395E+02 -0.92784644836E+01  0.85360075852E+02  0.00000000000E+00 0.  1.
         11    1    4    4    0    0  0.49889220160E+02 -0.10316734328E+03  0.96331495800E+02  0.14970702085E+03  0.00000000000E+00 0. -1.
</event>
<event>
 8    1  0.7052796E-009  0.8025111E+02  0.7561462E-02  0.1328340E+00
         -2   -1    0    0    0  501 -0.00000000000E+00  0.00000000000E+00  0.21521518732E+03  0.21521518732E+03  0.00000000000E+00 0.  1.
          2   -1    0    0  501    0  0.00000000000E+00 -0.00000000000E+00 -0.63662358104E+02  0.63662358104E+02  0.00000000000E+00 0. -1.
         25    2    1    2    0    0 -0.25768875449E+02  0.69332487227E+01  0.12490839233E+03  0.17877745710E+03  0.12508863983E+03 0.  0.
         23    2    1    2    0    0  0.25768875449E+02 -0.69332487227E+01  0.26644436890E+02  0.10010008832E+03  0.92725383718E+02 0.  0.
          5    1    3    3  502    0 -0.26020785845E+02 -0.31530147814E+02  0.13303953691E+03  0.13924159687E+03  0.41800000000E+01 0.  1.
         -5    1    3    3    0  502  0.25191039650E+00  0.38463396537E+02 -0.81311445829E+01  0.39535860231E+02  0.41800000000E+01 0.  1.
        -11    1    4    4    0    0  0.38083603283E+02 -0.33954714614E+02  0.42529303144E+02  0.66423076633E+02  0.00000000000E+00 0.  1.
         11    1    4    4    0    0 -0.12314727834E+02  0.27021465891E+02 -0.15884866254E+02  0.33677011691E+02  0.00000000000E+00 0. -1.
</event>
<event>
 8    1  0.7052796E-009  0.8239799E+02  0.7561462E-02  0.1322381E+00
         -1   -1    0    0    0  501 -0.00000000000E+00  0.00000000000E+00  0.78721064089E+02  0.78721064089E+02  0.00000000000E+00 0.  1.
          1   -1    0    0  501    0  0.00000000000E+00 -0.00000000000E+00 -0.15176874156E+03  0.15176874156E+03  0.00000000000E+00 0. -1.
         25    2    1    2    0    0 -0.12796209964E+02 -0.10782504576E+02 -0.49118660287E+02  0.13542592065E+03  0.12509009474E+03 0.  0.
         23    2    1    2    0    0  0.12796209964E+02  0.10782504576E+02 -0.23929017186E+02  0.95063884997E+02  0.90468441862E+02 0.  0.
          5    1    3    3  502    0 -0.57332395049E+01  0.47240142467E+02 -0.59089134401E+02  0.75983546243E+02  0.41800000000E+01 0.  1.
         -5    1    3    3    0  502 -0.70629704587E+01 -0.58022647043E+02  0.99704741132E+01  0.59442374411E+02  0.41800000000E+01 0.  1.
        -11    1    4    4    0    0  0.22891077463E+02 -0.17229288780E+02  0.24842995561E+02  0.37921290164E+02  0.00000000000E+00 0.  1.
         11    1    4    4    0    0 -0.10094867499E+02  0.28011793356E+02 -0.48772012747E+02  0.57142594833E+02  0.00000000000E+00 0. -1.
</event>
<event>
 8    1  0.7052796E-009  0.1323410E+03  0.7561462E-02  0.1224023E+00
          1   -1    0    0  501    0  0.00000000000E+00  0.00000000000E+00  0.40422766449E+03  0.40422766449E+03  0.00000000000E+00 0. -1.
         -1   -1    0    0    0  501 -0.00000000000E+00 -0.00000000000E+00 -0.49532394432E+02  0.49532394432E+02  0.00000000000E+00 0.  1.
         25    2    1    2    0    0 -0.53705579586E+02 -0.70484222696E+02  0.23251636066E+03  0.27850418434E+03  0.12509359613E+03 0.  0.
         23    2    1    2    0    0  0.53705579586E+02  0.70484222696E+02  0.12217890940E+03  0.17525587458E+03  0.89076488177E+02 0.  0.
          5    1    3    3  502    0 -0.70249376601E+02 -0.14750459188E+01  0.16939391261E+03  0.18343642142E+03  0.41800000000E+01 0.  1.
         -5    1    3    3    0  502  0.16543797015E+02 -0.69009176778E+02  0.63122448047E+02  0.95067762920E+02  0.41800000000E+01 0.  1.
        -11    1    4    4    0    0 -0.35746935509E+01  0.65621734795E+02  0.47863389908E+02  0.81301258323E+02  0.00000000000E+00 0.  1.
         11    1    4    4    0    0  0.57280273137E+02  0.48624879014E+01  0.74315519491E+02  0.93954616259E+02  0.00000000000E+00 0. -1.
</event>
<event>
 8    1  0.7052796E-009  0.6527266E+02  0.7561462E-02  0.1376949E+00
         -1   -1    0    0    0  501 -0.00000000000E+00  0.00000000000E+00  0.54637402216E+02  0.54637402216E+02  0.00000000000E+00 0.  1.
          1   -1    0    0  501    0  0.00000000000E+00 -0.00000000000E+00 -0.21960079356E+03  0.21960079356E+03  0.00000000000E+00 0. -1.
         25    2    1    2    0    0 -0.20044906603E+02  0.12651404193E+01 -0.99374366865E+02  0.16101536138E+03  0.12508910004E+03 0.  0.
         23    2    1    2    0    0  0.20044906603E+02 -0.12651404193E+01 -0.65589024483E+02  0.11322283440E+03  0.90078250625E+02 0.  0.
          5    1    3    3  502    0  0.31223263187E+02 -0.58558146196E+01 -0.10405448706E+03  0.10887603688E+03  0.41800000000E+01 0.  1.
         -5    1    3    3    0  502 -0.51268169790E+02  0.71209550389E+01  0.46801201987E+01  0.52139324500E+02  0.41800000000E+01 0.  1.
        -11    1    4    4    0    0  0.13153986437E+02 -0.21496818931E+02  0.15350505464E+02  0.29508957985E+02  0.00000000000E+00 0.  1.
         11    1    4    4    0    0  0.68909201662E+01  0.20231678512E+02 -0.80939529947E+02  0.83713876414E+02  0.00000000000E+00 0. -1.
</event>
<event>
 8    1  0.7052796E-009  0.8607932E+02  0.7561462E-02  0.1312634E+00
         -1   -1    0    0    0  501 -0.00000000000E+00  0.00000000000E+00  0.70183038853E+02  0.70183038853E+02  0.00000000000E+00 0.  1.
          1   -1    0    0  501    0  0.00000000000E+00 -0.00000000000E+00 -0.18585608371E+03  0.18585608371E+03  0.00000000000E+00 0. -1.
         25    2    1    2    0    0 -0.27199035528E+02 -0.22327142008E+02 -0.55154657477E+02  0.14116314394E+03  0.12508680251E+03 0.  0.
         23    2    1    2    0    0  0.27199035528E+02  0.22327142008E+02 -0.60518387382E+02  0.11487597863E+03  0.91080878618E+02 0.  0.
          5    1    3    3  502    0 -0.49035936459E+02  0.39203466692E+02 -0.38085980520E+02  0.73548957690E+02  0.41800000000E+01 0.  1.
         -5    1    3    3    0  502  0.21836900931E+02 -0.61530608700E+02 -0.17068676956E+02  0.67614186251E+02  0.41800000000E+01 0.  1.
        -11    1    4    4    0    0  0.25591185986E+01  0.18741063250E+02  0.21807120849E+02  0.28867404793E+02  0.00000000000E+00 0.  1.
         11    1    4    4    0    0  0.24639916930E+02  0.35860787580E+01 -0.82325508231E+02  0.86008573833E+02  0.00000000000E+00 0. -1.
</event>
<event>
 8    1  0.7052796E-009  0.1448464E+03  0.7561462E-02  0.1206953E+00
          1   -1    0    0  501    0  0.00000000000E+00  0.00000000000E+00  0.52489721822E+03  0.52489721822E+03  0.00000000000E+00 0. -1.
         -1   -1    0    0    0  501 -0.00000000000E+00 -0.00000000000E+00 -0.64823270629E+02  0.64823270629E+02  0.00000000000E+00 0.  1.
         25    2    1    2    0    0  0.43957347548E+02 -0.10844783818E+03  0.39104449345E+03  0.42691455937E+03  0.12508822141E+03 0.  0.
         23    2    1    2    0    0 -0.43957347548E+02  0.10844783818E+03  0.69029454142E+02  0.16280592948E+03  0.89707988081E+02 0.  0.
          5    1    3    3  502    0  0.64499749457E+02 -0.53307621842E+02  0.33580233640E+03  0.34609623193E+03  0.41800000000E+01 0. -1.
         -5    1    3    3    0  502 -0.20542401909E+02 -0.55140216337E+02  0.55242157048E+02  0.80818327434E+02  0.41800000000E+01 0. -1.
        -11    1    4    4    0    0 -0.71481626897E+02  0.75096621120E+02  0.54883707804E+02  0.11730876723E+03  0.00000000000E+00 0. -1.
         11    1    4    4    0    0  0.27524279350E+02  0.33351217060E+02  0.14145746338E+02  0.45497162247E+02  0.00000000000E+00 0.  1.
</event>
<event>
 8    1  0.7052796E-009  0.7122756E+02  0.7561462E-02  0.1355968E+00
          2   -1    0    0  501    0  0.00000000000E+00  0.00000000000E+00  0.10660855835E+03  0.10660855835E+03  0.00000000000E+00 0. -1.
         -2   -1    0    0    0  501 -0.00000000000E+00 -0.00000000000E+00 -0.15250991454E+03  0.15250991454E+03  0.00000000000E+00 0.  1.
         25    2    1    2    0    0 -0.55803086272E+01  0.35398187130E+01  0.43576055793E+02  0.13262801397E+03  0.12509055636E+03 0.  0.
         23    2    1    2    0    0  0.55803086272E+01 -0.35398187130E+01 -0.89477411982E+02  0.12649045891E+03  0.89162541352E+02 0.  0.
          5    1    3    3  502    0  0.23265770194E+02  0.35746388993E+01 -0.38617867489E+02  0.45419006984E+02  0.41800000000E+01 0. -1.
         -5    1    3    3    0  502 -0.28846078821E+02 -0.34820186291E-01  0.82193923282E+02  0.87209006991E+02  0.41800000000E+01 0. -1.
        -11    1    4    4    0    0 -0.32967168446E+02  0.25052998135E+02 -0.42196345795E+02  0.59118681560E+02  0.00000000000E+00 0.  1.
         11    1    4    4    0    0  0.38547477073E+02 -0.28592816848E+02 -0.47281066188E+02  0.67371777354E+02  0.00000000000E+00 0. -1.
</event>
<event>
 8    1  0.7052796E-009  0.1383367E+03  0.7561462E-02  0.1215585E+00
          3   -1    0    0  501    0  0.00000000000E+00  0.00000000000E+00  0.58633740885E+02  0.58633740885E+02  0.00000000000E+00 0. -1.
         -3   -1    0    0    0  501 -0.00000000000E+00 -0.00000000000E+00 -0.35023754788E+03  0.35023754788E+03  0.00000000000E+00 0.  1.
         25    2    1    2    0    0 -0.90007211292E+02  0.24553159676E+02 -0.15369584792E+03  0.21903265555E+03  0.12509490314E+03 0.  0.
         23    2    1    2    0    0  0.90007211292E+02 -0.24553159676E+02 -0.13790795908E+03  0.18983863322E+03  0.91191807485E+02 0.  0.
          5    1    3    3  502    0 -0.11999560425E+03  0.22277398546E+02 -0.13984451136E+03  0.18565879263E+03  0.41800000000E+01 0. -1.
         -5    1    3    3    0  502  0.29988392959E+02  0.22757611298E+01 -0.13851336565E+02  0.33373862911E+02  0.41800000000E+01 0. -1.
        -11    1    4    4    0    0  0.90348067662E+02  0.88560570524E+01 -0.12392799195E+03  0.15362080023E+03  0.00000000000E+00 0.  1.
         11    1    4    4    0    0 -0.34085636964E+00 -0.33409216728E+02 -0.13979967132E+02  0.36217832989E+02  0.00000000000E+00 0. -1.
</event>
<event>
 8    1  0.7052796E-009  0.1334493E+03  0.7561462E-02  0.1222425E+00
         -2   -1    0    0    0  501 -0.00000000000E+00  0.00000000000E+00  0.11780049810E+03  0.11780049810E+03  0.00000000000E+00 0.  1.
          2   -1    0    0  501    0  0.00000000000E+00 -0.00000000000E+00 -0.23413581657E+03  0.23413581657E+03  0.00000000000E+00 0. -1.
         25    2    1    2    0    0 -0.51597956068E+02  0.92855592782E+02  0.78341342746E+01  0.16430294923E+03  0.12509826251E+03 0.  0.
         23    2    1    2    0    0  0.51597956068E+02 -0.92855592782E+02 -0.12416945274E+03  0.18763336544E+03  0.92215598756E+02 0.  0.
          5    1    3    3  502    0 -0.22786248070E+02  0.10675288264E+03 -0.31254763588E+02  0.11362096506E+03  0.41800000000E+01 0. -1.
         -5    1    3    3    0  502 -0.28811707998E+02 -0.13897289862E+02  0.39088897862E+02  0.50681984170E+02  0.41800000000E+01 0. -1.
        -11    1    4    4    0    0  0.61109409031E+02 -0.43186879990E+02 -0.11350223327E+03  0.13594934142E+03  0.00000000000E+00 0. -1.
         11    1    4    4    0    0 -0.95114529636E+01 -0.49668712792E+02 -0.10667219462E+02  0.51684024020E+02  0.00000000000E+00 0.  1.
</event>
<event>
 8    1  0.7052796E-009  0.1236431E+03  0.7561462E-02  0.1237205E+00
         -1   -1    0    0    0  501 -0.00000000000E+00  0.00000000000E+00  0.95301602064E+02  0.95301602064E+02  0.00000000000E+00 0.  1.
          1   -1    0    0  501    0  0.00000000000E+00 -0.00000000000E+00 -0.22109481109E+03  0.22109481109E+03  0.00000000000E+00 0. -1.
         25    2    1    2    0    0 -0.52752777994E+02 -0.74469009327E+02 -0.90833309430E+02  0.17952303919E+03  0.12509733235E+03 0.  0.
         23    2    1    2    0    0  0.52752777994E+02  0.74469009327E+02 -0.34959899592E+02  0.13687337396E+03  0.95831294385E+02 0.  0.
          5    1    3    3  502    0  0.41017621798E+02 -0.26808559772E+02 -0.23013975204E+02  0.54297878685E+02  0.41800000000E+01 0. -1.
         -5    1    3    3    0  502 -0.93770399792E+02 -0.47660449555E+02 -0.67819334226E+02  0.12522516051E+03  0.41800000000E+01 0. -1.
        -11    1    4    4    0    0  0.25303166171E+02  0.21611083005E+02 -0.62843030719E+02  0.71109321730E+02  0.00000000000E+00 0. -1.
         11    1    4    4    0    0  0.27449611823E+02  0.52857926321E+02  0.27883131127E+02  0.65764052230E+02  0.00000000000E+00 0.  1.
</event>
<event>
 8    1  0.7052796E-009  0.9213378E+02  0.7561462E-02  0.1297765E+00
         -1   -1    0    0    0  501 -0.00000000000E+00  0.00000000000E+00  0.12654201922E+03  0.12654201922E+03  0.00000000000E+00 0.  1.
          1   -1    0    0  501    0  0.00000000000E+00 -0.00000000000E+00 -0.10878116178E+03  0.10878116178E+03  0.00000000000E+00 0. -1.
         25    2    1    2    0    0  0.16342119208E+02 -0.19779200884E+02 -0.33004920965E+02  0.13189069130E+03  0.12509015946E+03 0.  0.
         23    2    1    2    0    0 -0.16342119208E+02  0.19779200884E+02  0.50765778413E+02  0.10343248970E+03  0.86387696001E+02 0.  0.
          5    1    3    3  502    0 -0.20657620294E+02  0.35131587436E+02  0.21281412809E+02  0.46166401670E+02  0.41800000000E+01 0. -1.
         -5    1    3    3    0  502  0.36999739503E+02 -0.54910788321E+02 -0.54286333774E+02  0.85724289626E+02  0.41800000000E+01 0. -1.
        -11    1    4    4    0    0  0.26819156836E+02 -0.48584969063E+01  0.46049481112E+02  0.53510997713E+02  0.00000000000E+00 0.  1.
         11    1    4    4    0    0 -0.43161276044E+02  0.24637697791E+02  0.47162973008E+01  0.49921491989E+02  0.00000000000E+00 0. -1.
</event>
<event>
 8    1  0.7052796E-009  0.1068972E+03  0.7561462E-02  0.1266426E+00
          1   -1    0    0  501    0  0.00000000000E+00  0.00000000000E+00  0.67172802958E+02  0.67172802958E+02  0.00000000000E+00 0. -1.
         -1   -1    0    0    0  501 -0.00000000000E+00 -0.00000000000E+00 -0.24959973510E+03  0.24959973510E+03  0.00000000000E+00 0.  1.
         25    2    1    2    0    0  0.57289449115E+01 -0.63681291742E+02 -0.14819918062E+03  0.20420223626E+03  0.12508968155E+03 0.  0.
         23    2    1    2    0    0 -0.57289449115E+01  0.63681291742E+02 -0.34227751526E+02  0.11257030180E+03  0.86095331725E+02 0.  0.
          5    1    3    3  502    0  0.41513127927E+02 -0.27428575697E+01 -0.21120567936E+01  0.41866409469E+02  0.41800000000E+01 0. -1.
         -5    1    3    3    0  502 -0.35784183015E+02 -0.60938434172E+02 -0.14608712382E+03  0.16233582679E+03  0.41800000000E+01 0. -1.
        -11    1    4    4    0    0  0.31456649934E+02  0.54437089048E+02 -0.38955271361E+02  0.73962359724E+02  0.00000000000E+00 0.  1.
         11    1    4    4    0    0 -0.37185594846E+02  0.92442026935E+01  0.47275198347E+01  0.38607942075E+02  0.00000000000E+00 0. -1.
</event>
<event>
 8    1  0.7052796E-009  0.1033277E+03  0.7561462E-02  0.1273450E+00
         -4   -1    0    0    0  501 -0.00000000000E+00  0.00000000000E+00  0.69908795598E+03  0.69908795598E+03  0.00000000000E+00 0.  1.
          4   -1    0    0  501    0  0.00000000000E+00 -0.00000000000E+00 -0.26032547323E+02  0.26032547323E+02  0.00000000000E+00 0. -1.
         25    2    1    2    0    0  0.69554948943E+02 -0.14251528545E+02  0.46657167459E+03  0.48823803262E+03  0.12508497904E+03 0.  0.
         23    2    1    2    0    0 -0.69554948943E+02  0.14251528545E+02  0.20648373407E+03  0.23688247069E+03  0.91851921552E+02 0.  0.
          5    1    3    3  502    0  0.57794721125E+02  0.14648422653E+02  0.44741083331E+03  0.45138534783E+03  0.41800000000E+01 0.  1.
         -5    1    3    3    0  502  0.11760227818E+02 -0.28899951198E+02  0.19160841279E+02  0.36852684788E+02  0.41800000000E+01 0.  1.
        -11    1    4    4    0    0 -0.11706556634E+02 -0.36574492080E+02  0.56983479579E+02  0.68715746987E+02  0.00000000000E+00 0. -1.
         11    1    4    4    0    0 -0.57848392309E+02  0.50826020625E+02  0.14950025450E+03  0.16816672370E+03  0.00000000000E+00 0.  1.
</event>
<event>
 8    1  0.7052796E-009  0.1482169E+03  0.7561462E-02  0.1202681E+00
          2   -1    0    0  501    0  0.00000000000E+00  0.00000000000E+00  0.63369661367E+03  0.63369661367E+03  0.00000000000E+00 0. -1.
         -2   -1    0    0    0  501 -0.00000000000E+00 -0.00000000000E+00 -0.37339000458E+02  0.37339000458E+02  0.00000000000E+00 0.  1.
         25    2    1    2    0    0 -0.10488652177E+03  0.20037100664E+02  0.27444762123E+03  0.31995641514E+03  0.12509173810E+03 0.  0.
         23    2    1    2    0    0  0.10488652177E+03 -0.20037100664E+02  0.32190999199E+03  0.35107919899E+03  0.90707734903E+02 0.  0.
          5    1    3    3  502    0 -0.18962340147E+02  0.61575623585E+02  0.14808013897E+03  0.16154357840E+03  0.41800000000E+01 0. -1.
         -5    1    3    3    0  502 -0.85924181619E+02 -0.41538522921E+02  0.12636748226E+03  0.15841283674E+03  0.41800000000E+01 0. -1.
        -11    1    4    4    0    0  0.21368263673E+02  0.31600706697E+02  0.57290012363E+02  0.68828430700E+02  0.00000000000E+00 0.  1.
         11    1    4    4    0    0  0.83518258093E+02 -0.51637807360E+02  0.26461997963E+03  0.28225076829E+03  0.00000000000E+00 0. -1.
</event>
<event>
 8    1  0.7052796E-009  0.1570948E+03  0.7561462E-02  0.1192016E+00
          1   -1    0    0  501    0  0.00000000000E+00  0.00000000000E+00  0.67282543477E+02  0.67282543477E+02  0.00000000000E+00 0. -1.
         -1   -1    0    0    0  501 -0.00000000000E+00 -0.00000000000E+00 -0.41596202519E+03  0.41596202519E+03  0.00000000000E+00 0.  1.
         25    2    1    2    0    0  0.12401557617E+03  0.18921206621E+02 -0.14682847277E+03  0.23010381891E+03  0.12510512328E+03 0.  0.
         23    2    1    2    0    0 -0.12401557617E+03 -0.18921206621E+02 -0.20185100894E+03  0.25314074975E+03  0.87169571436E+02 0.  0.
          5    1    3    3  502    0  0.57759666757E+02 -0.42882763916E+02 -0.11151024552E+03  0.13276715634E+03  0.41800000000E+01 0. -1.
         -5    1    3    3    0  502  0.66255909408E+02  0.61803970537E+02 -0.35318227251E+02  0.97336662578E+02  0.41800000000E+01 0. -1.
        -11    1    4    4    0    0 -0.12373701187E+02 -0.36381287228E+02 -0.66665468756E+02  0.76947977659E+02  0.00000000000E+00 0. -1.
         11    1    4    4    0    0 -0.11164187498E+03  0.17460080607E+02 -0.13518554018E+03  0.17619277209E+03  0.00000000000E+00 0.  1.
</event>
<event>
 8    1  0.7052796E-009  0.1376016E+03  0.7561462E-02  0.1216593E+00
          1   -1    0    0  501    0  0.00000000000E+00  0.00000000000E+00  0.69080275235E+03  0.69080275235E+03  0.00000000000E+00 0. -1.
         -1   -1    0    0    0  501 -0.00000000000E+00 -0.00000000000E+00 -0.31130021879E+02  0.31130021879E+02  0.00000000000E+00 0.  1.
         25    2    1    2    0    0 -0.75781431479E+02  0.53052514846E+02  0.44033485038E+03  0.46701039771E+03  0.12508611601E+03 0.  0.
         23    2    1    2    0    0  0.75781431479E+02 -0.53052514846E+02  0.21933788009E+03  0.25492237652E+03  0.91208101181E+02 0.  0.
          5    1    3    3  502    0 -0.78839907161E+02 -0.20700009780E+02  0.23503030653E+03  0.24879899267E+03  0.41800000000E+01 0.  1.
         -5    1    3    3    0  502  0.30584756816E+01  0.73752524626E+02  0.20530454385E+03  0.21821140504E+03  0.41800000000E+01 0.  1.
        -11    1    4    4    0    0  0.31960130656E+02 -0.66525250232E+02  0.82925588427E+02  0.11101221593E+03  0.00000000000E+00 0.  1.
         11    1    4    4    0    0  0.43821300823E+02  0.13472735386E+02  0.13641229166E+03  0.14391016059E+03  0.00000000000E+00 0. -1.
</event>
<event>
 8    1  0.7052796E-009  0.1459402E+03  0.7561462E-02  0.1205552E+00
         -1   -1    0    0    0  501 -0.00000000000E+00  0.00000000000E+00  0.68680716479E+02  0.68680716479E+02  0.00000000000E+00 0.  1.
          1   -1    0    0  501    0  0.00000000000E+00 -0.00000000000E+00 -0.40864408186E+03  0.40864408186E+03  0.00000000000E+00 0. -1.
         25    2    1    2    0    0  0.62705700090E+02 -0.97646489620E+02 -0.10250001283E+03  0.19903986106E+03  0.12507506507E+03 0.  0.
         23    2    1    2    0    0 -0.62705700090E+02  0.97646489620E+02 -0.23746335256E+03  0.27828493728E+03  0.87102357906E+02 0.  0.
          5    1    3    3  502    0  0.48216387779E+02 -0.12604510738E+03 -0.97402789268E+02  0.16648412808E+03  0.41800000000E+01 0. -1.
         -5    1    3    3    0  502  0.14489312311E+02  0.28398617758E+02 -0.50972235581E+01  0.32555732979E+02  0.41800000000E+01 0. -1.
        -11    1    4    4    0    0 -0.12727728784E+02  0.62070526537E+02 -0.49029452044E+02  0.80116368567E+02  0.00000000000E+00 0.  1.
         11    1    4    4    0    0 -0.49977971307E+02  0.35575963083E+02 -0.18843390051E+03  0.19816856872E+03  0.00000000000E+00 0. -1.
</event>
<event>
 8    1  0.7052796E-009  0.1054707E+03  0.7561462E-02  0.1269195E+00
         -1   -1    0    0    0  501 -0.00000000000E+00  0.00000000000E+00  0.47514655764E+02  0.47514655764E+02  0.00000000000E+00 0.  1.
          1   -1    0    0  501    0  0.00000000000E+00 -0.00000000000E+00 -0.31343462109E+03  0.31343462109E+03  0.00000000000E+00 0. -1.
         25    2    1    2    0    0  0.70191716189E+01 -0.25773102030E+02 -0.80663255409E+02  0.15122095784E+03  0.12509075009E+03 0.  0.
         23    2    1    2    0    0 -0.70191716189E+01  0.25773102030E+02 -0.18525670992E+03  0.20972831902E+03  0.94617110878E+02 0.  0.
          5    1    3    3  502    0 -0.38684450345E+02  0.32165380863E+02 -0.15842638464E+02  0.52910868619E+02  0.41800000000E+01 0. -1.
         -5    1    3    3    0  502  0.45703621963E+02 -0.57938482893E+02 -0.64820616945E+02  0.98310089216E+02  0.41800000000E+01 0. -1.
        -11    1    4    4    0    0 -0.10212939132E+02 -0.29480307549E+02 -0.24372562058E+02  0.39590585247E+02  0.00000000000E+00 0.  1.
         11    1    4    4    0    0  0.31937675134E+01  0.55253409579E+02 -0.16088414786E+03  0.17013773377E+03  0.00000000000E+00 0. -1.
</event>
<event>
 8    1  0.7052796E-009  0.1578246E+03  0.7561462E-02  0.1191175E+00
         -1   -1    0    0    0  501 -0.00000000000E+00  0.00000000000E+00  0.26564742392E+02  0.26564742392E+02  0.00000000000E+00 0.  1.
          1   -1    0    0  501    0  0.00000000000E+00 -0.00000000000E+00 -0.12940333257E+04  0.12940333257E+04  0.00000000000E+00 0. -1.
         25    2    1    2    0    0 -0.25361143005E+02  0.14125234726E+03 -0.82580266208E+03  0.84746296982E+03  0.12509210745E+03 0.  0.
         23    2    1    2    0    0  0.25361143005E+02 -0.14125234726E+03 -0.44166592120E+03  0.47313509823E+03  0.90513104313E+02 0.  0.
          5    1    3    3  502    0  0.76360957181E+01  0.89576494036E+02 -0.20831594363E+03  0.22692567729E+03  0.41800000000E+01 0. -1.
         -5    1    3    3    0  502 -0.32997238723E+02  0.51675853228E+02 -0.61748671845E+03  0.62053729254E+03  0.41800000000E+01 0. -1.
        -11    1    4    4    0    0  0.54533814709E+02 -0.93087220011E+02 -0.22900522383E+03  0.25314533379E+03  0.00000000000E+00 0.  1.
         11    1    4    4    0    0 -0.29172671705E+02 -0.48165127253E+02 -0.21266069736E+03  0.21998976444E+03  0.00000000000E+00 0. -1.
</event>
<event>
 8    1  0.7052796E-009  0.9497389E+02  0.7561462E-02  0.1291235E+00
          2   -1    0    0  501    0  0.00000000000E+00  0.00000000000E+00  0.48734356257E+03  0.48734356257E+03  0.00000000000E+00 0. -1.
         -2   -1    0    0    0  501 -0.00000000000E+00 -0.00000000000E+00 -0.34447211136E+02  0.34447211136E+02  0.00000000000E+00 0.  1.
         25    2    1    2    0    0  0.13699910309E+02  0.44826625533E+02  0.36471008635E+03  0.38840459383E+03  0.12509023752E+03 0.  0.
         23    2    1    2    0    0 -0.13699910309E+02 -0.44826625533E+02  0.88186265084E+02  0.13338617988E+03  0.88419125382E+02 0.  0.
          5    1    3    3  502    0  0.24068561334E+02 -0.37536607755E+02  0.78582268718E+02  0.90448537430E+02  0.41800000000E+01 0.  1.
         -5    1    3    3    0  502 -0.10368651025E+02  0.82363233288E+02  0.28612781763E+03  0.29795605640E+03  0.41800000000E+01 0.  1.
        -11    1    4    4    0    0 -0.28178742850E+02 -0.26444196314E+02 -0.34613858126E+01  0.38798431141E+02  0.00000000000E+00 0.  1.
         11    1    4    4    0    0  0.14478832541E+02 -0.18382429220E+02  0.91647650897E+02  0.94587748734E+02  0.00000000000E+00 0. -1.
</event>
<event>
 8    1  0.7052796E-009  0.1075658E+03  0.7561462E-02  0.1265145E+00
         -2   -1    0    0    0  501 -0.00000000000E+00  0.00000000000E+00  0.12707851709E+03  0.12707851709E+03  0.00000000000E+00 0.  1.
          2   -1    0    0  501    0  0.00000000000E+00 -0.00000000000E+00 -0.14591940360E+03  0.14591940360E+03  0.00000000000E+00 0. -1.
         25    2    1    2    0    0 -0.17848853243E+02 -0.44910660577E+02  0.55815832531E+02  0.14525398038E+03  0.12509101750E+03 0.  0.
         23    2    1    2    0    0  0.17848853243E+02  0.44910660577E+02 -0.74656719045E+02  0.12774394031E+03  0.91702451394E+02 0.  0.
          5    1    3    3  502    0 -0.48336767173E+02  0.92028172991E+01  0.65734745956E+02  0.82217176629E+02  0.41800000000E+01 0. -1.
         -5    1    3    3    0  502  0.30487913930E+02 -0.54113477876E+02 -0.99189134246E+01  0.63036803751E+02  0.41800000000E+01 0. -1.
        -11    1    4    4    0    0  0.54925334746E+02  0.34965811063E+02 -0.50362728071E+02  0.82315276341E+02  0.00000000000E+00 0. -1.
         11    1    4    4    0    0 -0.37076481504E+02  0.99448495141E+01 -0.24293990974E+02  0.45428663969E+02  0.00000000000E+00 0.  1.
</event>
<event>
 8    1  0.7052796E-009  0.8998587E+02  0.7561462E-02  0.1302886E+00
          1   -1    0    0  501    0  0.00000000000E+00  0.00000000000E+00  0.34816586627E+03  0.34816586627E+03  0.00000000000E+00 0. -1.
         -1   -1    0    0    0  501 -0.00000000000E+00 -0.00000000000E+00 -0.43646566192E+02  0.43646566192E+02  0.00000000000E+00 0.  1.
         25    2    1    2    0    0 -0.43021273261E+02  0.37639243506E+02  0.17137775464E+03  0.21973870631E+03  0.12508885506E+03 0.  0.
         23    2    1    2    0    0  0.43021273261E+02 -0.37639243506E+02  0.13314154543E+03  0.17207372615E+03  0.92817851227E+02 0.  0.
          5    1    3    3  502    0 -0.27810073050E+01  0.70378105753E+02  0.46638926859E+02  0.84578210371E+02  0.41800000000E+01 0. -1.
         -5    1    3    3    0  502 -0.40240265956E+02 -0.32738862247E+02  0.12473882779E+03  0.13516049594E+03  0.41800000000E+01 0. -1.
        -11    1    4    4    0    0  0.29241379454E+02 -0.22474559815E+02  0.14416412826E+03  0.14880678744E+03  0.00000000000E+00 0. -1.
         11    1    4    4    0    0  0.13779893808E+02 -0.15164683691E+02 -0.11022582827E+02  0.23266938711E+02  0.00000000000E+00 0.  1.
</event>
<event>
 8    1  0.7052796E-009  0.1501198E+03  0.7561462E-02  0.1200326E+00
          2   -1    0    0  501    0  0.00000000000E+00  0.00000000000E+00  0.26476534192E+03  0.26476534192E+03  0.00000000000E+00 0.  1.
         -2   -1    0    0    0  501 -0.00000000000E+00 -0.00000000000E+00 -0.12737237090E+03  0.12737237090E+03  0.00000000000E+00 0. -1.
         25    2    1    2    0    0 -0.13348446136E+03 -0.25435917581E+02  0.10369279771E+02  0.18498716327E+03  0.12509053236E+03 0.  0.
         23    2    1    2    0    0  0.13348446136E+03  0.25435917581E+02  0.12702369125E+03  0.20715054954E+03  0.91166028273E+02 0.  0.
          5    1    3    3  502    0 -0.26830776350E+00  0.20547804185E+02 -0.31561386475E+02  0.37892977741E+02  0.41800000000E+01 0.  1.
         -5    1    3    3    0  502 -0.13321615359E+03 -0.45983721765E+02  0.41930666246E+02  0.14709418553E+03  0.41800000000E+01 0.  1.
        -11    1    4    4    0    0  0.94833401370E+02  0.29741595739E+02  0.13481226574E+03  0.16748815936E+03  0.00000000000E+00 0.  1.
         11    1    4    4    0    0  0.38651059986E+02 -0.43056781583E+01 -0.77885744894E+01  0.39662390183E+02  0.00000000000E+00 0. -1.
</event>
<event>
 8    1  0.7052796E-009  0.1136343E+03  0.7561462E-02  0.1253984E+00
          2   -1    0    0  501    0  0.00000000000E+00  0.00000000000E+00  0.19364984781E+03  0.19364984781E+03  0.00000000000E+00 0. -1.
         -2   -1    0    0    0  501 -0.00000000000E+00 -0.00000000000E+00 -0.30748933935E+03  0.30748933935E+03  0.00000000000E+00 0.  1.
         25    2    1    2    0    0 -0.44348895736E+00  0.67833018796E+02  0.15436853551E+03  0.20994494743E+03  0.12508285682E+03 0.  0.
         23    2    1    2    0    0  0.44348895736E+00 -0.67833018796E+02 -0.26820802705E+03  0.29119423974E+03  0.90868170226E+02 0.  0.
          5    1    3    3  502    0  0.45437665947E+02 -0.14538897550E+02  0.53732175475E+02  0.71976246846E+02  0.41800000000E+01 0. -1.
         -5    1    3    3    0  502 -0.45881154904E+02  0.82371916347E+02  0.10063636004E+03  0.13796870058E+03  0.41800000000E+01 0. -1.
        -11    1    4    4    0    0  0.14981523442E+02 -0.68815144814E+02 -0.26748935131E+03  0.27660535654E+03  0.00000000000E+00 0.  1.
         11    1    4    4    0    0 -0.14538034485E+02  0.98212601713E+00 -0.71867573978E+00  0.14588883200E+02  0.00000000000E+00 0. -1.
</event>
<event>
 8    1  0.7052796E-009  0.1365805E+03  0.7561462E-02  0.1218006E+00
          3   -1    0    0  501    0  0.00000000000E+00  0.00000000000E+00  0.33807880503E+02  0.33807880503E+02  0.00000000000E+00 0. -1.
         -3   -1    0    0    0  501 -0.00000000000E+00 -0.00000000000E+00 -0.84844459237E+03  0.84844459237E+03  0.00000000000E+00 0.  1.
         25    2    1    2    0    0  0.10062481304E+03  0.39513885977E+02 -0.25302299419E+03  0.30224949014E+03  0.12508964192E+03 0.  0.
         23    2    1    2    0    0 -0.10062481304E+03 -0.39513885977E+02 -0.56161371768E+03  0.58000298274E+03  0.96471715627E+02 0.  0.
          5    1    3    3  502    0  0.75928542314E+02  0.72946475602E+02 -0.23342252079E+03  0.25610520778E+03  0.41800000000E+01 0. -1.
         -5    1    3    3    0  502  0.24696270726E+02 -0.33432589625E+02 -0.19600473406E+02  0.46144282361E+02  0.41800000000E+01 0. -1.
        -11    1    4    4    0    0 -0.68099041163E+02 -0.57248228857E+02 -0.50195213909E+03  0.50977523385E+03  0.00000000000E+00 0.  1.
         11    1    4    4    0    0 -0.32525771877E+02  0.17734342881E+02 -0.59661578590E+02  0.70227748885E+02  0.00000000000E+00 0. -1.
</event>
<event>
 8    1  0.7052796E-009  0.7498230E+02  0.7561462E-02  0.1343926E+00
         -2   -1    0    0    0  501 -0.00000000000E+00  0.00000000000E+00  0.24580985895E+03  0.24580985895E+03  0.00000000000E+00 0.  1.
          2   -1    0    0  501    0  0.00000000000E+00 -0.00000000000E+00 -0.59345118843E+02  0.59345118843E+02  0.00000000000E+00 0. -1.
         25    2    1    2    0    0 -0.31165657373E+02  0.19708374424E+02  0.15906316925E+03  0.20568999366E+03  0.12509022127E+03 0.  0.
         23    2    1    2    0    0  0.31165657373E+02 -0.19708374424E+02  0.27401570863E+02  0.99464984140E+02  0.88219718670E+02 0.  0.
          5    1    3    3  502    0  0.21077054312E+01  0.21986066883E+02 -0.15895914876E+02  0.27531474151E+02  0.41800000000E+01 0.  1.
         -5    1    3    3    0  502 -0.33273362804E+02 -0.22776924588E+01  0.17495908412E+03  0.17815851951E+03  0.41800000000E+01 0.  1.
        -11    1    4    4    0    0  0.60385776826E+02 -0.22676087914E+02  0.27433479210E+02  0.70094527515E+02  0.00000000000E+00 0.  1.
         11    1    4    4    0    0 -0.29220119453E+02  0.29677134900E+01 -0.31908347231E-01  0.29370456625E+02  0.00000000000E+00 0. -1.
</event>
<event>
 8    1  0.7052796E-009  0.8757767E+02  0.7561462E-02  0.1308826E+00
          1   -1    0    0  501    0  0.00000000000E+00  0.00000000000E+00  0.78510112605E+03  0.78510112605E+03  0.00000000000E+00 0. -1.
         -1   -1    0    0    0  501 -0.00000000000E+00 -0.00000000000E+00 -0.19411966721E+02  0.19411966721E+02  0.00000000000E+00 0.  1.
         25    2    1    2    0    0  0.14834506801E+02  0.54925753259E+02  0.37588753992E+03  0.40021818780E+03  0.12508498798E+03 0.  0.
         23    2    1    2    0    0 -0.14834506801E+02 -0.54925753259E+02  0.38980161941E+03  0.40429490497E+03  0.90951452586E+02 0.  0.
          5    1    3    3  502    0  0.22911536142E+02  0.56822699315E+02  0.65849649336E+02  0.90041137063E+02  0.41800000000E+01 0. -1.
         -5    1    3    3    0  502 -0.80770293412E+01 -0.18969460566E+01  0.31003789059E+03  0.31017705074E+03  0.41800000000E+01 0. -1.
        -11    1    4    4    0    0 -0.33315818163E+02  0.11702064178E+02  0.91317740140E+02  0.97907158626E+02  0.00000000000E+00 0.  1.
         11    1    4    4    0    0  0.18481311362E+02 -0.66627817437E+02  0.29848387927E+03  0.30638774635E+03  0.00000000000E+00 0. -1.
</event>
<event>
 8    1  0.7052796E-009  0.8989098E+02  0.7561462E-02  0.1303116E+00
          2   -1    0    0  501    0  0.00000000000E+00  0.00000000000E+00  0.76425322754E+02  0.76425322754E+02  0.00000000000E+00 0. -1.
         -2   -1    0    0    0  501 -0.00000000000E+00 -0.00000000000E+00 -0.24225122041E+03  0.24225122041E+03  0.00000000000E+00 0.  1.
         25    2    1    2    0    0 -0.38449317113E+01 -0.82635262681E+02 -0.81318494836E+02  0.17059795283E+03  0.12509034242E+03 0.  0.
         23    2    1    2    0    0  0.38449317113E+01  0.82635262681E+02 -0.84507402819E+02  0.14807859034E+03  0.89120130421E+02 0.  0.
          5    1    3    3  502    0  0.89599688051E+01 -0.80837758189E+02  0.65328949160E+01  0.81701746040E+02  0.41800000000E+01 0. -1.
         -5    1    3    3    0  502 -0.12804900516E+02 -0.17975044919E+01 -0.87851389752E+02  0.88896206786E+02  0.41800000000E+01 0. -1.
        -11    1    4    4    0    0 -0.61349833240E+01  0.55539220084E+02 -0.10055962609E+03  0.11504121604E+03  0.00000000000E+00 0.  1.
         11    1    4    4    0    0  0.99799150352E+01  0.27096042597E+02  0.16052223272E+02  0.33037374298E+02  0.00000000000E+00 0. -1.
</event>
<event>
 8    1  0.7052796E-009  0.1494833E+03  0.7561462E-02  0.1201109E+00
          2   -1    0    0  501    0  0.00000000000E+00  0.00000000000E+00  0.24074536474E+03  0.24074536474E+03  0.00000000000E+00 0. -1.
         -2   -1    0    0    0  501 -0.00000000000E+00 -0.00000000000E+00 -0.15100256610E+03  0.15100256610E+03  0.00000000000E+00 0.  1.
         25    2    1    2    0    0  0.78355809087E+02  0.11311740808E+03 -0.29061783924E+02  0.18821642332E+03  0.12508258830E+03 0.  0.
         23    2    1    2    0    0 -0.78355809087E+02 -0.11311740808E+03  0.11880458256E+03  0.20353150751E+03  0.91517019643E+02 0.  0.
          5    1    3    3  502    0  0.47808565106E+02  0.80845487805E+02  0.43054291541E+02  0.10340597766E+03  0.41800000000E+01 0.  1.
         -5    1    3    3    0  502  0.30547243981E+02  0.32271920272E+02 -0.72116075465E+02  0.84810445662E+02  0.41800000000E+01 0.  1.
        -11    1    4    4    0    0  0.13784057917E+02 -0.41165411167E+02  0.11651433408E+02  0.44948272822E+02  0.00000000000E+00 0.  1.
         11    1    4    4    0    0 -0.92139867004E+02 -0.71951996910E+02  0.10715314916E+03  0.15858323469E+03  0.00000000000E+00 0. -1.
</event>
<event>
 8    1  0.7052796E-009  0.1009368E+03  0.7561462E-02  0.1278338E+00
          2   -1    0    0  501    0  0.00000000000E+00  0.00000000000E+00  0.13257087749E+03  0.13257087749E+03  0.00000000000E+00 0. -1.
         -2   -1    0    0    0  501 -0.00000000000E+00 -0.00000000000E+00 -0.99088021643E+02  0.99088021643E+02  0.00000000000E+00 0.  1.
         25    2    1    2    0    0 -0.26353021609E+02 -0.10369875124E+02 -0.12126449071E+02  0.12882209180E+03  0.12508422967E+03 0.  0.
         23    2    1    2    0    0  0.26353021609E+02  0.10369875124E+02  0.45609304915E+02  0.10283680733E+03  0.87710798583E+02 0.  0.
          5    1    3    3  502    0 -0.39139389953E+02  0.49378798691E+02  0.95275531439E+01  0.63862385447E+02  0.41800000000E+01 0. -1.
         -5    1    3    3    0  502  0.12786368345E+02 -0.59748673815E+02 -0.21654002215E+02  0.64959706357E+02  0.41800000000E+01 0. -1.
        -11    1    4    4    0    0  0.17739932881E+02  0.41526161114E+02  0.53050027801E+02  0.69666582557E+02  0.00000000000E+00 0. -1.
         11    1    4    4    0    0  0.86130887273E+01 -0.31156285990E+02 -0.74407228864E+01  0.33170224768E+02  0.00000000000E+00 0.  1.
</event>
<event>
 8    1  0.7052796E-009  0.1234856E+03  0.7561462E-02  0.1237455E+00
         -1   -1    0    0    0  501 -0.00000000000E+00  0.00000000000E+00  0.27237960066E+02  0.27237960066E+02  0.00000000000E+00 0.  1.
          1   -1    0    0  501    0  0.00000000000E+00 -0.00000000000E+00 -0.61314198076E+03  0.61314198076E+03  0.00000000000E+00 0. -1.
         25    2    1    2    0    0 -0.54014887258E+02  0.24407110988E+02 -0.40031156305E+03  0.42356834213E+03  0.12508987902E+03 0.  0.
         23    2    1    2    0    0  0.54014887258E+02 -0.24407110988E+02 -0.18559245764E+03  0.21681159869E+03  0.95128302213E+02 0.  0.
          5    1    3    3  502    0 -0.47943091884E+02 -0.44547326005E+02 -0.24213005701E+03  0.25085342577E+03  0.41800000000E+01 0. -1.
         -5    1    3    3    0  502 -0.60717953733E+01  0.68954436993E+02 -0.15818150604E+03  0.17271491636E+03  0.41800000000E+01 0. -1.
        -11    1    4    4    0    0  0.56669069983E+02  0.25447552849E+02 -0.10009532699E+03  0.11780507597E+03  0.00000000000E+00 0. -1.
         11    1    4    4    0    0 -0.26541827256E+01 -0.49854663837E+02 -0.85497130651E+02  0.99006522724E+02  0.00000000000E+00 0.  1.
</event>
<event>
 8    1  0.7052796E-009  0.1573226E+03  0.7561462E-02  0.1191753E+00
         -1   -1    0    0    0  501 -0.00000000000E+00  0.00000000000E+00  0.41001135083E+03  0.41001135083E+03  0.00000000000E+00 0.  1.
          1   -1    0    0  501    0  0.00000000000E+00 -0.00000000000E+00 -0.11842818630E+03  0.11842818630E+03  0.00000000000E+00 0. -1.
         25    2    1    2    0    0 -0.74678215879E+02 -0.12583859782E+03  0.30175765898E+03  0.35794010877E+03  0.12510494828E+03 0.  0.
         23    2    1    2    0    0  0.74678215879E+02  0.12583859782E+03 -0.10174494448E+02  0.17049942836E+03  0.86915741417E+02 0.  0.
          5    1    3    3  502    0 -0.89413201477E+01  0.10627748158E+02 -0.53688911936E+01  0.15465885993E+02  0.41800000000E+01 0. -1.
         -5    1    3    3    0  502 -0.65736895731E+02 -0.13646634598E+03  0.30712655018E+03  0.34247422278E+03  0.41800000000E+01 0. -1.
        -11    1    4    4    0    0  0.44242237025E+02  0.97301113049E+02 -0.45173916561E+02  0.11604122059E+03  0.00000000000E+00 0. -1.
         11    1    4    4    0    0  0.30435978854E+02  0.28537484773E+02  0.34999422113E+02  0.54458207777E+02  0.00000000000E+00 0.  1.
</event>
<event>
 8    1  0.7052796E-009  0.1186723E+03  0.7561462E-02  0.1245304E+00
          1   -1    0    0  501    0  0.00000000000E+00  0.00000000000E+00  0.57066285582E+03  0.57066285582E+03  0.00000000000E+00 0. -1.
         -1   -1    0    0    0  501 -0.00000000000E+00 -0.00000000000E+00 -0.25201961332E+02  0.25201961332E+02  0.00000000000E+00 0.  1.
         25    2    1    2    0    0 -0.28377429107E+02  0.38449043593E+02  0.27347476424E+03  0.30449877048E+03  0.12508975622E+03 0.  0.
         23    2    1    2    0    0  0.28377429107E+02 -0.38449043593E+02  0.27198613025E+03  0.29136604667E+03  0.92919915355E+02 0.  0.
          5    1    3    3  502    0 -0.36649060264E+02  0.81195536046E+02  0.20014363402E+03  0.21911370411E+03  0.41800000000E+01 0.  1.
         -5    1    3    3    0  502  0.82716311569E+01 -0.42746492453E+02  0.73331130222E+02  0.85385066368E+02  0.41800000000E+01 0.  1.
        -11    1    4    4    0    0 -0.29257986723E+02  0.80769926244E+01  0.83775818289E+02  0.89104743571E+02  0.00000000000E+00 0.  1.
         11    1    4    4    0    0  0.57635415829E+02 -0.46526036217E+02  0.18821031196E+03  0.20226130310E+03  0.00000000000E+00 0. -1.
</event>
<event>
 8    1  0.7052796E-009  0.9334088E+02  0.7561462E-02  0.1294957E+00
          2   -1    0    0  501    0  0.00000000000E+00  0.00000000000E+00  0.10269344178E+04  0.10269344178E+04  0.00000000000E+00 0. -1.
         -2   -1    0    0    0  501 -0.00000000000E+00 -0.00000000000E+00 -0.21219959668E+02  0.21219959668E+02  0.00000000000E+00 0.  1.
         25    2    1    2    0    0 -0.45280649512E+02 -0.28419956092E+02  0.83956965896E+03  0.85051959527E+03  0.12509331946E+03 0.  0.
         23    2    1    2    0    0  0.45280649512E+02  0.28419956092E+02  0.16614479922E+03  0.19763478224E+03  0.92722067060E+02 0.  0.
          5    1    3    3  502    0 -0.32561599469E+02  0.23143560873E+02  0.69963938523E+03  0.70079142684E+03  0.41800000000E+01 0. -1.
         -5    1    3    3    0  502 -0.12719050043E+02 -0.51563516964E+02  0.13993027373E+03  0.14972816843E+03  0.41800000000E+01 0. -1.
        -11    1    4    4    0    0 -0.21417251497E+02  0.20310165879E+01  0.62729507289E+01  0.22409230262E+02  0.00000000000E+00 0.  1.
         11    1    4    4    0    0  0.66697901009E+02  0.26388939504E+02  0.15987184849E+03  0.17522555198E+03  0.00000000000E+00 0. -1.
</event>
<event>
 8    1  0.7052796E-009  0.1352195E+03  0.7561462E-02  0.1219910E+00
         -1   -1    0    0    0  501 -0.00000000000E+00  0.00000000000E+00  0.70050804886E+02  0.70050804886E+02  0.00000000000E+00 0.  1.
          1   -1    0    0  501    0  0.00000000000E+00 -0.00000000000E+00 -0.33751268778E+03  0.33751268778E+03  0.00000000000E+00 0. -1.
         25    2    1    2    0    0  0.55897983287E+00 -0.10637770220E+03 -0.11770089569E+03  0.20203378396E+03  0.12509045140E+03 0.  0.
         23    2    1    2    0    0 -0.55897983287E+00  0.10637770220E+03 -0.14976098720E+03  0.20552970870E+03  0.92182318730E+02 0.  0.
          5    1    3    3  502    0 -0.40503382337E+02 -0.11434569517E+03 -0.95823302386E+02  0.15464488244E+03  0.41800000000E+01 0. -1.
         -5    1    3    3    0  502  0.41062362169E+02  0.79679929628E+01 -0.21877593300E+02  0.47388901521E+02  0.41800000000E+01 0. -1.
        -11    1    4    4    0    0 -0.60871087471E+01  0.63299742795E+02 -0.14909853184E+03  0.16209343765E+03  0.00000000000E+00 0. -1.
         11    1    4    4    0    0  0.55281289142E+01  0.43077959410E+02 -0.66245536297E+00  0.43436271057E+02  0.00000000000E+00 0.  1.
</event>
<event>
 8    1  0.7052796E-009  0.1147789E+03  0.7561462E-02  0.1251967E+00
          1   -1    0    0  501    0  0.00000000000E+00  0.00000000000E+00  0.46331465517E+03  0.46331465517E+03  0.00000000000E+00 0. -1.
         -1   -1    0    0    0  501 -0.00000000000E+00 -0.00000000000E+00 -0.41362178836E+02  0.41362178836E+02  0.00000000000E+00 0.  1.
         25    2    1    2    0    0  0.76970067141E+02 -0.78375398880E+01  0.16860733751E+03  0.22374329191E+03  0.12508720217E+03 0.  0.
         23    2    1    2    0    0 -0.76970067141E+02  0.78375398880E+01  0.25334513883E+03  0.28093354209E+03  0.93563226959E+02 0.  0.
          5    1    3    3  502    0  0.17066633042E+02 -0.42537145676E+02  0.14231695560E+03  0.14957361725E+03  0.41800000000E+01 0.  1.
         -5    1    3    3    0  502  0.59903434099E+02  0.34699605788E+02  0.26290381905E+02  0.74169674662E+02  0.41800000000E+01 0.  1.
        -11    1    4    4    0    0 -0.26822694557E+02  0.44570443645E+02  0.16429434453E+03  0.17233285535E+03  0.00000000000E+00 0. -1.
         11    1    4    4    0    0 -0.50147372584E+02 -0.36732903757E+02  0.89050794299E+02  0.10860068674E+03  0.00000000000E+00 0.  1.
</event>
<event>
 8    1  0.7052796E-009  0.1026072E+03  0.7561462E-02  0.1274907E+00
          2   -1    0    0  501    0  0.00000000000E+00  0.00000000000E+00  0.13042518766E+03  0.13042518766E+03  0.00000000000E+00 0. -1.
         -2   -1    0    0    0  501 -0.00000000000E+00 -0.00000000000E+00 -0.14833350227E+03  0.14833350227E+03  0.00000000000E+00 0.  1.
         25    2    1    2    0    0 -0.82260515642E+02 -0.23388873661E+02 -0.23147571432E+02  0.15328788658E+03  0.12509010458E+03 0.  0.
         23    2    1    2    0    0  0.82260515642E+02  0.23388873661E+02  0.52392568247E+01  0.12547080335E+03  0.91660464963E+02 0.  0.
          5    1    3    3  502    0 -0.57778020832E+02 -0.99250912512E+01  0.48545299376E+02  0.76229427514E+02  0.41800000000E+01 0.  1.
         -5    1    3    3    0  502 -0.24482494811E+02 -0.13463782410E+02 -0.71692870808E+02  0.77058459066E+02  0.41800000000E+01 0.  1.
        -11    1    4    4    0    0 -0.17083381483E+01 -0.22456131884E+02 -0.15806512092E+02  0.27514398103E+02  0.00000000000E+00 0.  1.
         11    1    4    4    0    0  0.83968853791E+02  0.45845005545E+02  0.21045768917E+02  0.97956405251E+02  0.00000000000E+00 0. -1.
</event>
<event>
 8    1  0.7052796E-009  0.1145745E+03  0.7561462E-02  0.1252326E+00
          2   -1    0    0  501    0  0.00000000000E+00  0.00000000000E+00  0.38667687542E+02  0.38667687542E+02  0.00000000000E+00 0.  1.
         -2   -1    0    0    0  501 -0.00000000000E+00 -0.00000000000E+00 -0.44546928243E+03  0.44546928243E+03  0.00000000000E+00 0. -1.
         25    2    1    2    0    0  0.45973300950E+02 -0.22083720201E+01 -0.31715076215E+03  0.34402183055E+03  0.12509193684E+03 0.  0.
         23    2    1    2    0    0 -0.45973300950E+02  0.22083720201E+01 -0.89650832747E+02  0.14011513942E+03  0.97347620288E+02 0.  0.
          5    1    3    3  502    0  0.50843558891E+02 -0.56887611966E+02 -0.15563988325E+03  0.17338544787E+03  0.41800000000E+01 0.  1.
         -5    1    3    3    0  502 -0.48702579404E+01  0.54679239946E+02 -0.16151087890E+03  0.17063638268E+03  0.41800000000E+01 0.  1.
        -11    1    4    4    0    0  0.25791903698E+02  0.25415466697E+01 -0.54184839280E+02  0.60063953946E+02  0.00000000000E+00 0. -1.
         11    1    4    4    0    0 -0.71765204648E+02 -0.33317464956E+00 -0.35465993467E+02  0.80051185476E+02  0.00000000000E+00 0.  1.
</event>
<event>
 8    1  0.7052796E-009  0.8780868E+02  0.7561462E-02  0.1308247E+00
          3   -1    0    0  501    0  0.00000000000E+00  0.00000000000E+00  0.44054045937E+02  0.44054045937E+02  0.00000000000E+00 0. -1.
         -3   -1    0    0    0  501 -0.00000000000E+00 -0.00000000000E+00 -0.37051641983E+03  0.37051641983E+03  0.00000000000E+00 0.  1.
         25    2    1    2    0    0 -0.22505796223E+01 -0.88073831633E+01 -0.71704301834E+02  0.14447267322E+03  0.12509281075E+03 0.  0.
         23    2    1    2    0    0  0.22505796223E+01  0.88073831633E+01 -0.25475807206E+03  0.27009779254E+03  0.89266495119E+02 0.  0.
          5    1    3    3  502    0 -0.19311100494E+01  0.44095658824E+02 -0.79310627636E+02  0.90861457005E+02  0.41800000000E+01 0.  1.
         -5    1    3    3    0  502 -0.31946957295E+00 -0.52903041987E+02  0.76063258014E+01  0.53611216219E+02  0.41800000000E+01 0.  1.
        -11    1    4    4    0    0  0.33322617107E+02  0.26393984567E+02 -0.20179699878E+03  0.20622576937E+03  0.00000000000E+00 0.  1.
         11    1    4    4    0    0 -0.31072037485E+02 -0.17586601404E+02 -0.52961073275E+02  0.63872023178E+02  0.00000000000E+00 0. -1.
</event>
<event>
 8    1  0.7052796E-009  0.9158426E+02  0.7561462E-02  0.1299060E+00
         -1   -1    0    0    0  501 -0.00000000000E+00  0.00000000000E+00  0.35750232650E+03  0.35750232650E+03  0.00000000000E+00 0.  1.
          1   -1    0    0  501    0  0.00000000000E+00 -0.00000000000E+00 -0.44476136692E+02  0.44476136692E+02  0.00000000000E+00 0. -1.
         25    2    1    2    0    0  0.28405672652E+02  0.57669543560E+02  0.17925406256E+03  0.22784271969E+03  0.12509047717E+03 0.  0.
         23    2    1    2    0    0 -0.28405672652E+02 -0.57669543560E+02  0.13377212725E+03  0.17413574350E+03  0.91080275821E+02 0.  0.
          5    1    3    3  502    0  0.19652932469E+02  0.87936346769E+01 -0.15473049320E+02  0.26841263397E+02  0.41800000000E+01 0.  1.
         -5    1    3    3    0  502  0.87527401824E+01  0.48875908883E+02  0.19472711188E+03  0.20100145629E+03  0.41800000000E+01 0.  1.
        -11    1    4    4    0    0  0.64676461307E+00 -0.76683013769E+02  0.89082098891E+02  0.11754285707E+03  0.00000000000E+00 0. -1.
         11    1    4    4    0    0 -0.29052437265E+02  0.19013470209E+02  0.44690028355E+02  0.56592886433E+02  0.00000000000E+00 0.  1.
</event>
<event>
 8    1  0.7052796E-009  0.1097427E+03  0.7561462E-02  0.1261047E+00
          2   -1    0    0  501    0  0.00000000000E+00  0.00000000000E+00  0.26741797306E+03  0.26741797306E+03  0.00000000000E+00 0. -1.
         -2   -1    0    0    0  501 -0.00000000000E+00 -0.00000000000E+00 -0.14720454859E+03  0.14720454859E+03  0.00000000000E+00 0.  1.
         25    2    1    2    0    0  0.24421339651E+02  0.83551344262E+02  0.21112783391E+03  0.26037840638E+03  0.12507886831E+03 0.  0.
         23    2    1    2    0    0 -0.24421339651E+02 -0.83551344262E+02 -0.90914409444E+02  0.15424411526E+03  0.89154855673E+02 0.  0.
          5    1    3    3  502    0  0.43576715112E+01  0.70131458128E+02  0.22250081318E+03  0.23336986735E+03  0.41800000000E+01 0.  1.
         -5    1    3    3    0  502  0.20063668140E+02  0.13419886134E+02 -0.11372979269E+02  0.27008539030E+02  0.41800000000E+01 0.  1.
        -11    1    4    4    0    0  0.69337644252E+00 -0.96389101646E+02 -0.70933737650E+02  0.11967846433E+03  0.00000000000E+00 0. -1.
         11    1    4    4    0    0 -0.25114716094E+02  0.12837757384E+02 -0.19980671794E+02  0.34565650933E+02  0.00000000000E+00 0.  1.
</event>
<event>
 8    1  0.7052796E-009  0.6383029E+02  0.7561462E-02  0.1382426E+00
         -3   -1    0    0    0  501 -0.00000000000E+00  0.00000000000E+00  0.13516144435E+03  0.13516144435E+03  0.00000000000E+00 0.  1.
          3   -1    0    0  501    0  0.00000000000E+00 -0.00000000000E+00 -0.86547272049E+02  0.86547272049E+02  0.00000000000E+00 0. -1.
         25    2    1    2    0    0  0.31645635374E+01  0.60108232358E+01  0.20855549159E+02  0.12699774764E+03  0.12508928618E+03 0.  0.
         23    2    1    2    0    0 -0.31645635374E+01 -0.60108232358E+01  0.27758623143E+02  0.94710968756E+02  0.90296633302E+02 0.  0.
          5    1    3    3  502    0 -0.37150297026E+02 -0.64928101692E+01 -0.38492602700E+02  0.54050476553E+02  0.41800000000E+01 0.  1.
         -5    1    3    3    0  502  0.40314860563E+02  0.12503633405E+02  0.59348151859E+02  0.72947271091E+02  0.41800000000E+01 0.  1.
        -11    1    4    4    0    0  0.17545259692E+02 -0.16500694776E+02 -0.26430406481E+02  0.35758571734E+02  0.00000000000E+00 0. -1.
         11    1    4    4    0    0 -0.20709823229E+02  0.10489871540E+02  0.54189029624E+02  0.58952397022E+02  0.00000000000E+00 0.  1.
</event>
<event>
 8    1  0.7052796E-009  0.1356935E+03  0.7561462E-02  0.1219244E+00
          2   -1    0    0  501    0  0.00000000000E+00  0.00000000000E+00  0.75039142572E+03  0.75039142572E+03  0.00000000000E+00 0. -1.
         -2   -1    0    0    0  501 -0.00000000000E+00 -0.00000000000E+00 -0.34307187037E+02  0.34307187037E+02  0.00000000000E+00 0.  1.
         25    2    1    2    0    0 -0.20944553925E+02  0.11628097810E+03  0.39172430383E+03  0.42785000120E+03  0.12509097935E+03 0.  0.
         23    2    1    2    0    0  0.20944553925E+02 -0.11628097810E+03  0.32435993486E+03  0.35684861156E+03  0.90397035459E+02 0.  0.
          5    1    3    3  502    0  0.11385312726E+02  0.43812088082E+02  0.23549375663E+02  0.51197362257E+02  0.41800000000E+01 0. -1.
         -5    1    3    3    0  502 -0.32329866652E+02  0.72468890016E+02  0.36817492816E+03  0.37665263895E+03  0.41800000000E+01 0. -1.
        -11    1    4    4    0    0 -0.33684795933E+02 -0.35432703638E+02  0.80374516403E+02  0.94075527377E+02  0.00000000000E+00 0.  1.
         11    1    4    4    0    0  0.54629349858E+02 -0.80848274460E+02  0.24398541846E+03  0.26277308418E+03  0.00000000000E+00 0. -1.
</event>
<event>
 8    1  0.7052796E-009  0.1018769E+03  0.7561462E-02  0.1276398E+00
          1   -1    0    0  501    0  0.00000000000E+00  0.00000000000E+00  0.67065530295E+03  0.67065530295E+03  0.00000000000E+00 0. -1.
         -1   -1    0    0    0  501 -0.00000000000E+00 -0.00000000000E+00 -0.24574737528E+02  0.24574737528E+02  0.00000000000E+00 0.  1.
         25    2    1    2    0    0 -0.42259890983E+02 -0.60001495100E+02  0.40325749034E+03  0.42854674502E+03  0.12509848660E+03 0.  0.
         23    2    1    2    0    0  0.42259890983E+02  0.60001495100E+02  0.24282307508E+03  0.26668329546E+03  0.82285214256E+02 0.  0.
          5    1    3    3  502    0 -0.22899717594E+02  0.19711328603E+02  0.19740946200E+02  0.36333330401E+02  0.41800000000E+01 0. -1.
         -5    1    3    3    0  502 -0.19360173390E+02 -0.79712823703E+02  0.38351654414E+03  0.39221341462E+03  0.41800000000E+01 0. -1.
        -11    1    4    4    0    0  0.55265454231E+02  0.45068886104E+02  0.23467381085E+03  0.24526979518E+03  0.00000000000E+00 0. -1.
         11    1    4    4    0    0 -0.13005563247E+02  0.14932608996E+02  0.81492642250E+01  0.21413500280E+02  0.00000000000E+00 0.  1.
</event>
<event>
 8    1  0.7052796E-009  0.1297909E+03  0.7561462E-02  0.1227766E+00
         -1   -1    0    0    0  501 -0.00000000000E+00  0.00000000000E+00  0.24090990869E+03  0.24090990869E+03  0.00000000000E+00 0.  1.
          1   -1    0    0  501    0  0.00000000000E+00 -0.00000000000E+00 -0.87545245095E+02  0.87545245095E+02  0.00000000000E+00 0. -1.
         25    2    1    2    0    0 -0.99432488343E+01 -0.78622007113E+02  0.20618624480E+02  0.14951138981E+03  0.12509292469E+03 0.  0.
         23    2    1    2    0    0  0.99432488343E+01  0.78622007113E+02  0.13274603911E+03  0.17894376397E+03  0.90105890838E+02 0.  0.
          5    1    3    3  502    0  0.52693612883E+02 -0.26986147310E+02  0.32012634200E+02  0.67432559893E+02  0.41800000000E+01 0.  1.
         -5    1    3    3    0  502 -0.62636861717E+02 -0.51635859804E+02 -0.11394009720E+02  0.82078829920E+02  0.41800000000E+01 0.  1.
        -11    1    4    4    0    0 -0.31065196134E+02  0.70641809879E+02  0.97057780516E+02  0.12399808254E+03  0.00000000000E+00 0. -1.
         11    1    4    4    0    0  0.41008444969E+02  0.79801972345E+01  0.35688258598E+02  0.54945681435E+02  0.00000000000E+00 0.  1.
</event>
<event>
 8    1  0.7052796E-009  0.1149051E+03  0.7561462E-02  0.1251747E+00
         -2   -1    0    0    0  501 -0.00000000000E+00  0.00000000000E+00  0.34520101845E+02  0.34520101845E+02  0.00000000000E+00 0.  1.
          2   -1    0    0  501    0  0.00000000000E+00 -0.00000000000E+00 -0.51291669319E+03  0.51291669319E+03  0.00000000000E+00 0. -1.
         25    2    1    2    0    0  0.51857796488E+02  0.49683659589E+02 -0.31136264836E+03  0.34315316089E+03  0.12509874480E+03 0.  0.
         23    2    1    2    0    0 -0.51857796488E+02 -0.49683659589E+02 -0.16703394299E+03  0.20428363414E+03  0.93133065994E+02 0.  0.
          5    1    3    3  502    0  0.16395183932E+02  0.88392370103E+02 -0.22004822351E+03  0.23774083835E+03  0.41800000000E+01 0.  1.
         -5    1    3    3    0  502  0.35462612556E+02 -0.38708710514E+02 -0.91314424847E+02  0.10541232254E+03  0.41800000000E+01 0.  1.
        -11    1    4    4    0    0 -0.18805138617E+02 -0.50706502257E+02 -0.27091963775E+02  0.60487660813E+02  0.00000000000E+00 0.  1.
         11    1    4    4    0    0 -0.33052657871E+02  0.10228426675E+01 -0.13994197921E+03  0.14379597333E+03  0.00000000000E+00 0. -1.
</event>
<event>
 8    1  0.7052796E-009  0.7659445E+02  0.7561462E-02  0.1339003E+00
          2   -1    0    0  501    0  0.00000000000E+00  0.00000000000E+00  0.47164071307E+03  0.47164071307E+03  0.00000000000E+00 0. -1.
         -2   -1    0    0    0  501 -0.00000000000E+00 -0.00000000000E+00 -0.56101999737E+02  0.56101999737E+02  0.00000000000E+00 0.  1.
         25    2    1    2    0    0 -0.12799075828E+02 -0.68506653417E+01  0.41678961647E+03  0.43539812725E+03  0.12508875593E+03 0.  0.
         23    2    1    2    0    0  0.12799075828E+02  0.68506653417E+01 -0.12509031441E+01  0.92344585549E+02  0.91187772009E+02 0.  0.
          5    1    3    3  502    0  0.48263073431E+02 -0.24043032422E+02  0.11633731363E+03  0.12829354858E+03  0.41800000000E+01 0. -1.
         -5    1    3    3    0  502 -0.61062149259E+02  0.17192367081E+02  0.30045230284E+03  0.30710457867E+03  0.41800000000E+01 0. -1.
        -11    1    4    4    0    0  0.22222355786E+02  0.11503935782E+02 -0.42750109869E+02  0.49535295790E+02  0.00000000000E+00 0.  1.
         11    1    4    4    0    0 -0.94232799577E+01 -0.46532704406E+01  0.41499206725E+02  0.42809289760E+02  0.00000000000E+00 0. -1.
</event>
<event>
 8    1  0.7052796E-009  0.1031065E+03  0.7561462E-02  0.1273896E+00
          1   -1    0    0  501    0  0.00000000000E+00  0.00000000000E+00  0.24916540045E+02  0.24916540045E+02  0.00000000000E+00 0. -1.
         -1   -1    0    0    0  501 -0.00000000000E+00 -0.00000000000E+00 -0.66315644327E+03  0.66315644327E+03  0.00000000000E+00 0.  1.
         25    2    1    2    0    0  0.42104278553E+02  0.16583671424E+02 -0.48917453657E+03  0.50694210949E+03  0.12510310432E+03 0.  0.
         23    2    1    2    0    0 -0.42104278553E+02 -0.16583671424E+02 -0.14906536665E+03  0.18113087382E+03  0.92412777727E+02 0.  0.
          5    1    3    3  502    0  0.29748793258E+01  0.56515844668E+02 -0.11130999252E+03  0.12494109588E+03  0.41800000000E+01 0.  1.
         -5    1    3    3    0  502  0.39129399227E+02 -0.39932173244E+02 -0.37786454406E+03  0.38200101361E+03  0.41800000000E+01 0.  1.
        -11    1    4    4    0    0 -0.47474962737E+01 -0.45756869892E+02 -0.11161306651E+03  0.12072160734E+03  0.00000000000E+00 0.  1.
         11    1    4    4    0    0 -0.37356782279E+02  0.29173198467E+02 -0.37452300134E+02  0.60409266478E+02  0.00000000000E+00 0. -1.
</event>
<event>
 8    1  0.7052796E-009  0.8634356E+02  0.7561462E-02  0.1311956E+00
         -1   -1    0    0    0  501 -0.00000000000E+00  0.00000000000E+00  0.15691032762E+03  0.15691032762E+03  0.00000000000E+00 0.  1.
          1   -1    0    0  501    0  0.00000000000E+00 -0.00000000000E+00 -0.11871267287E+03  0.11871267287E+03  0.00000000000E+00 0. -1.
         25    2    1    2    0    0  0.47607668208E+02  0.39552951076E+02  0.75408974399E+02  0.15863503461E+03  0.12509050633E+03 0.  0.
         23    2    1    2    0    0 -0.47607668208E+02 -0.39552951076E+02 -0.37211319649E+02  0.11698796589E+03  0.92035731336E+02 0.  0.
          5    1    3    3  502    0  0.11453667358E+02 -0.21729540327E+02  0.83279278932E+02  0.86926808973E+02  0.41800000000E+01 0. -1.
         -5    1    3    3    0  502  0.36154000850E+02  0.61282491403E+02 -0.78703045328E+01  0.71708225633E+02  0.41800000000E+01 0. -1.
        -11    1    4    4    0    0 -0.28021484082E+01 -0.30695292047E+02 -0.58861705018E+02  0.66443609980E+02  0.00000000000E+00 0. -1.
         11    1    4    4    0    0 -0.44805519800E+02 -0.88576590289E+01  0.21650385369E+02  0.50544355912E+02  0.00000000000E+00 0.  1.
</event>
<event>
 8    1  0.7052796E-009  0.8182813E+02  0.7561462E-02  0.1323942E+00
         -1   -1    0    0    0  501 -0.00000000000E+00  0.00000000000E+00  0.19942002497E+02  0.19942002497E+02  0.00000000000E+00 0.  1.
          1   -1    0    0  501    0  0.00000000000E+00 -0.00000000000E+00 -0.60905584406E+03  0.60905584406E+03  0.00000000000E+00 0. -1.
         25    2    1    2    0    0 -0.15294075806E+02 -0.45886518858E+01 -0.34445612055E+03  0.36681386507E+03  0.12508968041E+03 0.  0.
         23    2    1    2    0    0  0.15294075806E+02  0.45886518858E+01 -0.24465772102E+03  0.26218398149E+03  0.92887433025E+02 0.  0.
          5    1    3    3  502    0 -0.18568559291E+02 -0.34580231904E+02 -0.26822307160E+02  0.47723080308E+02  0.41800000000E+01 0. -1.
         -5    1    3    3    0  502  0.32744834858E+01  0.29991580019E+02 -0.31763381339E+03  0.31909078476E+03  0.41800000000E+01 0. -1.
        -11    1    4    4    0    0 -0.23281771195E+02 -0.32655357941E+02 -0.11854322883E+03  0.12514355906E+03  0.00000000000E+00 0.  1.
         11    1    4    4    0    0  0.38575847000E+02  0.37244009827E+02 -0.12611449219E+03  0.13704042243E+03  0.00000000000E+00 0. -1.
</event>
<event>
 8    1  0.7052796E-009  0.1276564E+03  0.7561462E-02  0.1230975E+00
          1   -1    0    0  501    0  0.00000000000E+00  0.00000000000E+00  0.78635908023E+03  0.78635908023E+03  0.00000000000E+00 0. -1.
         -1   -1    0    0    0  501 -0.00000000000E+00 -0.00000000000E+00 -0.28282390634E+02  0.28282390634E+02  0.00000000000E+00 0.  1.
         25    2    1    2    0    0 -0.27717020079E+02 -0.94971786239E+02  0.50423318796E+03  0.52885389422E+03  0.12508980855E+03 0.  0.
         23    2    1    2    0    0  0.27717020079E+02  0.94971786239E+02  0.25384350163E+03  0.28578757664E+03  0.86314206590E+02 0.  0.
          5    1    3    3  502    0 -0.72776630187E+02 -0.78759397488E+02  0.28807429624E+03  0.30741462742E+03  0.41800000000E+01 0.  1.
         -5    1    3    3    0  502  0.45059610108E+02 -0.16212388751E+02  0.21615889172E+03  0.22143926681E+03  0.41800000000E+01 0.  1.
        -11    1    4    4    0    0  0.10593209772E+02  0.60667511302E+02  0.23524750492E+03  0.24317514592E+03  0.00000000000E+00 0. -1.
         11    1    4    4    0    0  0.17123810307E+02  0.34304274937E+02  0.18595996706E+02  0.42612430720E+02  0.00000000000E+00 0.  1.
</event>
<event>
 8    1  0.7052796E-009  0.1160800E+03  0.7561462E-02  0.1249708E+00
         -2   -1    0    0    0  501 -0.00000000000E+00  0.00000000000E+00  0.46350994329E+02  0.46350994329E+02  0.00000000000E+00 0. -1.
          2   -1    0    0  501    0  0.00000000000E+00 -0.00000000000E+00 -0.32575818082E+03  0.32575818082E+03  0.00000000000E+00 0.  1.
         25    2    1    2    0    0  0.41499289816E+02  0.18200768527E+02 -0.17704760418E+03  0.22146591049E+03  0.12509131198E+03 0.  0.
         23    2    1    2    0    0 -0.41499289816E+02 -0.18200768527E+02 -0.10235958231E+03  0.15064326466E+03  0.10080897810E+03 0.  0.
          5    1    3    3  502    0  0.67211310076E+02 -0.24584026409E+02 -0.57672185319E+02  0.92006999278E+02  0.41800000000E+01 0. -1.
         -5    1    3    3    0  502 -0.25712020260E+02  0.42784794936E+02 -0.11937541886E+03  0.12945891121E+03  0.41800000000E+01 0. -1.
        -11    1    4    4    0    0 -0.34244964186E+02  0.39470174576E+02 -0.52315805722E+02  0.73942922457E+02  0.00000000000E+00 0.  1.
         11    1    4    4    0    0 -0.72543256303E+01 -0.57670943104E+02 -0.50043776591E+02  0.76700342205E+02  0.00000000000E+00 0. -1.
</event>
<event>
 8    1  0.7052796E-009  0.8628616E+02  0.7561462E-02  0.1312103E+00
         -2   -1    0    0    0  501 -0.00000000000E+00  0.00000000000E+00  0.19485730662E+02  0.19485730662E+02  0.00000000000E+00 0.  1.
          2   -1    0    0  501    0  0.00000000000E+00 -0.00000000000E+00 -0.85306776438E+03  0.85306776438E+03  0.00000000000E+00 0. -1.
         25    2    1    2    0    0 -0.92582241895E+01  0.20391082137E+02 -0.68347350943E+03  0.69518802889E+03  0.12509534952E+03 0.  0.
         23    2    1    2    0    0  0.92582241895E+01 -0.20391082137E+02 -0.15010852429E+03  0.17736546616E+03  0.91784685947E+02 0.  0.
          5    1    3    3  502    0 -0.13529734879E+02 -0.27042946004E+02 -0.41926634449E+02  0.51862218721E+02  0.41800000000E+01 0.  1.
         -5    1    3    3    0  502  0.42715106895E+01  0.47434028141E+02 -0.64154687498E+03  0.64332581017E+03  0.41800000000E+01 0.  1.
        -11    1    4    4    0    0  0.27566549331E+02  0.29929044439E+02 -0.71125611620E+02  0.81942144049E+02  0.00000000000E+00 0.  1.
         11    1    4    4    0    0 -0.18308325141E+02 -0.50320126576E+02 -0.78982912670E+02  0.95423322107E+02  0.00000000000E+00 0. -1.
</event>
<event>
 8    1  0.7052796E-009  0.1118393E+03  0.7561462E-02  0.1257201E+00
          2   -1    0    0  501    0  0.00000000000E+00  0.00000000000E+00  0.68257695597E+03  0.68257695597E+03  0.00000000000E+00 0. -1.
         -2   -1    0    0    0  501 -0.00000000000E+00 -0.00000000000E+00 -0.23208804552E+02  0.23208804552E+02  0.00000000000E+00 0.  1.
         25    2    1    2    0    0  0.48611373561E+02 -0.34584944990E+02  0.40296919885E+03  0.42613542381E+03  0.12509212664E+03 0.  0.
         23    2    1    2    0    0 -0.48611373561E+02  0.34584944990E+02  0.25639895257E+03  0.27965033671E+03  0.94364738563E+02 0.  0.
          5    1    3    3  502    0 -0.17445477249E+02  0.19716695882E+02  0.24510695774E+03  0.24655219712E+03  0.41800000000E+01 0.  1.
         -5    1    3    3    0  502  0.66056850811E+02 -0.54301640872E+02  0.15786224111E+03  0.17958322669E+03  0.41800000000E+01 0.  1.
        -11    1    4    4    0    0 -0.77086032469E+02  0.21218435146E+02  0.19190509688E+03  0.20789431113E+03  0.00000000000E+00 0.  1.
         11    1    4    4    0    0  0.28474658908E+02  0.13366509844E+02  0.64493855689E+02  0.71756025580E+02  0.00000000000E+00 0. -1.
</event>
<event>
 8    1  0.7052796E-009  0.9028674E+02  0.7561462E-02  0.1302159E+00
         -2   -1    0    0    0  501 -0.00000000000E+00  0.00000000000E+00  0.26366732085E+03  0.26366732085E+03  0.00000000000E+00 0.  1.
          2   -1    0    0  501    0  0.00000000000E+00 -0.00000000000E+00 -0.57412386523E+02  0.57412386523E+02  0.00000000000E+00 0. -1.
         25    2    1    2    0    0 -0.47490727000E+02  0.26370934305E+02  0.13924797874E+03  0.19490734008E+03  0.12509227117E+03 0.  0.
         23    2    1    2    0    0  0.47490727000E+02 -0.26370934305E+02  0.67006955586E+02  0.12617236729E+03  0.92080067571E+02 0.  0.
          5    1    3    3  502    0 -0.34068794417E+02 -0.17697485151E+02 -0.89640609057E+01  0.39644804472E+02  0.41800000000E+01 0. -1.
         -5    1    3    3    0  502 -0.13421932584E+02  0.44068419456E+02  0.14821203965E+03  0.15526253561E+03  0.41800000000E+01 0. -1.
        -11    1    4    4    0    0  0.48254919639E+02  0.17865590353E+02  0.63584979125E+02  0.81797103606E+02  0.00000000000E+00 0.  1.
         11    1    4    4    0    0 -0.76419263855E+00 -0.44236524659E+02  0.34219764614E+01  0.44375263686E+02  0.00000000000E+00 0. -1.
</event>
<event>
 8    1  0.7052796E-009  0.1790749E+03  0.7561462E-02  0.1168701E+00
         -1   -1    0    0    0  501 -0.00000000000E+00  0.00000000000E+00  0.42649959980E+02  0.42649959980E+02  0.00000000000E+00 0.  1.
          1   -1    0    0  501    0  0.00000000000E+00 -0.00000000000E+00 -0.12988719064E+04  0.12988719064E+04  0.00000000000E+00 0. -1.
         25    2    1    2    0    0  0.15105259925E+03 -0.56980213358E+02 -0.10269519214E+04  0.10470633571E+04  0.12509113622E+03 0.  0.
         23    2    1    2    0    0 -0.15105259925E+03  0.56980213358E+02 -0.22927002496E+03  0.29445850927E+03  0.89874561913E+02 0.  0.
          5    1    3    3  502    0 -0.53632480748E+01  0.16840877191E+01 -0.41890847995E+00  0.70177251066E+01  0.41800000000E+01 0. -1.
         -5    1    3    3    0  502  0.15641584733E+03 -0.58664301078E+02 -0.10265330129E+04  0.10400456320E+04  0.41800000000E+01 0. -1.
        -11    1    4    4    0    0 -0.78310871843E+02 -0.17162427649E+02 -0.86972278548E+02  0.11828490524E+03  0.00000000000E+00 0. -1.
         11    1    4    4    0    0 -0.72741727410E+02  0.74142641007E+02 -0.14229774642E+03  0.17617360403E+03  0.00000000000E+00 0.  1.
</event>
<event>
 8    1  0.7052796E-009  0.1200488E+03  0.7561462E-02  0.1243017E+00
         -1   -1    0    0    0  501 -0.00000000000E+00  0.00000000000E+00  0.46406926176E+02  0.46406926176E+02  0.00000000000E+00 0.  1.
          1   -1    0    0  501    0  0.00000000000E+00 -0.00000000000E+00 -0.42445088301E+03  0.42445088301E+03  0.00000000000E+00 0. -1.
         25    2    1    2    0    0  0.85318969585E+02 -0.11753120283E+02 -0.17226856346E+03  0.22965409908E+03  0.12508830824E+03 0.  0.
         23    2    1    2    0    0 -0.85318969585E+02  0.11753120283E+02 -0.20577539337E+03  0.24120371010E+03  0.91751048191E+02 0.  0.
          5    1    3    3  502    0  0.65981923898E+02 -0.44572870370E+02 -0.34897925410E+02  0.87038455020E+02  0.41800000000E+01 0. -1.
         -5    1    3    3    0  502  0.19337045687E+02  0.32819750088E+02 -0.13737063805E+03  0.14261564406E+03  0.41800000000E+01 0. -1.
        -11    1    4    4    0    0 -0.35716984446E+02 -0.37745400971E+02 -0.59421894506E+02  0.78939089297E+02  0.00000000000E+00 0.  1.
         11    1    4    4    0    0 -0.49601985139E+02  0.49498521253E+02 -0.14635349886E+03  0.16226462081E+03  0.00000000000E+00 0. -1.
</event>
<event>
 8    1  0.7052796E-009  0.1286450E+03  0.7561462E-02  0.1229480E+00
          3   -1    0    0  501    0  0.00000000000E+00  0.00000000000E+00  0.52087416649E+02  0.52087416649E+02  0.00000000000E+00 0. -1.
         -3   -1    0    0    0  501 -0.00000000000E+00 -0.00000000000E+00 -0.33828093551E+03  0.33828093551E+03  0.00000000000E+00 0.  1.
         25    2    1    2    0    0 -0.34025020077E+02  0.67243658758E+02 -0.14104952690E+03  0.20303133472E+03  0.12508933689E+03 0.  0.
         23    2    1    2    0    0  0.34025020077E+02 -0.67243658758E+02 -0.14514399196E+03  0.18733701745E+03  0.91372687758E+02 0.  0.
          5    1    3    3  502    0 -0.45671466088E+01  0.99629237739E+02 -0.11343627123E+03  0.15110295785E+03  0.41800000000E+01 0. -1.
         -5    1    3    3    0  502 -0.29457873468E+02 -0.32385578981E+02 -0.27613255673E+02  0.51928376867E+02  0.41800000000E+01 0. -1.
        -11    1    4    4    0    0  0.62394777810E+02 -0.39727981112E+02 -0.67156585716E+02  0.99907095775E+02  0.00000000000E+00 0.  1.
         11    1    4    4    0    0 -0.28369757733E+02 -0.27515677646E+02 -0.77987406248E+02  0.87429921671E+02  0.00000000000E+00 0. -1.
</event>
<event>
 8    1  0.7052796E-009  0.1040922E+03  0.7561462E-02  0.1271919E+00
          1   -1    0    0  501    0  0.00000000000E+00  0.00000000000E+00  0.20507337601E+03  0.20507337601E+03  0.00000000000E+00 0. -1.
         -1   -1    0    0    0  501 -0.00000000000E+00 -0.00000000000E+00 -0.60883423454E+02  0.60883423454E+02  0.00000000000E+00 0.  1.
         25    2    1    2    0    0 -0.24183900097E+02 -0.12680538610E+01  0.94026537779E+02  0.15835087553E+03  0.12509013147E+03 0.  0.
         23    2    1    2    0    0  0.24183900097E+02  0.12680538610E+01  0.50163414776E+02  0.10760592393E+03  0.92066267974E+02 0.  0.
          5    1    3    3  502    0  0.46129091906E+02 -0.22434684305E+02  0.23958793654E+02  0.56768867993E+02  0.41800000000E+01 0. -1.
         -5    1    3    3    0  502 -0.70312992003E+02  0.21166630444E+02  0.70067744124E+02  0.10158200754E+03  0.41800000000E+01 0. -1.
        -11    1    4    4    0    0  0.61000826260E+01 -0.38765165209E+02 -0.21426933899E+01  0.39300638375E+02  0.00000000000E+00 0.  1.
         11    1    4    4    0    0  0.18083817471E+02  0.40033219070E+02  0.52306108166E+02  0.68305285556E+02  0.00000000000E+00 0. -1.
</event>
<event>
 8    1  0.7052796E-009  0.1017258E+03  0.7561462E-02  0.1276708E+00
         -1   -1    0    0    0  501 -0.00000000000E+00  0.00000000000E+00  0.12513992660E+02  0.12513992660E+02  0.00000000000E+00 0.  1.
          1   -1    0    0  501    0  0.00000000000E+00 -0.00000000000E+00 -0.11655287632E+04  0.11655287632E+04  0.00000000000E+00 0. -1.
         25    2    1    2    0    0  0.16103515619E+02 -0.23947813097E+02 -0.86944035543E+03  0.87886645862E+03  0.12508756720E+03 0.  0.
         23    2    1    2    0    0 -0.16103515619E+02  0.23947813097E+02 -0.28357441514E+03  0.29917629727E+03  0.90880069099E+02 0.  0.
          5    1    3    3  502    0 -0.30794241066E+02 -0.53758883603E+02 -0.28026236588E+03  0.28705882494E+03  0.41800000000E+01 0.  1.
         -5    1    3    3    0  502  0.46897756685E+02  0.29811070506E+02 -0.58917798955E+03  0.59180763367E+03  0.41800000000E+01 0.  1.
        -11    1    4    4    0    0 -0.19568712296E+02  0.52934558222E+02 -0.24123187386E+03  0.24774547205E+03  0.00000000000E+00 0.  1.
         11    1    4    4    0    0  0.34651966771E+01 -0.28986745125E+02 -0.42342541280E+02  0.51430825222E+02  0.00000000000E+00 0. -1.
</event>
<event>
 8    1  0.7052796E-009  0.1023534E+03  0.7561462E-02  0.1275423E+00
         -2   -1    0    0    0  501 -0.00000000000E+00  0.00000000000E+00  0.36274343930E+03  0.36274343930E+03  0.00000000000E+00 0.  1.
          2   -1    0    0  501    0  0.00000000000E+00 -0.00000000000E+00 -0.38792333995E+02  0.38792333995E+02  0.00000000000E+00 0. -1.
         25    2    1    2    0    0 -0.32562585876E+02  0.15561893446E+02  0.23621019400E+03  0.26971360903E+03  0.12509068958E+03 0.  0.
         23    2    1    2    0    0  0.32562585876E+02 -0.15561893446E+02  0.87740911311E+02  0.13182216427E+03  0.91521150279E+02 0.  0.
          5    1    3    3  502    0  0.33616130492E+02  0.21322317695E+02  0.17421411729E+03  0.17875322801E+03  0.41800000000E+01 0.  1.
         -5    1    3    3    0  502 -0.66178716367E+02 -0.57604242486E+01  0.61996076702E+02  0.90960381013E+02  0.41800000000E+01 0.  1.
        -11    1    4    4    0    0  0.30914224793E+02  0.35475653190E+02  0.37299240916E+02  0.60045354831E+02  0.00000000000E+00 0.  1.
         11    1    4    4    0    0  0.16483610827E+01 -0.51037546637E+02  0.50441670395E+02  0.71776809438E+02  0.00000000000E+00 0. -1.
</event>
<event>
 8    1  0.7052796E-009  0.8773972E+02  0.7561462E-02  0.1308419E+00
         -1   -1    0    0    0  501 -0.00000000000E+00  0.00000000000E+00  0.59173914453E+02  0.59173914453E+02  0.00000000000E+00 0.  1.
          1   -1    0    0  501    0  0.00000000000E+00 -0.00000000000E+00 -0.24772218680E+03  0.24772218680E+03  0.00000000000E+00 0. -1.
         25    2    1    2    0    0 -0.36065784122E+02 -0.40081621572E+02 -0.11244082896E+03  0.17663181824E+03  0.12509429254E+03 0.  0.
         23    2    1    2    0    0  0.36065784122E+02  0.40081621572E+02 -0.76107443385E+02  0.13026428301E+03  0.90934940026E+02 0.  0.
          5    1    3    3  502    0 -0.64448679554E+02 -0.22185978436E+02 -0.12344407404E+03  0.14107360402E+03  0.41800000000E+01 0. -1.
         -5    1    3    3    0  502  0.28382895432E+02 -0.17895643136E+02  0.11003245079E+02  0.35558214221E+02  0.41800000000E+01 0. -1.
        -11    1    4    4    0    0 -0.10746032167E+02  0.19450215016E+02 -0.75922191614E+02  0.79107314775E+02  0.00000000000E+00 0. -1.
         11    1    4    4    0    0  0.46811816289E+02  0.20631406556E+02 -0.18525177067E+00  0.51156968235E+02  0.00000000000E+00 0.  1.
</event>
<event>
 8    1  0.7052796E-009  0.1095869E+03  0.7561462E-02  0.1261337E+00
          2   -1    0    0  501    0  0.00000000000E+00  0.00000000000E+00  0.34544720590E+03  0.34544720590E+03  0.00000000000E+00 0.  1.
         -2   -1    0    0    0  501 -0.00000000000E+00 -0.00000000000E+00 -0.54667270553E+02  0.54667270553E+02  0.00000000000E+00 0. -1.
         25    2    1    2    0    0 -0.75770918983E+02  0.20016046980E+02  0.20342423004E+03  0.25134036397E+03  0.12509471169E+03 0.  0.
         23    2    1    2    0    0  0.75770918983E+02 -0.20016046980E+02  0.87355705301E+02  0.14877411248E+03  0.91437645390E+02 0.  0.
          5    1    3    3  502    0 -0.16534866607E+02 -0.42878437314E+02  0.23682426647E+02  0.51868024178E+02  0.41800000000E+01 0. -1.
         -5    1    3    3    0  502 -0.59236052377E+02  0.62894484294E+02  0.17974180340E+03  0.19947233980E+03  0.41800000000E+01 0. -1.
        -11    1    4    4    0    0  0.50989498428E+02 -0.30726588094E+02  0.10196956558E+03  0.11807558795E+03  0.00000000000E+00 0.  1.
         11    1    4    4    0    0  0.24781420555E+02  0.10710541114E+02 -0.14613860279E+02  0.30698524524E+02  0.00000000000E+00 0. -1.
</event>
<event>
 8    1  0.7052796E-009  0.1092478E+03  0.7561462E-02  0.1261969E+00
         -2   -1    0    0    0  501 -0.00000000000E+00  0.00000000000E+00  0.71918969812E+03  0.71918969812E+03  0.00000000000E+00 0.  1.
          2   -1    0    0  501    0  0.00000000000E+00 -0.00000000000E+00 -0.19348530802E+02  0.19348530802E+02  0.00000000000E+00 0. -1.
         25    2    1    2    0    0 -0.37829955554E+02  0.22539550997E+01  0.30645570817E+03  0.33316341137E+03  0.12508625726E+03 0.  0.
         23    2    1    2    0    0  0.37829955554E+02 -0.22539550997E+01  0.39338545915E+03  0.40537481755E+03  0.90224372451E+02 0.  0.
          5    1    3    3  502    0  0.42903616771E+02 -0.71881445119E+01  0.64717549511E+02  0.78091122211E+02  0.41800000000E+01 0.  1.
         -5    1    3    3    0  502 -0.80733572325E+02  0.94420996116E+01  0.24173815866E+03  0.25507228916E+03  0.41800000000E+01 0.  1.
        -11    1    4    4    0    0  0.23310154548E+02 -0.43677129481E+02  0.14708371857E+03  0.15519238130E+03  0.00000000000E+00 0. -1.
         11    1    4    4    0    0  0.14519801006E+02  0.41423174382E+02  0.24630174058E+03  0.25018243626E+03  0.00000000000E+00 0.  1.
</event>
<event>
 8    1  0.7052796E-009  0.1233220E+03  0.7561462E-02  0.1237715E+00
          2   -1    0    0  501    0  0.00000000000E+00  0.00000000000E+00  0.75886013324E+03  0.75886013324E+03  0.00000000000E+00 0. -1.
         -2   -1    0    0    0  501 -0.00000000000E+00 -0.00000000000E+00 -0.25686004306E+02  0.25686004306E+02  0.00000000000E+00 0.  1.
         25    2    1    2    0    0 -0.76516275617E+02  0.18431623475E+02  0.50669902807E+03  0.52781115449E+03  0.12508494946E+03 0.  0.
         23    2    1    2    0    0  0.76516275617E+02 -0.18431623475E+02  0.22647510086E+03  0.25673498305E+03  0.91800953342E+02 0.  0.
          5    1    3    3  502    0 -0.72743047585E+02 -0.43638592450E+02  0.26990842853E+03  0.28295566776E+03  0.41800000000E+01 0.  1.
         -5    1    3    3    0  502 -0.37732280317E+01  0.62070215925E+02  0.23679059954E+03  0.24485548673E+03  0.41800000000E+01 0.  1.
        -11    1    4    4    0    0  0.27795180870E+02 -0.37832808139E+02  0.18204979679E+03  0.18800537749E+03  0.00000000000E+00 0. -1.
         11    1    4    4    0    0  0.48721094747E+02  0.19401184664E+02  0.44425304068E+02  0.68729605566E+02  0.00000000000E+00 0.  1.
</event>
<event>
 8    1  0.7052796E-009  0.8421597E+02  0.7561462E-02  0.1317496E+00
         -2   -1    0    0    0  501 -0.00000000000E+00  0.00000000000E+00  0.13879790868E+03  0.13879790868E+03  0.00000000000E+00 0.  1.
          2   -1    0    0  501    0  0.00000000000E+00 -0.00000000000E+00 -0.10254308089E+03  0.10254308089E+03  0.00000000000E+00 0. -1.
         25    2    1    2    0    0  0.42458218168E+02 -0.73733354895E+01  0.25221960077E+02  0.13468501373E+03  0.12508732664E+03 0.  0.
         23    2    1    2    0    0 -0.42458218168E+02  0.73733354895E+01  0.11032867717E+02  0.10665597584E+03  0.96936611489E+02 0.  0.
          5    1    3    3  502    0  0.22021994714E+02 -0.27333082504E+02 -0.45895763532E+02  0.57930640947E+02  0.41800000000E+01 0. -1.
         -5    1    3    3    0  502  0.20436223454E+02  0.19959747014E+02  0.71117723608E+02  0.76754372782E+02  0.41800000000E+01 0. -1.
        -11    1    4    4    0    0  0.12692346077E+02  0.38740023195E+02 -0.53833579096E+01  0.41120136046E+02  0.00000000000E+00 0. -1.
         11    1    4    4    0    0 -0.55150564245E+02 -0.31366687705E+02  0.16416225627E+02  0.65535839798E+02  0.00000000000E+00 0.  1.
</event>
<event>
 8    1  0.7052796E-009  0.1085360E+03  0.7561462E-02  0.1263305E+00
         -4   -1    0    0    0  501 -0.00000000000E+00  0.00000000000E+00  0.71975472151E+02  0.71975472151E+02  0.00000000000E+00 0.  1.
          4   -1    0    0  501    0  0.00000000000E+00 -0.00000000000E+00 -0.28266027743E+03  0.28266027743E+03  0.00000000000E+00 0. -1.
         25    2    1    2    0    0  0.53948747767E+02  0.53979736337E+02 -0.48685041533E+02  0.15441015321E+03  0.12509189752E+03 0.  0.
         23    2    1    2    0    0 -0.53948747767E+02 -0.53979736337E+02 -0.16199976375E+03  0.20022559637E+03  0.89566102227E+02 0.  0.
          5    1    3    3  502    0  0.69849187818E+02  0.24948938223E+02 -0.79632077469E+02  0.10890408036E+03  0.41800000000E+01 0. -1.
         -5    1    3    3    0  502 -0.15900440051E+02  0.29030798114E+02  0.30947035935E+02  0.45506072849E+02  0.41800000000E+01 0. -1.
        -11    1    4    4    0    0 -0.29058665332E+02 -0.72689291585E+02 -0.14491839543E+03  0.16471029256E+03  0.00000000000E+00 0. -1.
         11    1    4    4    0    0 -0.24890082435E+02  0.18709555249E+02 -0.17081368320E+02  0.35515303813E+02  0.00000000000E+00 0.  1.
</event>
<event>
 8    1  0.7052796E-009  0.1035599E+03  0.7561462E-02  0.1272983E+00
         -1   -1    0    0    0  501 -0.00000000000E+00  0.00000000000E+00  0.26948826824E+02  0.26948826824E+02  0.00000000000E+00 0.  1.
          1   -1    0    0  501    0  0.00000000000E+00 -0.00000000000E+00 -0.48756187833E+03  0.48756187833E+03  0.00000000000E+00 0. -1.
         25    2    1    2    0    0 -0.43686331621E+02 -0.24560752839E+02 -0.26384584856E+03  0.29626820321E+03  0.12509392585E+03 0.  0.
         23    2    1    2    0    0  0.43686331621E+02  0.24560752839E+02 -0.19676720294E+03  0.21824250194E+03  0.80004570786E+02 0.  0.
          5    1    3    3  502    0 -0.44925376592E+02  0.42301973998E+02 -0.83751762254E+02  0.10411328708E+03  0.41800000000E+01 0.  1.
         -5    1    3    3    0  502  0.12390449712E+01 -0.66862726837E+02 -0.18009408630E+03  0.19215491613E+03  0.41800000000E+01 0.  1.
        -11    1    4    4    0    0  0.86612779343E+01  0.39317337102E+02 -0.39329336972E+02  0.56282035135E+02  0.00000000000E+00 0.  1.
         11    1    4    4    0    0  0.35025053687E+02 -0.14756584264E+02 -0.15743786597E+03  0.16196046680E+03  0.00000000000E+00 0. -1.
</event>
<event>
 8    1  0.7052796E-009  0.1464807E+03  0.7561462E-02  0.1204865E+00
          2   -1    0    0  501    0  0.00000000000E+00  0.00000000000E+00  0.28813421879E+03  0.28813421879E+03  0.00000000000E+00 0. -1.
         -2   -1    0    0    0  501 -0.00000000000E+00 -0.00000000000E+00 -0.98602134187E+02  0.98602134187E+02  0.00000000000E+00 0.  1.
         25    2    1    2    0    0  0.12214930785E+03 -0.28755666327E+02  0.13292838351E+03  0.22150509009E+03  0.12508880061E+03 0.  0.
         23    2    1    2    0    0 -0.12214930785E+03  0.28755666327E+02  0.56603701095E+02  0.16523126289E+03  0.91378605284E+02 0.  0.
          5    1    3    3  502    0 -0.16304009658E+02 -0.14770644362E+01  0.60535792578E+02  0.62849479181E+02  0.41800000000E+01 0.  1.
         -5    1    3    3    0  502  0.13845331751E+03 -0.27278601891E+02  0.72392590933E+02  0.15865561091E+03  0.41800000000E+01 0.  1.
        -11    1    4    4    0    0 -0.60532034312E+02  0.39585622710E+02  0.70655782071E+02  0.10111077214E+03  0.00000000000E+00 0. -1.
         11    1    4    4    0    0 -0.61617273542E+02 -0.10829956383E+02 -0.14052080975E+02  0.64120490748E+02  0.00000000000E+00 0.  1.
</event>
<event>
 8    1  0.7052796E-009  0.9491461E+02  0.7561462E-02  0.1291369E+00
          1   -1    0    0  501    0  0.00000000000E+00  0.00000000000E+00  0.40199891464E+03  0.40199891464E+03  0.00000000000E+00 0. -1.
         -1   -1    0    0    0  501 -0.00000000000E+00 -0.00000000000E+00 -0.45679509492E+02  0.45679509492E+02  0.00000000000E+00 0.  1.
         25    2    1    2    0    0  0.23306348483E+02 -0.75517469626E+02  0.16851992607E+03  0.22426306954E+03  0.12509550263E+03 0.  0.
         23    2    1    2    0    0 -0.23306348483E+02  0.75517469626E+02  0.18779947908E+03  0.22341535460E+03  0.91649889402E+02 0.  0.
          5    1    3    3  502    0  0.13389595569E+02 -0.89521298891E+02  0.48164837683E+02  0.10261904411E+03  0.41800000000E+01 0. -1.
         -5    1    3    3    0  502  0.99167529146E+01  0.14003829265E+02  0.12035508839E+03  0.12164402543E+03  0.41800000000E+01 0. -1.
        -11    1    4    4    0    0 -0.23048836518E+02  0.40989168236E+02  0.18341815016E+02  0.50475567907E+02  0.00000000000E+00 0.  1.
         11    1    4    4    0    0 -0.25751196557E+00  0.34528301391E+02  0.16945766407E+03  0.17293978669E+03  0.00000000000E+00 0. -1.
</event>
<event>
 8    1  0.7052796E-009  0.1493727E+03  0.7561462E-02  0.1201246E+00
          1   -1    0    0  501    0  0.00000000000E+00  0.00000000000E+00  0.13307222494E+04  0.13307222494E+04  0.00000000000E+00 0. -1.
         -1   -1    0    0    0  501 -0.00000000000E+00 -0.00000000000E+00 -0.23858395409E+02  0.23858395409E+02  0.00000000000E+00 0.  1.
         25    2    1    2    0    0 -0.11295127534E+03 -0.42278753790E+02  0.96699487034E+03  0.98248257914E+03  0.12508978946E+03 0.  0.
         23    2    1    2    0    0  0.11295127534E+03  0.42278753790E+02  0.33986898368E+03  0.37209806569E+03  0.91654573292E+02 0.  0.
          5    1    3    3  502    0 -0.13192040885E+03 -0.21165625307E+02  0.89589959525E+03  0.90581705389E+03  0.41800000000E+01 0. -1.
         -5    1    3    3    0  502  0.18969133507E+02 -0.21113128483E+02  0.71095275091E+02  0.76665525242E+02  0.41800000000E+01 0. -1.
        -11    1    4    4    0    0  0.25043587117E+02  0.41501491825E+02  0.51926781070E+02  0.71034820136E+02  0.00000000000E+00 0.  1.
         11    1    4    4    0    0  0.87907688221E+02  0.77726196512E+00  0.28794220261E+03  0.30106324556E+03  0.00000000000E+00 0. -1.
</event>
<event>
 8    1  0.7052796E-009  0.1047518E+03  0.7561462E-02  0.1270609E+00
         -1   -1    0    0    0  501 -0.00000000000E+00  0.00000000000E+00  0.35573467204E+02  0.35573467204E+02  0.00000000000E+00 0.  1.
          1   -1    0    0  501    0  0.00000000000E+00 -0.00000000000E+00 -0.45452477314E+03  0.45452477314E+03  0.00000000000E+00 0. -1.
         25    2    1    2    0    0  0.52653922683E+01 -0.38605245290E+02 -0.12804014864E+03  0.18319513064E+03  0.12509231354E+03 0.  0.
         23    2    1    2    0    0 -0.52653922683E+01  0.38605245290E+02 -0.29091115729E+03  0.30690310970E+03  0.89677912478E+02 0.  0.
          5    1    3    3  502    0 -0.58791191887E+02 -0.14881745197E+02 -0.45253816261E+02  0.75784238927E+02  0.41800000000E+01 0. -1.
         -5    1    3    3    0  502  0.64056584155E+02 -0.23723500093E+02 -0.82786332382E+02  0.10741089172E+03  0.41800000000E+01 0. -1.
        -11    1    4    4    0    0 -0.31874851328E+02  0.42773540238E+02 -0.26205854319E+03  0.26743272416E+03  0.00000000000E+00 0. -1.
         11    1    4    4    0    0  0.26609459060E+02 -0.41682949477E+01 -0.28852614099E+02  0.39470385539E+02  0.00000000000E+00 0.  1.
</event>
<event>
 8    1  0.7052796E-009  0.9162621E+02  0.7561462E-02  0.1298961E+00
          1   -1    0    0  501    0  0.00000000000E+00  0.00000000000E+00  0.90259500360E+03  0.90259500360E+03  0.00000000000E+00 0. -1.
         -1   -1    0    0    0  501 -0.00000000000E+00 -0.00000000000E+00 -0.18358542397E+02  0.18358542397E+02  0.00000000000E+00 0.  1.
         25    2    1    2    0    0  0.41793231506E+02 -0.27146676951E+01  0.68660355566E+03  0.69916091823E+03  0.12508998086E+03 0.  0.
         23    2    1    2    0    0 -0.41793231506E+02  0.27146676951E+01  0.19763290554E+03  0.22179262776E+03  0.91537755920E+02 0.  0.
          5    1    3    3  502    0 -0.10620139022E+02  0.42282490394E+02  0.10966886377E+03  0.11809034011E+03  0.41800000000E+01 0. -1.
         -5    1    3    3    0  502  0.52413370528E+02 -0.44997158089E+02  0.57693469190E+03  0.58107057812E+03  0.41800000000E+01 0. -1.
        -11    1    4    4    0    0 -0.19662037740E+02 -0.26875786497E+02  0.17568857459E+03  0.17881660680E+03  0.00000000000E+00 0. -1.
         11    1    4    4    0    0 -0.22131193766E+02  0.29590454193E+02  0.21944330950E+02  0.42976020961E+02  0.00000000000E+00 0.  1.
</event>
<event>
 8    1  0.7052796E-009  0.6163919E+02  0.7561462E-02  0.1391079E+00
         -1   -1    0    0    0  501 -0.00000000000E+00  0.00000000000E+00  0.19910019933E+03  0.19910019933E+03  0.00000000000E+00 0.  1.
          1   -1    0    0  501    0  0.00000000000E+00 -0.00000000000E+00 -0.60262655413E+02  0.60262655413E+02  0.00000000000E+00 0. -1.
         25    2    1    2    0    0  0.30416234019E+01  0.15082387045E+02  0.78894180015E+02  0.14870319512E+03  0.12510642959E+03 0.  0.
         23    2    1    2    0    0 -0.30416234019E+01 -0.15082387045E+02  0.59943363904E+02  0.11065965963E+03  0.91736707598E+02 0.  0.
          5    1    3    3  502    0  0.10710862720E+02  0.20133677254E+02  0.11185497651E+03  0.11423263855E+03  0.41800000000E+01 0.  1.
         -5    1    3    3    0  502 -0.76692393186E+01 -0.50512902083E+01 -0.32960796495E+02  0.34470556567E+02  0.41800000000E+01 0.  1.
        -11    1    4    4    0    0  0.22490779369E+01 -0.52331700205E+02  0.20776823791E+02  0.56350169518E+02  0.00000000000E+00 0. -1.
         11    1    4    4    0    0 -0.52907013388E+01  0.37249313160E+02  0.39166540113E+02  0.54309490109E+02  0.00000000000E+00 0.  1.
</event>
<event>
 8    1  0.7052796E-009  0.9821247E+02  0.7561462E-02  0.1284100E+00
          1   -1    0    0  501    0  0.00000000000E+00  0.00000000000E+00  0.22976299200E+03  0.22976299200E+03  0.00000000000E+00 0. -1.
         -1   -1    0    0    0  501 -0.00000000000E+00 -0.00000000000E+00 -0.65172609764E+02  0.65172609764E+02  0.00000000000E+00 0.  1.
         25    2    1    2    0    0  0.18606124819E+01 -0.18010474484E+02  0.29872164989E+02  0.12987399043E+03  0.12508824117E+03 0.  0.
         23    2    1    2    0    0 -0.18606124819E+01  0.18010474484E+02  0.13471821725E+03  0.16506161134E+03  0.93640260620E+02 0.  0.
          5    1    3    3  502    0  0.55186712691E+02 -0.23840800035E+02  0.43556607503E+02  0.74354606186E+02  0.41800000000E+01 0.  1.
         -5    1    3    3    0  502 -0.53326100209E+02  0.58303255518E+01 -0.13684442514E+02  0.55519384241E+02  0.41800000000E+01 0.  1.
        -11    1    4    4    0    0 -0.14951318411E+02 -0.29501955562E+02  0.98491456687E+02  0.10389645973E+03  0.00000000000E+00 0.  1.
         11    1    4    4    0    0  0.13090705929E+02  0.47512430045E+02  0.36226760565E+02  0.61165151611E+02  0.00000000000E+00 0. -1.
</event>
<event>
 8    1  0.7052796E-009  0.1201022E+03  0.7561462E-02  0.1242929E+00
          2   -1    0    0  501    0  0.00000000000E+00  0.00000000000E+00  0.66106016602E+03  0.66106016602E+03  0.00000000000E+00 0. -1.
         -2   -1    0    0    0  501 -0.00000000000E+00 -0.00000000000E+00 -0.32215475598E+02  0.32215475598E+02  0.00000000000E+00 0.  1.
         25    2    1    2    0    0  0.15057471799E+02 -0.91888699387E+02  0.41536096361E+03  0.44366921740E+03  0.12508950334E+03 0.  0.
         23    2    1    2    0    0 -0.15057471799E+02  0.91888699387E+02  0.21348372681E+03  0.24960642422E+03  0.89765276500E+02 0.  0.
          5    1    3    3  502    0  0.63654248984E+02 -0.66005695899E+02  0.18167767097E+03  0.20355064194E+03  0.41800000000E+01 0. -1.
         -5    1    3    3    0  502 -0.48596777186E+02 -0.25883003489E+02  0.23368329264E+03  0.24011857546E+03  0.41800000000E+01 0. -1.
        -11    1    4    4    0    0 -0.90570305254E+01  0.43484941370E+02  0.17660212555E+02  0.47800136353E+02  0.00000000000E+00 0.  1.
         11    1    4    4    0    0 -0.60004412735E+01  0.48403758017E+02  0.19582351425E+03  0.20180628786E+03  0.00000000000E+00 0. -1.
</event>
<event>
 8    1  0.7052796E-009  0.1377726E+03  0.7561462E-02  0.1216358E+00
          1   -1    0    0  501    0  0.00000000000E+00  0.00000000000E+00  0.39579677511E+03  0.39579677511E+03  0.00000000000E+00 0. -1.
         -1   -1    0    0    0  501 -0.00000000000E+00 -0.00000000000E+00 -0.51801820251E+02  0.51801820251E+02  0.00000000000E+00 0.  1.
         25    2    1    2    0    0 -0.75066701905E+02  0.49446830735E+02  0.14962739267E+03  0.21474451395E+03  0.12508737278E+03 0.  0.
         23    2    1    2    0    0  0.75066701905E+02 -0.49446830735E+02  0.19436756218E+03  0.23285408141E+03  0.91445476622E+02 0.  0.
          5    1    3    3  502    0 -0.97546459078E+02 -0.20288720140E+01  0.97586331126E+02  0.13805793140E+03  0.41800000000E+01 0.  1.
         -5    1    3    3    0  502  0.22479757173E+02  0.51475702749E+02  0.52041061546E+02  0.76686582548E+02  0.41800000000E+01 0.  1.
        -11    1    4    4    0    0  0.81282112001E+01 -0.53868586940E+02  0.51258922941E+02  0.74802203559E+02  0.00000000000E+00 0.  1.
         11    1    4    4    0    0  0.66938490705E+02  0.44217562047E+01  0.14310863924E+03  0.15805187785E+03  0.00000000000E+00 0. -1.
</event>
<event>
 8    1  0.7052796E-009  0.1238045E+03  0.7561462E-02  0.1236950E+00
          2   -1    0    0  501    0  0.00000000000E+00  0.00000000000E+00  0.28449955682E+04  0.28449955682E+04  0.00000000000E+00 0. -1.
         -2   -1    0    0    0  501 -0.00000000000E+00 -0.00000000000E+00 -0.70545145201E+01  0.70545145201E+01  0.00000000000E+00 0.  1.
         25    2    1    2    0    0  0.12185299183E+02  0.61150927347E+02  0.22338014004E+04  0.22381698515E+04  0.12509064756E+03 0.  0.
         23    2    1    2    0    0 -0.12185299183E+02 -0.61150927347E+02  0.60413965327E+03  0.61388023125E+03  0.89310135146E+02 0.  0.
          5    1    3    3  502    0 -0.55916662739E+02  0.23188026726E+02  0.11121831417E+04  0.11138371384E+04  0.41800000000E+01 0. -1.
         -5    1    3    3    0  502  0.68101961922E+02  0.37962900621E+02  0.11216182587E+04  0.11243327131E+04  0.41800000000E+01 0. -1.
        -11    1    4    4    0    0 -0.22970419409E+02  0.17866359102E+02  0.17160865632E+03  0.17405854727E+03  0.00000000000E+00 0. -1.
         11    1    4    4    0    0  0.10785120226E+02 -0.79017286449E+02  0.43253099695E+03  0.43982168398E+03  0.00000000000E+00 0.  1.
</event>
<event>
 8    1  0.7052796E-009  0.9829252E+02  0.7561462E-02  0.1283928E+00
          1   -1    0    0  501    0  0.00000000000E+00  0.00000000000E+00  0.15039341161E+03  0.15039341161E+03  0.00000000000E+00 0. -1.
         -1   -1    0    0    0  501 -0.00000000000E+00 -0.00000000000E+00 -0.10014444357E+03  0.10014444357E+03  0.00000000000E+00 0.  1.
         25    2    1    2    0    0 -0.12533990166E+02 -0.41265800936E+02  0.70526737992E+02  0.14993851879E+03  0.12509025305E+03 0.  0.
         23    2    1    2    0    0  0.12533990166E+02  0.41265800936E+02 -0.20277769959E+02  0.10059933639E+03  0.88594984570E+02 0.  0.
          5    1    3    3  502    0 -0.17775968923E+02 -0.69436788180E+02 -0.20196471967E+01  0.71826206907E+02  0.41800000000E+01 0.  1.
         -5    1    3    3    0  502  0.52419787569E+01  0.28170987244E+02  0.72546385189E+02  0.78112311882E+02  0.41800000000E+01 0.  1.
        -11    1    4    4    0    0  0.36694935492E+02 -0.10950704338E+02  0.32663030077E+01  0.38433123105E+02  0.00000000000E+00 0.  1.
         11    1    4    4    0    0 -0.24160945326E+02  0.52216505274E+02 -0.23544072967E+02  0.62166213283E+02  0.00000000000E+00 0. -1.
</event>
<event>
 8    1  0.7052796E-009  0.7114728E+02  0.7561462E-02  0.1356235E+00
          2   -1    0    0  501    0  0.00000000000E+00  0.00000000000E+00  0.29186952528E+03  0.29186952528E+03  0.00000000000E+00 0.  1.
         -2   -1    0    0    0  501 -0.00000000000E+00 -0.00000000000E+00 -0.57387488331E+02  0.57387488331E+02  0.00000000000E+00 0. -1.
         25    2    1    2    0    0 -0.10545817432E+02 -0.66670475952E+02  0.11070661564E+03  0.18016165425E+03  0.12508437268E+03 0.  0.
         23    2    1    2    0    0  0.10545817432E+02  0.66670475952E+02  0.12377542131E+03  0.16909535936E+03  0.93363370799E+02 0.  0.
          5    1    3    3  502    0  0.61447055132E+01 -0.29352981454E+02  0.13091318145E+03  0.13436922416E+03  0.41800000000E+01 0.  1.
         -5    1    3    3    0  502 -0.16690522945E+02 -0.37317494498E+02 -0.20206565807E+02  0.45792430089E+02  0.41800000000E+01 0.  1.
        -11    1    4    4    0    0  0.12365417655E+02  0.16010510233E+02  0.11607087912E+03  0.11782057957E+03  0.00000000000E+00 0.  1.
         11    1    4    4    0    0 -0.18196002230E+01  0.50659965718E+02  0.77045421923E+01  0.51274779784E+02  0.00000000000E+00 0. -1.
</event>
<event>
 8    1  0.7052796E-009  0.1285306E+03  0.7561462E-02  0.1229652E+00
         -2   -1    0    0    0  501 -0.00000000000E+00  0.00000000000E+00  0.98295620968E+01  0.98295620968E+01  0.00000000000E+00 0.  1.
          2   -1    0    0  501    0  0.00000000000E+00 -0.00000000000E+00 -0.18868567510E+04  0.18868567510E+04  0.00000000000E+00 0. -1.
         25    2    1    2    0    0  0.74544852747E+02 -0.11123020129E+02 -0.12632014998E+04  0.12716155469E+04  0.12508962121E+03 0.  0.
         23    2    1    2    0    0 -0.74544852747E+02  0.11123020129E+02 -0.61382568905E+03  0.62507076616E+03  0.90834076873E+02 0.  0.
          5    1    3    3  502    0  0.10440906953E+03  0.60460159858E+01 -0.75359033635E+03  0.76082433948E+03  0.41800000000E+01 0.  1.
         -5    1    3    3    0  502 -0.29864216786E+02 -0.17169036115E+02 -0.50961116349E+03  0.51079120744E+03  0.41800000000E+01 0.  1.
        -11    1    4    4    0    0 -0.32554568174E+02  0.50529263203E+02 -0.28981139635E+03  0.29597914083E+03  0.00000000000E+00 0.  1.
         11    1    4    4    0    0 -0.41990284574E+02 -0.39406243074E+02 -0.32401429269E+03  0.32909162533E+03  0.00000000000E+00 0. -1.
</event>
<event>
 8    1  0.7052796E-009  0.8761656E+02  0.7561462E-02  0.1308728E+00
         -1   -1    0    0    0  501 -0.00000000000E+00  0.00000000000E+00  0.49138678514E+02  0.49138678514E+02  0.00000000000E+00 0.  1.
          1   -1    0    0  501    0  0.00000000000E+00 -0.00000000000E+00 -0.36512714591E+03  0.36512714591E+03  0.00000000000E+00 0. -1.
         25    2    1    2    0    0  0.17294167695E+02  0.26913613108E+02 -0.59892366508E+02  0.14232801948E+03  0.12508692481E+03 0.  0.
         23    2    1    2    0    0 -0.17294167695E+02 -0.26913613108E+02 -0.25609610089E+03  0.27193780494E+03  0.85682705721E+02 0.  0.
          5    1    3    3  502    0 -0.16311945312E+02 -0.21411686039E+02 -0.76351866457E+02  0.81065527632E+02  0.41800000000E+01 0. -1.
         -5    1    3    3    0  502  0.33606113007E+02  0.48325299147E+02  0.16459499949E+02  0.61262491850E+02  0.41800000000E+01 0. -1.
        -11    1    4    4    0    0  0.29286060721E+02  0.84716928248E+01 -0.11981425944E+03  0.12363211435E+03  0.00000000000E+00 0. -1.
         11    1    4    4    0    0 -0.46580228416E+02 -0.35385305933E+02 -0.13628184145E+03  0.14830569060E+03  0.00000000000E+00 0.  1.
</event>
<event>
 8    1  0.7052796E-009  0.1129650E+03  0.7561462E-02  0.1255176E+00
         -1   -1    0    0    0  501 -0.00000000000E+00  0.00000000000E+00  0.36923578396E+03  0.36923578396E+03  0.00000000000E+00 0.  1.
          1   -1    0    0  501    0  0.00000000000E+00 -0.00000000000E+00 -0.56525503432E+02  0.56525503432E+02  0.00000000000E+00 0. -1.
         25    2    1    2    0    0  0.39080419313E+02 -0.55881034647E+02  0.71805142048E+02  0.15954877700E+03  0.12509941890E+03 0.  0.
         23    2    1    2    0    0 -0.39080419313E+02  0.55881034647E+02  0.24090513848E+03  0.26621251039E+03  0.90464610416E+02 0.  0.
          5    1    3    3  502    0  0.58659335096E+02  0.18815223727E+02  0.49288414309E+02  0.79004749370E+02  0.41800000000E+01 0. -1.
         -5    1    3    3    0  502 -0.19578915783E+02 -0.74696258374E+02  0.22516727738E+02  0.80544027627E+02  0.41800000000E+01 0. -1.
        -11    1    4    4    0    0 -0.49083436411E+02  0.26425022622E+02  0.22395040974E+03  0.23078399332E+03  0.00000000000E+00 0.  1.
         11    1    4    4    0    0  0.10003017097E+02  0.29456012025E+02  0.16954728741E+02  0.35428517075E+02  0.00000000000E+00 0. -1.
</event>
<event>
 8    1  0.7052796E-009  0.8416410E+02  0.7561462E-02  0.1317633E+00
          2   -1    0    0  501    0  0.00000000000E+00  0.00000000000E+00  0.34097755065E+02  0.34097755065E+02  0.00000000000E+00 0. -1.
         -2   -1    0    0    0  501 -0.00000000000E+00 -0.00000000000E+00 -0.66771046541E+03  0.66771046541E+03  0.00000000000E+00 0.  1.
         25    2    1    2    0    0 -0.89574256782E+01  0.16798127208E+02 -0.58144027989E+03  0.59504828738E+03  0.12508897904E+03 0.  0.
         23    2    1    2    0    0  0.89574256782E+01 -0.16798127208E+02 -0.52172430452E+02  0.10675993310E+03  0.91177345120E+02 0.  0.
          5    1    3    3  502    0  0.49864905462E+02 -0.15487528335E+01 -0.40559552257E+03  0.40867359562E+03  0.41800000000E+01 0.  1.
         -5    1    3    3    0  502 -0.58822331140E+02  0.18346880041E+02 -0.17584475732E+03  0.18637469175E+03  0.41800000000E+01 0.  1.
        -11    1    4    4    0    0  0.14199385654E+02 -0.34890495582E+02  0.12272982756E+02  0.39618118843E+02  0.00000000000E+00 0. -1.
         11    1    4    4    0    0 -0.52419599761E+01  0.18092368374E+02 -0.64445413208E+02  0.67141814254E+02  0.00000000000E+00 0.  1.
</event>
<event>
 8    1  0.7052796E-009  0.8903925E+02  0.7561462E-02  0.1305195E+00
          1   -1    0    0  501    0  0.00000000000E+00  0.00000000000E+00  0.12486585066E+03  0.12486585066E+03  0.00000000000E+00 0. -1.
         -1   -1    0    0    0  501 -0.00000000000E+00 -0.00000000000E+00 -0.10789306124E+03  0.10789306124E+03  0.00000000000E+00 0.  1.
         25    2    1    2    0    0  0.20059931700E+02  0.26956194067E+02 -0.18282705385E+02  0.13080492594E+03  0.12508650637E+03 0.  0.
         23    2    1    2    0    0 -0.20059931700E+02 -0.26956194067E+02  0.35255494806E+02  0.10195398596E+03  0.89569124600E+02 0.  0.
          5    1    3    3  502    0 -0.37854777935E+02  0.23256402463E+02 -0.47943816687E+02  0.65497529927E+02  0.41800000000E+01 0.  1.
         -5    1    3    3    0  502  0.57914709636E+02  0.36997916039E+01  0.29661111302E+02  0.65307396011E+02  0.41800000000E+01 0.  1.
        -11    1    4    4    0    0 -0.39052482051E+02 -0.36991042352E+02  0.51925193876E+02  0.74764024288E+02  0.00000000000E+00 0. -1.
         11    1    4    4    0    0  0.18992550350E+02  0.10034848285E+02 -0.16669699070E+02  0.27189961677E+02  0.00000000000E+00 0.  1.
</event>
<event>
 8    1  0.7052796E-009  0.1814678E+03  0.7561462E-02  0.1166390E+00
         -2   -1    0    0    0  501 -0.00000000000E+00  0.00000000000E+00  0.53300119754E+03  0.53300119754E+03  0.00000000000E+00 0. -1.
          2   -1    0    0  501    0  0.00000000000E+00 -0.00000000000E+00 -0.64254277011E+02  0.64254277011E+02  0.00000000000E+00 0.  1.
         25    2    1    2    0    0 -0.14485806101E+03 -0.21115665535E+02  0.20051347553E+03  0.27799288782E+03  0.12507862584E+03 0.  0.
         23    2    1    2    0    0  0.14485806101E+03  0.21115665535E+02  0.26823344500E+03  0.31926258673E+03  0.92464528849E+02 0.  0.
          5    1    3    3  502    0 -0.15759330085E+03  0.95219932887E+01  0.15301557942E+03  0.21990351696E+03  0.41800000000E+01 0.  1.
         -5    1    3    3    0  502  0.12735239838E+02 -0.30637658824E+02  0.47497896110E+02  0.58089370860E+02  0.41800000000E+01 0.  1.
        -11    1    4    4    0    0  0.13248252760E+03 -0.15049209943E+02  0.22513421038E+03  0.26165532963E+03  0.00000000000E+00 0. -1.
         11    1    4    4    0    0  0.12375533413E+02  0.36164875479E+02  0.43099234622E+02  0.57607257100E+02  0.00000000000E+00 0.  1.
</event>
<event>
 8    1  0.7052796E-009  0.1297474E+03  0.7561462E-02  0.1227831E+00
         -2   -1    0    0    0  501 -0.00000000000E+00  0.00000000000E+00  0.18733644131E+02  0.18733644131E+02  0.00000000000E+00 0.  1.
          2   -1    0    0  501    0  0.00000000000E+00 -0.00000000000E+00 -0.15616994533E+04  0.15616994533E+04  0.00000000000E+00 0. -1.
         25    2    1    2    0    0  0.67511181893E+02 -0.70251286974E+02 -0.12358155284E+04  0.12459459932E+04  0.12509354419E+03 0.  0.
         23    2    1    2    0    0 -0.67511181893E+02  0.70251286974E+02 -0.30715028074E+03  0.33448710418E+03  0.89706883236E+02 0.  0.
          5    1    3    3  502    0 -0.14232639106E+02 -0.47674495813E+02 -0.18227632068E+03  0.18899088615E+03  0.41800000000E+01 0. -1.
         -5    1    3    3    0  502  0.81743820999E+02 -0.22576791161E+02 -0.10535392077E+04  0.10569551071E+04  0.41800000000E+01 0. -1.
        -11    1    4    4    0    0  0.13798656029E+02  0.31903140960E+02 -0.14474612528E+03  0.14886119070E+03  0.00000000000E+00 0. -1.
         11    1    4    4    0    0 -0.81309837921E+02  0.38348146014E+02 -0.16240415546E+03  0.18562591348E+03  0.00000000000E+00 0.  1.
</event>
<event>
 8    1  0.7052796E-009  0.9497412E+02  0.7561462E-02  0.1291234E+00
         -2   -1    0    0    0  501 -0.00000000000E+00  0.00000000000E+00  0.39477004260E+02  0.39477004260E+02  0.00000000000E+00 0.  1.
          2   -1    0    0  501    0  0.00000000000E+00 -0.00000000000E+00 -0.46638020800E+03  0.46638020800E+03  0.00000000000E+00 0. -1.
         25    2    1    2    0    0  0.14099659526E+01 -0.59730866444E+02 -0.33854597802E+03  0.36582829971E+03  0.12508877337E+03 0.  0.
         23    2    1    2    0    0 -0.14099659526E+01  0.59730866444E+02 -0.88357225718E+02  0.14002891255E+03  0.90726691789E+02 0.  0.
          5    1    3    3  502    0  0.45042492230E+02 -0.66356269203E+02 -0.13144900397E+03  0.15403990915E+03  0.41800000000E+01 0.  1.
         -5    1    3    3    0  502 -0.43632526277E+02  0.66254027590E+01 -0.20709697405E+03  0.21178839055E+03  0.41800000000E+01 0.  1.
        -11    1    4    4    0    0 -0.13908675932E+02  0.30890255187E+02 -0.10071084960E+03  0.10625598505E+03  0.00000000000E+00 0. -1.
         11    1    4    4    0    0  0.12498709979E+02  0.28840611257E+02  0.12353623883E+02  0.33772927499E+02  0.00000000000E+00 0.  1.
</event>
<event>
 8    1  0.7052796E-009  0.9294684E+02  0.7561462E-02  0.1295868E+00
         -2   -1    0    0    0  501 -0.00000000000E+00  0.00000000000E+00  0.30434226726E+03  0.30434226726E+03  0.00000000000E+00 0. -1.
          2   -1    0    0  501    0  0.00000000000E+00 -0.00000000000E+00 -0.43082155916E+02  0.43082155916E+02  0.00000000000E+00 0.  1.
         25    2    1    2    0    0  0.20535427950E+02 -0.28339729751E+02  0.14943098667E+03  0.19799197238E+03  0.12508539989E+03 0.  0.
         23    2    1    2    0    0 -0.20535427950E+02  0.28339729751E+02  0.11182912467E+03  0.14943245079E+03  0.92733274193E+02 0.  0.
          5    1    3    3  502    0 -0.67537828324E+01  0.45462266390E+02  0.82829719658E+02  0.94819123106E+02  0.41800000000E+01 0. -1.
         -5    1    3    3    0  502  0.27289210782E+02 -0.73801996142E+02  0.66601267015E+02  0.10317284928E+03  0.41800000000E+01 0. -1.
        -11    1    4    4    0    0  0.29765668125E+01  0.36072591030E+02  0.11841250570E+03  0.12382089194E+03  0.00000000000E+00 0. -1.
         11    1    4    4    0    0 -0.23511994763E+02 -0.77328612789E+01 -0.65833810317E+01  0.25611558857E+02  0.00000000000E+00 0.  1.
</event>
<event>
 8    1  0.7052796E-009  0.1465267E+03  0.7561462E-02  0.1204807E+00
          2   -1    0    0  501    0  0.00000000000E+00  0.00000000000E+00  0.57436711042E+03  0.57436711042E+03  0.00000000000E+00 0. -1.
         -2   -1    0    0    0  501 -0.00000000000E+00 -0.00000000000E+00 -0.62707241257E+02  0.62707241257E+02  0.00000000000E+00 0.  1.
         25    2    1    2    0    0 -0.12524260044E+03  0.74354745975E+02  0.36130088057E+03  0.40914174832E+03  0.12507720297E+03 0.  0.
         23    2    1    2    0    0  0.12524260044E+03 -0.74354745975E+02  0.15035898859E+03  0.22793260335E+03  0.90172662199E+02 0.  0.
          5    1    3    3  502    0 -0.10589759442E+03  0.63334551558E+02  0.36577647090E+03  0.38605111707E+03  0.41800000000E+01 0.  1.
         -5    1    3    3    0  502 -0.19345006020E+02  0.11020194417E+02 -0.44755903268E+01  0.23090631253E+02  0.41800000000E+01 0.  1.
        -11    1    4    4    0    0  0.37351013253E+02 -0.12212137287E+02 -0.42686100919E+01  0.39527908119E+02  0.00000000000E+00 0. -1.
         11    1    4    4    0    0  0.87891587189E+02 -0.62142608688E+02  0.15462759868E+03  0.18840469524E+03  0.00000000000E+00 0.  1.
</event>
<event>
 8    1  0.7052796E-009  0.1169349E+03  0.7561462E-02  0.1248241E+00
         -2   -1    0    0    0  501 -0.00000000000E+00  0.00000000000E+00  0.10735487944E+03  0.10735487944E+03  0.00000000000E+00 0. -1.
          2   -1    0    0  501    0  0.00000000000E+00 -0.00000000000E+00 -0.16959271347E+03  0.16959271347E+03  0.00000000000E+00 0.  1.
         25    2    1    2    0    0  0.52850123633E+02 -0.78258795738E+01  0.27266563655E+02  0.13872908353E+03  0.12509161909E+03 0.  0.
         23    2    1    2    0    0 -0.52850123633E+02  0.78258795738E+01 -0.89504397692E+02  0.13821850938E+03  0.90768602331E+02 0.  0.
          5    1    3    3  502    0  0.37011260486E+02 -0.62284931354E+02  0.36303824673E+02  0.81146079156E+02  0.41800000000E+01 0.  1.
         -5    1    3    3    0  502  0.15838863147E+02  0.54459051780E+02 -0.90372610179E+01  0.57583004379E+02  0.41800000000E+01 0.  1.
        -11    1    4    4    0    0 -0.67488891252E+02  0.33139731998E+02 -0.56010644591E+02  0.93755984272E+02  0.00000000000E+00 0. -1.
         11    1    4    4    0    0  0.14638767619E+02 -0.25313852424E+02 -0.33493753101E+02  0.44462525105E+02  0.00000000000E+00 0.  1.
</event>
<event>
 8    1  0.7052796E-009  0.1317641E+03  0.7561462E-02  0.1224861E+00
         -1   -1    0    0    0  501 -0.00000000000E+00  0.00000000000E+00  0.12384428194E+03  0.12384428194E+03  0.00000000000E+00 0.  1.
          1   -1    0    0  501    0  0.00000000000E+00 -0.00000000000E+00 -0.21734084052E+03  0.21734084052E+03  0.00000000000E+00 0. -1.
         25    2    1    2    0    0  0.68425308575E+02 -0.39869569309E+02  0.47354724771E+02  0.15544243019E+03  0.12509306030E+03 0.  0.
         23    2    1    2    0    0 -0.68425308575E+02  0.39869569309E+02 -0.14085128336E+03  0.18574269227E+03  0.91595077913E+02 0.  0.
          5    1    3    3  502    0  0.21361513951E+02  0.44339571061E+02  0.38760180993E+01  0.49546016555E+02  0.41800000000E+01 0. -1.
         -5    1    3    3    0  502  0.47063794624E+02 -0.84209140371E+02  0.43478706672E+02  0.10589641363E+03  0.41800000000E+01 0. -1.
        -11    1    4    4    0    0 -0.60439006572E+02 -0.14881755312E+02 -0.52170988405E+02  0.81216698947E+02  0.00000000000E+00 0.  1.
         11    1    4    4    0    0 -0.79863020032E+01  0.54751324621E+02 -0.88680294953E+02  0.10452599332E+03  0.00000000000E+00 0. -1.
</event>
<event>
 8    1  0.7052796E-009  0.1184715E+03  0.7561462E-02  0.1245640E+00
          2   -1    0    0  501    0  0.00000000000E+00  0.00000000000E+00  0.38554370961E+03  0.38554370961E+03  0.00000000000E+00 0. -1.
         -2   -1    0    0    0  501 -0.00000000000E+00 -0.00000000000E+00 -0.53121284921E+02  0.53121284921E+02  0.00000000000E+00 0.  1.
         25    2    1    2    0    0  0.28080701284E+02 -0.85341298834E+02  0.20586379678E+03  0.25709913525E+03  0.12509356278E+03 0.  0.
         23    2    1    2    0    0 -0.28080701284E+02  0.85341298834E+02  0.12655862790E+03  0.18156585928E+03  0.94220018510E+02 0.  0.
          5    1    3    3  502    0  0.35717771741E+02 -0.18253379863E+02  0.18033932243E+03  0.18479363817E+03  0.41800000000E+01 0.  1.
         -5    1    3    3    0  502 -0.76370704576E+01 -0.67087918971E+02  0.25524474359E+02  0.72305497082E+02  0.41800000000E+01 0.  1.
        -11    1    4    4    0    0 -0.28109493030E+02 -0.12754538936E+02  0.41549535539E+02  0.51760851668E+02  0.00000000000E+00 0.  1.
         11    1    4    4    0    0  0.28791745929E-01  0.98095837769E+02  0.85009092362E+02  0.12980500761E+03  0.00000000000E+00 0. -1.
</event>
<event>
 8    1  0.7052796E-009  0.1339036E+03  0.7561462E-02  0.1221776E+00
         -4   -1    0    0    0  501 -0.00000000000E+00  0.00000000000E+00  0.76710807428E+02  0.76710807428E+02  0.00000000000E+00 0.  1.
          4   -1    0    0  501    0  0.00000000000E+00 -0.00000000000E+00 -0.30245945855E+03  0.30245945855E+03  0.00000000000E+00 0. -1.
         25    2    1    2    0    0 -0.61150414859E+02  0.72718781297E+02 -0.17790912039E+03  0.23733249864E+03  0.12509062876E+03 0.  0.
         23    2    1    2    0    0  0.61150414859E+02 -0.72718781297E+02 -0.47839530732E+02  0.14183776734E+03  0.93818639679E+02 0.  0.
          5    1    3    3  502    0 -0.91213618646E+02  0.28780913399E+02 -0.14759464466E+03  0.17592588421E+03  0.41800000000E+01 0.  1.
         -5    1    3    3    0  502  0.30063203786E+02  0.43937867898E+02 -0.30314475731E+02  0.61406614434E+02  0.41800000000E+01 0.  1.
        -11    1    4    4    0    0  0.28365813522E+02 -0.80175223528E+02 -0.62112145487E+02  0.10531193884E+03  0.00000000000E+00 0. -1.
         11    1    4    4    0    0  0.32784601337E+02  0.74564422310E+01  0.14272614755E+02  0.36525828499E+02  0.00000000000E+00 0.  1.
</event>
<event>
 8    1  0.7052796E-009  0.1117854E+03  0.7561462E-02  0.1257299E+00
         -1   -1    0    0    0  501 -0.00000000000E+00  0.00000000000E+00  0.13812117313E+02  0.13812117313E+02  0.00000000000E+00 0.  1.
          1   -1    0    0  501    0  0.00000000000E+00 -0.00000000000E+00 -0.99909819533E+03  0.99909819533E+03  0.00000000000E+00 0. -1.
         25    2    1    2    0    0 -0.26185488334E+02  0.31648875564E+02 -0.55802134003E+03  0.57334344755E+03  0.12509021462E+03 0.  0.
         23    2    1    2    0    0  0.26185488334E+02 -0.31648875564E+02 -0.42726473799E+03  0.43956686509E+03  0.94744611664E+02 0.  0.
          5    1    3    3  502    0 -0.13182956764E+02  0.74865305455E+02 -0.23163987576E+03  0.24383008172E+03  0.41800000000E+01 0. -1.
         -5    1    3    3    0  502 -0.13002531569E+02 -0.43216429890E+02 -0.32638146427E+03  0.32951336583E+03  0.41800000000E+01 0. -1.
        -11    1    4    4    0    0  0.16543882063E+02  0.32913409960E+02 -0.12400106639E+03  0.12935709124E+03  0.00000000000E+00 0. -1.
         11    1    4    4    0    0  0.96416062706E+01 -0.64562285524E+02 -0.30326367160E+03  0.31020977386E+03  0.00000000000E+00 0.  1.
</event>
<event>
 8    1  0.7052796E-009  0.1178401E+03  0.7561462E-02  0.1246703E+00
         -2   -1    0    0    0  501 -0.00000000000E+00  0.00000000000E+00  0.14893193405E+02  0.14893193405E+02  0.00000000000E+00 0.  1.
          2   -1    0    0  501    0  0.00000000000E+00 -0.00000000000E+00 -0.14394338567E+04  0.14394338567E+04  0.00000000000E+00 0. -1.
         25    2    1    2    0    0 -0.81990819677E+02  0.48242262715E+02 -0.88667592275E+03  0.90049487151E+03  0.12508801386E+03 0.  0.
         23    2    1    2    0    0  0.81990819677E+02 -0.48242262715E+02 -0.53786474057E+03  0.55383217862E+03  0.91552129972E+02 0.  0.
          5    1    3    3  502    0 -0.68574353418E+02  0.56594609153E+02 -0.87698583316E+03  0.88149135883E+03  0.41800000000E+01 0. -1.
         -5    1    3    3    0  502 -0.13416466259E+02 -0.83523464381E+01 -0.96900895897E+01  0.19003512679E+02  0.41800000000E+01 0. -1.
        -11    1    4    4    0    0  0.19587121345E+02 -0.63187658866E+02 -0.22855073901E+03  0.23793229259E+03  0.00000000000E+00 0. -1.
         11    1    4    4    0    0  0.62403698332E+02  0.14945396151E+02 -0.30931400157E+03  0.31589988603E+03  0.00000000000E+00 0.  1.
</event>
<event>
 8    1  0.7052796E-009  0.1460416E+03  0.7561462E-02  0.1205423E+00
          1   -1    0    0  501    0  0.00000000000E+00  0.00000000000E+00  0.13305855260E+03  0.13305855260E+03  0.00000000000E+00 0. -1.
         -1   -1    0    0    0  501 -0.00000000000E+00 -0.00000000000E+00 -0.17888679663E+03  0.17888679663E+03  0.00000000000E+00 0.  1.
         25    2    1    2    0    0  0.10003317942E+03  0.34702301295E+01 -0.74797530273E+02  0.17680471907E+03  0.12508620496E+03 0.  0.
         23    2    1    2    0    0 -0.10003317942E+03 -0.34702301295E+01  0.28969286247E+02  0.13514063016E+03  0.86052837789E+02 0.  0.
          5    1    3    3  502    0  0.12390462227E+03  0.26367280909E+02 -0.61911245845E+02  0.14106049654E+03  0.41800000000E+01 0.  1.
         -5    1    3    3    0  502 -0.23871442851E+02 -0.22897050779E+02 -0.12886284428E+02  0.35744222534E+02  0.41800000000E+01 0.  1.
        -11    1    4    4    0    0 -0.61579949653E+02  0.40405924556E+02  0.15607323951E+02  0.75288229488E+02  0.00000000000E+00 0. -1.
         11    1    4    4    0    0 -0.38453229764E+02 -0.43876154685E+02  0.13361962297E+02  0.59852400668E+02  0.00000000000E+00 0.  1.
</event>
<event>
 8    1  0.7052796E-009  0.1032103E+03  0.7561462E-02  0.1273686E+00
          2   -1    0    0  501    0  0.00000000000E+00  0.00000000000E+00  0.12746370636E+04  0.12746370636E+04  0.00000000000E+00 0. -1.
         -2   -1    0    0    0  501 -0.00000000000E+00 -0.00000000000E+00 -0.12313977252E+02  0.12313977252E+02  0.00000000000E+00 0.  1.
         25    2    1    2    0    0  0.27272037612E+02  0.11798023509E+02  0.99378694675E+03  0.10020697428E+04  0.12509323132E+03 0.  0.
         23    2    1    2    0    0 -0.27272037612E+02 -0.11798023509E+02  0.26853613956E+03  0.28488129801E+03  0.90347873862E+02 0.  0.
          5    1    3    3  502    0 -0.45882590006E+02  0.61413095481E+01  0.22332345927E+03  0.22810911339E+03  0.41800000000E+01 0. -1.
         -5    1    3    3    0  502  0.73154627618E+02  0.56567139606E+01  0.77046348748E+03  0.77396062942E+03  0.41800000000E+01 0. -1.
        -11    1    4    4    0    0  0.35448654262E+01 -0.42676365513E+02  0.19262366514E+03  0.19732641642E+03  0.00000000000E+00 0.  1.
         11    1    4    4    0    0 -0.30816903038E+02  0.30878342004E+02  0.75912474412E+02  0.87554881583E+02  0.00000000000E+00 0. -1.
</event>
<event>
 8    1  0.7052796E-009  0.9488498E+02  0.7561462E-02  0.1291435E+00
          4   -1    0    0  501    0  0.00000000000E+00  0.00000000000E+00  0.38873686202E+02  0.38873686202E+02  0.00000000000E+00 0.  1.
         -4   -1    0    0    0  501 -0.00000000000E+00 -0.00000000000E+00 -0.33914537111E+03  0.33914537111E+03  0.00000000000E+00 0. -1.
         25    2    1    2    0    0 -0.19764221235E+02 -0.90469341932E+01 -0.24114008581E+03  0.27252309552E+03  0.12509126729E+03 0.  0.
         23    2    1    2    0    0  0.19764221235E+02  0.90469341932E+01 -0.59131599099E+02  0.10549596179E+03  0.84619031441E+02 0.  0.
          5    1    3    3  502    0 -0.51161152761E+02 -0.37143985082E+02 -0.21163584126E+03  0.22091704526E+03  0.41800000000E+01 0.  1.
         -5    1    3    3    0  502  0.31396931525E+02  0.28097050889E+02 -0.29504244550E+02  0.51606050268E+02  0.41800000000E+01 0.  1.
        -11    1    4    4    0    0  0.25233228199E+02  0.42903345535E+02 -0.20478645928E+02  0.53821815302E+02  0.00000000000E+00 0.  1.
         11    1    4    4    0    0 -0.54690069631E+01 -0.33856411342E+02 -0.38652953171E+02  0.51674146485E+02  0.00000000000E+00 0. -1.
</event>
<event>
 8    1  0.7052796E-009  0.1298302E+03  0.7561462E-02  0.1227708E+00
          1   -1    0    0  501    0  0.00000000000E+00  0.00000000000E+00  0.59527615718E+03  0.59527615718E+03  0.00000000000E+00 0. -1.
         -1   -1    0    0    0  501 -0.00000000000E+00 -0.00000000000E+00 -0.32179080914E+02  0.32179080914E+02  0.00000000000E+00 0.  1.
         25    2    1    2    0    0 -0.33646487966E+02  0.81728627513E+02  0.34663750676E+03  0.37896774169E+03  0.12508930185E+03 0.  0.
         23    2    1    2    0    0  0.33646487966E+02 -0.81728627513E+02  0.21645956950E+03  0.24848749641E+03  0.84140572453E+02 0.  0.
          5    1    3    3  502    0 -0.69661339274E+02  0.80284617211E+02  0.30850668538E+03  0.32633137954E+03  0.41800000000E+01 0.  1.
         -5    1    3    3    0  502  0.36014851308E+02  0.14440103023E+01  0.38130821381E+02  0.52636362143E+02  0.41800000000E+01 0.  1.
        -11    1    4    4    0    0 -0.14123585325E+02  0.73489120827E+01  0.10528631643E+02  0.19087541893E+02  0.00000000000E+00 0. -1.
         11    1    4    4    0    0  0.47770073291E+02 -0.89077539596E+02  0.20593093786E+03  0.22939995451E+03  0.00000000000E+00 0.  1.
</event>
<event>
 8    1  0.7052796E-009  0.1065334E+03  0.7561462E-02  0.1267128E+00
          1   -1    0    0  501    0  0.00000000000E+00  0.00000000000E+00  0.76383341602E+03  0.76383341602E+03  0.00000000000E+00 0. -1.
         -1   -1    0    0    0  501 -0.00000000000E+00 -0.00000000000E+00 -0.17926766259E+02  0.17926766259E+02  0.00000000000E+00 0.  1.
         25    2    1    2    0    0  0.35142217129E+01  0.11418175552E+02  0.56779318717E+03  0.58153176717E+03  0.12508944140E+03 0.  0.
         23    2    1    2    0    0 -0.35142217129E+01 -0.11418175552E+02  0.17811346260E+03  0.20022841511E+03  0.90687861218E+02 0.  0.
          5    1    3    3  502    0  0.64138568871E+02  0.50889055614E+01  0.28078180916E+03  0.28808948216E+03  0.41800000000E+01 0.  1.
         -5    1    3    3    0  502 -0.60624347158E+02  0.63292699903E+01  0.28701137800E+03  0.29344228501E+03  0.41800000000E+01 0.  1.
        -11    1    4    4    0    0  0.39293045138E+02  0.86222448455E+01  0.53388185125E+02  0.66847474248E+02  0.00000000000E+00 0.  1.
         11    1    4    4    0    0 -0.42807266851E+02 -0.20040420397E+02  0.12472527747E+03  0.13338094086E+03  0.00000000000E+00 0. -1.
</event>
<event>
 8    1  0.7052796E-009  0.9966179E+02  0.7561462E-02  0.1281009E+00
         -2   -1    0    0    0  501 -0.00000000000E+00  0.00000000000E+00  0.15283004315E+02  0.15283004315E+02  0.00000000000E+00 0.  1.
          2   -1    0    0  501    0  0.00000000000E+00 -0.00000000000E+00 -0.11022269376E+04  0.11022269376E+04  0.00000000000E+00 0. -1.
         25    2    1    2    0    0 -0.29262313983E+02 -0.13716727030E+02 -0.87803113045E+03  0.88748571137E+03  0.12509112767E+03 0.  0.
         23    2    1    2    0    0  0.29262313983E+02  0.13716727030E+02 -0.20891280288E+03  0.23002423059E+03  0.90676103979E+02 0.  0.
          5    1    3    3  502    0  0.44181417963E+01  0.51912404239E+02 -0.27285851865E+03  0.27781947608E+03  0.41800000000E+01 0.  1.
         -5    1    3    3    0  502 -0.33680455780E+02 -0.65629131270E+02 -0.60517261181E+03  0.60966623529E+03  0.41800000000E+01 0.  1.
        -11    1    4    4    0    0  0.15838678780E+02 -0.26444897268E+02 -0.20757612901E+02  0.37162815156E+02  0.00000000000E+00 0.  1.
         11    1    4    4    0    0  0.13423635204E+02  0.40161624299E+02 -0.18815518998E+03  0.19286141543E+03  0.00000000000E+00 0. -1.
</event>
<event>
 8    1  0.7052796E-009  0.8154468E+02  0.7561462E-02  0.1324724E+00
         -1   -1    0    0    0  501 -0.00000000000E+00  0.00000000000E+00  0.22679201447E+02  0.22679201447E+02  0.00000000000E+00 0.  1.
          1   -1    0    0  501    0  0.00000000000E+00 -0.00000000000E+00 -0.56344334224E+03  0.56344334224E+03  0.00000000000E+00 0. -1.
         25    2    1    2    0    0 -0.24141288685E+02  0.16563917190E+02 -0.35238870438E+03  0.37507491298E+03  0.12508487596E+03 0.  0.
         23    2    1    2    0    0  0.24141288685E+02 -0.16563917190E+02 -0.18837543641E+03  0.21104763071E+03  0.90546298732E+02 0.  0.
          5    1    3    3  502    0 -0.22111248519E+02  0.61062284080E+02 -0.10395194128E+03  0.12264170720E+03  0.41800000000E+01 0.  1.
         -5    1    3    3    0  502 -0.20300401668E+01 -0.44498366890E+02 -0.24843676310E+03  0.25243320578E+03  0.41800000000E+01 0.  1.
        -11    1    4    4    0    0  0.32483868821E+02 -0.25313983625E+02 -0.19356037009E+03  0.19789294169E+03  0.00000000000E+00 0. -1.
         11    1    4    4    0    0 -0.83425801356E+01  0.87500664352E+01  0.51849336826E+01  0.13154689021E+02  0.00000000000E+00 0.  1.
</event>
<event>
 8    1  0.7052796E-009  0.1868538E+03  0.7561462E-02  0.1161330E+00
          1   -1    0    0  501    0  0.00000000000E+00  0.00000000000E+00  0.48383718888E+03  0.48383718888E+03  0.00000000000E+00 0. -1.
         -1   -1    0    0    0  501 -0.00000000000E+00 -0.00000000000E+00 -0.80559913794E+02  0.80559913794E+02  0.00000000000E+00 0.  1.
         25    2    1    2    0    0  0.12862869731E+02 -0.15814812585E+03  0.14961385600E+03  0.25141299553E+03  0.12509158759E+03 0.  0.
         23    2    1    2    0    0 -0.12862869731E+02  0.15814812585E+03  0.25366341909E+03  0.31298410715E+03  0.91856616607E+02 0.  0.
          5    1    3    3  502    0 -0.98174188091E+01 -0.16645977447E+03  0.15339183013E+03  0.22660927646E+03  0.41800000000E+01 0. -1.
         -5    1    3    3    0  502  0.22680288540E+02  0.83116486139E+01 -0.37779741338E+01  0.24803719066E+02  0.41800000000E+01 0. -1.
        -11    1    4    4    0    0 -0.34636865159E+02  0.15251639083E+02  0.40469155459E+02  0.55408279763E+02  0.00000000000E+00 0.  1.
         11    1    4    4    0    0  0.21773995428E+02  0.14289648677E+03  0.21319426363E+03  0.25757582738E+03  0.00000000000E+00 0. -1.
</event>
<event>
 8    1  0.7052796E-009  0.1041293E+03  0.7561462E-02  0.1271845E+00
         -2   -1    0    0    0  501 -0.00000000000E+00  0.00000000000E+00  0.44930286414E+03  0.44930286414E+03  0.00000000000E+00 0. -1.
          2   -1    0    0  501    0  0.00000000000E+00 -0.00000000000E+00 -0.31649813563E+02  0.31649813563E+02  0.00000000000E+00 0.  1.
         25    2    1    2    0    0 -0.12148922436E+02  0.43525828776E+02  0.19013537942E+03  0.23203668586E+03  0.12508983570E+03 0.  0.
         23    2    1    2    0    0  0.12148922436E+02 -0.43525828776E+02  0.22751767116E+03  0.24891599183E+03  0.90292780525E+02 0.  0.
          5    1    3    3  502    0 -0.12317951769E+02  0.76863059456E+02  0.62102643549E+02  0.99668814483E+02  0.41800000000E+01 0.  1.
         -5    1    3    3    0  502  0.16902933349E+00 -0.33337230680E+02  0.12803273587E+03  0.13236787138E+03  0.41800000000E+01 0.  1.
        -11    1    4    4    0    0  0.40215650787E+02  0.51217133258E+01  0.61537948219E+02  0.73691584231E+02  0.00000000000E+00 0. -1.
         11    1    4    4    0    0 -0.28066728351E+02 -0.48647542102E+02  0.16597972294E+03  0.17522440760E+03  0.00000000000E+00 0.  1.
</event>
<event>
 8    1  0.7052796E-009  0.1021612E+03  0.7561462E-02  0.1275816E+00
         -2   -1    0    0    0  501 -0.00000000000E+00  0.00000000000E+00  0.13165088466E+02  0.13165088466E+02  0.00000000000E+00 0.  1.
          2   -1    0    0  501    0  0.00000000000E+00 -0.00000000000E+00 -0.96382321145E+03  0.96382321145E+03  0.00000000000E+00 0. -1.
         25    2    1    2    0    0 -0.94351807799E+01 -0.39240911663E+02 -0.56203632047E+03  0.57720140944E+03  0.12509104584E+03 0.  0.
         23    2    1    2    0    0  0.94351807799E+01  0.39240911663E+02 -0.38862180252E+03  0.39978689048E+03  0.84698173669E+02 0.  0.
          5    1    3    3  502    0  0.47982717993E+02 -0.22709508410E+02 -0.12209960221E+03  0.13320603687E+03  0.41800000000E+01 0.  1.
         -5    1    3    3    0  502 -0.57417898773E+02 -0.16531403253E+02 -0.43993671825E+03  0.44399537257E+03  0.41800000000E+01 0.  1.
        -11    1    4    4    0    0 -0.22188532145E+02 -0.16115808494E+02 -0.16465442924E+03  0.16692253086E+03  0.00000000000E+00 0. -1.
         11    1    4    4    0    0  0.31623712925E+02  0.55356720157E+02 -0.22396737328E+03  0.23286435962E+03  0.00000000000E+00 0.  1.
</event>
<event>
 8    1  0.7052796E-009  0.1518172E+03  0.7561462E-02  0.1198258E+00
         -2   -1    0    0    0  501 -0.00000000000E+00  0.00000000000E+00  0.51850357818E+02  0.51850357818E+02  0.00000000000E+00 0.  1.
          2   -1    0    0  501    0  0.00000000000E+00 -0.00000000000E+00 -0.56816959085E+03  0.56816959085E+03  0.00000000000E+00 0. -1.
         25    2    1    2    0    0 -0.11868186437E+03 -0.41544021801E+02 -0.19903052553E+03  0.26659490282E+03  0.12509357074E+03 0.  0.
         23    2    1    2    0    0  0.11868186437E+03  0.41544021801E+02 -0.31728870751E+03  0.35342504585E+03  0.91792420412E+02 0.  0.
          5    1    3    3  502    0 -0.13194456119E+03  0.15400804822E+01 -0.15157783129E+03  0.20101007541E+03  0.41800000000E+01 0. -1.
         -5    1    3    3    0  502  0.13262696820E+02 -0.43084102283E+02 -0.47452694234E+02  0.65584827412E+02  0.41800000000E+01 0. -1.
        -11    1    4    4    0    0  0.78088527620E+02  0.21088455464E+02 -0.28848845984E+03  0.29961330505E+03  0.00000000000E+00 0. -1.
         11    1    4    4    0    0  0.40593336751E+02  0.20455566337E+02 -0.28800247667E+02  0.53811740805E+02  0.00000000000E+00 0.  1.
</event>
<event>
 8    1  0.7052796E-009  0.6302926E+02  0.7561462E-02  0.1385542E+00
          1   -1    0    0  501    0  0.00000000000E+00  0.00000000000E+00  0.83931697588E+02  0.83931697588E+02  0.00000000000E+00 0. -1.
         -1   -1    0    0    0  501 -0.00000000000E+00 -0.00000000000E+00 -0.16441613424E+03  0.16441613424E+03  0.00000000000E+00 0.  1.
         25    2    1    2    0    0  0.11705371465E+02  0.30149527817E+02 -0.12017951749E+02  0.12977337754E+03  0.12510271222E+03 0.  0.
         23    2    1    2    0    0 -0.11705371465E+02 -0.30149527817E+02 -0.68466484903E+02  0.11857445429E+03  0.91248188510E+02 0.  0.
          5    1    3    3  502    0 -0.11120259496E+02 -0.15512136386E+02  0.47433944977E+02  0.51300468639E+02  0.41800000000E+01 0. -1.
         -5    1    3    3    0  502  0.22825630962E+02  0.45661664203E+02 -0.59451896726E+02  0.78472908898E+02  0.41800000000E+01 0. -1.
        -11    1    4    4    0    0  0.74635185581E+01 -0.34786622378E+02 -0.85441676350E+02  0.92553191534E+02  0.00000000000E+00 0.  1.
         11    1    4    4    0    0 -0.19168890023E+02  0.46370945604E+01  0.16975191447E+02  0.26021262755E+02  0.00000000000E+00 0. -1.
</event>
<event>
 8    1  0.7052796E-009  0.1651078E+03  0.7561462E-02  0.1183048E+00
         -2   -1    0    0    0  501 -0.00000000000E+00  0.00000000000E+00  0.44950708955E+02  0.44950708955E+02  0.00000000000E+00 0. -1.
          2   -1    0    0  501    0  0.00000000000E+00 -0.00000000000E+00 -0.71689395065E+03  0.71689395065E+03  0.00000000000E+00 0.  1.
         25    2    1    2    0    0 -0.38212244154E+02 -0.13197914124E+03 -0.26406201024E+03  0.32288262627E+03  0.12508307548E+03 0.  0.
         23    2    1    2    0    0  0.38212244154E+02  0.13197914124E+03 -0.40788123146E+03  0.43896203333E+03  0.86266438479E+02 0.  0.
          5    1    3    3  502    0 -0.22389727483E+02  0.19954675620E+02 -0.66899752750E+02  0.73433904253E+02  0.41800000000E+01 0. -1.
         -5    1    3    3    0  502 -0.15822516671E+02 -0.15193381686E+03 -0.19716225749E+03  0.24944872202E+03  0.41800000000E+01 0. -1.
        -11    1    4    4    0    0 -0.27875867322E+01  0.83851197197E+02 -0.31926069151E+03  0.33010026212E+03  0.00000000000E+00 0.  1.
         11    1    4    4    0    0  0.40999830887E+02  0.48127944040E+02 -0.88620539950E+02  0.10886177121E+03  0.00000000000E+00 0. -1.
</event>
<event>
 8    1  0.7052796E-009  0.9319606E+02  0.7561462E-02  0.1295291E+00
          1   -1    0    0  501    0  0.00000000000E+00  0.00000000000E+00  0.31624728776E+03  0.31624728776E+03  0.00000000000E+00 0. -1.
         -1   -1    0    0    0  501 -0.00000000000E+00 -0.00000000000E+00 -0.48808425862E+02  0.48808425862E+02  0.00000000000E+00 0.  1.
         25    2    1    2    0    0 -0.27117787065E+00  0.44060232981E+01  0.64679683903E+02  0.14089325124E+03  0.12509180691E+03 0.  0.
         23    2    1    2    0    0  0.27117787065E+00 -0.44060232981E+01  0.20275917800E+03  0.22416246238E+03  0.95488421812E+02 0.  0.
          5    1    3    3  502    0 -0.43535186665E+02 -0.11163111865E+02  0.80330191434E+02  0.92143038805E+02  0.41800000000E+01 0.  1.
         -5    1    3    3    0  502  0.43264008794E+02  0.15569135163E+02 -0.15650507531E+02  0.48750212437E+02  0.41800000000E+01 0.  1.
        -11    1    4    4    0    0 -0.46904087028E+02  0.43444439019E+01  0.88944514507E+02  0.10064787247E+03  0.00000000000E+00 0.  1.
         11    1    4    4    0    0  0.47175264899E+02 -0.87504672000E+01  0.11381466349E+03  0.12351458991E+03  0.00000000000E+00 0. -1.
</event>
<event>
 8    1  0.7052796E-009  0.8339820E+02  0.7561462E-02  0.1319675E+00
          2   -1    0    0  501    0  0.00000000000E+00  0.00000000000E+00  0.16988592187E+03  0.16988592187E+03  0.00000000000E+00 0. -1.
         -2   -1    0    0    0  501 -0.00000000000E+00 -0.00000000000E+00 -0.73947408082E+02  0.73947408082E+02  0.00000000000E+00 0.  1.
         25    2    1    2    0    0  0.14838543063E+01  0.18770093268E+02  0.29618841489E+02  0.12991640785E+03  0.12508588662E+03 0.  0.
         23    2    1    2    0    0 -0.14838543063E+01 -0.18770093268E+02  0.66319672298E+02  0.11391692210E+03  0.90687639634E+02 0.  0.
          5    1    3    3  502    0  0.48680570970E+01  0.54123145553E+02 -0.28631780071E+02  0.61565120762E+02  0.41800000000E+01 0. -1.
         -5    1    3    3    0  502 -0.33842027907E+01 -0.35353052285E+02  0.58250621560E+02  0.68351287088E+02  0.41800000000E+01 0. -1.
        -11    1    4    4    0    0  0.21140990499E+02  0.21620489508E+02  0.60003672158E+02  0.67192467720E+02  0.00000000000E+00 0. -1.
         11    1    4    4    0    0 -0.22624844805E+02 -0.40390582776E+02  0.63160001404E+01  0.46724454381E+02  0.00000000000E+00 0.  1.
</event>
<event>
 8    1  0.7052796E-009  0.1193453E+03  0.7561462E-02  0.1244181E+00
         -1   -1    0    0    0  501 -0.00000000000E+00  0.00000000000E+00  0.11536860532E+03  0.11536860532E+03  0.00000000000E+00 0.  1.
          1   -1    0    0  501    0  0.00000000000E+00 -0.00000000000E+00 -0.19843437435E+03  0.19843437435E+03  0.00000000000E+00 0. -1.
         25    2    1    2    0    0 -0.73517338300E+02  0.23676257719E+02  0.27223344200E+02  0.14951173588E+03  0.12508910618E+03 0.  0.
         23    2    1    2    0    0  0.73517338300E+02 -0.23676257719E+02 -0.11028911323E+03  0.16429124379E+03  0.94141171003E+02 0.  0.
          5    1    3    3  502    0  0.11558140471E+02 -0.18261015907E+02  0.47567968689E+02  0.52414114113E+02  0.41800000000E+01 0. -1.
         -5    1    3    3    0  502 -0.85075478771E+02  0.41937273626E+02 -0.20344624488E+02  0.97097621767E+02  0.41800000000E+01 0. -1.
        -11    1    4    4    0    0  0.23412918215E+02 -0.56960079765E+02 -0.53859789721E+02  0.81813766415E+02  0.00000000000E+00 0.  1.
         11    1    4    4    0    0  0.50104420085E+02  0.33283822046E+02 -0.56429323514E+02  0.82477477376E+02  0.00000000000E+00 0. -1.
</event>
<event>
 8    1  0.7052796E-009  0.1006485E+03  0.7561462E-02  0.1278938E+00
          2   -1    0    0  501    0  0.00000000000E+00  0.00000000000E+00  0.74006784481E+02  0.74006784481E+02  0.00000000000E+00 0.  1.
         -2   -1    0    0    0  501 -0.00000000000E+00 -0.00000000000E+00 -0.35959100044E+03  0.35959100044E+03  0.00000000000E+00 0. -1.
         25    2    1    2    0    0  0.71840477156E+02 -0.18309866036E+02 -0.25451185516E+02  0.14761723320E+03  0.12508708702E+03 0.  0.
         23    2    1    2    0    0 -0.71840477156E+02  0.18309866036E+02 -0.26013303044E+03  0.28598055172E+03  0.92840600409E+02 0.  0.
          5    1    3    3  502    0  0.40512583420E+02 -0.40537475727E+02 -0.68738365695E+02  0.89593480075E+02  0.41800000000E+01 0. -1.
         -5    1    3    3    0  502  0.31327893737E+02  0.22227609690E+02  0.43287180179E+02  0.58023753122E+02  0.41800000000E+01 0. -1.
        -11    1    4    4    0    0 -0.19846568347E+02 -0.28837842424E+02 -0.32482679965E+02  0.47755962230E+02  0.00000000000E+00 0.  1.
         11    1    4    4    0    0 -0.51993908809E+02  0.47147708461E+02 -0.22765035048E+03  0.23822458949E+03  0.00000000000E+00 0. -1.
</event>
<event>
 8    1  0.7052796E-009  0.8090363E+02  0.7561462E-02  0.1326506E+00
          2   -1    0    0  501    0  0.00000000000E+00  0.00000000000E+00  0.24689664917E+03  0.24689664917E+03  0.00000000000E+00 0.  1.
         -2   -1    0    0    0  501 -0.00000000000E+00 -0.00000000000E+00 -0.66709231209E+02  0.66709231209E+02  0.00000000000E+00 0. -1.
         25    2    1    2    0    0 -0.30073003273E+02  0.33654813778E+02  0.47362048606E+02  0.14116468486E+03  0.12508905862E+03 0.  0.
         23    2    1    2    0    0  0.30073003273E+02 -0.33654813778E+02  0.13282536935E+03  0.17244119552E+03  0.10028137989E+03 0.  0.
          5    1    3    3  502    0 -0.58942018555E+02 -0.10534471928E+02 -0.12432921058E+02  0.61295893632E+02  0.41800000000E+01 0.  1.
         -5    1    3    3    0  502  0.28869015282E+02  0.44189285706E+02  0.59794969664E+02  0.79868791225E+02  0.41800000000E+01 0.  1.
        -11    1    4    4    0    0  0.11295649700E+02 -0.26384789165E+02  0.14572728264E+03  0.14852673062E+03  0.00000000000E+00 0.  1.
         11    1    4    4    0    0  0.18777353573E+02 -0.72700246136E+01 -0.12901913289E+02  0.23914464903E+02  0.00000000000E+00 0. -1.
</event>
<event>
 8    1  0.7052796E-009  0.1223544E+03  0.7561462E-02  0.1239263E+00
          2   -1    0    0  501    0  0.00000000000E+00  0.00000000000E+00  0.35575969732E+03  0.35575969732E+03  0.00000000000E+00 0. -1.
         -2   -1    0    0    0  501 -0.00000000000E+00 -0.00000000000E+00 -0.90567920467E+02  0.90567920467E+02  0.00000000000E+00 0.  1.
         25    2    1    2    0    0 -0.87915530225E+02 -0.26047250738E+02  0.27519812096E+03  0.31589340688E+03  0.12508812495E+03 0.  0.
         23    2    1    2    0    0  0.87915530225E+02  0.26047250738E+02 -0.10006344105E+02  0.13043421091E+03  0.92224490936E+02 0.  0.
          5    1    3    3  502    0 -0.22051048410E+02  0.23301817438E+02  0.41775150346E+01  0.32621273178E+02  0.41800000000E+01 0.  1.
         -5    1    3    3    0  502 -0.65864481815E+02 -0.49349068176E+02  0.27102060593E+03  0.28327213370E+03  0.41800000000E+01 0.  1.
        -11    1    4    4    0    0  0.14360033262E+02 -0.32763946435E+02 -0.46365122818E+00  0.35775714021E+02  0.00000000000E+00 0. -1.
         11    1    4    4    0    0  0.73555496963E+02  0.58811197173E+02 -0.95426928764E+01  0.94658496891E+02  0.00000000000E+00 0.  1.
</event>
<event>
 8    1  0.7052796E-009  0.1294940E+03  0.7561462E-02  0.1228208E+00
          1   -1    0    0  501    0  0.00000000000E+00  0.00000000000E+00  0.52463381264E+03  0.52463381264E+03  0.00000000000E+00 0. -1.
         -1   -1    0    0    0  501 -0.00000000000E+00 -0.00000000000E+00 -0.35650818376E+02  0.35650818376E+02  0.00000000000E+00 0.  1.
         25    2    1    2    0    0  0.75689204907E+02 -0.32904943856E+02  0.26635186999E+03  0.30561890575E+03  0.12509198950E+03 0.  0.
         23    2    1    2    0    0 -0.75689204907E+02  0.32904943856E+02  0.22263112427E+03  0.25466572526E+03  0.92078352823E+02 0.  0.
          5    1    3    3  502    0 -0.30055563214E+01  0.39738184816E+02  0.99998263704E+02  0.10772781370E+03  0.41800000000E+01 0. -1.
         -5    1    3    3    0  502  0.78694761229E+02 -0.72643128672E+02  0.16635360629E+03  0.19789109205E+03  0.41800000000E+01 0. -1.
        -11    1    4    4    0    0  0.15122908355E+02  0.98425270962E+01  0.66376320542E+01  0.19225916260E+02  0.00000000000E+00 0.  1.
         11    1    4    4    0    0 -0.90812113263E+02  0.23062416760E+02  0.21599349221E+03  0.23543980900E+03  0.00000000000E+00 0. -1.
</event>
<event>
 8    1  0.7052796E-009  0.9264710E+02  0.7561462E-02  0.1296565E+00
          2   -1    0    0  501    0  0.00000000000E+00  0.00000000000E+00  0.24425901176E+03  0.24425901176E+03  0.00000000000E+00 0. -1.
         -2   -1    0    0    0  501 -0.00000000000E+00 -0.00000000000E+00 -0.56826897442E+02  0.56826897442E+02  0.00000000000E+00 0.  1.
         25    2    1    2    0    0 -0.11481600978E+02  0.33561691150E+00  0.15971523910E+03  0.20319598786E+03  0.12509081533E+03 0.  0.
         23    2    1    2    0    0  0.11481600978E+02 -0.33561691150E+00  0.27716875218E+02  0.97889921345E+02  0.93178708563E+02 0.  0.
          5    1    3    3  502    0 -0.46477775128E+02 -0.22242386263E+02  0.16921591075E+02  0.54394117072E+02  0.41800000000E+01 0. -1.
         -5    1    3    3    0  502  0.34996174151E+02  0.22578003175E+02  0.14279364802E+03  0.14880187078E+03  0.41800000000E+01 0. -1.
        -11    1    4    4    0    0  0.33958160959E+02 -0.36061915714E+02  0.45526280373E+01  0.49742787244E+02  0.00000000000E+00 0.  1.
         11    1    4    4    0    0 -0.22476559981E+02  0.35726298803E+02  0.23164247181E+02  0.48147134102E+02  0.00000000000E+00 0. -1.
</event>
<event>
 8    1  0.7052796E-009  0.1209975E+03  0.7561462E-02  0.1241461E+00
          2   -1    0    0  501    0  0.00000000000E+00  0.00000000000E+00  0.56498827376E+03  0.56498827376E+03  0.00000000000E+00 0. -1.
         -2   -1    0    0    0  501 -0.00000000000E+00 -0.00000000000E+00 -0.55990356550E+02  0.55990356550E+02  0.00000000000E+00 0.  1.
         25    2    1    2    0    0  0.25869436677E-02 -0.11802178631E+03  0.40143440256E+03  0.43672199109E+03  0.12508947157E+03 0.  0.
         23    2    1    2    0    0 -0.25869436677E-02  0.11802178631E+03  0.10756351466E+03  0.18425663922E+03  0.91931808214E+02 0.  0.
          5    1    3    3  502    0 -0.14949096576E+02 -0.53268105593E+02  0.34500768814E+03  0.34944061561E+03  0.41800000000E+01 0.  1.
         -5    1    3    3    0  502  0.14951683520E+02 -0.64753680715E+02  0.56426714416E+02  0.87281375482E+02  0.41800000000E+01 0.  1.
        -11    1    4    4    0    0 -0.99635534094E+01  0.79979494970E+02  0.12735067015E+02  0.81597634427E+02  0.00000000000E+00 0.  1.
         11    1    4    4    0    0  0.99609664658E+01  0.38042291338E+02  0.94828447640E+02  0.10265900479E+03  0.00000000000E+00 0. -1.
</event>
<event>
 8    1  0.7052796E-009  0.2277903E+03  0.7561462E-02  0.1128205E+00
         -2   -1    0    0    0  501 -0.00000000000E+00  0.00000000000E+00  0.57054279684E+02  0.57054279684E+02  0.00000000000E+00 0. -1.
          2   -1    0    0  501    0  0.00000000000E+00 -0.00000000000E+00 -0.11394458336E+04  0.11394458336E+04  0.00000000000E+00 0.  1.
         25    2    1    2    0    0 -0.19304673668E+03  0.67381690319E+02 -0.30622536074E+03  0.38888151817E+03  0.12509008308E+03 0.  0.
         23    2    1    2    0    0  0.19304673668E+03 -0.67381690319E+02 -0.77616619320E+03  0.80761859513E+03  0.89479053437E+02 0.  0.
          5    1    3    3  502    0 -0.70424961098E+02  0.89219731383E+02 -0.16666510922E+03  0.20177850888E+03  0.41800000000E+01 0. -1.
         -5    1    3    3    0  502 -0.12262177558E+03 -0.21838041064E+02 -0.13956025152E+03  0.18710300930E+03  0.41800000000E+01 0. -1.
        -11    1    4    4    0    0  0.10601046758E+03 -0.74984290318E+02 -0.36887433074E+03  0.39106154875E+03  0.00000000000E+00 0. -1.
         11    1    4    4    0    0  0.87036269098E+02  0.76025999987E+01 -0.40729186246E+03  0.41655704638E+03  0.00000000000E+00 0.  1.
</event>
<event>
 8    1  0.7052796E-009  0.1481439E+03  0.7561462E-02  0.1202772E+00
         -2   -1    0    0    0  501 -0.00000000000E+00  0.00000000000E+00  0.17474054391E+02  0.17474054391E+02  0.00000000000E+00 0.  1.
          2   -1    0    0  501    0  0.00000000000E+00 -0.00000000000E+00 -0.19323493653E+04  0.19323493653E+04  0.00000000000E+00 0. -1.
         25    2    1    2    0    0 -0.62517719222E+02  0.99850239450E+02 -0.14834329747E+04  0.14933510680E+04  0.12508191867E+03 0.  0.
         23    2    1    2    0    0  0.62517719222E+02 -0.99850239450E+02 -0.43144233620E+03  0.45647235167E+03  0.91356350831E+02 0.  0.
          5    1    3    3  502    0 -0.81817387612E+02  0.10745148485E+03 -0.14214141729E+04  0.14278219882E+04  0.41800000000E+01 0.  1.
         -5    1    3    3    0  502  0.19299668390E+02 -0.76012454020E+01 -0.62018801789E+02  0.65529079857E+02  0.41800000000E+01 0.  1.
        -11    1    4    4    0    0  0.70097378308E+02 -0.42111367097E+02 -0.17029817054E+03  0.18891393960E+03  0.00000000000E+00 0.  1.
         11    1    4    4    0    0 -0.75796590855E+01 -0.57738872353E+02 -0.26114416566E+03  0.26755841208E+03  0.00000000000E+00 0. -1.
</event>
<event>
 8    1  0.7052796E-009  0.6637304E+02  0.7561462E-02  0.1372880E+00
         -1   -1    0    0    0  501 -0.00000000000E+00  0.00000000000E+00  0.54273771956E+02  0.54273771956E+02  0.00000000000E+00 0.  1.
          1   -1    0    0  501    0  0.00000000000E+00 -0.00000000000E+00 -0.35646424782E+03  0.35646424782E+03  0.00000000000E+00 0. -1.
         25    2    1    2    0    0  0.24299702698E+02  0.24596418167E+02 -0.53347471548E+02  0.14031836921E+03  0.12509129737E+03 0.  0.
         23    2    1    2    0    0 -0.24299702698E+02 -0.24596418167E+02 -0.24884300431E+03  0.27041965056E+03  0.10004242739E+03 0.  0.
          5    1    3    3  502    0 -0.54347364823E+01  0.70452212105E+01 -0.89566334515E+02  0.90104229540E+02  0.41800000000E+01 0.  1.
         -5    1    3    3    0  502  0.29734439181E+02  0.17551196957E+02  0.36218862967E+02  0.50214139668E+02  0.41800000000E+01 0.  1.
        -11    1    4    4    0    0 -0.32736103250E+01 -0.52830657467E+02 -0.67952818130E+02  0.86135825211E+02  0.00000000000E+00 0.  1.
         11    1    4    4    0    0 -0.21026092373E+02  0.28234239300E+02 -0.18089018618E+03  0.18428382535E+03  0.00000000000E+00 0. -1.
</event>
<event>
 8    1  0.7052796E-009  0.1122689E+03  0.7561462E-02  0.1256425E+00
         -2   -1    0    0    0  501 -0.00000000000E+00  0.00000000000E+00  0.80116095587E+03  0.80116095587E+03  0.00000000000E+00 0.  1.
          2   -1    0    0  501    0  0.00000000000E+00 -0.00000000000E+00 -0.22978053350E+02  0.22978053350E+02  0.00000000000E+00 0. -1.
         25    2    1    2    0    0  0.68793842540E+02  0.21136980574E+02  0.31621005197E+03  0.34758567782E+03  0.12509053419E+03 0.  0.
         23    2    1    2    0    0 -0.68793842540E+02 -0.21136980574E+02  0.46197285055E+03  0.47655333140E+03  0.92221463323E+02 0.  0.
          5    1    3    3  502    0  0.86977682658E+02  0.17168064770E+02  0.31629329812E+03  0.32850994287E+03  0.41800000000E+01 0.  1.
         -5    1    3    3    0  502 -0.18183840117E+02  0.39689158046E+01 -0.83246155103E-01  0.19075734953E+02  0.41800000000E+01 0.  1.
        -11    1    4    4    0    0 -0.84250051222E+02  0.70674555956E+01  0.34869086701E+03  0.35879428758E+03  0.00000000000E+00 0.  1.
         11    1    4    4    0    0  0.15456208682E+02 -0.28204436170E+02  0.11328198354E+03  0.11775904382E+03  0.00000000000E+00 0. -1.
</event>
<event>
 8    1  0.7052796E-009  0.1077231E+03  0.7561462E-02  0.1264845E+00
          1   -1    0    0  501    0  0.00000000000E+00  0.00000000000E+00  0.16362105629E+03  0.16362105629E+03  0.00000000000E+00 0. -1.
         -1   -1    0    0    0  501 -0.00000000000E+00 -0.00000000000E+00 -0.14837428007E+03  0.14837428007E+03  0.00000000000E+00 0.  1.
         25    2    1    2    0    0 -0.26814840431E+02  0.96692806438E+02 -0.47893630144E+02  0.16736058341E+03  0.12508889074E+03 0.  0.
         23    2    1    2    0    0  0.26814840431E+02 -0.96692806438E+02  0.63140406362E+02  0.14463475296E+03  0.82849057712E+02 0.  0.
          5    1    3    3  502    0 -0.19119652847E+02  0.74406055706E+02 -0.90317958757E+02  0.11864496755E+03  0.41800000000E+01 0. -1.
         -5    1    3    3    0  502 -0.76951875839E+01  0.22286750731E+02  0.42424328613E+02  0.48715615858E+02  0.41800000000E+01 0. -1.
        -11    1    4    4    0    0 -0.15563904397E+02 -0.11300282059E+02 -0.12502219142E+02  0.22939855670E+02  0.00000000000E+00 0.  1.
         11    1    4    4    0    0  0.42378744828E+02 -0.85392524378E+02  0.75642625504E+02  0.12169489729E+03  0.00000000000E+00 0. -1.
</event>
<event>
 8    1  0.7052796E-009  0.1466919E+03  0.7561462E-02  0.1204598E+00
         -2   -1    0    0    0  501 -0.00000000000E+00  0.00000000000E+00  0.33793563350E+02  0.33793563350E+02  0.00000000000E+00 0.  1.
          2   -1    0    0  501    0  0.00000000000E+00 -0.00000000000E+00 -0.84959330979E+03  0.84959330979E+03  0.00000000000E+00 0. -1.
         25    2    1    2    0    0  0.10296526471E+03 -0.19648773824E+02 -0.63662359632E+03  0.65720867257E+03  0.12508283595E+03 0.  0.
         23    2    1    2    0    0 -0.10296526471E+03  0.19648773824E+02 -0.17917615011E+03  0.22617820057E+03  0.89802926426E+02 0.  0.
          5    1    3    3  502    0  0.35621517995E+02 -0.68350675958E+02 -0.36727844087E+03  0.37530205565E+03  0.41800000000E+01 0. -1.
         -5    1    3    3    0  502  0.67343746717E+02  0.48701902134E+02 -0.26934515545E+03  0.28190661691E+03  0.41800000000E+01 0. -1.
        -11    1    4    4    0    0 -0.61808034790E+02  0.51887381334E+02 -0.13701948630E+03  0.15901846790E+03  0.00000000000E+00 0.  1.
         11    1    4    4    0    0 -0.41157229922E+02 -0.32238607510E+02 -0.42156663809E+02  0.67159732672E+02  0.00000000000E+00 0. -1.
</event>
<event>
 8    1  0.7052796E-009  0.7512733E+02  0.7561462E-02  0.1343477E+00
          2   -1    0    0  501    0  0.00000000000E+00  0.00000000000E+00  0.37682361521E+03  0.37682361521E+03  0.00000000000E+00 0.  1.
         -2   -1    0    0    0  501 -0.00000000000E+00 -0.00000000000E+00 -0.37984107373E+02  0.37984107373E+02  0.00000000000E+00 0. -1.
         25    2    1    2    0    0  0.20609462553E+02 -0.45324897355E+02  0.19268854915E+03  0.23506781013E+03  0.12509557194E+03 0.  0.
         23    2    1    2    0    0 -0.20609462553E+02  0.45324897355E+02  0.14615095869E+03  0.17973991245E+03  0.92017591454E+02 0.  0.
          5    1    3    3  502    0  0.32464743568E+02  0.16633156103E+02  0.50461687733E+01  0.37061539042E+02  0.41800000000E+01 0. -1.
         -5    1    3    3    0  502 -0.11855281015E+02 -0.61958053458E+02  0.18764238037E+03  0.19800627109E+03  0.41800000000E+01 0. -1.
        -11    1    4    4    0    0 -0.12715223447E+02  0.35536477168E+02  0.15800989031E+03  0.16245505087E+03  0.00000000000E+00 0.  1.
         11    1    4    4    0    0 -0.78942391057E+01  0.97884201871E+01 -0.11858931623E+02  0.17284861586E+02  0.00000000000E+00 0. -1.
</event>
<event>
 8    1  0.7052796E-009  0.8276003E+02  0.7561462E-02  0.1321396E+00
          1   -1    0    0  501    0  0.00000000000E+00  0.00000000000E+00  0.47179593023E+03  0.47179593023E+03  0.00000000000E+00 0. -1.
         -1   -1    0    0    0  501 -0.00000000000E+00 -0.00000000000E+00 -0.37084313874E+02  0.37084313874E+02  0.00000000000E+00 0.  1.
         25    2    1    2    0    0 -0.16832362298E+02 -0.65001095018E+02  0.16761466250E+03  0.21966974849E+03  0.12510656475E+03 0.  0.
         23    2    1    2    0    0  0.16832362298E+02  0.65001095018E+02  0.26709695385E+03  0.28921049561E+03  0.88280559804E+02 0.  0.
          5    1    3    3  502    0 -0.18986134986E+02 -0.26429942442E+02  0.17673692869E+03  0.17975658415E+03  0.41800000000E+01 0. -1.
         -5    1    3    3    0  502  0.21537726878E+01 -0.38571152575E+02 -0.91222661928E+01  0.39913164348E+02  0.41800000000E+01 0. -1.
        -11    1    4    4    0    0 -0.17922372255E+02  0.54764443770E+02  0.23095611073E+03  0.23803588135E+03  0.00000000000E+00 0. -1.
         11    1    4    4    0    0  0.34754734553E+02  0.10236651248E+02  0.36140843125E+02  0.51174614258E+02  0.00000000000E+00 0.  1.
</event>
<event>
 8    1  0.7052796E-009  0.8458955E+02  0.7561462E-02  0.1316509E+00
          2   -1    0    0  501    0  0.00000000000E+00  0.00000000000E+00  0.41937836835E+03  0.41937836835E+03  0.00000000000E+00 0. -1.
         -2   -1    0    0    0  501 -0.00000000000E+00 -0.00000000000E+00 -0.34766449785E+02  0.34766449785E+02  0.00000000000E+00 0.  1.
         25    2    1    2    0    0  0.37160252817E+02  0.24917324447E+02  0.28736775191E+03  0.31658931751E+03  0.12508722426E+03 0.  0.
         23    2    1    2    0    0 -0.37160252817E+02 -0.24917324447E+02  0.97244166649E+02  0.13755550062E+03  0.86390568685E+02 0.  0.
          5    1    3    3  502    0  0.66830746572E+02 -0.13770548039E+02  0.88719431094E+02  0.11200261843E+03  0.41800000000E+01 0.  1.
         -5    1    3    3    0  502 -0.29670493755E+02  0.38687872486E+02  0.19864832082E+03  0.20458669908E+03  0.41800000000E+01 0.  1.
        -11    1    4    4    0    0 -0.96624285187E+01 -0.22247382331E+02 -0.10423397057E+02  0.26399919539E+02  0.00000000000E+00 0.  1.
         11    1    4    4    0    0 -0.27497824299E+02 -0.26699421164E+01  0.10766756371E+03  0.11115558109E+03  0.00000000000E+00 0. -1.
</event>
<event>
 8    1  0.7052796E-009  0.1073035E+03  0.7561462E-02  0.1265646E+00
          1   -1    0    0  501    0  0.00000000000E+00  0.00000000000E+00  0.18811434520E+02  0.18811434520E+02  0.00000000000E+00 0. -1.
         -1   -1    0    0    0  501 -0.00000000000E+00 -0.00000000000E+00 -0.83174706321E+03  0.83174706321E+03  0.00000000000E+00 0.  1.
         25    2    1    2    0    0 -0.41295127770E+02  0.37373913707E+02 -0.54993074306E+03  0.56672151793E+03  0.12508940688E+03 0.  0.
         23    2    1    2    0    0  0.41295127770E+02 -0.37373913707E+02 -0.26300488562E+03  0.28383697980E+03  0.91048142411E+02 0.  0.
          5    1    3    3  502    0 -0.55618863394E+02 -0.32868884411E+02 -0.28182926005E+03  0.28916954499E+03  0.41800000000E+01 0.  1.
         -5    1    3    3    0  502  0.14323735624E+02  0.70242798118E+02 -0.26810148302E+03  0.27755197294E+03  0.41800000000E+01 0.  1.
        -11    1    4    4    0    0  0.56772852221E+01 -0.41782983127E+02 -0.23378302547E+03  0.23755536669E+03  0.00000000000E+00 0.  1.
         11    1    4    4    0    0  0.35617842548E+02  0.44090694198E+01 -0.29221860153E+02  0.46281613107E+02  0.00000000000E+00 0. -1.
</event>
<event>
 8    1  0.7052796E-009  0.1213725E+03  0.7561462E-02  0.1240850E+00
         -2   -1    0    0    0  501 -0.00000000000E+00  0.00000000000E+00  0.28104239139E+02  0.28104239139E+02  0.00000000000E+00 0. -1.
          2   -1    0    0  501    0  0.00000000000E+00 -0.00000000000E+00 -0.90537179204E+03  0.90537179204E+03  0.00000000000E+00 0.  1.
         25    2    1    2    0    0 -0.31070594128E+02 -0.80711358752E+02 -0.71408703042E+03  0.73010092332E+03  0.12508943187E+03 0.  0.
         23    2    1    2    0    0  0.31070594128E+02  0.80711358752E+02 -0.16318052248E+03  0.20337510786E+03  0.85169515256E+02 0.  0.
          5    1    3    3  502    0  0.27376241994E+02 -0.60951754160E+02 -0.56123658372E+03  0.56521549012E+03  0.41800000000E+01 0. -1.
         -5    1    3    3    0  502 -0.58446836122E+02 -0.19759604592E+02 -0.15285044670E+03  0.16488543320E+03  0.41800000000E+01 0. -1.
        -11    1    4    4    0    0  0.52316134179E+02  0.33326889440E+02 -0.12285748603E+03  0.13762856291E+03  0.00000000000E+00 0.  1.
         11    1    4    4    0    0 -0.21245540052E+02  0.47384469312E+02 -0.40323036448E+02  0.65746544947E+02  0.00000000000E+00 0. -1.
</event>
<event>
 8    1  0.7052796E-009  0.1124616E+03  0.7561462E-02  0.1256078E+00
          1   -1    0    0  501    0  0.00000000000E+00  0.00000000000E+00  0.42049026220E+03  0.42049026220E+03  0.00000000000E+00 0. -1.
         -1   -1    0    0    0  501 -0.00000000000E+00 -0.00000000000E+00 -0.50027894795E+02  0.50027894795E+02  0.00000000000E+00 0.  1.
         25    2    1    2    0    0  0.30490373069E+02 -0.69396342057E+02  0.28894551833E+03  0.32385568359E+03  0.12508987204E+03 0.  0.
         23    2    1    2    0    0 -0.30490373069E+02  0.69396342057E+02  0.81516849069E+02  0.14666247341E+03  0.95495388801E+02 0.  0.
          5    1    3    3  502    0 -0.42444472400E+02  0.31526801742E+01  0.72574557641E+02  0.84237826696E+02  0.41800000000E+01 0. -1.
         -5    1    3    3    0  502  0.72934845469E+02 -0.72549022231E+02  0.21637096069E+03  0.23961785689E+03  0.41800000000E+01 0. -1.
        -11    1    4    4    0    0 -0.11163635958E+02  0.55019660429E+01 -0.20951111746E+02  0.24368986059E+02  0.00000000000E+00 0.  1.
         11    1    4    4    0    0 -0.19326737111E+02  0.63894376014E+02  0.10246796082E+03  0.12229348735E+03  0.00000000000E+00 0. -1.
</event>
<event>
 8    1  0.7052796E-009  0.9803207E+02  0.7561462E-02  0.1284489E+00
          1   -1    0    0  501    0  0.00000000000E+00  0.00000000000E+00  0.14176608730E+03  0.14176608730E+03  0.00000000000E+00 0. -1.
         -1   -1    0    0    0  501 -0.00000000000E+00 -0.00000000000E+00 -0.26732760456E+03  0.26732760456E+03  0.00000000000E+00 0.  1.
         25    2    1    2    0    0 -0.27926957408E+02 -0.58958326808E+01  0.10121239659E+03  0.16341786088E+03  0.12508705864E+03 0.  0.
         23    2    1    2    0    0  0.27926957408E+02  0.58958326808E+01 -0.22677391385E+03  0.24567583098E+03  0.90086237204E+02 0.  0.
          5    1    3    3  502    0 -0.70778980766E+02 -0.24923024158E+01  0.96783510733E+02  0.12000165015E+03  0.41800000000E+01 0.  1.
         -5    1    3    3    0  502  0.42852023358E+02 -0.34035302650E+01  0.44288858558E+01  0.43416210729E+02  0.41800000000E+01 0.  1.
        -11    1    4    4    0    0  0.47752535467E+02 -0.17863027048E+02 -0.74408148818E+02  0.90199584197E+02  0.00000000000E+00 0. -1.
         11    1    4    4    0    0 -0.19825578059E+02  0.23758859729E+02 -0.15236576503E+03  0.15547624679E+03  0.00000000000E+00 0.  1.
</event>
<event>
 8    1  0.7052796E-009  0.1027732E+03  0.7561462E-02  0.1274570E+00
          1   -1    0    0  501    0  0.00000000000E+00  0.00000000000E+00  0.89280129683E+02  0.89280129683E+02  0.00000000000E+00 0. -1.
         -1   -1    0    0    0  501 -0.00000000000E+00 -0.00000000000E+00 -0.20938249628E+03  0.20938249628E+03  0.00000000000E+00 0.  1.
         25    2    1    2    0    0 -0.74703737388E+02  0.33370070296E+02 -0.79636106926E+02  0.16936241266E+03  0.12508999690E+03 0.  0.
         23    2    1    2    0    0  0.74703737388E+02 -0.33370070296E+02 -0.40466259669E+02  0.12930021330E+03  0.91579566590E+02 0.  0.
          5    1    3    3  502    0 -0.34787523386E+02  0.40852197291E+02 -0.10730386233E+03  0.12004442960E+03  0.41800000000E+01 0.  1.
         -5    1    3    3    0  502 -0.39916214002E+02 -0.74821269949E+01  0.27667755400E+02  0.49317983064E+02  0.41800000000E+01 0.  1.
        -11    1    4    4    0    0  0.27111939841E+02 -0.52911681368E+02  0.62838838065E+01  0.59784533977E+02  0.00000000000E+00 0.  1.
         11    1    4    4    0    0  0.47591797547E+02  0.19541611071E+02 -0.46750143476E+02  0.69515679325E+02  0.00000000000E+00 0. -1.
</event>
<event>
 8    1  0.7052796E-009  0.7139991E+02  0.7561462E-02  0.1355396E+00
          1   -1    0    0  501    0  0.00000000000E+00  0.00000000000E+00  0.60691638620E+03  0.60691638620E+03  0.00000000000E+00 0. -1.
         -1   -1    0    0    0  501 -0.00000000000E+00 -0.00000000000E+00 -0.39628382520E+02  0.39628382520E+02  0.00000000000E+00 0.  1.
         25    2    1    2    0    0  0.21838574454E+02  0.31340391807E+02  0.52642279121E+03  0.54242700072E+03  0.12508777921E+03 0.  0.
         23    2    1    2    0    0 -0.21838574454E+02 -0.31340391807E+02  0.40865212470E+02  0.10411776800E+03  0.87814580400E+02 0.  0.
          5    1    3    3  502    0  0.30178802437E+02  0.31149255560E+02  0.53046971265E+03  0.53225616452E+03  0.41800000000E+01 0.  1.
         -5    1    3    3    0  502 -0.83402279830E+01  0.19113624742E+00 -0.40469214317E+01  0.10170836197E+02  0.41800000000E+01 0.  1.
        -11    1    4    4    0    0 -0.15012184247E+02 -0.59271817472E+02  0.43803145889E+02  0.75214557182E+02  0.00000000000E+00 0. -1.
         11    1    4    4    0    0 -0.68263902077E+01  0.27931425665E+02 -0.29379334194E+01  0.28903210821E+02  0.00000000000E+00 0.  1.
</event>
<event>
 8    1  0.7052796E-009  0.1104568E+03  0.7561462E-02  0.1259726E+00
          2   -1    0    0  501    0  0.00000000000E+00  0.00000000000E+00  0.20635654161E+03  0.20635654161E+03  0.00000000000E+00 0. -1.
         -2   -1    0    0    0  501 -0.00000000000E+00 -0.00000000000E+00 -0.64527247205E+02  0.64527247205E+02  0.00000000000E+00 0.  1.
         25    2    1    2    0    0  0.16411059712E+02 -0.31998721251E+02  0.99110706533E+02  0.16358317166E+03  0.12507310206E+03 0.  0.
         23    2    1    2    0    0 -0.16411059712E+02  0.31998721251E+02  0.42718587871E+02  0.10730061715E+03  0.91625889620E+02 0.  0.
          5    1    3    3  502    0  0.39198744008E+02 -0.70745024504E+02  0.43417259595E+02  0.91890863826E+02  0.41800000000E+01 0. -1.
         -5    1    3    3    0  502 -0.22787684296E+02  0.38746303253E+02  0.55693446938E+02  0.71692307839E+02  0.41800000000E+01 0. -1.
        -11    1    4    4    0    0 -0.29428531592E+02  0.58372345719E+02  0.15402671158E+02  0.67161086167E+02  0.00000000000E+00 0.  1.
         11    1    4    4    0    0  0.13017471880E+02 -0.26373624468E+02  0.27315916713E+02  0.40139530983E+02  0.00000000000E+00 0. -1.
</event>
<event>
 8    1  0.7052796E-009  0.1328227E+03  0.7561462E-02  0.1223326E+00
          1   -1    0    0  501    0  0.00000000000E+00  0.00000000000E+00  0.20719415896E+03  0.20719415896E+03  0.00000000000E+00 0. -1.
         -1   -1    0    0    0  501 -0.00000000000E+00 -0.00000000000E+00 -0.11105289857E+03  0.11105289857E+03  0.00000000000E+00 0.  1.
         25    2    1    2    0    0  0.10094293237E+03 -0.10894773219E+02  0.18680006063E+02  0.16218368034E+03  0.12508569808E+03 0.  0.
         23    2    1    2    0    0 -0.10094293237E+03  0.10894773219E+02  0.77461254320E+02  0.15606337719E+03  0.89707079430E+02 0.  0.
          5    1    3    3  502    0  0.32485067348E+01 -0.52246363840E+02 -0.69338881911E+01  0.52969675626E+02  0.41800000000E+01 0. -1.
         -5    1    3    3    0  502  0.97694425635E+02  0.41351590621E+02  0.25613894255E+02  0.10921400472E+03  0.41800000000E+01 0. -1.
        -11    1    4    4    0    0 -0.52550864199E+02 -0.11255945248E+02 -0.90431492362E+01  0.54498331897E+02  0.00000000000E+00 0.  1.
         11    1    4    4    0    0 -0.48392068171E+02  0.22150718467E+02  0.86504403556E+02  0.10156504529E+03  0.00000000000E+00 0. -1.
</event>
<event>
 8    1  0.7052796E-009  0.1122248E+03  0.7561462E-02  0.1256505E+00
          4   -1    0    0  501    0  0.00000000000E+00  0.00000000000E+00  0.85921005185E+02  0.85921005185E+02  0.00000000000E+00 0. -1.
         -4   -1    0    0    0  501 -0.00000000000E+00 -0.00000000000E+00 -0.23587912671E+03  0.23587912671E+03  0.00000000000E+00 0.  1.
         25    2    1    2    0    0  0.81942937898E+02  0.29922075761E+01 -0.35406194419E+02  0.15370547056E+03  0.12509266446E+03 0.  0.
         23    2    1    2    0    0 -0.81942937898E+02 -0.29922075761E+01 -0.11455192711E+03  0.16809466133E+03  0.91706448993E+02 0.  0.
          5    1    3    3  502    0  0.10133246788E+03 -0.23290565186E+02 -0.52558305834E+02  0.11657858889E+03  0.41800000000E+01 0. -1.
         -5    1    3    3    0  502 -0.19389529987E+02  0.26282772762E+02  0.17152111415E+02  0.37126881679E+02  0.41800000000E+01 0. -1.
        -11    1    4    4    0    0 -0.39503582848E+02 -0.16666826375E+02 -0.11580676514E+03  0.12348895906E+03  0.00000000000E+00 0.  1.
         11    1    4    4    0    0 -0.42439355050E+02  0.13674618799E+02  0.12548380295E+01  0.44605702268E+02  0.00000000000E+00 0. -1.
</event>
<event>
 8    1  0.7052796E-009  0.1274304E+03  0.7561462E-02  0.1231319E+00
          1   -1    0    0  501    0  0.00000000000E+00  0.00000000000E+00  0.64180291836E+03  0.64180291836E+03  0.00000000000E+00 0. -1.
         -1   -1    0    0    0  501 -0.00000000000E+00 -0.00000000000E+00 -0.32869067665E+02  0.32869067665E+02  0.00000000000E+00 0.  1.
         25    2    1    2    0    0 -0.46428310727E+02  0.83343119352E+02  0.29534684274E+03  0.33463422050E+03  0.12509452599E+03 0.  0.
         23    2    1    2    0    0  0.46428310727E+02 -0.83343119352E+02  0.31358700796E+03  0.34003776552E+03  0.90483185419E+02 0.  0.
          5    1    3    3  502    0  0.39360765397E+02  0.39594578622E+02  0.70714378515E+02  0.90194213992E+02  0.41800000000E+01 0. -1.
         -5    1    3    3    0  502 -0.85789076124E+02  0.43748540730E+02  0.22463246422E+03  0.24444000651E+03  0.41800000000E+01 0. -1.
        -11    1    4    4    0    0  0.18673079620E+01 -0.40905290321E+02  0.32455136450E+02  0.52250028682E+02  0.00000000000E+00 0.  1.
         11    1    4    4    0    0  0.44561002765E+02 -0.42437829031E+02  0.28113187151E+03  0.28778773684E+03  0.00000000000E+00 0. -1.
</event>
<event>
 8    1  0.7052796E-009  0.2608677E+03  0.7561462E-02  0.1106623E+00
         -1   -1    0    0    0  501 -0.00000000000E+00  0.00000000000E+00  0.50777656886E+03  0.50777656886E+03  0.00000000000E+00 0.  1.
          1   -1    0    0  501    0  0.00000000000E+00 -0.00000000000E+00 -0.22192463924E+03  0.22192463924E+03  0.00000000000E+00 0. -1.
         25    2    1    2    0    0  0.23931495523E+03  0.20520496443E+02 -0.80435188190E+02  0.28251003418E+03  0.12509740740E+03 0.  0.
         23    2    1    2    0    0 -0.23931495523E+03 -0.20520496443E+02  0.36628711781E+03  0.44719117392E+03  0.90116340267E+02 0.  0.
          5    1    3    3  502    0  0.22927930234E+03  0.50703382844E+02 -0.85692607127E+02  0.25000105366E+03  0.41800000000E+01 0. -1.
         -5    1    3    3    0  502  0.10035652890E+02 -0.30182886401E+02  0.52574189368E+01  0.32508980518E+02  0.41800000000E+01 0. -1.
        -11    1    4    4    0    0 -0.12414840271E+03  0.32022834870E+02  0.21031882827E+03  0.24631747273E+03  0.00000000000E+00 0.  1.
         11    1    4    4    0    0 -0.11516655252E+03 -0.52543331313E+02  0.15596828954E+03  0.20087370118E+03  0.00000000000E+00 0. -1.
</event>
<event>
 8    1  0.7052796E-009  0.8627214E+02  0.7561462E-02  0.1312139E+00
          1   -1    0    0  501    0  0.00000000000E+00  0.00000000000E+00  0.54207441275E+03  0.54207441275E+03  0.00000000000E+00 0. -1.
         -1   -1    0    0    0  501 -0.00000000000E+00 -0.00000000000E+00 -0.22180092758E+02  0.22180092758E+02  0.00000000000E+00 0.  1.
         25    2    1    2    0    0 -0.21863092058E+01 -0.14271661236E+02  0.28372143849E+03  0.31040915854E+03  0.12509009067E+03 0.  0.
         23    2    1    2    0    0  0.21863092058E+01  0.14271661236E+02  0.23617288150E+03  0.25384534696E+03  0.91931332839E+02 0.  0.
          5    1    3    3  502    0  0.50704955873E+02 -0.46645648865E+01  0.53572730604E+02  0.74028782105E+02  0.41800000000E+01 0.  1.
         -5    1    3    3    0  502 -0.52891265079E+02 -0.96070963490E+01  0.23014870789E+03  0.23638037644E+03  0.41800000000E+01 0.  1.
        -11    1    4    4    0    0  0.34070525185E+02  0.87499605824E+01  0.20796140581E+03  0.21091540674E+03  0.00000000000E+00 0. -1.
         11    1    4    4    0    0 -0.31884215979E+02  0.55217006531E+01  0.28211475693E+02  0.42929940222E+02  0.00000000000E+00 0.  1.
</event>
<event>
 8    1  0.7052796E-009  0.1209887E+03  0.7561462E-02  0.1241475E+00
         -2   -1    0    0    0  501 -0.00000000000E+00  0.00000000000E+00  0.47973828110E+02  0.47973828110E+02  0.00000000000E+00 0.  1.
          2   -1    0    0  501    0  0.00000000000E+00 -0.00000000000E+00 -0.40753261944E+03  0.40753261944E+03  0.00000000000E+00 0. -1.
         25    2    1    2    0    0  0.78418354418E+02  0.13332772758E+01 -0.12626738946E+03  0.19427819059E+03  0.12509734514E+03 0.  0.
         23    2    1    2    0    0 -0.78418354418E+02 -0.13332772758E+01 -0.23329140187E+03  0.26122825696E+03  0.87544891950E+02 0.  0.
          5    1    3    3  502    0  0.26465775050E+02 -0.55769445912E+02 -0.89151160960E+02  0.10851760340E+03  0.41800000000E+01 0.  1.
         -5    1    3    3    0  502  0.51952579368E+02  0.57102723188E+02 -0.37116228497E+02  0.85760587197E+02  0.41800000000E+01 0.  1.
        -11    1    4    4    0    0 -0.80474054980E+02  0.18729528981E+02 -0.11719388809E+03  0.14339203669E+03  0.00000000000E+00 0.  1.
         11    1    4    4    0    0  0.20557005620E+01 -0.20062806257E+02 -0.11609751379E+03  0.11783622027E+03  0.00000000000E+00 0. -1.
</event>
<event>
 8    1  0.7052796E-009  0.1054481E+03  0.7561462E-02  0.1269239E+00
          2   -1    0    0  501    0  0.00000000000E+00  0.00000000000E+00  0.43878191997E+03  0.43878191997E+03  0.00000000000E+00 0.  1.
         -2   -1    0    0    0  501 -0.00000000000E+00 -0.00000000000E+00 -0.34034139251E+02  0.34034139251E+02  0.00000000000E+00 0. -1.
         25    2    1    2    0    0 -0.53163542385E+02  0.14960576359E+02  0.24675996336E+03  0.28211367296E+03  0.12508982321E+03 0.  0.
         23    2    1    2    0    0  0.53163542385E+02 -0.14960576359E+02  0.15798781736E+03  0.19070238626E+03  0.91417003932E+02 0.  0.
          5    1    3    3  502    0 -0.27759154734E+02  0.67863567140E+02  0.10058620949E+03  0.12454353598E+03  0.41800000000E+01 0. -1.
         -5    1    3    3    0  502 -0.25404387651E+02 -0.52902990781E+02  0.14617375387E+03  0.15757013697E+03  0.41800000000E+01 0. -1.
        -11    1    4    4    0    0  0.15585335001E+02 -0.33329234003E+02  0.14072043436E+03  0.14545095789E+03  0.00000000000E+00 0.  1.
         11    1    4    4    0    0  0.37578207384E+02  0.18368657643E+02  0.17267383007E+02  0.45251428372E+02  0.00000000000E+00 0. -1.
</event>
<event>
 8    1  0.7052796E-009  0.2692353E+03  0.7561462E-02  0.1101718E+00
         -1   -1    0    0    0  501 -0.00000000000E+00  0.00000000000E+00  0.20126308454E+03  0.20126308454E+03  0.00000000000E+00 0.  1.
          1   -1    0    0  501    0  0.00000000000E+00 -0.00000000000E+00 -0.39443405894E+03  0.39443405894E+03  0.00000000000E+00 0. -1.
         25    2    1    2    0    0  0.23878017434E+03 -0.84666412163E+02 -0.15867217154E+03  0.32405248971E+03  0.12509510407E+03 0.  0.
         23    2    1    2    0    0 -0.23878017434E+03  0.84666412163E+02 -0.34498802866E+02  0.27164465377E+03  0.91740272054E+02 0.  0.
          5    1    3    3  502    0  0.17193246637E+03 -0.18902762977E+01 -0.70798041060E+02  0.18599511057E+03  0.41800000000E+01 0.  1.
         -5    1    3    3    0  502  0.66847707972E+02 -0.82776135865E+02 -0.87874130476E+02  0.13805737915E+03  0.41800000000E+01 0.  1.
        -11    1    4    4    0    0 -0.75126378312E+02 -0.13013044718E+01  0.22090333479E+02  0.78317615801E+02  0.00000000000E+00 0.  1.
         11    1    4    4    0    0 -0.16365379603E+03  0.85967716635E+02 -0.56589136344E+02  0.19332703797E+03  0.00000000000E+00 0. -1.
</event>
<event>
 8    1  0.7052796E-009  0.1044586E+03  0.7561462E-02  0.1271190E+00
          2   -1    0    0  501    0  0.00000000000E+00  0.00000000000E+00  0.12336465943E+04  0.12336465943E+04  0.00000000000E+00 0.  1.
         -2   -1    0    0    0  501 -0.00000000000E+00 -0.00000000000E+00 -0.10970678089E+02  0.10970678089E+02  0.00000000000E+00 0. -1.
         25    2    1    2    0    0 -0.62689215821E+01  0.18978017914E+02  0.88932818705E+03  0.89830339954E+03  0.12507960990E+03 0.  0.
         23    2    1    2    0    0  0.62689215821E+01 -0.18978017914E+02  0.33334772913E+03  0.34631387282E+03  0.91723091121E+02 0.  0.
          5    1    3    3  502    0  0.21731791693E+02  0.65006537553E+02  0.60508036157E+03  0.60896456141E+03  0.41800000000E+01 0. -1.
         -5    1    3    3    0  502 -0.28000713275E+02 -0.46028519639E+02  0.28424782547E+03  0.28933883813E+03  0.41800000000E+01 0. -1.
        -11    1    4    4    0    0  0.41752801445E+02  0.68623216409E+01  0.95565034423E+02  0.10451346177E+03  0.00000000000E+00 0.  1.
         11    1    4    4    0    0 -0.35483879863E+02 -0.25840339555E+02  0.23778269471E+03  0.24180041105E+03  0.00000000000E+00 0. -1.
</event>
<event>
 8    1  0.7052796E-009  0.7918273E+02  0.7561462E-02  0.1331387E+00
          1   -1    0    0  501    0  0.00000000000E+00  0.00000000000E+00  0.55047709054E+03  0.55047709054E+03  0.00000000000E+00 0. -1.
         -1   -1    0    0    0  501 -0.00000000000E+00 -0.00000000000E+00 -0.30663808230E+02  0.30663808230E+02  0.00000000000E+00 0.  1.
         25    2    1    2    0    0  0.20992936296E+02  0.48827741747E+02  0.39104440976E+03  0.41399040614E+03  0.12508986463E+03 0.  0.
         23    2    1    2    0    0 -0.20992936296E+02 -0.48827741747E+02  0.12876887255E+03  0.16715049263E+03  0.92374308712E+02 0.  0.
          5    1    3    3  502    0 -0.20128930704E+02  0.48750614490E+02  0.58458420673E+02  0.78845771047E+02  0.41800000000E+01 0.  1.
         -5    1    3    3    0  502  0.41121867001E+02  0.77127256779E-01  0.33258598909E+03  0.33514463509E+03  0.41800000000E+01 0.  1.
        -11    1    4    4    0    0 -0.70745487698E+01 -0.49677966768E+02  0.14033323625E+03  0.14903478392E+03  0.00000000000E+00 0. -1.
         11    1    4    4    0    0 -0.13918387527E+02  0.85022502101E+00 -0.11564363704E+02  0.18115708703E+02  0.00000000000E+00 0.  1.
</event>
<event>
 8    1  0.7052796E-009  0.1560425E+03  0.7561462E-02  0.1193239E+00
          1   -1    0    0  501    0  0.00000000000E+00  0.00000000000E+00  0.15521661128E+03  0.15521661128E+03  0.00000000000E+00 0. -1.
         -1   -1    0    0    0  501 -0.00000000000E+00 -0.00000000000E+00 -0.18895493235E+03  0.18895493235E+03  0.00000000000E+00 0.  1.
         25    2    1    2    0    0 -0.12352925179E+03  0.13921202704E+01  0.29795707639E+02  0.17831603425E+03  0.12508960720E+03 0.  0.
         23    2    1    2    0    0  0.12352925179E+03 -0.13921202704E+01 -0.63534028712E+02  0.16585550939E+03  0.90609398754E+02 0.  0.
          5    1    3    3  502    0  0.77874347968E+01  0.37229105608E+02 -0.25351801564E+01  0.38347750697E+02  0.41800000000E+01 0. -1.
         -5    1    3    3    0  502 -0.13131668659E+03 -0.35836985338E+02  0.32330887796E+02  0.13996828355E+03  0.41800000000E+01 0. -1.
        -11    1    4    4    0    0  0.11746456440E+03 -0.19021546090E+02 -0.22941012990E+02  0.12118594466E+03  0.00000000000E+00 0. -1.
         11    1    4    4    0    0  0.60646873940E+01  0.17629425820E+02 -0.40593015723E+02  0.44669564732E+02  0.00000000000E+00 0.  1.
</event>
<event>
 8    1  0.7052796E-009  0.9897385E+02  0.7561462E-02  0.1282469E+00
         -1   -1    0    0    0  501 -0.00000000000E+00  0.00000000000E+00  0.23002705369E+03  0.23002705369E+03  0.00000000000E+00 0.  1.
          1   -1    0    0  501    0  0.00000000000E+00 -0.00000000000E+00 -0.97424402870E+02  0.97424402870E+02  0.00000000000E+00 0. -1.
         25    2    1    2    0    0 -0.87677153755E+02 -0.19116456293E+02  0.12501047743E+03  0.19831318768E+03  0.12509108181E+03 0.  0.
         23    2    1    2    0    0  0.87677153755E+02  0.19116456293E+02  0.75921733918E+01  0.12913826888E+03  0.92554466136E+02 0.  0.
          5    1    3    3  502    0  0.24659705068E+01  0.40184197903E+01  0.10221155741E+03  0.10240558372E+03  0.41800000000E+01 0.  1.
         -5    1    3    3    0  502 -0.90143124262E+02 -0.23134876084E+02  0.22798920015E+02  0.95907603958E+02  0.41800000000E+01 0.  1.
        -11    1    4    4    0    0  0.58076915937E+02  0.31882466566E+02 -0.35624589200E+02  0.75223209150E+02  0.00000000000E+00 0. -1.
         11    1    4    4    0    0  0.29600237818E+02 -0.12766010273E+02  0.43216762592E+02  0.53915059734E+02  0.00000000000E+00 0.  1.
</event>
<event>
 8    1  0.7052796E-009  0.7734368E+02  0.7561462E-02  0.1336763E+00
         -2   -1    0    0    0  501 -0.00000000000E+00  0.00000000000E+00  0.25065712668E+02  0.25065712668E+02  0.00000000000E+00 0.  1.
          2   -1    0    0  501    0  0.00000000000E+00 -0.00000000000E+00 -0.11512543130E+04  0.11512543130E+04  0.00000000000E+00 0. -1.
         25    2    1    2    0    0  0.70640021065E+01  0.17984759642E+02 -0.10539198321E+04  0.10614932805E+04  0.12509044837E+03 0.  0.
         23    2    1    2    0    0 -0.70640021065E+01 -0.17984759642E+02 -0.72268768264E+02  0.11482674524E+03  0.87115181511E+02 0.  0.
          5    1    3    3  502    0  0.20746518904E+02 -0.17333076386E+02 -0.51200197856E+02  0.58049859983E+02  0.41800000000E+01 0.  1.
         -5    1    3    3    0  502 -0.13682516798E+02  0.35317836027E+02 -0.10027196342E+04  0.10034434205E+04  0.41800000000E+01 0.  1.
        -11    1    4    4    0    0 -0.42161328591E+02  0.11151406257E+02 -0.35992197577E+02  0.56545289605E+02  0.00000000000E+00 0. -1.
         11    1    4    4    0    0  0.35097326484E+02 -0.29136165898E+02 -0.36276570687E+02  0.58281455630E+02  0.00000000000E+00 0.  1.
</event>
<event>
 8    1  0.7052796E-009  0.1007405E+03  0.7561462E-02  0.1278746E+00
          4   -1    0    0  501    0  0.00000000000E+00  0.00000000000E+00  0.37270261889E+03  0.37270261889E+03  0.00000000000E+00 0. -1.
         -4   -1    0    0    0  501 -0.00000000000E+00 -0.00000000000E+00 -0.40117717535E+02  0.40117717535E+02  0.00000000000E+00 0.  1.
         25    2    1    2    0    0  0.48558247530E+02 -0.37391482660E+02  0.21674605661E+03  0.25764836200E+03  0.12509116279E+03 0.  0.
         23    2    1    2    0    0 -0.48558247530E+02  0.37391482660E+02  0.11583884474E+03  0.15517197442E+03  0.83088370520E+02 0.  0.
          5    1    3    3  502    0 -0.24343500062E+02 -0.25617236292E+02  0.16138031096E+03  0.16525715100E+03  0.41800000000E+01 0. -1.
         -5    1    3    3    0  502  0.72901747593E+02 -0.11774246368E+02  0.55365745653E+02  0.92391211007E+02  0.41800000000E+01 0. -1.
        -11    1    4    4    0    0 -0.48085471942E+02  0.55718049923E+02  0.55696019653E+02  0.92297130531E+02  0.00000000000E+00 0.  1.
         11    1    4    4    0    0 -0.47277558846E+00 -0.18326567263E+02  0.60142825092E+02  0.62874843892E+02  0.00000000000E+00 0. -1.
</event>
<event>
 8    1  0.7052796E-009  0.1011419E+03  0.7561462E-02  0.1277913E+00
         -1   -1    0    0    0  501 -0.00000000000E+00  0.00000000000E+00  0.30193694709E+02  0.30193694709E+02  0.00000000000E+00 0.  1.
          1   -1    0    0  501    0  0.00000000000E+00 -0.00000000000E+00 -0.67110265231E+03  0.67110265231E+03  0.00000000000E+00 0. -1.
         25    2    1    2    0    0  0.75013002723E+02 -0.31014308403E+02 -0.26694540720E+03  0.30577276042E+03  0.12509313603E+03 0.  0.
         23    2    1    2    0    0 -0.75013002723E+02  0.31014308403E+02 -0.37396355040E+03  0.39552358661E+03  0.10000666293E+03 0.  0.
          5    1    3    3  502    0 -0.61667102152E+01  0.12353654144E+02 -0.17505631447E+03  0.17564972736E+03  0.41800000000E+01 0.  1.
         -5    1    3    3    0  502  0.81179712938E+02 -0.43367962547E+02 -0.91889092731E+02  0.13012303305E+03  0.41800000000E+01 0.  1.
        -11    1    4    4    0    0  0.19503505207E+01  0.17470587235E+02 -0.48604205823E+01  0.18238666994E+02  0.00000000000E+00 0.  1.
         11    1    4    4    0    0 -0.76963353244E+02  0.13543721169E+02 -0.36910312982E+03  0.37728491961E+03  0.00000000000E+00 0. -1.
</event>
<event>
 8    1  0.7052796E-009  0.1037844E+03  0.7561462E-02  0.1272533E+00
          1   -1    0    0  501    0  0.00000000000E+00  0.00000000000E+00  0.38050022918E+02  0.38050022918E+02  0.00000000000E+00 0. -1.
         -1   -1    0    0    0  501 -0.00000000000E+00 -0.00000000000E+00 -0.59577171814E+03  0.59577171814E+03  0.00000000000E+00 0.  1.
         25    2    1    2    0    0 -0.75888887860E+02 -0.32118525288E+02 -0.16649815099E+03  0.22396359409E+03  0.12508930501E+03 0.  0.
         23    2    1    2    0    0  0.75888887860E+02  0.32118525288E+02 -0.39122354423E+03  0.40985814697E+03  0.90205964916E+02 0.  0.
          5    1    3    3  502    0 -0.43516702344E+02  0.67646921911E+01  0.55477152722E+01  0.44583786157E+02  0.41800000000E+01 0. -1.
         -5    1    3    3    0  502 -0.32372185516E+02 -0.38883217479E+02 -0.17204586626E+03  0.17937980794E+03  0.41800000000E+01 0. -1.
        -11    1    4    4    0    0  0.67430721262E+02 -0.11263668190E+02 -0.30936982360E+03  0.31683348962E+03  0.00000000000E+00 0.  1.
         11    1    4    4    0    0  0.84581665977E+01  0.43382193478E+02 -0.81853720637E+02  0.93024657351E+02  0.00000000000E+00 0. -1.
</event>
<event>
 8    1  0.7052796E-009  0.4870324E+03  0.7561462E-02  0.1017220E+00
         -2   -1    0    0    0  501 -0.00000000000E+00  0.00000000000E+00  0.22583440763E+03  0.22583440763E+03  0.00000000000E+00 0.  1.
          2   -1    0    0  501    0  0.00000000000E+00 -0.00000000000E+00 -0.10793542533E+04  0.10793542533E+04  0.00000000000E+00 0. -1.
         25    2    1    2    0    0 -0.47319691338E+03  0.74969083792E+02 -0.48640074050E+03  0.69409522167E+03  0.12508722567E+03 0.  0.
         23    2    1    2    0    0  0.47319691338E+03 -0.74969083792E+02 -0.36711910516E+03  0.61109343926E+03  0.95514772530E+02 0.  0.
          5    1    3    3  502    0 -0.36233103272E+03  0.10878847511E+03 -0.35468979547E+03  0.51859524968E+03  0.41800000000E+01 0. -1.
         -5    1    3    3    0  502 -0.11086588067E+03 -0.33819391320E+02 -0.13171094504E+03  0.17549997199E+03  0.41800000000E+01 0. -1.
        -11    1    4    4    0    0  0.37122901519E+03 -0.48373551796E+02 -0.23467238000E+03  0.44183945972E+03  0.00000000000E+00 0.  1.
         11    1    4    4    0    0  0.10196789820E+03 -0.26595531996E+02 -0.13244672516E+03  0.16925397954E+03  0.00000000000E+00 0. -1.
</event>
<event>
 8    1  0.7052796E-009  0.9890063E+02  0.7561462E-02  0.1282625E+00
          1   -1    0    0  501    0  0.00000000000E+00  0.00000000000E+00  0.15966706483E+02  0.15966706483E+02  0.00000000000E+00 0. -1.
         -1   -1    0    0    0  501 -0.00000000000E+00 -0.00000000000E+00 -0.79033128685E+03  0.79033128685E+03  0.00000000000E+00 0.  1.
         25    2    1    2    0    0  0.12309249319E+02 -0.14012744892E+02 -0.52448275943E+03  0.53951519541E+03  0.12508639616E+03 0.  0.
         23    2    1    2    0    0 -0.12309249319E+02  0.14012744892E+02 -0.24988182094E+03  0.26678279792E+03  0.91565616875E+02 0.  0.
          5    1    3    3  502    0  0.52465453045E+01 -0.62960424228E+02 -0.16693714020E+03  0.17854137458E+03  0.41800000000E+01 0. -1.
         -5    1    3    3    0  502  0.70627040146E+01  0.48947679335E+02 -0.35754561922E+03  0.36097382083E+03  0.41800000000E+01 0. -1.
        -11    1    4    4    0    0  0.22522670803E+02  0.36860486527E+02 -0.18267575288E+03  0.18771360328E+03  0.00000000000E+00 0.  1.
         11    1    4    4    0    0 -0.34831920122E+02 -0.22847741635E+02 -0.67206068063E+02  0.79069194644E+02  0.00000000000E+00 0. -1.
</event>
<event>
 8    1  0.7052796E-009  0.1664593E+03  0.7561462E-02  0.1181591E+00
         -1   -1    0    0    0  501 -0.00000000000E+00  0.00000000000E+00  0.34121297870E+02  0.34121297870E+02  0.00000000000E+00 0. -1.
          1   -1    0    0  501    0  0.00000000000E+00 -0.00000000000E+00 -0.10168484366E+04  0.10168484366E+04  0.00000000000E+00 0.  1.
         25    2    1    2    0    0  0.13122609749E+03 -0.63455742823E+02 -0.41111586753E+03  0.45377172286E+03  0.12508237274E+03 0.  0.
         23    2    1    2    0    0 -0.13122609749E+03  0.63455742823E+02 -0.57161127124E+03  0.59719801165E+03  0.93054283912E+02 0.  0.
          5    1    3    3  502    0  0.13808836686E+02 -0.39451694984E+02 -0.23723141861E+02  0.48242927642E+02  0.41800000000E+01 0.  1.
         -5    1    3    3    0  502  0.11741726080E+03 -0.24004047838E+02 -0.38739272567E+03  0.40552879522E+03  0.41800000000E+01 0.  1.
        -11    1    4    4    0    0 -0.51601972489E+02  0.74479907888E+02 -0.34704686060E+03  0.35868028061E+03  0.00000000000E+00 0.  1.
         11    1    4    4    0    0 -0.79624124999E+02 -0.11024165066E+02 -0.22456441064E+03  0.23851773104E+03  0.00000000000E+00 0. -1.
</event>
<event>
 8    1  0.7052796E-009  0.1117290E+03  0.7561462E-02  0.1257401E+00
          2   -1    0    0  501    0  0.00000000000E+00  0.00000000000E+00  0.55394347447E+02  0.55394347447E+02  0.00000000000E+00 0. -1.
         -2   -1    0    0    0  501 -0.00000000000E+00 -0.00000000000E+00 -0.73922815774E+03  0.73922815774E+03  0.00000000000E+00 0.  1.
         25    2    1    2    0    0 -0.55993775477E+02  0.39672900170E+02 -0.66722442230E+03  0.68230902997E+03  0.12509172937E+03 0.  0.
         23    2    1    2    0    0  0.55993775477E+02 -0.39672900170E+02 -0.16609387993E+02  0.11231347522E+03  0.87345309246E+02 0.  0.
          5    1    3    3  502    0 -0.83118516383E+02  0.40423517842E+02 -0.62586284134E+03  0.63266461663E+03  0.41800000000E+01 0. -1.
         -5    1    3    3    0  502  0.27124740906E+02 -0.75061767168E+00 -0.41361580961E+02  0.49644413338E+02  0.41800000000E+01 0. -1.
        -11    1    4    4    0    0 -0.55976131172E+01  0.18154339033E+02 -0.20230519271E+02  0.27752246906E+02  0.00000000000E+00 0.  1.
         11    1    4    4    0    0  0.61591388594E+02 -0.57827239203E+02  0.36211312780E+01  0.84561228318E+02  0.00000000000E+00 0. -1.
</event>
<event>
 8    1  0.7052796E-009  0.1266475E+03  0.7561462E-02  0.1232517E+00
          2   -1    0    0  501    0  0.00000000000E+00  0.00000000000E+00  0.61051933806E+02  0.61051933806E+02  0.00000000000E+00 0. -1.
         -2   -1    0    0    0  501 -0.00000000000E+00 -0.00000000000E+00 -0.34606656403E+03  0.34606656403E+03  0.00000000000E+00 0.  1.
         25    2    1    2    0    0  0.88182824880E+02 -0.34997188015E+02 -0.12642359968E+03  0.20157457552E+03  0.12509344174E+03 0.  0.
         23    2    1    2    0    0 -0.88182824880E+02  0.34997188015E+02 -0.15859103054E+03  0.20554392231E+03  0.89978748932E+02 0.  0.
          5    1    3    3  502    0  0.83167340417E+02  0.13496203886E+02 -0.12720745852E+03  0.15263736088E+03  0.41800000000E+01 0. -1.
         -5    1    3    3    0  502  0.50154844632E+01 -0.48493391902E+02  0.78385884126E+00  0.48937214645E+02  0.41800000000E+01 0. -1.
        -11    1    4    4    0    0  0.13273096650E+02  0.53017959337E+01 -0.57591276607E+02  0.59338345748E+02  0.00000000000E+00 0.  1.
         11    1    4    4    0    0 -0.10145592153E+03  0.29695392082E+02 -0.10099975393E+03  0.14620557657E+03  0.00000000000E+00 0. -1.
</event>
<event>
 8    1  0.7052796E-009  0.1075442E+03  0.7561462E-02  0.1265186E+00
         -1   -1    0    0    0  501 -0.00000000000E+00  0.00000000000E+00  0.12339577200E+03  0.12339577200E+03  0.00000000000E+00 0.  1.
          1   -1    0    0  501    0  0.00000000000E+00 -0.00000000000E+00 -0.14237914273E+03  0.14237914273E+03  0.00000000000E+00 0. -1.
         25    2    1    2    0    0 -0.59625056057E+02  0.11911401551E+02 -0.55888659168E+02  0.14989534553E+03  0.12509214040E+03 0.  0.
         23    2    1    2    0    0  0.59625056057E+02 -0.11911401551E+02  0.36905288439E+02  0.11587956921E+03  0.91482487111E+02 0.  0.
          5    1    3    3  502    0 -0.97234318980E+01 -0.39435645093E+02 -0.65852430014E+02  0.77483741330E+02  0.41800000000E+01 0.  1.
         -5    1    3    3    0  502 -0.49901624159E+02  0.51347046645E+02  0.99637708461E+01  0.72411604197E+02  0.41800000000E+01 0.  1.
        -11    1    4    4    0    0  0.25980800669E+02 -0.47137206190E+02 -0.15082430994E+01  0.53844154818E+02  0.00000000000E+00 0. -1.
         11    1    4    4    0    0  0.33644255389E+02  0.35225804639E+02  0.38413531539E+02  0.62035414389E+02  0.00000000000E+00 0.  1.
</event>
<event>
 8    1  0.7052796E-009  0.5041796E+02  0.7561462E-02  0.1443100E+00
          1   -1    0    0  501    0  0.00000000000E+00  0.00000000000E+00  0.58702627374E+02  0.58702627374E+02  0.00000000000E+00 0. -1.
         -1   -1    0    0    0  501 -0.00000000000E+00 -0.00000000000E+00 -0.21801156970E+03  0.21801156970E+03  0.00000000000E+00 0.  1.
         25    2    1    2    0    0  0.36217976130E+01  0.28552956469E+02 -0.11505057962E+03  0.17237586328E+03  0.12509361947E+03 0.  0.
         23    2    1    2    0    0 -0.36217976130E+01 -0.28552956469E+02 -0.44258362707E+02  0.10433833379E+03  0.89996091512E+02 0.  0.
          5    1    3    3  502    0 -0.11961581010E+02  0.46223626637E+02  0.66117588590E+01  0.48382753487E+02  0.41800000000E+01 0.  1.
         -5    1    3    3    0  502  0.15583378623E+02 -0.17670670168E+02 -0.12166233848E+03  0.12399310980E+03  0.41800000000E+01 0.  1.
        -11    1    4    4    0    0 -0.30252986931E+01 -0.10799806439E+02  0.27876756191E+02  0.30048324196E+02  0.00000000000E+00 0. -1.
         11    1    4    4    0    0 -0.59649891992E+00 -0.17753150030E+02 -0.72135118898E+02  0.74290009593E+02  0.00000000000E+00 0.  1.
</event>
<event>
 8    1  0.7052796E-009  0.1508937E+03  0.7561462E-02  0.1199379E+00
         -2   -1    0    0    0  501 -0.00000000000E+00  0.00000000000E+00  0.63466929275E+02  0.63466929275E+02  0.00000000000E+00 0.  1.
          2   -1    0    0  501    0  0.00000000000E+00 -0.00000000000E+00 -0.60892870660E+03  0.60892870660E+03  0.00000000000E+00 0. -1.
         25    2    1    2    0    0  0.11874201165E+03 -0.10521145641E+02 -0.94014310108E+02  0.19671495638E+03  0.12509086187E+03 0.  0.
         23    2    1    2    0    0 -0.11874201165E+03  0.10521145641E+02 -0.45144746721E+03  0.47568067949E+03  0.90867669421E+02 0.  0.
          5    1    3    3  502    0  0.28366437271E+02 -0.46421255659E+02  0.86503182799E+01  0.55243896919E+02  0.41800000000E+01 0. -1.
         -5    1    3    3    0  502  0.90375574383E+02  0.35900110018E+02 -0.10266462839E+03  0.14147105947E+03  0.41800000000E+01 0. -1.
        -11    1    4    4    0    0  0.10159464670E+02 -0.15360315154E+02 -0.54992048035E+02  0.57993787177E+02  0.00000000000E+00 0.  1.
         11    1    4    4    0    0 -0.12890147632E+03  0.25881460795E+02 -0.39645541918E+03  0.41768689231E+03  0.00000000000E+00 0. -1.
</event>
<event>
 8    1  0.7052796E-009  0.1471936E+03  0.7561462E-02  0.1203964E+00
         -1   -1    0    0    0  501 -0.00000000000E+00  0.00000000000E+00  0.23062145655E+02  0.23062145655E+02  0.00000000000E+00 0.  1.
          1   -1    0    0  501    0  0.00000000000E+00 -0.00000000000E+00 -0.10440392355E+04  0.10440392355E+04  0.00000000000E+00 0. -1.
         25    2    1    2    0    0 -0.92939425930E+02  0.50091833106E+02 -0.67316103068E+03  0.69277853160E+03  0.12509752992E+03 0.  0.
         23    2    1    2    0    0  0.92939425930E+02 -0.50091833106E+02 -0.34781605921E+03  0.37432284959E+03  0.89412840510E+02 0.  0.
          5    1    3    3  502    0  0.20903259436E+02 -0.14744549156E+02 -0.54046636107E+02  0.59940464290E+02  0.41800000000E+01 0.  1.
         -5    1    3    3    0  502 -0.11384268537E+03  0.64836382262E+02 -0.61911439457E+03  0.63283806731E+03  0.41800000000E+01 0.  1.
        -11    1    4    4    0    0  0.10728088507E+03 -0.27700153093E+02 -0.29651203108E+03  0.31653731432E+03  0.00000000000E+00 0.  1.
         11    1    4    4    0    0 -0.14341459145E+02 -0.22391680014E+02 -0.51304028130E+02  0.57785535271E+02  0.00000000000E+00 0. -1.
</event>
<event>
 8    1  0.7052796E-009  0.1155964E+03  0.7561462E-02  0.1250544E+00
         -1   -1    0    0    0  501 -0.00000000000E+00  0.00000000000E+00  0.90856897297E+02  0.90856897297E+02  0.00000000000E+00 0.  1.
          1   -1    0    0  501    0  0.00000000000E+00 -0.00000000000E+00 -0.27650115244E+03  0.27650115244E+03  0.00000000000E+00 0. -1.
         25    2    1    2    0    0  0.96396968365E+02 -0.11839319944E+02 -0.15860472494E+03  0.22413362307E+03  0.12509147538E+03 0.  0.
         23    2    1    2    0    0 -0.96396968365E+02  0.11839319944E+02 -0.27039530200E+02  0.14322442666E+03  0.10173276361E+03 0.  0.
          5    1    3    3  502    0 -0.13557275588E+01 -0.19965206127E+02 -0.11483418743E+03  0.11663966073E+03  0.41800000000E+01 0. -1.
         -5    1    3    3    0  502  0.97752695924E+02  0.81258861836E+01 -0.43770537513E+02  0.10749396235E+03  0.41800000000E+01 0. -1.
        -11    1    4    4    0    0 -0.62661765579E+02  0.34882623834E+02  0.25991635444E+02  0.76281448754E+02  0.00000000000E+00 0.  1.
         11    1    4    4    0    0 -0.33735202786E+02 -0.23043303891E+02 -0.53031165644E+02  0.66942977905E+02  0.00000000000E+00 0. -1.
</event>
<event>
 8    1  0.7052796E-009  0.8128172E+02  0.7561462E-02  0.1325453E+00
          1   -1    0    0  501    0  0.00000000000E+00  0.00000000000E+00  0.24781126430E+03  0.24781126430E+03  0.00000000000E+00 0.  1.
         -1   -1    0    0    0  501 -0.00000000000E+00 -0.00000000000E+00 -0.59563218081E+02  0.59563218081E+02  0.00000000000E+00 0. -1.
         25    2    1    2    0    0 -0.37248187186E+02 -0.29429539490E+02  0.14423643952E+03  0.19673893601E+03  0.12509409743E+03 0.  0.
         23    2    1    2    0    0  0.37248187186E+02  0.29429539490E+02  0.44011606692E+02  0.11063554637E+03  0.89719994172E+02 0.  0.
          5    1    3    3  502    0  0.21049427550E+02 -0.82184955200E+01  0.13121605893E+03  0.13321316973E+03  0.41800000000E+01 0. -1.
         -5    1    3    3    0  502 -0.58297614736E+02 -0.21211043970E+02  0.13020380596E+02  0.63525766277E+02  0.41800000000E+01 0. -1.
        -11    1    4    4    0    0  0.54291193008E+02  0.19533533645E+02 -0.48968791005E+01  0.57905716469E+02  0.00000000000E+00 0. -1.
         11    1    4    4    0    0 -0.17043005821E+02  0.98960058457E+01  0.48908485793E+02  0.52729829904E+02  0.00000000000E+00 0.  1.
</event>
<event>
 8    1  0.7052796E-009  0.1205381E+03  0.7561462E-02  0.1242212E+00
         -3   -1    0    0    0  501 -0.00000000000E+00  0.00000000000E+00  0.24445338990E+02  0.24445338990E+02  0.00000000000E+00 0.  1.
          3   -1    0    0  501    0  0.00000000000E+00 -0.00000000000E+00 -0.64659222391E+03  0.64659222391E+03  0.00000000000E+00 0. -1.
         25    2    1    2    0    0 -0.40841367808E+02 -0.45801933297E+02 -0.34581063011E+03  0.37282398446E+03  0.12508755764E+03 0.  0.
         23    2    1    2    0    0  0.40841367808E+02  0.45801933297E+02 -0.27633625481E+03  0.29821357844E+03  0.93828451027E+02 0.  0.
          5    1    3    3  502    0  0.18937782184E+02 -0.63800826931E+02 -0.24721301683E+03  0.25604869303E+03  0.41800000000E+01 0. -1.
         -5    1    3    3    0  502 -0.59779149992E+02  0.17998893634E+02 -0.98597613278E+02  0.11677529144E+03  0.41800000000E+01 0. -1.
        -11    1    4    4    0    0 -0.99662338323E+00  0.65550819269E+02 -0.17246021374E+03  0.18450048371E+03  0.00000000000E+00 0.  1.
         11    1    4    4    0    0  0.41837991192E+02 -0.19748885972E+02 -0.10387604107E+03  0.11371309473E+03  0.00000000000E+00 0. -1.
</event>
<event>
 8    1  0.7052796E-009  0.1066852E+03  0.7561462E-02  0.1266835E+00
         -1   -1    0    0    0  501 -0.00000000000E+00  0.00000000000E+00  0.21386813955E+03  0.21386813955E+03  0.00000000000E+00 0.  1.
          1   -1    0    0  501    0  0.00000000000E+00 -0.00000000000E+00 -0.69866695433E+02  0.69866695433E+02  0.00000000000E+00 0. -1.
         25    2    1    2    0    0 -0.23578433438E+02  0.17009466715E+02  0.28448042811E+02  0.13153707529E+03  0.12508975400E+03 0.  0.
         23    2    1    2    0    0  0.23578433438E+02 -0.17009466715E+02  0.11555340131E+03  0.15219775970E+03  0.94690575144E+02 0.  0.
          5    1    3    3  502    0 -0.46713591316E+02 -0.34649175160E+02  0.43580880750E+02  0.72797599684E+02  0.41800000000E+01 0. -1.
         -5    1    3    3    0  502  0.23135157878E+02  0.51658641875E+02 -0.15132837939E+02  0.58739475606E+02  0.41800000000E+01 0. -1.
        -11    1    4    4    0    0  0.25866693101E+02  0.36504284706E+02  0.61984872723E+02  0.76444575088E+02  0.00000000000E+00 0. -1.
         11    1    4    4    0    0 -0.22882596633E+01 -0.53513751421E+02  0.53568528587E+02  0.75753184609E+02  0.00000000000E+00 0.  1.
</event>
<event>
 8    1  0.7052796E-009  0.1461791E+03  0.7561462E-02  0.1205248E+00
          2   -1    0    0  501    0  0.00000000000E+00  0.00000000000E+00  0.78114982125E+03  0.78114982125E+03  0.00000000000E+00 0. -1.
         -2   -1    0    0    0  501 -0.00000000000E+00 -0.00000000000E+00 -0.35138072806E+02  0.35138072806E+02  0.00000000000E+00 0.  1.
         25    2    1    2    0    0  0.11225022294E+03  0.10450296918E+02  0.53027669811E+03  0.55637253118E+03  0.12509074964E+03 0.  0.
         23    2    1    2    0    0 -0.11225022294E+03 -0.10450296918E+02  0.21573505034E+03  0.25991536287E+03  0.91132116496E+02 0.  0.
          5    1    3    3  502    0  0.98579433325E+02 -0.46611322880E+02  0.32480142242E+03  0.34264260754E+03  0.41800000000E+01 0.  1.
         -5    1    3    3    0  502  0.13670789614E+02  0.57061619798E+02  0.20547527568E+03  0.21372992364E+03  0.41800000000E+01 0.  1.
        -11    1    4    4    0    0 -0.21061166778E+02  0.19221981013E+02  0.57755770638E+01  0.29093205230E+02  0.00000000000E+00 0.  1.
         11    1    4    4    0    0 -0.91189056161E+02 -0.29672277931E+02  0.20995947327E+03  0.23082215764E+03  0.00000000000E+00 0. -1.
</event>
<event>
 8    1  0.7052796E-009  0.1309484E+03  0.7561462E-02  0.1226055E+00
          1   -1    0    0  501    0  0.00000000000E+00  0.00000000000E+00  0.26769788698E+03  0.26769788698E+03  0.00000000000E+00 0.  1.
         -1   -1    0    0    0  501 -0.00000000000E+00 -0.00000000000E+00 -0.66421273130E+02  0.66421273130E+02  0.00000000000E+00 0. -1.
         25    2    1    2    0    0 -0.31483036481E+02 -0.69347640046E+02  0.91543385567E+02  0.17271277352E+03  0.12509689816E+03 0.  0.
         23    2    1    2    0    0  0.31483036481E+02  0.69347640046E+02  0.10973322828E+03  0.16140638659E+03  0.90611056037E+02 0.  0.
          5    1    3    3  502    0  0.21203388415E+02  0.26734368000E+02  0.92212718761E+01  0.35592335799E+02  0.41800000000E+01 0. -1.
         -5    1    3    3    0  502 -0.52686424896E+02 -0.96082008046E+02  0.82322113691E+02  0.13712043772E+03  0.41800000000E+01 0. -1.
        -11    1    4    4    0    0 -0.25253704260E+02  0.53170389512E+02  0.62256148073E+02  0.85677697639E+02  0.00000000000E+00 0.  1.
         11    1    4    4    0    0  0.56736740742E+02  0.16177250534E+02  0.47477080208E+02  0.75728688949E+02  0.00000000000E+00 0. -1.
</event>
<event>
 8    1  0.7052796E-009  0.9784081E+02  0.7561462E-02  0.1284903E+00
          3   -1    0    0  501    0  0.00000000000E+00  0.00000000000E+00  0.16954410937E+03  0.16954410937E+03  0.00000000000E+00 0. -1.
         -3   -1    0    0    0  501 -0.00000000000E+00 -0.00000000000E+00 -0.16064819130E+03  0.16064819130E+03  0.00000000000E+00 0.  1.
         25    2    1    2    0    0  0.35047733839E+01  0.75599104158E+02 -0.94364281659E+02  0.17400938613E+03  0.12508853194E+03 0.  0.
         23    2    1    2    0    0 -0.35047733839E+01 -0.75599104158E+02  0.10326019973E+03  0.15618291454E+03  0.89459074227E+02 0.  0.
          5    1    3    3  502    0  0.37840116455E+02  0.12526937840E+02  0.15265080877E+02  0.42886987294E+02  0.41800000000E+01 0. -1.
         -5    1    3    3    0  502 -0.34335343071E+02  0.63072166318E+02 -0.10962936254E+03  0.13112239884E+03  0.41800000000E+01 0. -1.
        -11    1    4    4    0    0 -0.17106866803E+02 -0.19479042436E+02  0.94236233751E+02  0.97737125687E+02  0.00000000000E+00 0. -1.
         11    1    4    4    0    0  0.13602093419E+02 -0.56120061722E+02  0.90239659750E+01  0.58445788855E+02  0.00000000000E+00 0.  1.
</event>
<event>
 8    1  0.7052796E-009  0.1126474E+03  0.7561462E-02  0.1255744E+00
          3   -1    0    0  501    0  0.00000000000E+00  0.00000000000E+00  0.30804163725E+03  0.30804163725E+03  0.00000000000E+00 0. -1.
         -3   -1    0    0    0  501 -0.00000000000E+00 -0.00000000000E+00 -0.90878901942E+02  0.90878901942E+02  0.00000000000E+00 0.  1.
         25    2    1    2    0    0 -0.84660000317E+02  0.12262574106E+02  0.35112157798E+01  0.15158378317E+03  0.12509048048E+03 0.  0.
         23    2    1    2    0    0  0.84660000317E+02 -0.12262574106E+02  0.21365151953E+03  0.24733675602E+03  0.90613534899E+02 0.  0.
          5    1    3    3  502    0  0.84085405976E+01 -0.22123227086E+01 -0.44674030212E+02  0.45703821527E+02  0.41800000000E+01 0. -1.
         -5    1    3    3    0  502 -0.93068540914E+02  0.14474896814E+02  0.48185245992E+02  0.10587996164E+03  0.41800000000E+01 0. -1.
        -11    1    4    4    0    0  0.82823572087E+02  0.23078302400E+02  0.17469278602E+03  0.19470470365E+03  0.00000000000E+00 0. -1.
         11    1    4    4    0    0  0.18364282299E+01 -0.35340876506E+02  0.38958733503E+02  0.52632052373E+02  0.00000000000E+00 0.  1.
</event>
<event>
 8    1  0.7052796E-009  0.8230540E+02  0.7561462E-02  0.1322633E+00
         -1   -1    0    0    0  501 -0.00000000000E+00  0.00000000000E+00  0.34103133489E+02  0.34103133489E+02  0.00000000000E+00 0.  1.
          1   -1    0    0  501    0  0.00000000000E+00 -0.00000000000E+00 -0.38553269968E+03  0.38553269968E+03  0.00000000000E+00 0. -1.
         25    2    1    2    0    0 -0.31837829611E+02 -0.15235960766E+02 -0.21779142474E+03  0.25363025753E+03  0.12509764566E+03 0.  0.
         23    2    1    2    0    0  0.31837829611E+02  0.15235960766E+02 -0.13363814145E+03  0.16600557564E+03  0.91939743299E+02 0.  0.
          5    1    3    3  502    0 -0.12766695164E+02 -0.36799965868E+02 -0.22092610821E+03  0.22437255554E+03  0.41800000000E+01 0.  1.
         -5    1    3    3    0  502 -0.19071134447E+02  0.21564005102E+02  0.31346834670E+01  0.29257701987E+02  0.41800000000E+01 0.  1.
        -11    1    4    4    0    0  0.57686070334E+02 -0.11866546115E+02 -0.97831242221E+02  0.11419040932E+03  0.00000000000E+00 0. -1.
         11    1    4    4    0    0 -0.25848240723E+02  0.27102506881E+02 -0.35806899232E+02  0.51815166315E+02  0.00000000000E+00 0.  1.
</event>
<event>
 8    1  0.7052796E-009  0.1077236E+03  0.7561462E-02  0.1264844E+00
         -1   -1    0    0    0  501 -0.00000000000E+00  0.00000000000E+00  0.15779650152E+02  0.15779650152E+02  0.00000000000E+00 0.  1.
          1   -1    0    0  501    0  0.00000000000E+00 -0.00000000000E+00 -0.10003773345E+04  0.10003773345E+04  0.00000000000E+00 0. -1.
         25    2    1    2    0    0  0.42683308878E+02 -0.42141067633E+02 -0.62980385482E+03  0.64490155196E+03  0.12508949490E+03 0.  0.
         23    2    1    2    0    0 -0.42683308878E+02  0.42141067633E+02 -0.35479382951E+03  0.37125543267E+03  0.91401315059E+02 0.  0.
          5    1    3    3  502    0 -0.77209720722E+01  0.23039737762E+02 -0.39960676397E+03  0.40036668335E+03  0.41800000000E+01 0. -1.
         -5    1    3    3    0  502  0.50404280950E+02 -0.65180805395E+02 -0.23019709085E+03  0.24453486861E+03  0.41800000000E+01 0. -1.
        -11    1    4    4    0    0 -0.56297143553E+02 -0.75188116303E+01 -0.16046189085E+03  0.17021727091E+03  0.00000000000E+00 0.  1.
         11    1    4    4    0    0  0.13613834675E+02  0.49659879263E+02 -0.19433193866E+03  0.20103816176E+03  0.00000000000E+00 0. -1.
</event>
<event>
 8    1  0.7052796E-009  0.1036215E+03  0.7561462E-02  0.1272860E+00
         -3   -1    0    0    0  501 -0.00000000000E+00  0.00000000000E+00  0.70815521648E+02  0.70815521648E+02  0.00000000000E+00 0.  1.
          3   -1    0    0  501    0  0.00000000000E+00 -0.00000000000E+00 -0.18184519357E+03  0.18184519357E+03  0.00000000000E+00 0. -1.
         25    2    1    2    0    0 -0.23468900022E+02 -0.22231125622E+02 -0.51553882576E+02  0.13910505846E+03  0.12508957697E+03 0.  0.
         23    2    1    2    0    0  0.23468900022E+02  0.22231125622E+02 -0.59475789345E+02  0.11355565675E+03  0.91172942521E+02 0.  0.
          5    1    3    3  502    0  0.14169514211E+02  0.44345657532E+02  0.63890408052E-01  0.46741726079E+02  0.41800000000E+01 0.  1.
         -5    1    3    3    0  502 -0.37638414232E+02 -0.66576783154E+02 -0.51617772984E+02  0.92363332383E+02  0.41800000000E+01 0.  1.
        -11    1    4    4    0    0  0.11228130224E+02  0.51222157532E+02 -0.77482384212E+01  0.53007693114E+02  0.00000000000E+00 0.  1.
         11    1    4    4    0    0  0.12240769798E+02 -0.28991031910E+02 -0.51727550924E+02  0.60547963640E+02  0.00000000000E+00 0. -1.
</event>
<event>
 8    1  0.7052796E-009  0.1250379E+03  0.7561462E-02  0.1235010E+00
         -2   -1    0    0    0  501 -0.00000000000E+00  0.00000000000E+00  0.30353218870E+02  0.30353218870E+02  0.00000000000E+00 0. -1.
          2   -1    0    0  501    0  0.00000000000E+00 -0.00000000000E+00 -0.68682724234E+03  0.68682724234E+03  0.00000000000E+00 0.  1.
         25    2    1    2    0    0  0.87195938151E+02  0.23832169590E+02 -0.42454411967E+03  0.45172602552E+03  0.12509032198E+03 0.  0.
         23    2    1    2    0    0 -0.87195938151E+02 -0.23832169590E+02 -0.23192990380E+03  0.26545443569E+03  0.92214278774E+02 0.  0.
          5    1    3    3  502    0 -0.24370954186E+02  0.33901928452E+02 -0.10400687855E+03  0.11215251824E+03  0.41800000000E+01 0.  1.
         -5    1    3    3    0  502  0.11156689234E+03 -0.10069758862E+02 -0.32053724112E+03  0.33957350729E+03  0.41800000000E+01 0.  1.
        -11    1    4    4    0    0 -0.32790871674E+02 -0.25571829299E+02 -0.19074514349E+02  0.45749282142E+02  0.00000000000E+00 0. -1.
         11    1    4    4    0    0 -0.54405066477E+02  0.17396597092E+01 -0.21285538945E+03  0.21970515354E+03  0.00000000000E+00 0.  1.
</event>
<event>
 8    1  0.7052796E-009  0.2345320E+03  0.7561462E-02  0.1123490E+00
          1   -1    0    0  501    0  0.00000000000E+00  0.00000000000E+00  0.73686247708E+03  0.73686247708E+03  0.00000000000E+00 0. -1.
         -1   -1    0    0    0  501 -0.00000000000E+00 -0.00000000000E+00 -0.79578078612E+02  0.79578078612E+02  0.00000000000E+00 0.  1.
         25    2    1    2    0    0  0.10884904548E+03  0.18604847596E+03  0.34297704791E+03  0.42396091852E+03  0.12508978747E+03 0.  0.
         23    2    1    2    0    0 -0.10884904548E+03 -0.18604847596E+03  0.31430735056E+03  0.39247963717E+03  0.93749692664E+02 0.  0.
          5    1    3    3  502    0  0.86052159421E+02  0.32205824256E+02  0.15165279954E+03  0.17736469001E+03  0.41800000000E+01 0. -1.
         -5    1    3    3    0  502  0.22796886061E+02  0.15384265170E+03  0.19132424837E+03  0.24659622850E+03  0.41800000000E+01 0. -1.
        -11    1    4    4    0    0 -0.11037757863E+03 -0.15425200143E+03  0.20795042460E+03  0.28146095449E+03  0.00000000000E+00 0.  1.
         11    1    4    4    0    0  0.15285331532E+01 -0.31796474524E+02  0.10635692596E+03  0.11101868269E+03  0.00000000000E+00 0. -1.
</event>
<event>
 8    1  0.7052796E-009  0.2159400E+03  0.7561462E-02  0.1136947E+00
          1   -1    0    0  501    0  0.00000000000E+00  0.00000000000E+00  0.46829135720E+03  0.46829135720E+03  0.00000000000E+00 0. -1.
         -1   -1    0    0    0  501 -0.00000000000E+00 -0.00000000000E+00 -0.10741992155E+03  0.10741992155E+03  0.00000000000E+00 0.  1.
         25    2    1    2    0    0  0.19475732431E+03 -0.17812846716E+02  0.19344116295E+03  0.30218123449E+03  0.12508517927E+03 0.  0.
         23    2    1    2    0    0 -0.19475732431E+03  0.17812846716E+02  0.16743027270E+03  0.27353004426E+03  0.92401710024E+02 0.  0.
          5    1    3    3  502    0  0.47087182940E+02 -0.45407770777E+02  0.12091528316E+02  0.66653926374E+02  0.41800000000E+01 0. -1.
         -5    1    3    3    0  502  0.14767014137E+03  0.27594924061E+02  0.18134963463E+03  0.23552730812E+03  0.41800000000E+01 0. -1.
        -11    1    4    4    0    0 -0.45232765277E+02 -0.35292834159E+02  0.38714000432E+02  0.69212434050E+02  0.00000000000E+00 0.  1.
         11    1    4    4    0    0 -0.14952455903E+03  0.53105680875E+02  0.12871627226E+03  0.20431761021E+03  0.00000000000E+00 0. -1.
</event>
<event>
 8    1  0.7052796E-009  0.1697027E+03  0.7561462E-02  0.1178158E+00
         -2   -1    0    0    0  501 -0.00000000000E+00  0.00000000000E+00  0.21971613838E+03  0.21971613838E+03  0.00000000000E+00 0.  1.
          2   -1    0    0  501    0  0.00000000000E+00 -0.00000000000E+00 -0.25985135562E+03  0.25985135562E+03  0.00000000000E+00 0. -1.
         25    2    1    2    0    0  0.16089419507E+03  0.22155262864E+02  0.11550367403E+03  0.23530237651E+03  0.12509321323E+03 0.  0.
         23    2    1    2    0    0 -0.16089419507E+03 -0.22155262864E+02 -0.15563889127E+03  0.24426511749E+03  0.95206015907E+02 0.  0.
          5    1    3    3  502    0  0.13623987103E+03 -0.54890619438E+01  0.26714312139E+02  0.13900560827E+03  0.41800000000E+01 0. -1.
         -5    1    3    3    0  502  0.24654324047E+02  0.27644324808E+02  0.88789361893E+02  0.96296768242E+02  0.41800000000E+01 0. -1.
        -11    1    4    4    0    0 -0.25954432561E+02 -0.16299295414E+02  0.83974180186E+01  0.31777605793E+02  0.00000000000E+00 0.  1.
         11    1    4    4    0    0 -0.13493976251E+03 -0.58559674505E+01 -0.16403630929E+03  0.21248751169E+03  0.00000000000E+00 0. -1.
</event>
<event>
 8    1  0.7052796E-009  0.1001584E+03  0.7561462E-02  0.1279963E+00
         -1   -1    0    0    0  501 -0.00000000000E+00  0.00000000000E+00  0.16485281320E+03  0.16485281320E+03  0.00000000000E+00 0.  1.
          1   -1    0    0  501    0  0.00000000000E+00 -0.00000000000E+00 -0.10826584273E+03  0.10826584273E+03  0.00000000000E+00 0. -1.
         25    2    1    2    0    0  0.24010065334E+02 -0.57379326718E+02  0.80003236302E+02  0.16098737838E+03  0.12509015871E+03 0.  0.
         23    2    1    2    0    0 -0.24010065334E+02  0.57379326718E+02 -0.23416265832E+02  0.11213127755E+03  0.90311857066E+02 0.  0.
          5    1    3    3  502    0  0.59489945611E+02 -0.76877300598E+02  0.44547869664E+02  0.10701008395E+03  0.41800000000E+01 0. -1.
         -5    1    3    3    0  502 -0.35479880277E+02  0.19497973880E+02  0.35455366638E+02  0.53977294423E+02  0.41800000000E+01 0. -1.
        -11    1    4    4    0    0 -0.86721659460E+01  0.25692179828E+02 -0.57223346668E+02  0.63323028753E+02  0.00000000000E+00 0. -1.
         11    1    4    4    0    0 -0.15337899388E+02  0.31687146890E+02  0.33807080836E+02  0.48808248794E+02  0.00000000000E+00 0.  1.
</event>
<event>
 8    1  0.7052796E-009  0.1026099E+03  0.7561462E-02  0.1274902E+00
         -1   -1    0    0    0  501 -0.00000000000E+00  0.00000000000E+00  0.31167051467E+02  0.31167051467E+02  0.00000000000E+00 0.  1.
          1   -1    0    0  501    0  0.00000000000E+00 -0.00000000000E+00 -0.42859303739E+03  0.42859303739E+03  0.00000000000E+00 0. -1.
         25    2    1    2    0    0  0.39875298365E+02 -0.69773063900E+01 -0.19745154558E+03  0.23722028514E+03  0.12509048167E+03 0.  0.
         23    2    1    2    0    0 -0.39875298365E+02  0.69773063900E+01 -0.19997444035E+03  0.22253980372E+03  0.88856430402E+02 0.  0.
          5    1    3    3  502    0 -0.25177753189E+02  0.25366028881E+02 -0.13986930467E+03  0.14442385352E+03  0.41800000000E+01 0.  1.
         -5    1    3    3    0  502  0.65053051554E+02 -0.32343335271E+02 -0.57582240907E+02  0.92796431616E+02  0.41800000000E+01 0.  1.
        -11    1    4    4    0    0 -0.36901950511E+02  0.45074299396E+02 -0.10340340081E+03  0.11868323267E+03  0.00000000000E+00 0.  1.
         11    1    4    4    0    0 -0.29733478541E+01 -0.38096993006E+02 -0.96571039531E+02  0.10385657105E+03  0.00000000000E+00 0. -1.
</event>
<event>
 8    1  0.7052796E-009  0.1046833E+03  0.7561462E-02  0.1270745E+00
         -2   -1    0    0    0  501 -0.00000000000E+00  0.00000000000E+00  0.22245398273E+03  0.22245398273E+03  0.00000000000E+00 0.  1.
          2   -1    0    0  501    0  0.00000000000E+00 -0.00000000000E+00 -0.58621577642E+02  0.58621577642E+02  0.00000000000E+00 0. -1.
         25    2    1    2    0    0 -0.20858588768E+02  0.30571755547E+02  0.87857683975E+02  0.15727349998E+03  0.12508504387E+03 0.  0.
         23    2    1    2    0    0  0.20858588768E+02 -0.30571755547E+02  0.75974721109E+02  0.12380206039E+03  0.90471426131E+02 0.  0.
          5    1    3    3  502    0 -0.67764911608E+02  0.37430935908E+02  0.75250199165E+02  0.10804269102E+03  0.41800000000E+01 0.  1.
         -5    1    3    3    0  502  0.46906322840E+02 -0.68591803612E+01  0.12607484809E+02  0.49230808960E+02  0.41800000000E+01 0.  1.
        -11    1    4    4    0    0 -0.23455263769E+02 -0.32280904835E+02  0.51422138613E+01  0.40232431928E+02  0.00000000000E+00 0.  1.
         11    1    4    4    0    0  0.44313852537E+02  0.17091492880E+01  0.70832507247E+02  0.83569628460E+02  0.00000000000E+00 0. -1.
</event>
<event>
 8    1  0.7052796E-009  0.1553478E+03  0.7561462E-02  0.1194051E+00
         -2   -1    0    0    0  501 -0.00000000000E+00  0.00000000000E+00  0.27448608935E+02  0.27448608935E+02  0.00000000000E+00 0.  1.
          2   -1    0    0  501    0  0.00000000000E+00 -0.00000000000E+00 -0.13287782081E+04  0.13287782081E+04  0.00000000000E+00 0. -1.
         25    2    1    2    0    0 -0.14382170073E+03  0.52944153448E+02 -0.80425830517E+03  0.82823152119E+03  0.12509303047E+03 0.  0.
         23    2    1    2    0    0  0.14382170073E+03 -0.52944153448E+02 -0.49707129404E+03  0.52799529589E+03  0.90616754181E+02 0.  0.
          5    1    3    3  502    0 -0.57767227168E+02  0.21232057432E+02 -0.61282895140E+03  0.61592584689E+03  0.41800000000E+01 0.  1.
         -5    1    3    3    0  502 -0.86054473560E+02  0.31712096016E+02 -0.19142935377E+03  0.21230567430E+03  0.41800000000E+01 0.  1.
        -11    1    4    4    0    0  0.57309823989E+02 -0.39614525001E+02 -0.34983386749E+03  0.35670360436E+03  0.00000000000E+00 0.  1.
         11    1    4    4    0    0  0.86511876740E+02 -0.13329628447E+02 -0.14723742654E+03  0.17129169153E+03  0.00000000000E+00 0. -1.
</event>
<event>
 8    1  0.7052796E-009  0.8205441E+02  0.7561462E-02  0.1323320E+00
          1   -1    0    0  501    0  0.00000000000E+00  0.00000000000E+00  0.15369903126E+03  0.15369903126E+03  0.00000000000E+00 0. -1.
         -1   -1    0    0    0  501 -0.00000000000E+00 -0.00000000000E+00 -0.72417605813E+02  0.72417605813E+02  0.00000000000E+00 0.  1.
         25    2    1    2    0    0  0.95223569250E+01 -0.69926211216E+01  0.34951872610E+02  0.13042666447E+03  0.12509959782E+03 0.  0.
         23    2    1    2    0    0 -0.95223569250E+01  0.69926211216E+01  0.46329552834E+02  0.95689972601E+02  0.82888909747E+02 0.  0.
          5    1    3    3  502    0  0.14456337856E+01 -0.64876976266E+02  0.66847080177E+01  0.65370250326E+02  0.41800000000E+01 0. -1.
         -5    1    3    3    0  502  0.80767231394E+01  0.57884355144E+02  0.28267164593E+02  0.65056414144E+02  0.41800000000E+01 0. -1.
        -11    1    4    4    0    0  0.12300661134E+02  0.12954528911E+02  0.64339685408E+02  0.66773656497E+02  0.00000000000E+00 0. -1.
         11    1    4    4    0    0 -0.21823018059E+02 -0.59619077890E+01 -0.18010132574E+02  0.28916316104E+02  0.00000000000E+00 0.  1.
</event>
<event>
 8    1  0.7052796E-009  0.1388701E+03  0.7561462E-02  0.1214857E+00
         -2   -1    0    0    0  501 -0.00000000000E+00  0.00000000000E+00  0.56645979208E+03  0.56645979208E+03  0.00000000000E+00 0.  1.
          2   -1    0    0  501    0  0.00000000000E+00 -0.00000000000E+00 -0.48403807053E+02  0.48403807053E+02  0.00000000000E+00 0. -1.
         25    2    1    2    0    0  0.69891787091E+02  0.73793644409E+02  0.41235600841E+03  0.44273612763E+03  0.12508971650E+03 0.  0.
         23    2    1    2    0    0 -0.69891787091E+02 -0.73793644409E+02  0.10569997661E+03  0.17212747150E+03  0.90138879138E+02 0.  0.
          5    1    3    3  502    0  0.99546081284E+02  0.55414534637E+02  0.22634904628E+03  0.25343945253E+03  0.41800000000E+01 0. -1.
         -5    1    3    3    0  502 -0.29654294193E+02  0.18379109773E+02  0.18600696213E+03  0.18929667509E+03  0.41800000000E+01 0. -1.
        -11    1    4    4    0    0  0.14796558490E+02 -0.29547421686E+02  0.51947420748E+01  0.33451063013E+02  0.00000000000E+00 0. -1.
         11    1    4    4    0    0 -0.84688345581E+02 -0.44246222723E+02  0.10050523454E+03  0.13867640849E+03  0.00000000000E+00 0.  1.
</event>
<event>
 8    1  0.7052796E-009  0.1118221E+03  0.7561462E-02  0.1257232E+00
         -1   -1    0    0    0  501 -0.00000000000E+00  0.00000000000E+00  0.15228727281E+02  0.15228727281E+02  0.00000000000E+00 0.  1.
          1   -1    0    0  501    0  0.00000000000E+00 -0.00000000000E+00 -0.86303196702E+03  0.86303196702E+03  0.00000000000E+00 0. -1.
         25    2    1    2    0    0 -0.24877662947E+02 -0.15703682501E+02 -0.54766572723E+03  0.56253848395E+03  0.12508514455E+03 0.  0.
         23    2    1    2    0    0  0.24877662947E+02  0.15703682501E+02 -0.30013751251E+03  0.31572221035E+03  0.93447760457E+02 0.  0.
          5    1    3    3  502    0 -0.16001700413E+02 -0.70662506375E+02 -0.32040170174E+03  0.32851783377E+03  0.41800000000E+01 0. -1.
         -5    1    3    3    0  502 -0.88759625341E+01  0.54958823874E+02 -0.22726402549E+03  0.23402065018E+03  0.41800000000E+01 0. -1.
        -11    1    4    4    0    0  0.20418315826E+02 -0.37049322435E+02 -0.97472377356E+02  0.10625640810E+03  0.00000000000E+00 0. -1.
         11    1    4    4    0    0  0.44593471211E+01  0.52753004936E+02 -0.20266513515E+03  0.20946580225E+03  0.00000000000E+00 0.  1.
</event>
<event>
 8    1  0.7052796E-009  0.1493181E+03  0.7561462E-02  0.1201313E+00
         -2   -1    0    0    0  501 -0.00000000000E+00  0.00000000000E+00  0.20950025766E+02  0.20950025766E+02  0.00000000000E+00 0.  1.
          2   -1    0    0  501    0  0.00000000000E+00 -0.00000000000E+00 -0.11524639243E+04  0.11524639243E+04  0.00000000000E+00 0. -1.
         25    2    1    2    0    0  0.10470960045E+03 -0.13883591374E+02 -0.71803185197E+03  0.73645963736E+03  0.12508478116E+03 0.  0.
         23    2    1    2    0    0 -0.10470960045E+03  0.13883591374E+02 -0.41348204652E+03  0.43695431266E+03  0.93833970533E+02 0.  0.
          5    1    3    3  502    0  0.12737636349E+03 -0.35226504327E+02 -0.58902905945E+03  0.60368729476E+03  0.41800000000E+01 0.  1.
         -5    1    3    3    0  502 -0.22666763037E+02  0.21342912953E+02 -0.12900279252E+03  0.13277234259E+03  0.41800000000E+01 0.  1.
        -11    1    4    4    0    0 -0.85400652515E+02 -0.27180876573E+02 -0.32980529753E+03  0.34176542508E+03  0.00000000000E+00 0. -1.
         11    1    4    4    0    0 -0.19308947935E+02  0.41064467947E+02 -0.83676748992E+02  0.95188887587E+02  0.00000000000E+00 0.  1.
</event>
<event>
 8    1  0.7052796E-009  0.9821615E+02  0.7561462E-02  0.1284092E+00
         -1   -1    0    0    0  501 -0.00000000000E+00  0.00000000000E+00  0.87208305786E+02  0.87208305786E+02  0.00000000000E+00 0.  1.
          1   -1    0    0  501    0  0.00000000000E+00 -0.00000000000E+00 -0.17751900635E+03  0.17751900635E+03  0.00000000000E+00 0. -1.
         25    2    1    2    0    0 -0.34273873626E+02  0.50065346950E+01  0.45763452758E+01  0.12987941219E+03  0.12509178619E+03 0.  0.
         23    2    1    2    0    0  0.34273873626E+02 -0.50065346950E+01 -0.94887045838E+02  0.13484789994E+03  0.89334432598E+02 0.  0.
          5    1    3    3  502    0  0.37530798494E+02 -0.23093850500E+02 -0.20373563579E+02  0.48728238830E+02  0.41800000000E+01 0. -1.
         -5    1    3    3    0  502 -0.71804672121E+02  0.28100385195E+02  0.24949908855E+02  0.81151173364E+02  0.41800000000E+01 0. -1.
        -11    1    4    4    0    0  0.53216615549E+01 -0.33739864105E+02 -0.86779622373E+02  0.93259859376E+02  0.00000000000E+00 0. -1.
         11    1    4    4    0    0  0.28952212071E+02  0.28733329410E+02 -0.81074234643E+01  0.41588040565E+02  0.00000000000E+00 0.  1.
</event>
<event>
 8    1  0.7052796E-009  0.1894982E+03  0.7561462E-02  0.1158915E+00
         -2   -1    0    0    0  501 -0.00000000000E+00  0.00000000000E+00  0.57338075144E+02  0.57338075144E+02  0.00000000000E+00 0.  1.
          2   -1    0    0  501    0  0.00000000000E+00 -0.00000000000E+00 -0.92055607124E+03  0.92055607124E+03  0.00000000000E+00 0. -1.
         25    2    1    2    0    0 -0.97033531763E+02 -0.13993161753E+03 -0.67802319706E+03  0.71018441417E+03  0.12510028979E+03 0.  0.
         23    2    1    2    0    0  0.97033531763E+02  0.13993161753E+03 -0.18519479903E+03  0.26770973221E+03  0.91515153183E+02 0.  0.
          5    1    3    3  502    0  0.27116756651E+02 -0.12017526089E+02 -0.14713886601E+03  0.15015677712E+03  0.41800000000E+01 0.  1.
         -5    1    3    3    0  502 -0.12415028841E+03 -0.12791409144E+03 -0.53088433105E+03  0.56002763705E+03  0.41800000000E+01 0.  1.
        -11    1    4    4    0    0  0.54808028545E+02  0.89665218894E+02 -0.17073947260E+03  0.20048875025E+03  0.00000000000E+00 0. -1.
         11    1    4    4    0    0  0.42225503217E+02  0.50266398636E+02 -0.14455326429E+02  0.67220981962E+02  0.00000000000E+00 0.  1.
</event>
<event>
 8    1  0.7052796E-009  0.9968243E+02  0.7561462E-02  0.1280965E+00
         -2   -1    0    0    0  501 -0.00000000000E+00  0.00000000000E+00  0.34835366422E+02  0.34835366422E+02  0.00000000000E+00 0.  1.
          2   -1    0    0  501    0  0.00000000000E+00 -0.00000000000E+00 -0.51002383868E+03  0.51002383868E+03  0.00000000000E+00 0. -1.
         25    2    1    2    0    0  0.70217490597E+02 -0.26734229261E+02 -0.31459310067E+03  0.34678488124E+03  0.12508285201E+03 0.  0.
         23    2    1    2    0    0 -0.70217490597E+02  0.26734229261E+02 -0.16059537159E+03  0.19807432386E+03  0.88302601305E+02 0.  0.
          5    1    3    3  502    0  0.53157190689E+02  0.68598431243E+01 -0.30213593277E+03  0.30688163620E+03  0.41800000000E+01 0. -1.
         -5    1    3    3    0  502  0.17060299909E+02 -0.33594072385E+02 -0.12457167904E+02  0.39903245038E+02  0.41800000000E+01 0. -1.
        -11    1    4    4    0    0 -0.43726405239E+02 -0.24423771838E+02 -0.38850382367E+02  0.63386681219E+02  0.00000000000E+00 0.  1.
         11    1    4    4    0    0 -0.26491085359E+02  0.51158001099E+02 -0.12174498922E+03  0.13468764264E+03  0.00000000000E+00 0. -1.
</event>
<event>
 8    1  0.7052796E-009  0.1815388E+03  0.7561462E-02  0.1166322E+00
         -2   -1    0    0    0  501 -0.00000000000E+00  0.00000000000E+00  0.97461075678E+02  0.97461075678E+02  0.00000000000E+00 0.  1.
          2   -1    0    0  501    0  0.00000000000E+00 -0.00000000000E+00 -0.79538038537E+03  0.79538038537E+03  0.00000000000E+00 0. -1.
         25    2    1    2    0    0  0.11228358961E+03 -0.10808542526E+03 -0.31217615257E+02  0.20226883193E+03  0.12509227482E+03 0.  0.
         23    2    1    2    0    0 -0.11228358961E+03  0.10808542526E+03 -0.66670169443E+03  0.69057262911E+03  0.90051890986E+02 0.  0.
          5    1    3    3  502    0  0.38280437241E+02  0.20744932427E+02  0.15599302028E+02  0.46438720057E+02  0.41800000000E+01 0.  1.
         -5    1    3    3    0  502  0.74003152370E+02 -0.12883035769E+03 -0.46816917286E+02  0.15583011188E+03  0.41800000000E+01 0.  1.
        -11    1    4    4    0    0 -0.11787772650E+02 -0.10133307936E+02 -0.19017420926E+02  0.24562121497E+02  0.00000000000E+00 0.  1.
         11    1    4    4    0    0 -0.10049581696E+03  0.11821873320E+03 -0.64768427351E+03  0.66601050762E+03  0.00000000000E+00 0. -1.
</event>
<event>
 8    1  0.7052796E-009  0.9000313E+02  0.7561462E-02  0.1302844E+00
          1   -1    0    0  501    0  0.00000000000E+00  0.00000000000E+00  0.64985290424E+03  0.64985290424E+03  0.00000000000E+00 0. -1.
         -1   -1    0    0    0  501 -0.00000000000E+00 -0.00000000000E+00 -0.18809210795E+02  0.18809210795E+02  0.00000000000E+00 0.  1.
         25    2    1    2    0    0  0.11639951085E+02  0.12221013934E+02  0.43146000895E+03  0.44954410269E+03  0.12508924532E+03 0.  0.
         23    2    1    2    0    0 -0.11639951085E+02 -0.12221013934E+02  0.19958368449E+03  0.21911801234E+03  0.88849392654E+02 0.  0.
          5    1    3    3  502    0  0.63379715923E+02  0.11875780065E+02  0.32173272133E+03  0.32815764339E+03  0.41800000000E+01 0. -1.
         -5    1    3    3    0  502 -0.51739764838E+02  0.34523386893E+00  0.10972728762E+03  0.12138645930E+03  0.41800000000E+01 0. -1.
        -11    1    4    4    0    0  0.14099356036E+02 -0.29349944671E+02  0.17908747717E+03  0.18202344786E+03  0.00000000000E+00 0. -1.
         11    1    4    4    0    0 -0.25739307121E+02  0.17128930737E+02  0.20496207317E+02  0.37094564475E+02  0.00000000000E+00 0.  1.
</event>
<event>
 8    1  0.7052796E-009  0.7738293E+02  0.7561462E-02  0.1336647E+00
         -1   -1    0    0    0  501 -0.00000000000E+00  0.00000000000E+00  0.45674702011E+02  0.45674702011E+02  0.00000000000E+00 0.  1.
          1   -1    0    0  501    0  0.00000000000E+00 -0.00000000000E+00 -0.27701246437E+03  0.27701246437E+03  0.00000000000E+00 0. -1.
         25    2    1    2    0    0 -0.57713859928E+01 -0.61234968794E+01 -0.89923483660E+02  0.15429156540E+03  0.12509535614E+03 0.  0.
         23    2    1    2    0    0  0.57713859928E+01  0.61234968794E+01 -0.14141427870E+03  0.16839560099E+03  0.91039958812E+02 0.  0.
          5    1    3    3  502    0  0.14627060966E+02 -0.43129425181E+02 -0.10060039054E+03  0.11050795992E+03  0.41800000000E+01 0.  1.
         -5    1    3    3    0  502 -0.20398446958E+02  0.37005928302E+02  0.10676906882E+02  0.43783605475E+02  0.41800000000E+01 0.  1.
        -11    1    4    4    0    0  0.17986040550E+00 -0.30008096629E+02 -0.12458226369E+03  0.12814545891E+03  0.00000000000E+00 0. -1.
         11    1    4    4    0    0  0.55915255873E+01  0.36131593508E+02 -0.16832015012E+02  0.40250142077E+02  0.00000000000E+00 0.  1.
</event>
<event>
 8    1  0.7052796E-009  0.1279976E+03  0.7561462E-02  0.1230458E+00
          1   -1    0    0  501    0  0.00000000000E+00  0.00000000000E+00  0.41397121764E+03  0.41397121764E+03  0.00000000000E+00 0. -1.
         -1   -1    0    0    0  501 -0.00000000000E+00 -0.00000000000E+00 -0.92587682511E+02  0.92587682511E+02  0.00000000000E+00 0.  1.
         25    2    1    2    0    0  0.47993527928E+02  0.87615800843E+02 -0.22307034796E+00  0.16008833878E+03  0.12509324191E+03 0.  0.
         23    2    1    2    0    0 -0.47993527928E+02 -0.87615800843E+02  0.32160660548E+03  0.34647056137E+03  0.81431774705E+02 0.  0.
          5    1    3    3  502    0 -0.13852197228E+02  0.67296747299E+02 -0.43847111836E+02  0.81613584540E+02  0.41800000000E+01 0. -1.
         -5    1    3    3    0  502  0.61845725157E+02  0.20319053543E+02  0.43624041488E+02  0.78474754238E+02  0.41800000000E+01 0. -1.
        -11    1    4    4    0    0  0.18396859272E+02 -0.18382646130E+02  0.31119094001E+02  0.40555691602E+02  0.00000000000E+00 0.  1.
         11    1    4    4    0    0 -0.66390387201E+02 -0.69233154713E+02  0.29048751148E+03  0.30591486977E+03  0.00000000000E+00 0. -1.
</event>
<event>
 8    1  0.7052796E-009  0.1336899E+03  0.7561462E-02  0.1222081E+00
         -2   -1    0    0    0  501 -0.00000000000E+00  0.00000000000E+00  0.10885618650E+03  0.10885618650E+03  0.00000000000E+00 0. -1.
          2   -1    0    0  501    0  0.00000000000E+00 -0.00000000000E+00 -0.25213578071E+03  0.25213578071E+03  0.00000000000E+00 0.  1.
         25    2    1    2    0    0 -0.43746866313E+02  0.67516117002E+02  0.27850987281E+02  0.15130350041E+03  0.12507940428E+03 0.  0.
         23    2    1    2    0    0  0.43746866313E+02 -0.67516117002E+02 -0.17113058149E+03  0.20968846680E+03  0.90616570340E+02 0.  0.
          5    1    3    3  502    0 -0.25195925629E+01  0.96130704589E+02  0.30227404324E+02  0.10088919211E+03  0.41800000000E+01 0.  1.
         -5    1    3    3    0  502 -0.41227273750E+02 -0.28614587587E+02 -0.23764170435E+01  0.50414308303E+02  0.41800000000E+01 0.  1.
        -11    1    4    4    0    0 -0.23493019696E+02 -0.43367732434E+02 -0.61535837650E+02  0.78862801790E+02  0.00000000000E+00 0.  1.
         11    1    4    4    0    0  0.67239886009E+02 -0.24148384568E+02 -0.10959474384E+03  0.13082566501E+03  0.00000000000E+00 0. -1.
</event>
<event>
 8    1  0.7052796E-009  0.1060241E+03  0.7561462E-02  0.1268115E+00
          2   -1    0    0  501    0  0.00000000000E+00  0.00000000000E+00  0.39590000554E+03  0.39590000554E+03  0.00000000000E+00 0. -1.
         -2   -1    0    0    0  501 -0.00000000000E+00 -0.00000000000E+00 -0.58131839863E+02  0.58131839863E+02  0.00000000000E+00 0.  1.
         25    2    1    2    0    0 -0.75577960434E+01 -0.80553509595E+02  0.73211512428E+02  0.16599557040E+03  0.12509442694E+03 0.  0.
         23    2    1    2    0    0  0.75577960434E+01  0.80553509595E+02  0.26455665325E+03  0.28803627500E+03  0.80179079257E+02 0.  0.
          5    1    3    3  502    0  0.36220737934E+02 -0.78519600635E+02  0.84044764524E+02  0.12065763293E+03  0.41800000000E+01 0.  1.
         -5    1    3    3    0  502 -0.43778533977E+02 -0.20339089602E+01 -0.10833252097E+02  0.45337937468E+02  0.41800000000E+01 0.  1.
        -11    1    4    4    0    0  0.68778113367E+01  0.26018658040E+02  0.11667099837E+02  0.29332508818E+02  0.00000000000E+00 0.  1.
         11    1    4    4    0    0  0.67998470668E+00  0.54534851555E+02  0.25288955341E+03  0.25870376618E+03  0.00000000000E+00 0. -1.
</event>
<event>
 8    1  0.7052796E-009  0.1186600E+03  0.7561462E-02  0.1245324E+00
          2   -1    0    0  501    0  0.00000000000E+00  0.00000000000E+00  0.17109827470E+03  0.17109827470E+03  0.00000000000E+00 0. -1.
         -2   -1    0    0    0  501 -0.00000000000E+00 -0.00000000000E+00 -0.12819675358E+03  0.12819675358E+03  0.00000000000E+00 0.  1.
         25    2    1    2    0    0  0.82365556151E+02  0.14616552498E+02 -0.32440596150E+02  0.15394638298E+03  0.12509743445E+03 0.  0.
         23    2    1    2    0    0 -0.82365556151E+02 -0.14616552498E+02  0.75342117267E+02  0.14534864530E+03  0.91935116300E+02 0.  0.
          5    1    3    3  502    0  0.10534480172E+03  0.11691650267E+02 -0.56588059036E+02  0.12022438505E+03  0.41800000000E+01 0. -1.
         -5    1    3    3    0  502 -0.22979245572E+02  0.29249022308E+01  0.24147462886E+02  0.33721997923E+02  0.41800000000E+01 0. -1.
        -11    1    4    4    0    0 -0.69633277864E+02 -0.39282259167E+02  0.18456697921E+02  0.82052050367E+02  0.00000000000E+00 0.  1.
         11    1    4    4    0    0 -0.12732278287E+02  0.24665706669E+02  0.56885419346E+02  0.63296594932E+02  0.00000000000E+00 0. -1.
</event>
<event>
 8    1  0.7052796E-009  0.8755069E+02  0.7561462E-02  0.1308894E+00
          2   -1    0    0  501    0  0.00000000000E+00  0.00000000000E+00  0.23649609936E+03  0.23649609936E+03  0.00000000000E+00 0. -1.
         -2   -1    0    0    0  501 -0.00000000000E+00 -0.00000000000E+00 -0.13060431867E+03  0.13060431867E+03  0.00000000000E+00 0.  1.
         25    2    1    2    0    0 -0.77562583609E+01  0.10405589182E+02  0.19964801845E+03  0.23595345628E+03  0.12508503680E+03 0.  0.
         23    2    1    2    0    0  0.77562583609E+01 -0.10405589182E+02 -0.93756237760E+02  0.13114696175E+03  0.90779169560E+02 0.  0.
          5    1    3    3  502    0  0.36181956691E+02  0.17394096429E+02  0.10649707922E+02  0.41744188331E+02  0.41800000000E+01 0.  1.
         -5    1    3    3    0  502 -0.43938215052E+02 -0.69885072469E+01  0.18899831053E+03  0.19420926795E+03  0.41800000000E+01 0.  1.
        -11    1    4    4    0    0  0.23498420196E+02  0.34908956346E+02 -0.56279389553E+02  0.70272189900E+02  0.00000000000E+00 0. -1.
         11    1    4    4    0    0 -0.15742161835E+02 -0.45314545528E+02 -0.37476848208E+02  0.60874771845E+02  0.00000000000E+00 0.  1.
</event>
<event>
 8    1  0.7052796E-009  0.1726949E+03  0.7561462E-02  0.1175066E+00
         -3   -1    0    0    0  501 -0.00000000000E+00  0.00000000000E+00  0.26889180510E+03  0.26889180510E+03  0.00000000000E+00 0.  1.
          3   -1    0    0  501    0  0.00000000000E+00 -0.00000000000E+00 -0.14090975408E+03  0.14090975408E+03  0.00000000000E+00 0. -1.
         25    2    1    2    0    0  0.10501928806E+03  0.12212042237E+03  0.60022348812E+02  0.21258437406E+03  0.12508791034E+03 0.  0.
         23    2    1    2    0    0 -0.10501928806E+03 -0.12212042237E+03  0.67959702208E+02  0.19721718512E+03  0.91288819447E+02 0.  0.
          5    1    3    3  502    0  0.66282048671E+02  0.12060658593E+02  0.67672318616E+02  0.95581298215E+02  0.41800000000E+01 0.  1.
         -5    1    3    3    0  502  0.38737239388E+02  0.11005976378E+03 -0.76499698043E+01  0.11700307584E+03  0.41800000000E+01 0.  1.
        -11    1    4    4    0    0 -0.62769060098E+02 -0.76550682834E+02  0.87451160586E+02  0.13208961895E+03  0.00000000000E+00 0.  1.
         11    1    4    4    0    0 -0.42250227960E+02 -0.45569739540E+02 -0.19491458378E+02  0.65127566162E+02  0.00000000000E+00 0. -1.
</event>
<event>
 8    1  0.7052796E-009  0.1549036E+03  0.7561462E-02  0.1194574E+00
          2   -1    0    0  501    0  0.00000000000E+00  0.00000000000E+00  0.12860809941E+04  0.12860809941E+04  0.00000000000E+00 0. -1.
         -2   -1    0    0    0  501 -0.00000000000E+00 -0.00000000000E+00 -0.25725050481E+02  0.25725050481E+02  0.00000000000E+00 0.  1.
         25    2    1    2    0    0 -0.14083985872E+02  0.11323792164E+03  0.98762351109E+03  0.10020313664E+04  0.12508186932E+03 0.  0.
         23    2    1    2    0    0  0.14083985872E+02 -0.11323792164E+03  0.27273243250E+03  0.30977467815E+03  0.92499653696E+02 0.  0.
          5    1    3    3  502    0  0.21684640923E+02  0.12823686413E+03  0.77858288061E+03  0.78938184128E+03  0.41800000000E+01 0.  1.
         -5    1    3    3    0  502 -0.35768626795E+02 -0.14998942493E+02  0.20904063048E+03  0.21264952511E+03  0.41800000000E+01 0.  1.
        -11    1    4    4    0    0 -0.21632084280E+02 -0.10042318284E+03  0.23398309641E+03  0.25554031410E+03  0.00000000000E+00 0. -1.
         11    1    4    4    0    0  0.35716070152E+02 -0.12814738799E+02  0.38749336084E+02  0.54234364055E+02  0.00000000000E+00 0.  1.
</event>
<event>
 8    1  0.7052796E-009  0.9358742E+02  0.7561462E-02  0.1294390E+00
         -2   -1    0    0    0  501 -0.00000000000E+00  0.00000000000E+00  0.40099796098E+02  0.40099796098E+02  0.00000000000E+00 0. -1.
          2   -1    0    0  501    0  0.00000000000E+00 -0.00000000000E+00 -0.32359615873E+03  0.32359615873E+03  0.00000000000E+00 0.  1.
         25    2    1    2    0    0  0.86518855797E+01  0.11731763481E+02 -0.11036573583E+03  0.16745456924E+03  0.12509175719E+03 0.  0.
         23    2    1    2    0    0 -0.86518855797E+01 -0.11731763481E+02 -0.17313062680E+03  0.19624138558E+03  0.91235837701E+02 0.  0.
          5    1    3    3  502    0  0.58402739785E+02 -0.17432694397E+02 -0.28971347387E+02  0.67613535758E+02  0.41800000000E+01 0. -1.
         -5    1    3    3    0  502 -0.49750854205E+02  0.29164457877E+02 -0.81394388444E+02  0.99841033486E+02  0.41800000000E+01 0. -1.
        -11    1    4    4    0    0 -0.91087792206E+01  0.27530101143E+02 -0.14517210684E+03  0.14803991669E+03  0.00000000000E+00 0.  1.
         11    1    4    4    0    0  0.45689364085E+00 -0.39261864624E+02 -0.27958519959E+02  0.48201468897E+02  0.00000000000E+00 0. -1.
</event>
<event>
 8    1  0.7052796E-009  0.1006580E+03  0.7561462E-02  0.1278918E+00
         -1   -1    0    0    0  501 -0.00000000000E+00  0.00000000000E+00  0.23673430047E+03  0.23673430047E+03  0.00000000000E+00 0.  1.
          1   -1    0    0  501    0  0.00000000000E+00 -0.00000000000E+00 -0.95818330441E+02  0.95818330441E+02  0.00000000000E+00 0. -1.
         25    2    1    2    0    0 -0.90019507471E+02  0.41193333857E+02  0.11375028411E+03  0.19592851225E+03  0.12509377401E+03 0.  0.
         23    2    1    2    0    0  0.90019507471E+02 -0.41193333857E+02  0.27165685914E+02  0.13662411866E+03  0.90154161466E+02 0.  0.
          5    1    3    3  502    0 -0.17841648262E+02  0.19668092129E+02 -0.25822290058E+02  0.37274942314E+02  0.41800000000E+01 0. -1.
         -5    1    3    3    0  502 -0.72177859209E+02  0.21525241728E+02  0.13957257417E+03  0.15865356993E+03  0.41800000000E+01 0. -1.
        -11    1    4    4    0    0  0.41905694264E+02 -0.18817743520E+02  0.58977498630E+02  0.74756538360E+02  0.00000000000E+00 0.  1.
         11    1    4    4    0    0  0.48113813207E+02 -0.22375590337E+02 -0.31811812716E+02  0.61867580303E+02  0.00000000000E+00 0. -1.
</event>
<event>
 8    1  0.7052796E-009  0.8746565E+02  0.7561462E-02  0.1309108E+00
          1   -1    0    0  501    0  0.00000000000E+00  0.00000000000E+00  0.62962767078E+03  0.62962767078E+03  0.00000000000E+00 0. -1.
         -1   -1    0    0    0  501 -0.00000000000E+00 -0.00000000000E+00 -0.22593214186E+02  0.22593214186E+02  0.00000000000E+00 0.  1.
         25    2    1    2    0    0  0.19294540277E+02 -0.36458605573E+02  0.40358988274E+03  0.42453923057E+03  0.12508899087E+03 0.  0.
         23    2    1    2    0    0 -0.19294540277E+02  0.36458605573E+02  0.20344457386E+03  0.22768165440E+03  0.93529310456E+02 0.  0.
          5    1    3    3  502    0 -0.26305542029E+01 -0.53054163297E+02  0.38992747397E+03  0.39355123100E+03  0.41800000000E+01 0. -1.
         -5    1    3    3    0  502  0.21925094479E+02  0.16595557724E+02  0.13662408764E+02  0.30987999570E+02  0.41800000000E+01 0. -1.
        -11    1    4    4    0    0 -0.51951146057E+02  0.12790126926E+02  0.68969254078E+02  0.87288412355E+02  0.00000000000E+00 0.  1.
         11    1    4    4    0    0  0.32656605780E+02  0.23668478647E+02  0.13447531978E+03  0.14039324205E+03  0.00000000000E+00 0. -1.
</event>
<event>
 8    1  0.7052796E-009  0.1885030E+03  0.7561462E-02  0.1159818E+00
         -4   -1    0    0    0  501 -0.00000000000E+00  0.00000000000E+00  0.53772455605E+03  0.53772455605E+03  0.00000000000E+00 0.  1.
          4   -1    0    0  501    0  0.00000000000E+00 -0.00000000000E+00 -0.75842540405E+02  0.75842540405E+02  0.00000000000E+00 0. -1.
         25    2    1    2    0    0 -0.12348399564E+03  0.11154380929E+03  0.28368860121E+03  0.35187743693E+03  0.12509272398E+03 0.  0.
         23    2    1    2    0    0  0.12348399564E+03 -0.11154380929E+03  0.17819341443E+03  0.26168965953E+03  0.95069797437E+02 0.  0.
          5    1    3    3  502    0 -0.17288166190E+01 -0.23333585466E+02  0.53830791197E+02  0.58844468716E+02  0.41800000000E+01 0.  1.
         -5    1    3    3    0  502 -0.12175517902E+03  0.13487739476E+03  0.22985781002E+03  0.29303296822E+03  0.41800000000E+01 0.  1.
        -11    1    4    4    0    0  0.37532931720E+02 -0.61441626349E+02  0.19848285332E+02  0.74684327958E+02  0.00000000000E+00 0. -1.
         11    1    4    4    0    0  0.85951063921E+02 -0.50102182941E+02  0.15834512910E+03  0.18700533157E+03  0.00000000000E+00 0.  1.
</event>
<event>
 8    1  0.7052796E-009  0.1955178E+03  0.7561462E-02  0.1153577E+00
         -2   -1    0    0    0  501 -0.00000000000E+00  0.00000000000E+00  0.10909333498E+03  0.10909333498E+03  0.00000000000E+00 0.  1.
          2   -1    0    0  501    0  0.00000000000E+00 -0.00000000000E+00 -0.45331449889E+03  0.45331449889E+03  0.00000000000E+00 0. -1.
         25    2    1    2    0    0 -0.19150815181E+03 -0.13631993013E+02 -0.21361684190E+03  0.31327481691E+03  0.12509097619E+03 0.  0.
         23    2    1    2    0    0  0.19150815181E+03  0.13631993013E+02 -0.13060432201E+03  0.24913301696E+03  0.90269417695E+02 0.  0.
          5    1    3    3  502    0 -0.33089489773E+02  0.39959503495E+01  0.13139075084E+02  0.36069234074E+02  0.41800000000E+01 0. -1.
         -5    1    3    3    0  502 -0.15841866204E+03 -0.17627943362E+02 -0.22675591699E+03  0.27720558284E+03  0.41800000000E+01 0. -1.
        -11    1    4    4    0    0  0.76498983612E+02 -0.18252341081E+02 -0.96934986214E+01  0.79241443476E+02  0.00000000000E+00 0. -1.
         11    1    4    4    0    0  0.11500916820E+03  0.31884334094E+02 -0.12091082339E+03  0.16989157349E+03  0.00000000000E+00 0.  1.
</event>
<event>
 8    1  0.7052796E-009  0.7916553E+02  0.7561462E-02  0.1331436E+00
          2   -1    0    0  501    0  0.00000000000E+00  0.00000000000E+00  0.16026298167E+03  0.16026298167E+03  0.00000000000E+00 0. -1.
         -2   -1    0    0    0  501 -0.00000000000E+00 -0.00000000000E+00 -0.83651080619E+02  0.83651080619E+02  0.00000000000E+00 0.  1.
         25    2    1    2    0    0 -0.18651272019E+02  0.60048391806E+01  0.95095827518E+01  0.12697459732E+03  0.12509271825E+03 0.  0.
         23    2    1    2    0    0  0.18651272019E+02 -0.60048391806E+01  0.67102318300E+02  0.11693946497E+03  0.93745342841E+02 0.  0.
          5    1    3    3  502    0  0.29032833364E+02  0.35079767480E+02 -0.33228336713E+02  0.56525129459E+02  0.41800000000E+01 0. -1.
         -5    1    3    3    0  502 -0.47684105383E+02 -0.29074928300E+02  0.42737919465E+02  0.70449467862E+02  0.41800000000E+01 0. -1.
        -11    1    4    4    0    0 -0.54899715767E+01  0.20221120171E+02 -0.16099165953E+02  0.26423789154E+02  0.00000000000E+00 0.  1.
         11    1    4    4    0    0  0.24141243596E+02 -0.26225959351E+02  0.83201484253E+02  0.90515675815E+02  0.00000000000E+00 0. -1.
</event>
<event>
 8    1  0.7052796E-009  0.1345154E+03  0.7561462E-02  0.1220905E+00
          4   -1    0    0  501    0  0.00000000000E+00  0.00000000000E+00  0.84846268342E+02  0.84846268342E+02  0.00000000000E+00 0.  1.
         -4   -1    0    0    0  501 -0.00000000000E+00 -0.00000000000E+00 -0.25370645678E+03  0.25370645678E+03  0.00000000000E+00 0. -1.
         25    2    1    2    0    0  0.43452896757E+02  0.82686945699E+02 -0.55113355805E+02  0.16555917690E+03  0.12508826420E+03 0.  0.
         23    2    1    2    0    0 -0.43452896757E+02 -0.82686945699E+02 -0.11374683264E+03  0.17299354823E+03  0.90901818287E+02 0.  0.
          5    1    3    3  502    0 -0.28817103120E+02 -0.14649294236E+02 -0.23557137304E+02  0.40217388923E+02  0.41800000000E+01 0.  1.
         -5    1    3    3    0  502  0.72269999878E+02  0.97336239934E+02 -0.31556218501E+02  0.12534178798E+03  0.41800000000E+01 0.  1.
        -11    1    4    4    0    0  0.17825301678E+02 -0.11552583909E+02  0.47932081864E+01  0.21775638214E+02  0.00000000000E+00 0.  1.
         11    1    4    4    0    0 -0.61278198435E+02 -0.71134361789E+02 -0.11854004082E+03  0.15121791001E+03  0.00000000000E+00 0. -1.
</event>
<event>
 8    1  0.7052796E-009  0.1035458E+03  0.7561462E-02  0.1273012E+00
         -1   -1    0    0    0  501 -0.00000000000E+00  0.00000000000E+00  0.72474440967E+02  0.72474440967E+02  0.00000000000E+00 0.  1.
          1   -1    0    0  501    0  0.00000000000E+00 -0.00000000000E+00 -0.22904732775E+03  0.22904732775E+03  0.00000000000E+00 0. -1.
         25    2    1    2    0    0 -0.27969566803E+02  0.17483330105E+02 -0.15719906381E+03  0.20358415946E+03  0.12508797233E+03 0.  0.
         23    2    1    2    0    0  0.27969566803E+02 -0.17483330105E+02  0.62617702881E+00  0.97937609256E+02  0.92213988691E+02 0.  0.
          5    1    3    3  502    0 -0.46394763720E+02 -0.44557769181E+02 -0.75599561288E+02  0.99351069254E+02  0.41800000000E+01 0.  1.
         -5    1    3    3    0  502  0.18425196917E+02  0.62041099286E+02 -0.81599502522E+02  0.10423309021E+03  0.41800000000E+01 0.  1.
        -11    1    4    4    0    0 -0.16907670860E+02  0.14818147230E+02  0.28269402114E+02  0.36119328857E+02  0.00000000000E+00 0.  1.
         11    1    4    4    0    0  0.44877237663E+02 -0.32301477335E+02 -0.27643225085E+02  0.61818280398E+02  0.00000000000E+00 0. -1.
</event>
<event>
 8    1  0.7052796E-009  0.1132476E+03  0.7561462E-02  0.1254671E+00
         -1   -1    0    0    0  501 -0.00000000000E+00  0.00000000000E+00  0.28497405350E+02  0.28497405350E+02  0.00000000000E+00 0.  1.
          1   -1    0    0  501    0  0.00000000000E+00 -0.00000000000E+00 -0.83559996378E+03  0.83559996378E+03  0.00000000000E+00 0. -1.
         25    2    1    2    0    0  0.72405098479E+02 -0.67617127642E+02 -0.57927676737E+03  0.60085243434E+03  0.12508996920E+03 0.  0.
         23    2    1    2    0    0 -0.72405098479E+02  0.67617127642E+02 -0.22782579106E+03  0.26324493480E+03  0.87055903809E+02 0.  0.
          5    1    3    3  502    0  0.59253555823E+02 -0.55101428870E+02 -0.14440733027E+03  0.16558411994E+03  0.41800000000E+01 0. -1.
         -5    1    3    3    0  502  0.13151542656E+02 -0.12515698772E+02 -0.43486943710E+03  0.43526831439E+03  0.41800000000E+01 0. -1.
        -11    1    4    4    0    0 -0.71092760445E+01 -0.17892781348E+02 -0.67292717334E+02  0.69992879898E+02  0.00000000000E+00 0. -1.
         11    1    4    4    0    0 -0.65295822434E+02  0.85509908990E+02 -0.16053307373E+03  0.19325205490E+03  0.00000000000E+00 0.  1.
</event>
<event>
 8    1  0.7052796E-009  0.1113166E+03  0.7561462E-02  0.1258151E+00
          1   -1    0    0  501    0  0.00000000000E+00  0.00000000000E+00  0.21392647028E+03  0.21392647028E+03  0.00000000000E+00 0. -1.
         -1   -1    0    0    0  501 -0.00000000000E+00 -0.00000000000E+00 -0.60370513790E+02  0.60370513790E+02  0.00000000000E+00 0.  1.
         25    2    1    2    0    0 -0.34204090856E+01  0.33432964689E+02  0.11190786057E+03  0.17117187824E+03  0.12508789037E+03 0.  0.
         23    2    1    2    0    0  0.34204090856E+01 -0.33432964689E+02  0.41648095922E+02  0.10312510583E+03  0.88151921318E+02 0.  0.
          5    1    3    3  502    0 -0.57098653043E+02  0.46041433170E+02  0.72915287070E+02  0.10350932922E+03  0.41800000000E+01 0.  1.
         -5    1    3    3    0  502  0.53678243957E+02 -0.12608468481E+02  0.38992573502E+02  0.67662549021E+02  0.41800000000E+01 0.  1.
        -11    1    4    4    0    0  0.82548217472E+01  0.29559325751E+02  0.18531247795E+02  0.35851122239E+02  0.00000000000E+00 0.  1.
         11    1    4    4    0    0 -0.48344126616E+01 -0.62992290440E+02  0.23116848126E+02  0.67273983590E+02  0.00000000000E+00 0. -1.
</event>
<event>
 8    1  0.7052796E-009  0.1086192E+03  0.7561462E-02  0.1263149E+00
         -1   -1    0    0    0  501 -0.00000000000E+00  0.00000000000E+00  0.14910336907E+02  0.14910336907E+02  0.00000000000E+00 0.  1.
          1   -1    0    0  501    0  0.00000000000E+00 -0.00000000000E+00 -0.10385069302E+04  0.10385069302E+04  0.00000000000E+00 0. -1.
         25    2    1    2    0    0  0.50145717924E+02 -0.37647570860E+02 -0.56840020213E+03  0.58537051090E+03  0.12509161696E+03 0.  0.
         23    2    1    2    0    0 -0.50145717924E+02  0.37647570860E+02 -0.45519639113E+03  0.46804675617E+03  0.89062218973E+02 0.  0.
          5    1    3    3  502    0 -0.20344359190E+02  0.10276068111E+02 -0.20731921936E+02  0.31093013907E+02  0.41800000000E+01 0.  1.
         -5    1    3    3    0  502  0.70490077114E+02 -0.47923638970E+02 -0.54766828020E+03  0.55427749700E+03  0.41800000000E+01 0.  1.
        -11    1    4    4    0    0 -0.69119943429E+02  0.50677925466E+02 -0.36985085149E+03  0.37965177605E+03  0.00000000000E+00 0.  1.
         11    1    4    4    0    0  0.18974225505E+02 -0.13030354607E+02 -0.85345539645E+02  0.88394980129E+02  0.00000000000E+00 0. -1.
</event>
<event>
 8    1  0.7052796E-009  0.2952846E+03  0.7561462E-02  0.1087622E+00
         -1   -1    0    0    0  501 -0.00000000000E+00  0.00000000000E+00  0.66571248502E+02  0.66571248502E+02  0.00000000000E+00 0. -1.
          1   -1    0    0  501    0  0.00000000000E+00 -0.00000000000E+00 -0.16353143612E+04  0.16353143612E+04  0.00000000000E+00 0.  1.
         25    2    1    2    0    0 -0.25755461141E+03  0.12650590954E+03 -0.11078524720E+04  0.11512270260E+04  0.12509373542E+03 0.  0.
         23    2    1    2    0    0  0.25755461141E+03 -0.12650590954E+03 -0.46089064073E+03  0.55065858375E+03  0.92013967066E+02 0.  0.
          5    1    3    3  502    0 -0.87975347200E+02  0.90513281064E+02 -0.30981962762E+03  0.33457135237E+03  0.41800000000E+01 0.  1.
         -5    1    3    3    0  502 -0.16957926421E+03  0.35992628481E+02 -0.79803284437E+03  0.81665567362E+03  0.41800000000E+01 0.  1.
        -11    1    4    4    0    0  0.20495458972E+03 -0.77928832638E+02 -0.40216292965E+03  0.45805491897E+03  0.00000000000E+00 0.  1.
         11    1    4    4    0    0  0.52600021684E+02 -0.48577076906E+02 -0.58727711076E+02  0.92603664777E+02  0.00000000000E+00 0. -1.
</event>
<event>
 8    1  0.7052796E-009  0.3545438E+03  0.7561462E-02  0.1060765E+00
          1   -1    0    0  501    0  0.00000000000E+00  0.00000000000E+00  0.19740811441E+03  0.19740811441E+03  0.00000000000E+00 0. -1.
         -1   -1    0    0    0  501 -0.00000000000E+00 -0.00000000000E+00 -0.66272393023E+03  0.66272393023E+03  0.00000000000E+00 0.  1.
         25    2    1    2    0    0  0.83849915958E+02 -0.33429530602E+03 -0.24550911146E+03  0.44125555245E+03  0.12509028229E+03 0.  0.
         23    2    1    2    0    0 -0.83849915958E+02  0.33429530602E+03 -0.21980670436E+03  0.41887649218E+03  0.91424112738E+02 0.  0.
          5    1    3    3  502    0  0.62892693050E+02 -0.33047416425E+03 -0.24992179859E+03  0.41910266270E+03  0.41800000000E+01 0. -1.
         -5    1    3    3    0  502  0.20957222908E+02 -0.38211417673E+01  0.44126871250E+01  0.22152889746E+02  0.41800000000E+01 0. -1.
        -11    1    4    4    0    0  0.96092580233E+01  0.69110154190E+02 -0.15937671625E+02  0.71572065980E+02  0.00000000000E+00 0. -1.
         11    1    4    4    0    0 -0.93459173981E+02  0.26518515183E+03 -0.20386903273E+03  0.34730442620E+03  0.00000000000E+00 0.  1.
</event>
<event>
 8    1  0.7052796E-009  0.1009957E+03  0.7561462E-02  0.1278216E+00
         -2   -1    0    0    0  501 -0.00000000000E+00  0.00000000000E+00  0.23818445367E+02  0.23818445367E+02  0.00000000000E+00 0.  1.
          2   -1    0    0  501    0  0.00000000000E+00 -0.00000000000E+00 -0.57856627959E+03  0.57856627959E+03  0.00000000000E+00 0. -1.
         25    2    1    2    0    0 -0.37595086415E+02  0.22063888652E+02 -0.33776106813E+03  0.36280976008E+03  0.12509267429E+03 0.  0.
         23    2    1    2    0    0  0.37595086415E+02 -0.22063888652E+02 -0.21698676609E+03  0.23957496488E+03  0.91720779713E+02 0.  0.
          5    1    3    3  502    0  0.14639322068E+02  0.63667374813E+02 -0.16001194119E+03  0.17288475378E+03  0.41800000000E+01 0. -1.
         -5    1    3    3    0  502 -0.52234408483E+02 -0.41603486161E+02 -0.17774912693E+03  0.18992500629E+03  0.41800000000E+01 0. -1.
        -11    1    4    4    0    0  0.15125006930E+02  0.18106533302E+02 -0.70091604849E+01  0.24611800290E+02  0.00000000000E+00 0.  1.
         11    1    4    4    0    0  0.22470079485E+02 -0.40170421954E+02 -0.20997760561E+03  0.21496316459E+03  0.00000000000E+00 0. -1.
</event>
<event>
 8    1  0.7052796E-009  0.8834129E+02  0.7561462E-02  0.1306919E+00
         -1   -1    0    0    0  501 -0.00000000000E+00  0.00000000000E+00  0.56963715584E+03  0.56963715584E+03  0.00000000000E+00 0. -1.
          1   -1    0    0  501    0  0.00000000000E+00 -0.00000000000E+00 -0.27368495703E+02  0.27368495703E+02  0.00000000000E+00 0.  1.
         25    2    1    2    0    0  0.27755101493E+02 -0.31438668585E+02  0.37070370172E+03  0.39348105889E+03  0.12508946275E+03 0.  0.
         23    2    1    2    0    0 -0.27755101493E+02  0.31438668585E+02  0.17156495841E+03  0.20352459265E+03  0.10113846606E+03 0.  0.
          5    1    3    3  502    0  0.69200035375E+02 -0.11319982949E+02  0.12432236265E+03  0.14279463983E+03  0.41800000000E+01 0.  1.
         -5    1    3    3    0  502 -0.41444933882E+02 -0.20118685635E+02  0.24638133908E+03  0.25068641906E+03  0.41800000000E+01 0.  1.
        -11    1    4    4    0    0  0.61680721363E+01  0.24872985569E+02 -0.27909898688E+01  0.25777900408E+02  0.00000000000E+00 0.  1.
         11    1    4    4    0    0 -0.33923173629E+02  0.65656830153E+01  0.17435594828E+03  0.17774669224E+03  0.00000000000E+00 0. -1.
</event>
<event>
 8    1  0.7052796E-009  0.1209770E+03  0.7561462E-02  0.1241494E+00
         -1   -1    0    0    0  501 -0.00000000000E+00  0.00000000000E+00  0.37025394003E+03  0.37025394003E+03  0.00000000000E+00 0.  1.
          1   -1    0    0  501    0  0.00000000000E+00 -0.00000000000E+00 -0.56221859596E+02  0.56221859596E+02  0.00000000000E+00 0. -1.
         25    2    1    2    0    0 -0.92323732657E+02  0.26337925244E+02  0.18866499992E+03  0.24588403227E+03  0.12508843756E+03 0.  0.
         23    2    1    2    0    0  0.92323732657E+02 -0.26337925244E+02  0.12536708051E+03  0.18059176736E+03  0.87630609056E+02 0.  0.
          5    1    3    3  502    0 -0.47589102698E+02  0.42834287787E+02  0.18731838385E+03  0.19800289956E+03  0.41800000000E+01 0. -1.
         -5    1    3    3    0  502 -0.44734629959E+02 -0.16496362542E+02  0.13466160714E+01  0.47881132709E+02  0.41800000000E+01 0. -1.
        -11    1    4    4    0    0  0.10960939878E+03 -0.25944755377E+02  0.11047887545E+03  0.15777494273E+03  0.00000000000E+00 0.  1.
         11    1    4    4    0    0 -0.17285666128E+02 -0.39316986682E+00  0.14888205068E+02  0.22816824629E+02  0.00000000000E+00 0. -1.
</event>
<event>
 8    1  0.7052796E-009  0.1187255E+03  0.7561462E-02  0.1245214E+00
          2   -1    0    0  501    0  0.00000000000E+00  0.00000000000E+00  0.91627034009E+03  0.91627034009E+03  0.00000000000E+00 0. -1.
         -2   -1    0    0    0  501 -0.00000000000E+00 -0.00000000000E+00 -0.24930022774E+02  0.24930022774E+02  0.00000000000E+00 0.  1.
         25    2    1    2    0    0 -0.72939511196E+01 -0.88720959546E+02  0.30780280910E+03  0.34396923804E+03  0.12509059535E+03 0.  0.
         23    2    1    2    0    0  0.72939511196E+01  0.88720959546E+02  0.58353750822E+03  0.59723112482E+03  0.90798582436E+02 0.  0.
          5    1    3    3  502    0 -0.31299894863E+02 -0.19987148688E+02  0.11911817322E+02  0.39224142095E+02  0.41800000000E+01 0. -1.
         -5    1    3    3    0  502  0.24005943744E+02 -0.68733810858E+02  0.29589099177E+03  0.30474509595E+03  0.41800000000E+01 0. -1.
        -11    1    4    4    0    0 -0.38392262421E+02  0.65458140888E+02  0.34617168548E+03  0.35439183096E+03  0.00000000000E+00 0.  1.
         11    1    4    4    0    0  0.45686213540E+02  0.23262818658E+02  0.23736582274E+03  0.24283929386E+03  0.00000000000E+00 0. -1.
</event>
<event>
 8    1  0.7052796E-009  0.9497572E+02  0.7561462E-02  0.1291231E+00
          2   -1    0    0  501    0  0.00000000000E+00  0.00000000000E+00  0.54072121378E+03  0.54072121378E+03  0.00000000000E+00 0.  1.
         -2   -1    0    0    0  501 -0.00000000000E+00 -0.00000000000E+00 -0.26253220699E+02  0.26253220699E+02  0.00000000000E+00 0. -1.
         25    2    1    2    0    0 -0.48554573361E+02  0.20049601580E+01  0.25463250980E+03  0.28783250178E+03  0.12509303568E+03 0.  0.
         23    2    1    2    0    0  0.48554573361E+02 -0.20049601580E+01  0.25983548328E+03  0.27914193269E+03  0.89689317976E+02 0.  0.
          5    1    3    3  502    0 -0.73990266975E+02  0.46413375905E+01  0.72197774965E+02  0.10356685151E+03  0.41800000000E+01 0.  1.
         -5    1    3    3    0  502  0.25435693613E+02 -0.26363774325E+01  0.18243473484E+03  0.18426565027E+03  0.41800000000E+01 0.  1.
        -11    1    4    4    0    0  0.47890751622E+01 -0.34780661105E+02  0.17299440145E+03  0.17652108248E+03  0.00000000000E+00 0.  1.
         11    1    4    4    0    0  0.43765498199E+02  0.32775700947E+02  0.86841081823E+02  0.10262085021E+03  0.00000000000E+00 0. -1.
</event>
<event>
 8    1  0.7052796E-009  0.1092892E+03  0.7561462E-02  0.1261892E+00
         -2   -1    0    0    0  501 -0.00000000000E+00  0.00000000000E+00  0.17501194551E+02  0.17501194551E+02  0.00000000000E+00 0. -1.
          2   -1    0    0  501    0  0.00000000000E+00 -0.00000000000E+00 -0.92437137626E+03  0.92437137626E+03  0.00000000000E+00 0.  1.
         25    2    1    2    0    0 -0.22405642840E+02  0.51410041006E+02 -0.61232912749E+03  0.62748856271E+03  0.12509968350E+03 0.  0.
         23    2    1    2    0    0  0.22405642840E+02 -0.51410041006E+02 -0.29454105422E+03  0.31438400810E+03  0.94540291846E+02 0.  0.
          5    1    3    3  502    0 -0.22246274445E+02  0.89169493030E+02 -0.51216363106E+03  0.52036059862E+03  0.41800000000E+01 0. -1.
         -5    1    3    3    0  502 -0.15936839502E+00 -0.37759452024E+02 -0.10016549644E+03  0.10712796410E+03  0.41800000000E+01 0. -1.
        -11    1    4    4    0    0  0.47255575475E+02 -0.35117211993E+02 -0.26848088369E+03  0.27486049716E+03  0.00000000000E+00 0.  1.
         11    1    4    4    0    0 -0.24849932635E+02 -0.16292829012E+02 -0.26060170528E+02  0.39523510941E+02  0.00000000000E+00 0. -1.
</event>
<event>
 8    1  0.7052796E-009  0.1274666E+03  0.7561462E-02  0.1231264E+00
          1   -1    0    0  501    0  0.00000000000E+00  0.00000000000E+00  0.19940576166E+03  0.19940576166E+03  0.00000000000E+00 0. -1.
         -1   -1    0    0    0  501 -0.00000000000E+00 -0.00000000000E+00 -0.12297907443E+03  0.12297907443E+03  0.00000000000E+00 0.  1.
         25    2    1    2    0    0  0.71738732651E+02  0.85631987290E+02  0.16487590054E+02  0.16851840974E+03  0.12508929125E+03 0.  0.
         23    2    1    2    0    0 -0.71738732651E+02 -0.85631987290E+02  0.59939097171E+02  0.15386642635E+03  0.87194602926E+02 0.  0.
          5    1    3    3  502    0  0.69493246029E+02  0.16577987470E+02 -0.37445769752E+02  0.80770037666E+02  0.41800000000E+01 0. -1.
         -5    1    3    3    0  502  0.22454866218E+01  0.69053999820E+02  0.53933359806E+02  0.87748372072E+02  0.41800000000E+01 0. -1.
        -11    1    4    4    0    0 -0.16682619393E+02 -0.37415144124E+02 -0.19913875548E+02  0.45549590986E+02  0.00000000000E+00 0.  1.
         11    1    4    4    0    0 -0.55056113258E+02 -0.48216843166E+02  0.79852972719E+02  0.10831683537E+03  0.00000000000E+00 0. -1.
</event>
<event>
 8    1  0.7052796E-009  0.2149810E+03  0.7561462E-02  0.1137681E+00
         -2   -1    0    0    0  501 -0.00000000000E+00  0.00000000000E+00  0.10757867006E+03  0.10757867006E+03  0.00000000000E+00 0.  1.
          2   -1    0    0  501    0  0.00000000000E+00 -0.00000000000E+00 -0.48929034885E+03  0.48929034885E+03  0.00000000000E+00 0. -1.
         25    2    1    2    0    0 -0.15643567173E+03  0.12189985578E+03 -0.24618820380E+03  0.33998229490E+03  0.12509050696E+03 0.  0.
         23    2    1    2    0    0  0.15643567173E+03 -0.12189985578E+03 -0.13552347499E+03  0.25688672400E+03  0.91063068609E+02 0.  0.
          5    1    3    3  502    0 -0.99251565134E+02  0.13976876950E+03 -0.20448355190E+03  0.26686546705E+03  0.41800000000E+01 0.  1.
         -5    1    3    3    0  502 -0.57184106600E+02 -0.17868913719E+02 -0.41704651897E+02  0.73116827851E+02  0.41800000000E+01 0.  1.
        -11    1    4    4    0    0  0.54899174564E+02 -0.46775222250E+02 -0.10424808340E+03  0.12676554610E+03  0.00000000000E+00 0. -1.
         11    1    4    4    0    0  0.10153649717E+03 -0.75124633529E+02 -0.31275391592E+02  0.13012117791E+03  0.00000000000E+00 0.  1.
</event>
<event>
 8    1  0.7052796E-009  0.1149407E+03  0.7561462E-02  0.1251685E+00
         -2   -1    0    0    0  501 -0.00000000000E+00  0.00000000000E+00  0.73376424461E+02  0.73376424461E+02  0.00000000000E+00 0.  1.
          2   -1    0    0  501    0  0.00000000000E+00 -0.00000000000E+00 -0.22792778728E+03  0.22792778728E+03  0.00000000000E+00 0. -1.
         25    2    1    2    0    0  0.11490179144E+02  0.48019144039E+02 -0.25992252181E+02  0.13697452053E+03  0.12509420326E+03 0.  0.
         23    2    1    2    0    0 -0.11490179144E+02 -0.48019144039E+02 -0.12855911064E+03  0.16432969121E+03  0.89660136489E+02 0.  0.
          5    1    3    3  502    0 -0.53214377236E+02  0.22263091539E+02 -0.33446371228E+02  0.66809784746E+02  0.41800000000E+01 0. -1.
         -5    1    3    3    0  502  0.64704556380E+02  0.25756052500E+02  0.74541190466E+01  0.70164735783E+02  0.41800000000E+01 0. -1.
        -11    1    4    4    0    0 -0.40252256250E+02 -0.59058147228E+02 -0.92730021179E+02  0.11707675139E+03  0.00000000000E+00 0.  1.
         11    1    4    4    0    0  0.28762077106E+02  0.11039003190E+02 -0.35829089461E+02  0.47252939828E+02  0.00000000000E+00 0. -1.
</event>
<event>
 8    1  0.7052796E-009  0.8849804E+02  0.7561462E-02  0.1306530E+00
          2   -1    0    0  501    0  0.00000000000E+00  0.00000000000E+00  0.38537757351E+03  0.38537757351E+03  0.00000000000E+00 0. -1.
         -2   -1    0    0    0  501 -0.00000000000E+00 -0.00000000000E+00 -0.35472151129E+02  0.35472151129E+02  0.00000000000E+00 0.  1.
         25    2    1    2    0    0  0.25575785643E+00 -0.25833791692E+02  0.29394713534E+03  0.32049952959E+03  0.12509028695E+03 0.  0.
         23    2    1    2    0    0 -0.25575785643E+00  0.25833791692E+02  0.55958287043E+02  0.10035019505E+03  0.79192054857E+02 0.  0.
          5    1    3    3  502    0 -0.48598555255E+02 -0.66824564317E+01  0.47214628711E+02  0.68214136080E+02  0.41800000000E+01 0.  1.
         -5    1    3    3    0  502  0.48854313112E+02 -0.19151335261E+02  0.24673250663E+03  0.25228539351E+03  0.41800000000E+01 0.  1.
        -11    1    4    4    0    0  0.34288257335E+02  0.46550354558E+01  0.45616631822E+01  0.34902187857E+02  0.00000000000E+00 0.  1.
         11    1    4    4    0    0 -0.34544015192E+02  0.21178756236E+02  0.51396623861E+02  0.65448007193E+02  0.00000000000E+00 0. -1.
</event>
<event>
 8    1  0.7052796E-009  0.9147395E+02  0.7561462E-02  0.1299321E+00
          3   -1    0    0  501    0  0.00000000000E+00  0.00000000000E+00  0.15712134504E+03  0.15712134504E+03  0.00000000000E+00 0. -1.
         -3   -1    0    0    0  501 -0.00000000000E+00 -0.00000000000E+00 -0.93319685159E+02  0.93319685159E+02  0.00000000000E+00 0.  1.
         25    2    1    2    0    0 -0.27201050071E+02 -0.31459733460E+02  0.12222881000E+02  0.13238738799E+03  0.12508960678E+03 0.  0.
         23    2    1    2    0    0  0.27201050071E+02  0.31459733460E+02  0.51578778886E+02  0.11805364221E+03  0.97707113629E+02 0.  0.
          5    1    3    3  502    0  0.25652873906E+02 -0.48221429515E+02 -0.30102475200E+02  0.62506060644E+02  0.41800000000E+01 0.  1.
         -5    1    3    3    0  502 -0.52853923977E+02  0.16761696054E+02  0.42325356200E+02  0.69881327348E+02  0.41800000000E+01 0.  1.
        -11    1    4    4    0    0  0.46176035753E+02  0.19442968457E+02  0.71987187325E+02  0.87706387677E+02  0.00000000000E+00 0. -1.
         11    1    4    4    0    0 -0.18974985682E+02  0.12016765004E+02 -0.20408408440E+02  0.30347254535E+02  0.00000000000E+00 0.  1.
</event>
<event>
 8    1  0.7052796E-009  0.7517437E+02  0.7561462E-02  0.1343332E+00
          2   -1    0    0  501    0  0.00000000000E+00  0.00000000000E+00  0.91940969296E+02  0.91940969296E+02  0.00000000000E+00 0. -1.
         -2   -1    0    0    0  501 -0.00000000000E+00 -0.00000000000E+00 -0.16743799627E+03  0.16743799627E+03  0.00000000000E+00 0.  1.
         25    2    1    2    0    0  0.43080370268E+02  0.15076486361E+02 -0.81983301346E+02  0.15637175562E+03  0.12509054926E+03 0.  0.
         23    2    1    2    0    0 -0.43080370268E+02 -0.15076486361E+02  0.64862743720E+01  0.10300720994E+03  0.92115117117E+02 0.  0.
          5    1    3    3  502    0  0.29767032234E+02  0.52454290847E+01  0.30179838260E+02  0.42917196690E+02  0.41800000000E+01 0.  1.
         -5    1    3    3    0  502  0.13313338034E+02  0.98310572768E+01 -0.11216313961E+03  0.11345455893E+03  0.41800000000E+01 0. -1.
        -11    1    4    4    0    0  0.24534729609E+02 -0.24291501468E+02  0.87727865223E+00  0.34536931224E+02  0.00000000000E+00 0.  1.
         11    1    4    4    0    0 -0.67615099877E+02  0.92150151064E+01  0.56089957198E+01  0.68470278719E+02  0.00000000000E+00 0. -1.
</event>
<event>
 8    1  0.7052796E-009  0.1158228E+03  0.7561462E-02  0.1250152E+00
          2   -1    0    0  501    0  0.00000000000E+00  0.00000000000E+00  0.25986329019E+03  0.25986329019E+03  0.00000000000E+00 0. -1.
         -2   -1    0    0    0  501 -0.00000000000E+00 -0.00000000000E+00 -0.90737833535E+02  0.90737833535E+02  0.00000000000E+00 0.  1.
         25    2    1    2    0    0 -0.16340937467E+02 -0.70911082556E+02  0.18142543669E+03  0.23207775766E+03  0.12509791627E+03 0.  0.
         23    2    1    2    0    0  0.16340937467E+02  0.70911082556E+02 -0.12299980032E+02  0.11852336607E+03  0.92742066661E+02 0.  0.
          5    1    3    3  502    0  0.11375701887E+02  0.30073857440E+02  0.15774340136E+02  0.36057533214E+02  0.41800000000E+01 0. -1.
         -5    1    3    3    0  502 -0.27716639354E+02 -0.10098494000E+03  0.16565109655E+03  0.19602022445E+03  0.41800000000E+01 0. -1.
        -11    1    4    4    0    0  0.37890823265E+02  0.30579896153E+02 -0.41744388787E+02  0.64136093829E+02  0.00000000000E+00 0.  1.
         11    1    4    4    0    0 -0.21549885798E+02  0.40331186403E+02  0.29444408755E+02  0.54387272238E+02  0.00000000000E+00 0. -1.
</event>
<event>
 8    1  0.7052796E-009  0.9420422E+02  0.7561462E-02  0.1292979E+00
          1   -1    0    0  501    0  0.00000000000E+00  0.00000000000E+00  0.51084592654E+03  0.51084592654E+03  0.00000000000E+00 0. -1.
         -1   -1    0    0    0  501 -0.00000000000E+00 -0.00000000000E+00 -0.37928582695E+02  0.37928582695E+02  0.00000000000E+00 0.  1.
         25    2    1    2    0    0  0.46337893256E+02  0.12039577000E+02  0.40200843472E+03  0.42373504115E+03  0.12509377181E+03 0.  0.
         23    2    1    2    0    0 -0.46337893256E+02 -0.12039577000E+02  0.70908909119E+02  0.12503946808E+03  0.91184666579E+02 0.  0.
          5    1    3    3  502    0  0.32860410849E+02  0.47339235611E+02  0.75752816658E+02  0.95272091721E+02  0.41800000000E+01 0.  1.
         -5    1    3    3    0  502  0.13477482408E+02 -0.35299658611E+02  0.32625561807E+03  0.32846294943E+03  0.41800000000E+01 0.  1.
        -11    1    4    4    0    0 -0.29617134634E+02  0.33136863368E+02  0.69723310687E+01  0.44987106801E+02  0.00000000000E+00 0.  1.
         11    1    4    4    0    0 -0.16720758622E+02 -0.45176440368E+02  0.63936578050E+02  0.80052361277E+02  0.00000000000E+00 0. -1.
</event>
<event>
 8    1  0.7052796E-009  0.9189190E+02  0.7561462E-02  0.1298334E+00
          2   -1    0    0  501    0  0.00000000000E+00  0.00000000000E+00  0.18849345986E+04  0.18849345986E+04  0.00000000000E+00 0. -1.
         -2   -1    0    0    0  501 -0.00000000000E+00 -0.00000000000E+00 -0.12661063795E+02  0.12661063795E+02  0.00000000000E+00 0.  1.
         25    2    1    2    0    0  0.56775521033E+02 -0.94996861964E+01  0.15708538722E+04  0.15768771502E+04  0.12508379333E+03 0.  0.
         23    2    1    2    0    0 -0.56775521033E+02  0.94996861964E+01  0.30141966264E+03  0.32071851218E+03  0.93235439619E+02 0.  0.
          5    1    3    3  502    0 -0.17566307802E+02  0.98944071025E+01  0.10655289720E+04  0.10657278907E+04  0.41800000000E+01 0.  1.
         -5    1    3    3    0  502  0.74341828835E+02 -0.19394093299E+02  0.50532490016E+03  0.51114925951E+03  0.41800000000E+01 0.  1.
        -11    1    4    4    0    0  0.25271852044E+01  0.24861965426E+02  0.18112210021E+02  0.30863508254E+02  0.00000000000E+00 0.  1.
         11    1    4    4    0    0 -0.59302706238E+02 -0.15362279229E+02  0.28330745262E+03  0.28985500393E+03  0.00000000000E+00 0. -1.
</event>
<event>
 8    1  0.7052796E-009  0.7789929E+02  0.7561462E-02  0.1335121E+00
         -2   -1    0    0    0  501 -0.00000000000E+00  0.00000000000E+00  0.20927628985E+02  0.20927628985E+02  0.00000000000E+00 0.  1.
          2   -1    0    0  501    0  0.00000000000E+00 -0.00000000000E+00 -0.83025065918E+03  0.83025065918E+03  0.00000000000E+00 0. -1.
         25    2    1    2    0    0 -0.60771824702E+02 -0.33632012173E+02 -0.53449814768E+03  0.55331626413E+03  0.12508513642E+03 0.  0.
         23    2    1    2    0    0  0.60771824702E+02  0.33632012173E+02 -0.27482488251E+03  0.29786202403E+03  0.91480830754E+02 0.  0.
          5    1    3    3  502    0 -0.38229510700E+02 -0.38364036696E+02 -0.52539991751E+03  0.52820056846E+03  0.41800000000E+01 0. -1.
         -5    1    3    3    0  502 -0.22542314002E+02  0.47320245229E+01 -0.90982301708E+01  0.25115695668E+02  0.41800000000E+01 0. -1.
        -11    1    4    4    0    0  0.40323505538E+02  0.39852760367E+02 -0.27008223444E+03  0.27596855068E+03  0.00000000000E+00 0. -1.
         11    1    4    4    0    0  0.20448319164E+02 -0.62207481932E+01 -0.47426480737E+01  0.21893473353E+02  0.00000000000E+00 0.  1.
</event>
<event>
 8    1  0.7052796E-009  0.1510568E+03  0.7561462E-02  0.1199180E+00
         -1   -1    0    0    0  501 -0.00000000000E+00  0.00000000000E+00  0.37217311268E+02  0.37217311268E+02  0.00000000000E+00 0.  1.
          1   -1    0    0  501    0  0.00000000000E+00 -0.00000000000E+00 -0.93701684205E+03  0.93701684205E+03  0.00000000000E+00 0. -1.
         25    2    1    2    0    0  0.75107500517E+02 -0.13051157691E+03 -0.55832652388E+03  0.59164808122E+03  0.12507812118E+03 0.  0.
         23    2    1    2    0    0 -0.75107500517E+02  0.13051157691E+03 -0.34147300690E+03  0.38258607210E+03  0.84225173088E+02 0.  0.
          5    1    3    3  502    0  0.58702013363E+02 -0.90197010502E+02 -0.17255387842E+03  0.20340535989E+03  0.41800000000E+01 0. -1.
         -5    1    3    3    0  502  0.16405487153E+02 -0.40314566406E+02 -0.38577264546E+03  0.38824272132E+03  0.41800000000E+01 0. -1.
        -11    1    4    4    0    0 -0.31711125485E+02  0.60853509009E+02 -0.66231929534E+02  0.95369877467E+02  0.00000000000E+00 0.  1.
         11    1    4    4    0    0 -0.43396375032E+02  0.69658067900E+02 -0.27524107737E+03  0.28721619463E+03  0.00000000000E+00 0. -1.
</event>
<event>
 8    1  0.7052796E-009  0.4072666E+03  0.7561462E-02  0.1041292E+00
          2   -1    0    0  501    0  0.00000000000E+00  0.00000000000E+00  0.22446219112E+04  0.22446219112E+04  0.00000000000E+00 0. -1.
         -2   -1    0    0    0  501 -0.00000000000E+00 -0.00000000000E+00 -0.81201695704E+02  0.81201695704E+02  0.00000000000E+00 0.  1.
         25    2    1    2    0    0 -0.35258393085E+03  0.18645816945E+03  0.80473084913E+03  0.90681927817E+03  0.12508951384E+03 0.  0.
         23    2    1    2    0    0  0.35258393085E+03 -0.18645816945E+03  0.13586893664E+04  0.14190043288E+04  0.91947884373E+02 0.  0.
          5    1    3    3  502    0 -0.31243731118E+02  0.61238101192E+02  0.91037883686E+02  0.11415622820E+03  0.41800000000E+01 0.  1.
         -5    1    3    3    0  502 -0.32134019973E+03  0.12522006826E+03  0.71369296545E+03  0.79266304997E+03  0.41800000000E+01 0. -1.
        -11    1    4    4    0    0  0.13193185532E+03 -0.91404250713E+02  0.69128126189E+03  0.70966931351E+03  0.00000000000E+00 0.  1.
         11    1    4    4    0    0  0.22065207554E+03 -0.95053918738E+02  0.66740810452E+03  0.70933501527E+03  0.00000000000E+00 0. -1.
</event>
<event>
 8    1  0.7052796E-009  0.1114763E+03  0.7561462E-02  0.1257860E+00
         -2   -1    0    0    0  501 -0.00000000000E+00  0.00000000000E+00  0.67105744167E+02  0.67105744167E+02  0.00000000000E+00 0.  1.
          2   -1    0    0  501    0  0.00000000000E+00 -0.00000000000E+00 -0.28143946535E+03  0.28143946535E+03  0.00000000000E+00 0. -1.
         25    2    1    2    0    0 -0.78918555334E+02 -0.90036078368E+00 -0.77698725618E+02  0.16707393016E+03  0.12509059577E+03 0.  0.
         23    2    1    2    0    0  0.78918555334E+02  0.90036078368E+00 -0.13663499557E+03  0.18147127936E+03  0.89631212158E+02 0.  0.
          5    1    3    3  502    0  0.19223731432E+01 -0.43558277894E+02  0.45551825357E+01  0.44036816183E+02  0.41800000000E+01 0. -1.
         -5    1    3    3    0  502 -0.80840928477E+02  0.42657917110E+02 -0.82253908154E+02  0.12303711398E+03  0.41800000000E+01 0. -1.
        -11    1    4    4    0    0  0.85241684180E+01 -0.13339780464E+02  0.96264771439E+01  0.18527823732E+02  0.00000000000E+00 0.  1.
         11    1    4    4    0    0  0.70394386916E+02  0.14240141248E+02 -0.14626147271E+03  0.16294345563E+03  0.00000000000E+00 0. -1.
</event>
<event>
 8    1  0.7052796E-009  0.9267626E+02  0.7561462E-02  0.1296497E+00
         -1   -1    0    0    0  501 -0.00000000000E+00  0.00000000000E+00  0.35247977029E+02  0.35247977029E+02  0.00000000000E+00 0.  1.
          1   -1    0    0  501    0  0.00000000000E+00 -0.00000000000E+00 -0.67609172804E+03  0.67609172804E+03  0.00000000000E+00 0. -1.
         25    2    1    2    0    0 -0.25601281878E+02  0.22758641034E+01 -0.59141231259E+03  0.60504107922E+03  0.12508228843E+03 0.  0.
         23    2    1    2    0    0  0.25601281878E+02 -0.22758641034E+01 -0.49431438422E+02  0.10629862584E+03  0.90528037428E+02 0.  0.
          5    1    3    3  502    0 -0.74717754915E+02  0.71136613657E+01 -0.41747860992E+03  0.42419242004E+03  0.41800000000E+01 0. -1.
         -5    1    3    3    0  502  0.49116473037E+02 -0.48377972623E+01 -0.17393370267E+03  0.18084865919E+03  0.41800000000E+01 0. -1.
        -11    1    4    4    0    0 -0.17276756255E+02  0.26907083327E+01 -0.59465632044E+02  0.61982962275E+02  0.00000000000E+00 0. -1.
         11    1    4    4    0    0  0.42878038133E+02 -0.49665724362E+01  0.10034193621E+02  0.44315663569E+02  0.00000000000E+00 0.  1.
</event>
<event>
 8    1  0.7052796E-009  0.1500732E+03  0.7561462E-02  0.1200383E+00
          2   -1    0    0  501    0  0.00000000000E+00  0.00000000000E+00  0.74195798342E+02  0.74195798342E+02  0.00000000000E+00 0.  1.
         -2   -1    0    0    0  501 -0.00000000000E+00 -0.00000000000E+00 -0.30685387623E+03  0.30685387623E+03  0.00000000000E+00 0. -1.
         25    2    1    2    0    0 -0.90170122976E+02 -0.53364138702E+02 -0.11861104953E+03  0.20173079909E+03  0.12509337255E+03 0.  0.
         23    2    1    2    0    0  0.90170122976E+02  0.53364138702E+02 -0.11404702836E+03  0.17931887548E+03  0.90388893393E+02 0.  0.
          5    1    3    3  502    0 -0.90847668777E+02 -0.88679376395E+02 -0.85351898625E+02  0.15303512577E+03  0.41800000000E+01 0.  1.
         -5    1    3    3    0  502  0.67754580160E+00  0.35315237694E+02 -0.33259150902E+02  0.48695673323E+02  0.41800000000E+01 0.  1.
        -11    1    4    4    0    0  0.49458479094E+02 -0.20242012132E+02 -0.53979228590E+02  0.75958128786E+02  0.00000000000E+00 0.  1.
         11    1    4    4    0    0  0.40711643882E+02  0.73606150834E+02 -0.60067799774E+02  0.10336074670E+03  0.00000000000E+00 0. -1.
</event>
<event>
 8    1  0.7052796E-009  0.2834732E+03  0.7561462E-02  0.1093807E+00
          1   -1    0    0  501    0  0.00000000000E+00  0.00000000000E+00  0.20927088122E+03  0.20927088122E+03  0.00000000000E+00 0. -1.
         -1   -1    0    0    0  501 -0.00000000000E+00 -0.00000000000E+00 -0.48637968538E+03  0.48637968538E+03  0.00000000000E+00 0.  1.
         25    2    1    2    0    0 -0.26404056168E+03  0.54411765477E+02 -0.28603873430E+03  0.41248426031E+03  0.12508816511E+03 0.  0.
         23    2    1    2    0    0  0.26404056168E+03 -0.54411765477E+02  0.89299301324E+01  0.28316630629E+03  0.86170499175E+02 0.  0.
          5    1    3    3  502    0 -0.22189300150E+02  0.50138731158E+02 -0.46164267734E+02  0.71797419304E+02  0.41800000000E+01 0. -1.
         -5    1    3    3    0  502 -0.24185126153E+03  0.42730343190E+01 -0.23987446656E+03  0.34068684101E+03  0.41800000000E+01 0. -1.
        -11    1    4    4    0    0  0.21628654247E+03 -0.38420912056E+02  0.40994052891E+02  0.22346486818E+03  0.00000000000E+00 0. -1.
         11    1    4    4    0    0  0.47754019209E+02 -0.15990853421E+02 -0.32064122758E+02  0.59701438106E+02  0.00000000000E+00 0.  1.
</event>
<event>
 8    1  0.7052796E-009  0.1305990E+03  0.7561462E-02  0.1226570E+00
          2   -1    0    0  501    0  0.00000000000E+00  0.00000000000E+00  0.58244823929E+03  0.58244823929E+03  0.00000000000E+00 0. -1.
         -2   -1    0    0    0  501 -0.00000000000E+00 -0.00000000000E+00 -0.42046924174E+02  0.42046924174E+02  0.00000000000E+00 0.  1.
         25    2    1    2    0    0 -0.49754851739E+01  0.83890162116E+02  0.44051269101E+03  0.46557585067E+03  0.12508847683E+03 0.  0.
         23    2    1    2    0    0  0.49754851739E+01 -0.83890162116E+02  0.99888624104E+02  0.15891931279E+03  0.90638270062E+02 0.  0.
          5    1    3    3  502    0  0.30951674775E+02  0.10301893132E+03  0.28143777915E+03  0.30132308626E+03  0.41800000000E+01 0. -1.
         -5    1    3    3    0  502 -0.35927159949E+02 -0.19128769203E+02  0.15907491186E+03  0.16425276441E+03  0.41800000000E+01 0. -1.
        -11    1    4    4    0    0  0.39448580215E+02 -0.34532694565E+02  0.79742819144E+02  0.95433823564E+02  0.00000000000E+00 0. -1.
         11    1    4    4    0    0 -0.34473095042E+02 -0.49357467552E+02  0.20145804959E+02  0.63485489226E+02  0.00000000000E+00 0.  1.
</event>
<event>
 8    1  0.7052796E-009  0.1472533E+03  0.7561462E-02  0.1203889E+00
          2   -1    0    0  501    0  0.00000000000E+00  0.00000000000E+00  0.61438601754E+03  0.61438601754E+03  0.00000000000E+00 0.  1.
         -2   -1    0    0    0  501 -0.00000000000E+00 -0.00000000000E+00 -0.57258924888E+02  0.57258924888E+02  0.00000000000E+00 0. -1.
         25    2    1    2    0    0  0.12090356945E+03 -0.31025708088E+01  0.12618606084E+03  0.21494035814E+03  0.12509650897E+03 0.  0.
         23    2    1    2    0    0 -0.12090356945E+03  0.31025708088E+01  0.43094103181E+03  0.45670458429E+03  0.90783287878E+02 0.  0.
          5    1    3    3  502    0 -0.83378992063E+01  0.11281027858E+02  0.72882991166E+02  0.74338314172E+02  0.41800000000E+01 0.  1.
         -5    1    3    3    0  502  0.12924146866E+03 -0.14383598667E+02  0.53303069676E+02  0.14060204397E+03  0.41800000000E+01 0.  1.
        -11    1    4    4    0    0  0.14413176737E+02  0.42597839841E+00  0.25818394374E+02  0.29572125546E+02  0.00000000000E+00 0. -1.
         11    1    4    4    0    0 -0.13531674619E+03  0.26765924104E+01  0.40512263744E+03  0.42713245874E+03  0.00000000000E+00 0.  1.
</event>
<event>
 8    1  0.7052796E-009  0.1478633E+03  0.7561462E-02  0.1203123E+00
          1   -1    0    0  501    0  0.00000000000E+00  0.00000000000E+00  0.52862805515E+03  0.52862805515E+03  0.00000000000E+00 0. -1.
         -1   -1    0    0    0  501 -0.00000000000E+00 -0.00000000000E+00 -0.55202576099E+02  0.55202576099E+02  0.00000000000E+00 0.  1.
         25    2    1    2    0    0 -0.10122278948E+03  0.13962365174E+02  0.39341052983E+03  0.42527725866E+03  0.12509157047E+03 0.  0.
         23    2    1    2    0    0  0.10122278948E+03 -0.13962365174E+02  0.80014949229E+02  0.15855337259E+03  0.91081167693E+02 0.  0.
          5    1    3    3  502    0  0.29610633835E+02  0.99884327175E+00  0.68521168105E+02  0.74769045751E+02  0.41800000000E+01 0. -1.
         -5    1    3    3    0  502 -0.13083342332E+03  0.12963521903E+02  0.32488936172E+03  0.35050821291E+03  0.41800000000E+01 0. -1.
        -11    1    4    4    0    0  0.82731758588E+02 -0.47913815782E+02  0.70362827053E+02  0.11870638168E+03  0.00000000000E+00 0. -1.
         11    1    4    4    0    0  0.18491030896E+02  0.33951450608E+02  0.96521221763E+01  0.39846990909E+02  0.00000000000E+00 0.  1.
</event>
<event>
 8    1  0.7052796E-009  0.9933897E+02  0.7561462E-02  0.1281692E+00
         -1   -1    0    0    0  501 -0.00000000000E+00  0.00000000000E+00  0.48773643516E+03  0.48773643516E+03  0.00000000000E+00 0.  1.
          1   -1    0    0  501    0  0.00000000000E+00 -0.00000000000E+00 -0.24243710265E+02  0.24243710265E+02  0.00000000000E+00 0. -1.
         25    2    1    2    0    0  0.11821454314E+02 -0.19196620140E+01  0.25898015433E+03  0.28785607692E+03  0.12508784432E+03 0.  0.
         23    2    1    2    0    0 -0.11821454314E+02  0.19196620140E+01  0.20451257057E+03  0.22412406851E+03  0.90899805725E+02 0.  0.
          5    1    3    3  502    0 -0.47429154835E+02  0.15831742862E+00  0.19415860097E+03  0.19991144171E+03  0.41800000000E+01 0.  1.
         -5    1    3    3    0  502  0.59250609148E+02 -0.20779794427E+01  0.64821553355E+02  0.87944635211E+02  0.41800000000E+01 0.  1.
        -11    1    4    4    0    0 -0.26521476631E+01  0.46268100790E+02  0.10731205590E+03  0.11689160953E+03  0.00000000000E+00 0. -1.
         11    1    4    4    0    0 -0.91693066504E+01 -0.44348438776E+02  0.97200514667E+02  0.10723245897E+03  0.00000000000E+00 0.  1.
</event>
<event>
 8    1  0.7052796E-009  0.7065453E+02  0.7561462E-02  0.1357881E+00
          2   -1    0    0  501    0  0.00000000000E+00  0.00000000000E+00  0.27831398059E+03  0.27831398059E+03  0.00000000000E+00 0. -1.
         -2   -1    0    0    0  501 -0.00000000000E+00 -0.00000000000E+00 -0.43470680065E+02  0.43470680065E+02  0.00000000000E+00 0.  1.
         25    2    1    2    0    0 -0.42229413576E+01  0.10513101325E+02  0.17508795699E+03  0.21547989599E+03  0.12508970525E+03 0.  0.
         23    2    1    2    0    0  0.42229413576E+01 -0.10513101325E+02  0.59755343537E+02  0.10630476467E+03  0.87187403773E+02 0.  0.
          5    1    3    3  502    0 -0.12761708193E+02  0.29358373091E+02 -0.62790141982E+01  0.32888807912E+02  0.41800000000E+01 0. -1.
         -5    1    3    3    0  502  0.85387668354E+01 -0.18845271766E+02  0.18136697118E+03  0.18259108807E+03  0.41800000000E+01 0. -1.
        -11    1    4    4    0    0 -0.51296583192E+01  0.38084446828E+02  0.26536345005E+02  0.46700279345E+02  0.00000000000E+00 0. -1.
         11    1    4    4    0    0  0.93525996768E+01 -0.48597548153E+02  0.33218998532E+02  0.59604485323E+02  0.00000000000E+00 0.  1.
</event>
<event>
 8    1  0.7052796E-009  0.1460486E+03  0.7561462E-02  0.1205414E+00
          2   -1    0    0  501    0  0.00000000000E+00  0.00000000000E+00  0.23286505558E+04  0.23286505558E+04  0.00000000000E+00 0. -1.
         -2   -1    0    0    0  501 -0.00000000000E+00 -0.00000000000E+00 -0.18300755697E+02  0.18300755697E+02  0.00000000000E+00 0.  1.
         25    2    1    2    0    0 -0.50242381016E+02 -0.11658041698E+03  0.18945294669E+04  0.19028937777E+04  0.12509011926E+03 0.  0.
         23    2    1    2    0    0  0.50242381016E+02  0.11658041698E+03  0.41582033327E+03  0.44405753382E+03  0.90361791206E+02 0.  0.
          5    1    3    3  502    0 -0.44929141001E+02 -0.41290000204E+02  0.14965128599E+04  0.14977622322E+04  0.41800000000E+01 0.  1.
         -5    1    3    3    0  502 -0.53132400158E+01 -0.75290416781E+02  0.39801660692E+03  0.40513154550E+03  0.41800000000E+01 0.  1.
        -11    1    4    4    0    0  0.76449988788E+02  0.87495916440E+02  0.32554917755E+03  0.34566226751E+03  0.00000000000E+00 0.  1.
         11    1    4    4    0    0 -0.26207607772E+02  0.29084500544E+02  0.90271155720E+02  0.98395266310E+02  0.00000000000E+00 0. -1.
</event>
<event>
 8    1  0.7052796E-009  0.8747198E+02  0.7561462E-02  0.1309092E+00
          2   -1    0    0  501    0  0.00000000000E+00  0.00000000000E+00  0.34670920179E+02  0.34670920179E+02  0.00000000000E+00 0. -1.
         -2   -1    0    0    0  501 -0.00000000000E+00 -0.00000000000E+00 -0.50175720106E+03  0.50175720106E+03  0.00000000000E+00 0.  1.
         25    2    1    2    0    0  0.57455322428E+02 -0.43304651141E+02 -0.27717653589E+03  0.31249125207E+03  0.12509014225E+03 0.  0.
         23    2    1    2    0    0 -0.57455322428E+02  0.43304651141E+02 -0.18990974500E+03  0.22393686917E+03  0.94369503777E+02 0.  0.
          5    1    3    3  502    0  0.25857562115E+02 -0.71650537580E+01 -0.25987899326E+03  0.26129392463E+03  0.41800000000E+01 0.  1.
         -5    1    3    3    0  502  0.31597760313E+02 -0.36139597383E+02 -0.17297542630E+02  0.51197327439E+02  0.41800000000E+01 0.  1.
        -11    1    4    4    0    0  0.15679966543E+02  0.25755730286E+01  0.54230949007E+00  0.15899340452E+02  0.00000000000E+00 0. -1.
         11    1    4    4    0    0 -0.73135288972E+02  0.40729078112E+02 -0.19045205449E+03  0.20803752872E+03  0.00000000000E+00 0.  1.
</event>
<event>
 8    1  0.7052796E-009  0.2305753E+03  0.7561462E-02  0.1126235E+00
         -2   -1    0    0    0  501 -0.00000000000E+00  0.00000000000E+00  0.43142849268E+02  0.43142849268E+02  0.00000000000E+00 0.  1.
          2   -1    0    0  501    0  0.00000000000E+00 -0.00000000000E+00 -0.16382886622E+04  0.16382886622E+04  0.00000000000E+00 0. -1.
         25    2    1    2    0    0  0.54087366880E+02 -0.22219053436E+03 -0.56328056740E+03  0.62066605650E+03  0.12508908532E+03 0.  0.
         23    2    1    2    0    0 -0.54087366880E+02  0.22219053436E+03 -0.10318652456E+04  0.10607654550E+04  0.90462084329E+02 0.  0.
          5    1    3    3  502    0  0.37335253234E+02 -0.20381770951E+03 -0.35658893249E+03  0.41244238266E+03  0.41800000000E+01 0.  1.
         -5    1    3    3    0  502  0.16752113646E+02 -0.18372824852E+02 -0.20669163491E+03  0.20822367383E+03  0.41800000000E+01 0.  1.
        -11    1    4    4    0    0 -0.32474045575E+02  0.13735331355E+03 -0.81085712867E+03  0.82304907477E+03  0.00000000000E+00 0.  1.
         11    1    4    4    0    0 -0.21613321305E+02  0.84837220809E+02 -0.22100811692E+03  0.23771638025E+03  0.00000000000E+00 0. -1.
</event>
<event>
 8    1  0.7052796E-009  0.7625948E+02  0.7561462E-02  0.1340015E+00
          1   -1    0    0  501    0  0.00000000000E+00  0.00000000000E+00  0.17444834635E+04  0.17444834635E+04  0.00000000000E+00 0.  1.
         -1   -1    0    0    0  501 -0.00000000000E+00 -0.00000000000E+00 -0.92502159110E+01  0.92502159110E+01  0.00000000000E+00 0. -1.
         25    2    1    2    0    0  0.11750456223E+02 -0.66715823951E+01  0.14168106963E+04  0.14223860108E+04  0.12508729479E+03 0.  0.
         23    2    1    2    0    0 -0.11750456223E+02  0.66715823951E+01  0.31842255121E+03  0.33134766853E+03  0.90640901879E+02 0.  0.
          5    1    3    3  502    0  0.20805936753E+02 -0.29719110580E+02  0.12239535960E+03  0.12772708792E+03  0.41800000000E+01 0.  1.
         -5    1    3    3    0  502 -0.90554805295E+01  0.23047528185E+02  0.12944153367E+04  0.12946589229E+04  0.41800000000E+01 0.  1.
        -11    1    4    4    0    0 -0.32281169152E+02  0.40209699547E+02  0.20133340385E+03  0.20783174283E+03  0.00000000000E+00 0.  1.
         11    1    4    4    0    0  0.20530712929E+02 -0.33538117152E+02  0.11708914735E+03  0.12351592571E+03  0.00000000000E+00 0. -1.
</event>
<event>
 8    1  0.7052796E-009  0.1043992E+03  0.7561462E-02  0.1271308E+00
         -1   -1    0    0    0  501 -0.00000000000E+00  0.00000000000E+00  0.15571707532E+03  0.15571707532E+03  0.00000000000E+00 0.  1.
          1   -1    0    0  501    0  0.00000000000E+00 -0.00000000000E+00 -0.10635339502E+03  0.10635339502E+03  0.00000000000E+00 0. -1.
         25    2    1    2    0    0 -0.39952962427E+02 -0.57127006152E+02  0.30884214522E+02  0.14649550363E+03  0.12508942336E+03 0.  0.
         23    2    1    2    0    0  0.39952962427E+02  0.57127006152E+02  0.18479465786E+02  0.11557496672E+03  0.90312503214E+02 0.  0.
          5    1    3    3  502    0 -0.64693661842E+02 -0.44667040682E+02  0.65183392585E+02  0.10220940013E+03  0.41800000000E+01 0. -1.
         -5    1    3    3    0  502  0.24740699415E+02 -0.12459965470E+02 -0.34299178063E+02  0.44286103496E+02  0.41800000000E+01 0. -1.
        -11    1    4    4    0    0  0.26327411422E+01  0.64046624231E+02  0.36276080070E+02  0.73653617606E+02  0.00000000000E+00 0.  1.
         11    1    4    4    0    0  0.37320221285E+02 -0.69196180783E+01 -0.17796614284E+02  0.41921349109E+02  0.00000000000E+00 0. -1.
</event>
<event>
 8    1  0.7052796E-009  0.8775577E+02  0.7561462E-02  0.1308379E+00
          1   -1    0    0  501    0  0.00000000000E+00  0.00000000000E+00  0.22044259137E+02  0.22044259137E+02  0.00000000000E+00 0. -1.
         -1   -1    0    0    0  501 -0.00000000000E+00 -0.00000000000E+00 -0.75671616104E+03  0.75671616104E+03  0.00000000000E+00 0.  1.
         25    2    1    2    0    0 -0.33006725873E+02 -0.22410548308E+02 -0.23146747709E+03  0.26611617024E+03  0.12509574927E+03 0.  0.
         23    2    1    2    0    0  0.33006725873E+02  0.22410548308E+02 -0.50320442481E+03  0.51264424993E+03  0.89430180652E+02 0.  0.
          5    1    3    3  502    0 -0.47547941674E+02  0.33897277170E+01 -0.23130857855E+03  0.23620632490E+03  0.41800000000E+01 0.  1.
         -5    1    3    3    0  502  0.14541215801E+02 -0.25800276025E+02 -0.15889854354E+00  0.29909845347E+02  0.41800000000E+01 0.  1.
        -11    1    4    4    0    0  0.32398033103E+02 -0.30701983769E+02 -0.21458696992E+03  0.21917986225E+03  0.00000000000E+00 0. -1.
         11    1    4    4    0    0  0.60869276997E+00  0.53112532077E+02 -0.28861745490E+03  0.29346438769E+03  0.00000000000E+00 0.  1.
</event>
<event>
 8    1  0.7052796E-009  0.7977837E+02  0.7561462E-02  0.1329682E+00
          1   -1    0    0  501    0  0.00000000000E+00  0.00000000000E+00  0.29692215900E+03  0.29692215900E+03  0.00000000000E+00 0. -1.
         -1   -1    0    0    0  501 -0.00000000000E+00 -0.00000000000E+00 -0.40896670035E+02  0.40896670035E+02  0.00000000000E+00 0.  1.
         25    2    1    2    0    0  0.13492441511E+02  0.24330039148E+02  0.14595891595E+03  0.19423488610E+03  0.12509671879E+03 0.  0.
         23    2    1    2    0    0 -0.13492441511E+02 -0.24330039148E+02  0.11006657302E+03  0.14358394294E+03  0.87907345479E+02 0.  0.
          5    1    3    3  502    0 -0.30652243179E+01 -0.46014525202E+02  0.23369111347E+02  0.51868293734E+02  0.41800000000E+01 0. -1.
         -5    1    3    3    0  502  0.16557665829E+02  0.70344564349E+02  0.12258980460E+03  0.14236659237E+03  0.41800000000E+01 0. -1.
        -11    1    4    4    0    0  0.96680262897E+01 -0.69390099685E+01 -0.12725150013E+02  0.17422687351E+02  0.00000000000E+00 0.  1.
         11    1    4    4    0    0 -0.23160467801E+02 -0.17391029179E+02  0.12279172303E+03  0.12616125558E+03  0.00000000000E+00 0. -1.
</event>
<event>
 8    1  0.7052796E-009  0.1311118E+03  0.7561462E-02  0.1225815E+00
         -4   -1    0    0    0  501 -0.00000000000E+00  0.00000000000E+00  0.49689593112E+02  0.49689593112E+02  0.00000000000E+00 0.  1.
          4   -1    0    0  501    0  0.00000000000E+00 -0.00000000000E+00 -0.44019149263E+03  0.44019149263E+03  0.00000000000E+00 0. -1.
         25    2    1    2    0    0 -0.41960840161E+02 -0.90552953731E+02 -0.22241075819E+03  0.27399752231E+03  0.12509015683E+03 0.  0.
         23    2    1    2    0    0  0.41960840161E+02  0.90552953731E+02 -0.16809114133E+03  0.21588356343E+03  0.91599845149E+02 0.  0.
          5    1    3    3  502    0  0.23671387032E+02 -0.68040679811E+02 -0.17652930501E+03  0.19070903649E+03  0.41800000000E+01 0. -1.
         -5    1    3    3    0  502 -0.65632227193E+02 -0.22512273920E+02 -0.45881453182E+02  0.83288485815E+02  0.41800000000E+01 0. -1.
        -11    1    4    4    0    0 -0.18401456230E+02  0.14343110341E+02 -0.84522479451E+02  0.87683453047E+02  0.00000000000E+00 0. -1.
         11    1    4    4    0    0  0.60362296391E+02  0.76209843390E+02 -0.83568661874E+02  0.12820011038E+03  0.00000000000E+00 0.  1.
</event>
<event>
 8    1  0.7052796E-009  0.1362733E+03  0.7561462E-02  0.1218433E+00
         -2   -1    0    0    0  501 -0.00000000000E+00  0.00000000000E+00  0.18986919799E+02  0.18986919799E+02  0.00000000000E+00 0.  1.
          2   -1    0    0  501    0  0.00000000000E+00 -0.00000000000E+00 -0.14961229738E+04  0.14961229738E+04  0.00000000000E+00 0. -1.
         25    2    1    2    0    0  0.13755511575E+02 -0.11694883042E+03 -0.10337210980E+04  0.10478994396E+04  0.12509070339E+03 0.  0.
         23    2    1    2    0    0 -0.13755511575E+02  0.11694883042E+03 -0.44341495599E+03  0.46721045397E+03  0.88331999102E+02 0.  0.
          5    1    3    3  502    0 -0.17415949513E+02 -0.41909960345E+02 -0.78260806718E+03  0.78393406565E+03  0.41800000000E+01 0. -1.
         -5    1    3    3    0  502  0.31171461088E+02 -0.75038870072E+02 -0.25111303084E+03  0.26396537399E+03  0.41800000000E+01 0. -1.
        -11    1    4    4    0    0  0.27351526338E+02  0.95300236288E+02 -0.33224124303E+03  0.34671960515E+03  0.00000000000E+00 0. -1.
         11    1    4    4    0    0 -0.41107037913E+02  0.21648594128E+02 -0.11117371297E+03  0.12049084882E+03  0.00000000000E+00 0.  1.
</event>
<event>
 8    1  0.7052796E-009  0.1415012E+03  0.7561462E-02  0.1211323E+00
         -1   -1    0    0    0  501 -0.00000000000E+00  0.00000000000E+00  0.11256296450E+03  0.11256296450E+03  0.00000000000E+00 0.  1.
          1   -1    0    0  501    0  0.00000000000E+00 -0.00000000000E+00 -0.59364574906E+03  0.59364574906E+03  0.00000000000E+00 0. -1.
         25    2    1    2    0    0 -0.12462990901E+03  0.19480966450E+02  0.22618848946E+02  0.17908512770E+03  0.12509096036E+03 0.  0.
         23    2    1    2    0    0  0.12462990901E+03 -0.19480966450E+02 -0.50370163350E+03  0.52712358585E+03  0.90729360711E+02 0.  0.
          5    1    3    3  502    0 -0.54390536218E+02 -0.11873346479E+02 -0.48716675973E+02  0.74095166539E+02  0.41800000000E+01 0. -1.
         -5    1    3    3    0  502 -0.70239372795E+02  0.31354312928E+02  0.71335524919E+02  0.10498996116E+03  0.41800000000E+01 0. -1.
        -11    1    4    4    0    0  0.54268257880E+02 -0.49678333244E+02 -0.17928946710E+03  0.19379807435E+03  0.00000000000E+00 0.  1.
         11    1    4    4    0    0  0.70361651133E+02  0.30197366795E+02 -0.32441216640E+03  0.33332551151E+03  0.00000000000E+00 0. -1.
</event>
<event>
 8    1  0.7052796E-009  0.1420757E+03  0.7561462E-02  0.1210563E+00
         -2   -1    0    0    0  501 -0.00000000000E+00  0.00000000000E+00  0.55352965813E+02  0.55352965813E+02  0.00000000000E+00 0.  1.
          2   -1    0    0  501    0  0.00000000000E+00 -0.00000000000E+00 -0.38642773753E+03  0.38642773753E+03  0.00000000000E+00 0. -1.
         25    2    1    2    0    0  0.92952390023E+02 -0.18403342752E+02 -0.13969977958E+03  0.21010168084E+03  0.12509139874E+03 0.  0.
         23    2    1    2    0    0 -0.92952390023E+02  0.18403342752E+02 -0.19137499214E+03  0.23167902251E+03  0.89844042765E+02 0.  0.
          5    1    3    3  502    0  0.11862873476E+03  0.46853082226E+01 -0.12468517607E+03  0.17221670754E+03  0.41800000000E+01 0. -1.
         -5    1    3    3    0  502 -0.25676344741E+02 -0.23088650974E+02 -0.15014603517E+02  0.37884973299E+02  0.41800000000E+01 0. -1.
        -11    1    4    4    0    0 -0.54616541349E+02 -0.34975341948E+02 -0.96027624559E+02  0.11587728773E+03  0.00000000000E+00 0. -1.
         11    1    4    4    0    0 -0.38335848674E+02  0.53378684700E+02 -0.95347367579E+02  0.11580173478E+03  0.00000000000E+00 0.  1.
</event>
<event>
 8    1  0.7052796E-009  0.1043476E+03  0.7561462E-02  0.1271410E+00
         -2   -1    0    0    0  501 -0.00000000000E+00  0.00000000000E+00  0.19031503408E+02  0.19031503408E+02  0.00000000000E+00 0.  1.
          2   -1    0    0  501    0  0.00000000000E+00 -0.00000000000E+00 -0.94069742024E+03  0.94069742024E+03  0.00000000000E+00 0. -1.
         25    2    1    2    0    0  0.19455405717E+00  0.63550762721E+02 -0.62741374458E+03  0.64291095844E+03  0.12509099210E+03 0.  0.
         23    2    1    2    0    0 -0.19455405717E+00 -0.63550762721E+02 -0.29425217225E+03  0.31681796520E+03  0.98744847498E+02 0.  0.
          5    1    3    3  502    0  0.27506043348E+02  0.52356525970E+01 -0.27270106619E+02  0.39308085604E+02  0.41800000000E+01 0.  1.
         -5    1    3    3    0  502 -0.27311489291E+02  0.58315110124E+02 -0.60014363796E+03  0.60360287284E+03  0.41800000000E+01 0.  1.
        -11    1    4    4    0    0  0.25369517922E+02 -0.81015889754E+02 -0.19084850660E+03  0.20887876700E+03  0.00000000000E+00 0. -1.
         11    1    4    4    0    0 -0.25564071980E+02  0.17465127034E+02 -0.10340366566E+03  0.10793919821E+03  0.00000000000E+00 0.  1.
</event>
<event>
 8    1  0.7052796E-009  0.1047694E+03  0.7561462E-02  0.1270575E+00
         -1   -1    0    0    0  501 -0.00000000000E+00  0.00000000000E+00  0.18368878449E+03  0.18368878449E+03  0.00000000000E+00 0.  1.
          1   -1    0    0  501    0  0.00000000000E+00 -0.00000000000E+00 -0.11869099632E+03  0.11869099632E+03  0.00000000000E+00 0. -1.
         25    2    1    2    0    0  0.21839958585E+02  0.73978788107E+02 -0.29287397894E+02  0.14984878304E+03  0.12508821376E+03 0.  0.
         23    2    1    2    0    0 -0.21839958585E+02 -0.73978788107E+02  0.94285186064E+02  0.15253099776E+03  0.91794139722E+02 0.  0.
          5    1    3    3  502    0  0.55776682111E+02  0.36814907920E+02 -0.60697146045E+02  0.90376942029E+02  0.41800000000E+01 0.  1.
         -5    1    3    3    0  502 -0.33936723527E+02  0.37163880187E+02  0.31409748152E+02  0.59471841011E+02  0.41800000000E+01 0.  1.
        -11    1    4    4    0    0  0.61908538483E+01 -0.60778647756E+02  0.89500565268E+01  0.61745236304E+02  0.00000000000E+00 0. -1.
         11    1    4    4    0    0 -0.28030812433E+02 -0.13200140351E+02  0.85335129537E+02  0.90785761461E+02  0.00000000000E+00 0.  1.
</event>
<event>
 8    1  0.7052796E-009  0.1186510E+03  0.7561462E-02  0.1245339E+00
          2   -1    0    0  501    0  0.00000000000E+00  0.00000000000E+00  0.93870633778E+03  0.93870633778E+03  0.00000000000E+00 0. -1.
         -2   -1    0    0    0  501 -0.00000000000E+00 -0.00000000000E+00 -0.16358812605E+02  0.16358812605E+02  0.00000000000E+00 0.  1.
         25    2    1    2    0    0 -0.28926247596E+01  0.55320582935E+02  0.42916222070E+03  0.45044065450E+03  0.12509131614E+03 0.  0.
         23    2    1    2    0    0  0.28926247596E+01 -0.55320582935E+02  0.49318530448E+03  0.50462449589E+03  0.91353177959E+02 0.  0.
          5    1    3    3  502    0  0.59145666631E+02  0.33837560576E+02  0.17344362466E+03  0.18639569126E+03  0.41800000000E+01 0. -1.
         -5    1    3    3    0  502 -0.62038291391E+02  0.21483022359E+02  0.25571859604E+03  0.26404496323E+03  0.41800000000E+01 0. -1.
        -11    1    4    4    0    0  0.25832872428E+02 -0.70938192579E+02  0.41110650545E+03  0.41798100829E+03  0.00000000000E+00 0.  1.
         11    1    4    4    0    0 -0.22940247668E+02  0.15617609644E+02  0.82078799027E+02  0.86643487601E+02  0.00000000000E+00 0. -1.
</event>
<event>
 8    1  0.7052796E-009  0.8711119E+02  0.7561462E-02  0.1310002E+00
          1   -1    0    0  501    0  0.00000000000E+00  0.00000000000E+00  0.88568109010E+02  0.88568109010E+02  0.00000000000E+00 0. -1.
         -1   -1    0    0    0  501 -0.00000000000E+00 -0.00000000000E+00 -0.17594766878E+03  0.17594766878E+03  0.00000000000E+00 0.  1.
         25    2    1    2    0    0 -0.39320696205E+01  0.26902492297E+01  0.13504852746E+02  0.12590899829E+03  0.12509195094E+03 0.  0.
         23    2    1    2    0    0  0.39320696205E+01 -0.26902492297E+01 -0.10088441251E+03  0.13860677950E+03  0.94928794485E+02 0.  0.
          5    1    3    3  502    0 -0.46086401267E+02 -0.17862776976E+02 -0.33121480315E+02  0.59645117498E+02  0.41800000000E+01 0. -1.
         -5    1    3    3    0  502  0.42154331647E+02  0.20553026205E+02  0.46626333061E+02  0.66263880791E+02  0.41800000000E+01 0. -1.
        -11    1    4    4    0    0 -0.36746224484E+02  0.29432104499E+00 -0.88742904267E+02  0.96050375827E+02  0.00000000000E+00 0.  1.
         11    1    4    4    0    0  0.40678294105E+02 -0.29845702747E+01 -0.12141508248E+02  0.42556403672E+02  0.00000000000E+00 0. -1.
</event>
<event>
 8    1  0.7052796E-009  0.1085624E+03  0.7561462E-02  0.1263256E+00
          1   -1    0    0  501    0  0.00000000000E+00  0.00000000000E+00  0.10733811601E+03  0.10733811601E+03  0.00000000000E+00 0. -1.
         -1   -1    0    0    0  501 -0.00000000000E+00 -0.00000000000E+00 -0.20228909406E+03  0.20228909406E+03  0.00000000000E+00 0.  1.
         25    2    1    2    0    0  0.82834460183E+02  0.14395957312E+02  0.64247533881E+01  0.15086416325E+03  0.12509966793E+03 0.  0.
         23    2    1    2    0    0 -0.82834460183E+02 -0.14395957312E+02 -0.10137573144E+03  0.15876304681E+03  0.88655934529E+02 0.  0.
          5    1    3    3  502    0 -0.13092320802E+02 -0.14984379430E+02 -0.36405737045E+02  0.41698807905E+02  0.41800000000E+01 0. -1.
         -5    1    3    3    0  502  0.95926780985E+02  0.29380336743E+02  0.42830490433E+02  0.10916535535E+03  0.41800000000E+01 0. -1.
        -11    1    4    4    0    0 -0.20929820656E+02 -0.26020334831E+02 -0.88341129076E+02  0.94441888502E+02  0.00000000000E+00 0.  1.
         11    1    4    4    0    0 -0.61904639527E+02  0.11624377518E+02 -0.13034602366E+02  0.64321158312E+02  0.00000000000E+00 0. -1.
</event>
<event>
 8    1  0.7052796E-009  0.1931169E+03  0.7561462E-02  0.1155680E+00
         -1   -1    0    0    0  501 -0.00000000000E+00  0.00000000000E+00  0.29654670514E+03  0.29654670514E+03  0.00000000000E+00 0.  1.
          1   -1    0    0  501    0  0.00000000000E+00 -0.00000000000E+00 -0.18790588059E+03  0.18790588059E+03  0.00000000000E+00 0. -1.
         25    2    1    2    0    0 -0.63501440145E+01 -0.18331551050E+03 -0.47300602856E+02  0.22700181718E+03  0.12509027642E+03 0.  0.
         23    2    1    2    0    0  0.63501440145E+01  0.18331551050E+03  0.15594142740E+03  0.25745076855E+03  0.91204543340E+02 0.  0.
          5    1    3    3  502    0  0.22738826887E+02 -0.32711957468E+02  0.34721648575E+02  0.53011241160E+02  0.41800000000E+01 0.  1.
         -5    1    3    3    0  502 -0.29088970901E+02 -0.15060355303E+03 -0.82022251431E+02  0.17399057602E+03  0.41800000000E+01 0.  1.
        -11    1    4    4    0    0 -0.21199593554E+02  0.13859534895E+03  0.14878839203E+03  0.20444089395E+03  0.00000000000E+00 0.  1.
         11    1    4    4    0    0  0.27549737568E+02  0.44720161553E+02  0.71530353693E+01  0.53009874593E+02  0.00000000000E+00 0. -1.
</event>
<event>
 8    1  0.7052796E-009  0.9739875E+02  0.7561462E-02  0.1285863E+00
         -1   -1    0    0    0  501 -0.00000000000E+00  0.00000000000E+00  0.34260372556E+03  0.34260372556E+03  0.00000000000E+00 0.  1.
          1   -1    0    0  501    0  0.00000000000E+00 -0.00000000000E+00 -0.49943638336E+02  0.49943638336E+02  0.00000000000E+00 0. -1.
         25    2    1    2    0    0  0.56214173857E+02  0.15765219187E+02  0.22752329477E+03  0.26612702177E+03  0.12509263197E+03 0.  0.
         23    2    1    2    0    0 -0.56214173857E+02 -0.15765219187E+02  0.65136792461E+02  0.12642034213E+03  0.91272809175E+02 0.  0.
          5    1    3    3  502    0  0.54513929271E+02 -0.14463129235E+02  0.25904830428E+02  0.62205170455E+02  0.41800000000E+01 0.  1.
         -5    1    3    3    0  502  0.17002445860E+01  0.30228348422E+02  0.20161846434E+03  0.20392185131E+03  0.41800000000E+01 0.  1.
        -11    1    4    4    0    0  0.17146600200E+02 -0.28462296249E+02  0.26736992365E+02  0.42649442750E+02  0.00000000000E+00 0.  1.
         11    1    4    4    0    0 -0.73360774057E+02  0.12697077062E+02  0.38399800097E+02  0.83770899384E+02  0.00000000000E+00 0. -1.
</event>
<event>
 8    1  0.7052796E-009  0.1045323E+03  0.7561462E-02  0.1271044E+00
          1   -1    0    0  501    0  0.00000000000E+00  0.00000000000E+00  0.29544757579E+02  0.29544757579E+02  0.00000000000E+00 0. -1.
         -1   -1    0    0    0  501 -0.00000000000E+00 -0.00000000000E+00 -0.44051793011E+03  0.44051793011E+03  0.00000000000E+00 0.  1.
         25    2    1    2    0    0  0.27840517932E+02 -0.24341072310E+02 -0.23503801531E+03  0.26880842837E+03  0.12509004868E+03 0.  0.
         23    2    1    2    0    0 -0.27840517932E+02  0.24341072310E+02 -0.17593515722E+03  0.20125425932E+03  0.90457255710E+02 0.  0.
          5    1    3    3  502    0 -0.47603050359E+02 -0.19749340008E+02 -0.68066141652E+02  0.85478411740E+02  0.41800000000E+01 0. -1.
         -5    1    3    3    0  502  0.75443568292E+02 -0.45917323017E+01 -0.16697187366E+03  0.18333001663E+03  0.41800000000E+01 0. -1.
        -11    1    4    4    0    0  0.51466788971E+01 -0.23217220735E+02 -0.10516826403E+02  0.26002524492E+02  0.00000000000E+00 0. -1.
         11    1    4    4    0    0 -0.32987196829E+02  0.47558293045E+02 -0.16541833081E+03  0.17525173483E+03  0.00000000000E+00 0.  1.
</event>
<event>
 8    1  0.7052796E-009  0.1624682E+03  0.7561462E-02  0.1185938E+00
         -2   -1    0    0    0  501 -0.00000000000E+00  0.00000000000E+00  0.23346373681E+02  0.23346373681E+02  0.00000000000E+00 0. -1.
          2   -1    0    0  501    0  0.00000000000E+00 -0.00000000000E+00 -0.14190223144E+04  0.14190223144E+04  0.00000000000E+00 0.  1.
         25    2    1    2    0    0  0.47515764609E+01 -0.14310540782E+03 -0.63758502108E+03  0.66532983561E+03  0.12508955117E+03 0.  0.
         23    2    1    2    0    0 -0.47515764609E+01  0.14310540782E+03 -0.75809091962E+03  0.77703885246E+03  0.92659595280E+02 0.  0.
          5    1    3    3  502    0 -0.30049260560E+01 -0.14523354270E+03 -0.36891137046E+03  0.39650332049E+03  0.41800000000E+01 0.  1.
         -5    1    3    3    0  502  0.77565025169E+01  0.21281348849E+01 -0.26867365062E+03  0.26882651511E+03  0.41800000000E+01 0.  1.
        -11    1    4    4    0    0 -0.48409238505E+02  0.64688656829E+02 -0.36163990965E+03  0.37055566511E+03  0.00000000000E+00 0.  1.
         11    1    4    4    0    0  0.43657662044E+02  0.78416750987E+02 -0.39645100996E+03  0.40648318734E+03  0.00000000000E+00 0. -1.
</event>
<event>
 8    1  0.7052796E-009  0.1743365E+03  0.7561462E-02  0.1173400E+00
         -2   -1    0    0    0  501 -0.00000000000E+00  0.00000000000E+00  0.23696591110E+03  0.23696591110E+03  0.00000000000E+00 0. -1.
          2   -1    0    0  501    0  0.00000000000E+00 -0.00000000000E+00 -0.17312439046E+03  0.17312439046E+03  0.00000000000E+00 0.  1.
         25    2    1    2    0    0 -0.14841450388E+03  0.66241296238E+02 -0.19673702568E+02  0.20603267022E+03  0.12509049659E+03 0.  0.
         23    2    1    2    0    0  0.14841450388E+03 -0.66241296238E+02  0.83515223200E+02  0.20405763134E+03  0.90829236017E+02 0.  0.
          5    1    3    3  502    0 -0.12573214679E+03  0.39175299194E+02 -0.66213955983E+02  0.14746198551E+03  0.41800000000E+01 0. -1.
         -5    1    3    3    0  502 -0.22682357083E+02  0.27065997044E+02  0.46540253416E+02  0.58570684705E+02  0.41800000000E+01 0. -1.
        -11    1    4    4    0    0  0.15361781873E+03 -0.75166218842E+02  0.65197787315E+02  0.18302771964E+03  0.00000000000E+00 0.  1.
         11    1    4    4    0    0 -0.52033148503E+01  0.89249226041E+01  0.18317435886E+02  0.21029911706E+02  0.00000000000E+00 0. -1.
</event>
<event>
 8    1  0.7052796E-009  0.8031155E+02  0.7561462E-02  0.1328170E+00
          2   -1    0    0  501    0  0.00000000000E+00  0.00000000000E+00  0.73240680917E+02  0.73240680917E+02  0.00000000000E+00 0. -1.
         -2   -1    0    0    0  501 -0.00000000000E+00 -0.00000000000E+00 -0.20604046798E+03  0.20604046798E+03  0.00000000000E+00 0.  1.
         25    2    1    2    0    0  0.61431090994E+01 -0.27502752428E+02 -0.16964162141E+02  0.12933400482E+03  0.12508142478E+03 0.  0.
         23    2    1    2    0    0 -0.61431090994E+01  0.27502752428E+02 -0.11583562492E+03  0.14994714408E+03  0.90951167315E+02 0.  0.
          5    1    3    3  502    0 -0.24262719488E+02 -0.65395835488E+02  0.14413076195E+02  0.71347768161E+02  0.41800000000E+01 0. -1.
         -5    1    3    3    0  502  0.30405828588E+02  0.37893083059E+02 -0.31377238337E+02  0.57986236656E+02  0.41800000000E+01 0. -1.
        -11    1    4    4    0    0 -0.14796114131E+02  0.18515595504E+01  0.12084768156E+02  0.19193615801E+02  0.00000000000E+00 0. -1.
         11    1    4    4    0    0  0.86530050320E+01  0.25651192878E+02 -0.12792039308E+03  0.13075352828E+03  0.00000000000E+00 0.  1.
</event>
<event>
 8    1  0.7052796E-009  0.8730878E+02  0.7561462E-02  0.1309503E+00
          1   -1    0    0  501    0  0.00000000000E+00  0.00000000000E+00  0.46151730941E+03  0.46151730941E+03  0.00000000000E+00 0. -1.
         -1   -1    0    0    0  501 -0.00000000000E+00 -0.00000000000E+00 -0.29527204592E+02  0.29527204592E+02  0.00000000000E+00 0.  1.
         25    2    1    2    0    0  0.23431346415E+02 -0.94871920962E+00  0.32575974821E+03  0.34973730779E+03  0.12508734088E+03 0.  0.
         23    2    1    2    0    0 -0.23431346415E+02  0.94871920962E+00  0.10623035662E+03  0.14130720621E+03  0.90182646879E+02 0.  0.
          5    1    3    3  502    0 -0.13165316568E+02 -0.40111394499E+02  0.26596197736E+03  0.26932414547E+03  0.41800000000E+01 0.  1.
         -5    1    3    3    0  502  0.36596662983E+02  0.39162675289E+02  0.59797770845E+02  0.80413162326E+02  0.41800000000E+01 0.  1.
        -11    1    4    4    0    0 -0.28885706983E+02 -0.33109482626E+02  0.95600117875E+02  0.10521408863E+03  0.00000000000E+00 0. -1.
         11    1    4    4    0    0  0.54543605682E+01  0.34058201836E+02  0.10630238740E+02  0.36093117587E+02  0.00000000000E+00 0.  1.
</event>
<event>
 8    1  0.7052796E-009  0.1071350E+03  0.7561462E-02  0.1265969E+00
         -2   -1    0    0    0  501 -0.00000000000E+00  0.00000000000E+00  0.10685765659E+03  0.10685765659E+03  0.00000000000E+00 0. -1.
          2   -1    0    0  501    0  0.00000000000E+00 -0.00000000000E+00 -0.20446231149E+03  0.20446231149E+03  0.00000000000E+00 0.  1.
         25    2    1    2    0    0 -0.51820589950E+02  0.58175317474E+02 -0.11932541381E+03  0.18962714591E+03  0.12510059544E+03 0.  0.
         23    2    1    2    0    0  0.51820589950E+02 -0.58175317474E+02  0.21720758911E+02  0.12169282217E+03  0.90926401522E+02 0.  0.
          5    1    3    3  502    0  0.17972204761E+02 -0.12589023518E+02  0.11620974401E+02  0.25179418244E+02  0.41800000000E+01 0. -1.
         -5    1    3    3    0  502 -0.69792794711E+02  0.70764340991E+02 -0.13094638821E+03  0.16444772766E+03  0.41800000000E+01 0. -1.
        -11    1    4    4    0    0  0.49407923074E+02 -0.18581835571E+02  0.50212297770E+02  0.72853979459E+02  0.00000000000E+00 0. -1.
         11    1    4    4    0    0  0.24126668758E+01 -0.39593481903E+02 -0.28491538859E+02  0.48838842709E+02  0.00000000000E+00 0.  1.
</event>
<event>
 8    1  0.7052796E-009  0.1280833E+03  0.7561462E-02  0.1230328E+00
         -2   -1    0    0    0  501 -0.00000000000E+00  0.00000000000E+00  0.13050463681E+03  0.13050463681E+03  0.00000000000E+00 0.  1.
          2   -1    0    0  501    0  0.00000000000E+00 -0.00000000000E+00 -0.13729331339E+03  0.13729331339E+03  0.00000000000E+00 0. -1.
         25    2    1    2    0    0  0.99605021005E+01  0.71065390641E+02  0.30393984814E+02  0.14738078713E+03  0.12509116977E+03 0.  0.
         23    2    1    2    0    0 -0.99605021005E+01 -0.71065390641E+02 -0.37182661392E+02  0.12041716308E+03  0.89265007174E+02 0.  0.
          5    1    3    3  502    0  0.66731852310E+02  0.31296563613E+02  0.24084203050E+02  0.77653951884E+02  0.41800000000E+01 0. -1.
         -5    1    3    3    0  502 -0.56771350209E+02  0.39768827028E+02  0.63097817644E+01  0.69726835248E+02  0.41800000000E+01 0. -1.
        -11    1    4    4    0    0 -0.26703439981E+02  0.11194290676E+02 -0.90933034516E+00  0.28969168649E+02  0.00000000000E+00 0.  1.
         11    1    4    4    0    0  0.16742937881E+02 -0.82259681317E+02 -0.36273331047E+02  0.91447994426E+02  0.00000000000E+00 0. -1.
</event>
<event>
 8    1  0.7052796E-009  0.1045444E+03  0.7561462E-02  0.1271020E+00
         -1   -1    0    0    0  501 -0.00000000000E+00  0.00000000000E+00  0.52284495073E+02  0.52284495073E+02  0.00000000000E+00 0.  1.
          1   -1    0    0  501    0  0.00000000000E+00 -0.00000000000E+00 -0.33420136966E+03  0.33420136966E+03  0.00000000000E+00 0. -1.
         25    2    1    2    0    0 -0.12780296118E+02  0.41480519617E+02 -0.64966958270E+02  0.14748425067E+03  0.12508768546E+03 0.  0.
         23    2    1    2    0    0  0.12780296118E+02 -0.41480519617E+02 -0.21694991631E+03  0.23900161406E+03  0.90391016463E+02 0.  0.
          5    1    3    3  502    0 -0.36148174985E+02  0.65668841592E+02 -0.98837468850E+00  0.75083530786E+02  0.41800000000E+01 0.  1.
         -5    1    3    3    0  502  0.23367878867E+02 -0.24188321975E+02 -0.63978583581E+02  0.72400719885E+02  0.41800000000E+01 0.  1.
        -11    1    4    4    0    0  0.31403683818E+02 -0.63765175934E+02 -0.14792168381E+03  0.16411280743E+03  0.00000000000E+00 0. -1.
         11    1    4    4    0    0 -0.18623387700E+02  0.22284656317E+02 -0.69028232499E+02  0.74888806630E+02  0.00000000000E+00 0.  1.
</event>
<event>
 8    1  0.7052796E-009  0.1289225E+03  0.7561462E-02  0.1229063E+00
          2   -1    0    0  501    0  0.00000000000E+00  0.00000000000E+00  0.62237870615E+03  0.62237870615E+03  0.00000000000E+00 0. -1.
         -2   -1    0    0    0  501 -0.00000000000E+00 -0.00000000000E+00 -0.33144413237E+02  0.33144413237E+02  0.00000000000E+00 0.  1.
         25    2    1    2    0    0  0.59523229224E+02  0.65095055592E+02  0.39591942552E+03  0.42447537233E+03  0.12508704621E+03 0.  0.
         23    2    1    2    0    0 -0.59523229224E+02 -0.65095055592E+02  0.19331486739E+03  0.23104774706E+03  0.90730603361E+02 0.  0.
          5    1    3    3  502    0 -0.33403175782E+02  0.19565114909E+02  0.49922493592E+02  0.63311086235E+02  0.41800000000E+01 0.  1.
         -5    1    3    3    0  502  0.92926405006E+02  0.45529940683E+02  0.34599693193E+03  0.36116428609E+03  0.41800000000E+01 0.  1.
        -11    1    4    4    0    0 -0.76542875058E+02 -0.60900189538E+02  0.11583305235E+03  0.15160785212E+03  0.00000000000E+00 0.  1.
         11    1    4    4    0    0  0.17019645835E+02 -0.41948660535E+01  0.77481815038E+02  0.79439894934E+02  0.00000000000E+00 0. -1.
</event>
<event>
 8    1  0.7052796E-009  0.1805327E+03  0.7561462E-02  0.1167288E+00
         -1   -1    0    0    0  501 -0.00000000000E+00  0.00000000000E+00  0.80123318685E+02  0.80123318685E+02  0.00000000000E+00 0.  1.
          1   -1    0    0  501    0  0.00000000000E+00 -0.00000000000E+00 -0.47268330129E+03  0.47268330129E+03  0.00000000000E+00 0. -1.
         25    2    1    2    0    0  0.15650109529E+03 -0.33668511806E+02 -0.22954998968E+03  0.30653977904E+03  0.12508907569E+03 0.  0.
         23    2    1    2    0    0 -0.15650109529E+03  0.33668511806E+02 -0.16300999293E+03  0.24626684094E+03  0.91918102897E+02 0.  0.
          5    1    3    3  502    0  0.62453222181E+02  0.36187717660E+02 -0.14492360689E+03  0.16195764911E+03  0.41800000000E+01 0.  1.
         -5    1    3    3    0  502  0.94047873105E+02 -0.69856229466E+02 -0.84626382789E+02  0.14458212993E+03  0.41800000000E+01 0.  1.
        -11    1    4    4    0    0 -0.10523928659E+03  0.51626500612E+02 -0.15008008537E+03  0.19043275725E+03  0.00000000000E+00 0. -1.
         11    1    4    4    0    0 -0.51261808694E+02 -0.17957988806E+02 -0.12929907556E+02  0.55834083694E+02  0.00000000000E+00 0.  1.
</event>
<event>
 8    1  0.7052796E-009  0.1245195E+03  0.7561462E-02  0.1235822E+00
         -1   -1    0    0    0  501 -0.00000000000E+00  0.00000000000E+00  0.80882707459E+02  0.80882707459E+02  0.00000000000E+00 0.  1.
          1   -1    0    0  501    0  0.00000000000E+00 -0.00000000000E+00 -0.34156991387E+03  0.34156991387E+03  0.00000000000E+00 0. -1.
         25    2    1    2    0    0  0.11422388556E+02 -0.99124534419E+02 -0.23664074406E+03  0.28566341838E+03  0.12509437463E+03 0.  0.
         23    2    1    2    0    0 -0.11422388556E+02  0.99124534419E+02 -0.24046462342E+02  0.13678920295E+03  0.90426265031E+02 0.  0.
          5    1    3    3  502    0 -0.39997116225E+02 -0.86473157622E+02 -0.19865707142E+03  0.22036215810E+03  0.41800000000E+01 0.  1.
         -5    1    3    3    0  502  0.51419504782E+02 -0.12651376796E+02 -0.37983672641E+02  0.65301260280E+02  0.41800000000E+01 0.  1.
        -11    1    4    4    0    0 -0.10345671299E+02  0.36967482100E+02 -0.55213931015E+02  0.67247348093E+02  0.00000000000E+00 0. -1.
         11    1    4    4    0    0 -0.10767172574E+01  0.62157052319E+02  0.31167468673E+02  0.69541854854E+02  0.00000000000E+00 0.  1.
</event>
<event>
 8    1  0.7052796E-009  0.1041055E+03  0.7561462E-02  0.1271892E+00
          1   -1    0    0  501    0  0.00000000000E+00  0.00000000000E+00  0.52689420958E+03  0.52689420958E+03  0.00000000000E+00 0. -1.
         -1   -1    0    0    0  501 -0.00000000000E+00 -0.00000000000E+00 -0.26888974199E+02  0.26888974199E+02  0.00000000000E+00 0.  1.
         25    2    1    2    0    0  0.89432433720E+01 -0.46932593481E+02  0.28190185948E+03  0.31208714274E+03  0.12508827426E+03 0.  0.
         23    2    1    2    0    0 -0.89432433720E+01  0.46932593481E+02  0.21810337590E+03  0.24169604103E+03  0.92548602031E+02 0.  0.
          5    1    3    3  502    0 -0.57470681505E+02 -0.22136408608E+02  0.15169433730E+03  0.16377284325E+03  0.41800000000E+01 0. -1.
         -5    1    3    3    0  502  0.66413924877E+02 -0.24796184873E+02  0.13020752218E+03  0.14831429949E+03  0.41800000000E+01 0. -1.
        -11    1    4    4    0    0 -0.53109963674E+01  0.60851404696E+02  0.21892591060E+03  0.22728760298E+03  0.00000000000E+00 0. -1.
         11    1    4    4    0    0 -0.36322470046E+01 -0.13918811215E+02 -0.82253469256E+00  0.14408438058E+02  0.00000000000E+00 0.  1.
</event>
<event>
 8    1  0.7052796E-009  0.1044042E+03  0.7561462E-02  0.1271298E+00
         -1   -1    0    0    0  501 -0.00000000000E+00  0.00000000000E+00  0.32801958266E+03  0.32801958266E+03  0.00000000000E+00 0.  1.
          1   -1    0    0  501    0  0.00000000000E+00 -0.00000000000E+00 -0.77507487987E+02  0.77507487987E+02  0.00000000000E+00 0. -1.
         25    2    1    2    0    0  0.74988943904E+02 -0.34726373247E+02  0.23971578348E+03  0.28273920110E+03  0.12509410969E+03 0.  0.
         23    2    1    2    0    0 -0.74988943904E+02  0.34726373247E+02  0.10796311195E+02  0.12278786956E+03  0.90172267731E+02 0.  0.
          5    1    3    3  502    0  0.57602874480E+02  0.12222579435E+01  0.23536887096E+03  0.24235420954E+03  0.41800000000E+01 0.  1.
         -5    1    3    3    0  502  0.17386069424E+02 -0.35948631191E+02  0.43469125173E+01  0.40384991556E+02  0.41800000000E+01 0.  1.
        -11    1    4    4    0    0 -0.87909437835E+02  0.40437862877E+02 -0.10393695353E+02  0.97320701383E+02  0.00000000000E+00 0. -1.
         11    1    4    4    0    0  0.12920493931E+02 -0.57114896300E+01  0.21190006548E+02  0.25467168172E+02  0.00000000000E+00 0.  1.
</event>
<event>
 8    1  0.7052796E-009  0.7682838E+02  0.7561462E-02  0.1338301E+00
         -1   -1    0    0    0  501 -0.00000000000E+00  0.00000000000E+00  0.65283378555E+02  0.65283378555E+02  0.00000000000E+00 0.  1.
          1   -1    0    0  501    0  0.00000000000E+00 -0.00000000000E+00 -0.22415420102E+03  0.22415420102E+03  0.00000000000E+00 0. -1.
         25    2    1    2    0    0 -0.21398222880E+02  0.49222791171E+02 -0.79205096474E+02  0.15748346556E+03  0.12508727954E+03 0.  0.
         23    2    1    2    0    0  0.21398222880E+02 -0.49222791171E+02 -0.79665725988E+02  0.13195411401E+03  0.90468188854E+02 0.  0.
          5    1    3    3  502    0 -0.16923938970E+02  0.61026293367E+02  0.12612178457E+02  0.64708327422E+02  0.41800000000E+01 0. -1.
         -5    1    3    3    0  502 -0.44742839097E+01 -0.11803502196E+02 -0.91817274931E+02  0.92775138137E+02  0.41800000000E+01 0. -1.
        -11    1    4    4    0    0  0.14685345718E+02  0.96926530130E+01 -0.69624248155E+02  0.71813249700E+02  0.00000000000E+00 0. -1.
         11    1    4    4    0    0  0.67128771620E+01 -0.58915444184E+02 -0.10041477833E+02  0.60140864313E+02  0.00000000000E+00 0.  1.
</event>
<event>
 8    1  0.7052796E-009  0.1072512E+03  0.7561462E-02  0.1265747E+00
         -2   -1    0    0    0  501 -0.00000000000E+00  0.00000000000E+00  0.14662527893E+03  0.14662527893E+03  0.00000000000E+00 0.  1.
          2   -1    0    0  501    0  0.00000000000E+00 -0.00000000000E+00 -0.12392568228E+03  0.12392568228E+03  0.00000000000E+00 0. -1.
         25    2    1    2    0    0  0.41586856436E+02  0.48154371594E+02  0.62314898455E+02  0.15355409259E+03  0.12508957850E+03 0.  0.
         23    2    1    2    0    0 -0.41586856436E+02 -0.48154371594E+02 -0.39615301811E+02  0.11699686862E+03  0.89836434689E+02 0.  0.
          5    1    3    3  502    0 -0.54228626643E+01  0.80832654433E+02  0.24224225100E+02  0.84661744275E+02  0.41800000000E+01 0. -1.
         -5    1    3    3    0  502  0.47009719100E+02 -0.32678282839E+02  0.38090673356E+02  0.68892348311E+02  0.41800000000E+01 0. -1.
        -11    1    4    4    0    0 -0.48530878818E+02 -0.31304540462E+02 -0.64226342991E+02  0.86372701627E+02  0.00000000000E+00 0. -1.
         11    1    4    4    0    0  0.69440223823E+01 -0.16849831132E+02  0.24611041181E+02  0.30624166993E+02  0.00000000000E+00 0.  1.
</event>
<event>
 8    1  0.7052796E-009  0.1229772E+03  0.7561462E-02  0.1238265E+00
          1   -1    0    0  501    0  0.00000000000E+00  0.00000000000E+00  0.29008257432E+03  0.29008257432E+03  0.00000000000E+00 0. -1.
         -1   -1    0    0    0  501 -0.00000000000E+00 -0.00000000000E+00 -0.53228316880E+02  0.53228316880E+02  0.00000000000E+00 0.  1.
         25    2    1    2    0    0 -0.47708097746E+02  0.25266732407E+02  0.11782554290E+03  0.18011678326E+03  0.12507888189E+03 0.  0.
         23    2    1    2    0    0  0.47708097746E+02 -0.25266732407E+02  0.11902871454E+03  0.16319410795E+03  0.97724160911E+02 0.  0.
          5    1    3    3  502    0 -0.49929841850E+02  0.72837828385E+02  0.75031267818E+02  0.11595474075E+03  0.41800000000E+01 0.  1.
         -5    1    3    3    0  502  0.22217441040E+01 -0.47571095978E+02  0.42794275081E+02  0.64162042510E+02  0.41800000000E+01 0.  1.
        -11    1    4    4    0    0  0.35738601326E+02  0.33970022889E+02  0.68611649010E+02  0.84491233034E+02  0.00000000000E+00 0. -1.
         11    1    4    4    0    0  0.11969496420E+02 -0.59236755296E+02  0.50417065534E+02  0.78702874913E+02  0.00000000000E+00 0.  1.
</event>
<event>
 8    1  0.7052796E-009  0.2320806E+03  0.7561462E-02  0.1125184E+00
          1   -1    0    0  501    0  0.00000000000E+00  0.00000000000E+00  0.48159063880E+03  0.48159063880E+03  0.00000000000E+00 0. -1.
         -1   -1    0    0    0  501 -0.00000000000E+00 -0.00000000000E+00 -0.14368748426E+03  0.14368748426E+03  0.00000000000E+00 0.  1.
         25    2    1    2    0    0 -0.99209984604E+02 -0.18823160539E+03  0.30214645715E+03  0.39014468150E+03  0.12508650055E+03 0.  0.
         23    2    1    2    0    0  0.99209984604E+02  0.18823160539E+03  0.35756697384E+02  0.23513344156E+03  0.93463552364E+02 0.  0.
          5    1    3    3  502    0 -0.11931346414E+03 -0.18426419276E+03  0.29562176031E+03  0.36823727816E+03  0.41800000000E+01 0.  1.
         -5    1    3    3    0  502  0.20103479532E+02 -0.39674126271E+01  0.65246968440E+01  0.21907403341E+02  0.41800000000E+01 0.  1.
        -11    1    4    4    0    0  0.41846264961E+02  0.20855844742E+02 -0.18174582190E+02  0.50163648082E+02  0.00000000000E+00 0.  1.
         11    1    4    4    0    0  0.57363719642E+02  0.16737576065E+03  0.53931279574E+02  0.18496979348E+03  0.00000000000E+00 0. -1.
</event>
<event>
 8    1  0.7052796E-009  0.1615991E+03  0.7561462E-02  0.1186903E+00
         -1   -1    0    0    0  501 -0.00000000000E+00  0.00000000000E+00  0.15062953287E+03  0.15062953287E+03  0.00000000000E+00 0.  1.
          1   -1    0    0  501    0  0.00000000000E+00 -0.00000000000E+00 -0.29293466435E+03  0.29293466435E+03  0.00000000000E+00 0. -1.
         25    2    1    2    0    0 -0.74996360321E+02  0.11142423532E+03 -0.19956490845E+03  0.27113433978E+03  0.12509141955E+03 0.  0.
         23    2    1    2    0    0  0.74996360321E+02 -0.11142423532E+03  0.57259776976E+02  0.17242985743E+03  0.91725456642E+02 0.  0.
          5    1    3    3  502    0 -0.99301631107E+02  0.43887618434E+02 -0.95537405355E+02  0.14467828176E+03  0.41800000000E+01 0.  1.
         -5    1    3    3    0  502  0.24305270786E+02  0.67536616887E+02 -0.10402750310E+03  0.12645605802E+03  0.41800000000E+01 0.  1.
        -11    1    4    4    0    0  0.43679382093E+02 -0.24111904951E+02  0.61961619247E+02  0.79551961887E+02  0.00000000000E+00 0.  1.
         11    1    4    4    0    0  0.31316978228E+02 -0.87312330370E+02 -0.47018422716E+01  0.92877895544E+02  0.00000000000E+00 0. -1.
</event>
<event>
 8    1  0.7052796E-009  0.2612326E+03  0.7561462E-02  0.1106405E+00
         -1   -1    0    0    0  501 -0.00000000000E+00  0.00000000000E+00  0.34881743106E+03  0.34881743106E+03  0.00000000000E+00 0.  1.
          1   -1    0    0  501    0  0.00000000000E+00 -0.00000000000E+00 -0.21343103586E+03  0.21343103586E+03  0.00000000000E+00 0. -1.
         25    2    1    2    0    0 -0.72078535085E+01  0.24704959100E+03  0.10466810950E+03  0.29612313612E+03  0.12509214616E+03 0.  0.
         23    2    1    2    0    0  0.72078535085E+01 -0.24704959100E+03  0.30718285706E+02  0.26612533081E+03  0.93774330467E+02 0.  0.
          5    1    3    3  502    0 -0.20327714791E+02 -0.52677812494E+01 -0.26716032430E+01  0.21577195643E+02  0.41800000000E+01 0.  1.
         -5    1    3    3    0  502  0.13119861282E+02  0.25231737225E+03  0.10733971274E+03  0.27454594047E+03  0.41800000000E+01 0.  1.
        -11    1    4    4    0    0  0.12527907729E+02 -0.62932099801E+02 -0.31794528759E+02  0.71612078007E+02  0.00000000000E+00 0. -1.
         11    1    4    4    0    0 -0.53200542207E+01 -0.18411749120E+03  0.62512814465E+02  0.19451325280E+03  0.00000000000E+00 0.  1.
</event>
<event>
 8    1  0.7052796E-009  0.1241910E+03  0.7561462E-02  0.1236339E+00
         -2   -1    0    0    0  501 -0.00000000000E+00  0.00000000000E+00  0.13506448781E+03  0.13506448781E+03  0.00000000000E+00 0.  1.
          2   -1    0    0  501    0  0.00000000000E+00 -0.00000000000E+00 -0.15343884639E+03  0.15343884639E+03  0.00000000000E+00 0. -1.
         25    2    1    2    0    0 -0.72732220660E+02 -0.58673095212E+02 -0.23899514098E+02  0.15795257681E+03  0.12508126048E+03 0.  0.
         23    2    1    2    0    0  0.72732220660E+02  0.58673095212E+02  0.55251555271E+01  0.13055075739E+03  0.90997059774E+02 0.  0.
          5    1    3    3  502    0 -0.88674518848E+02 -0.36327465868E+02  0.27283521150E+02  0.99723206906E+02  0.41800000000E+01 0.  1.
         -5    1    3    3    0  502  0.15942298188E+02 -0.22345629344E+02 -0.51183035248E+02  0.58229369904E+02  0.41800000000E+01 0.  1.
        -11    1    4    4    0    0  0.75668827715E+02  0.10452177223E+02  0.22027247854E+02  0.79499805940E+02  0.00000000000E+00 0.  1.
         11    1    4    4    0    0 -0.29366070554E+01  0.48220917989E+02 -0.16502092327E+02  0.51050951449E+02  0.00000000000E+00 0. -1.
</event>
<event>
 8    1  0.7052796E-009  0.1227308E+03  0.7561462E-02  0.1238659E+00
         -1   -1    0    0    0  501 -0.00000000000E+00  0.00000000000E+00  0.71387875202E+03  0.71387875202E+03  0.00000000000E+00 0.  1.
          1   -1    0    0  501    0  0.00000000000E+00 -0.00000000000E+00 -0.24218677062E+02  0.24218677062E+02  0.00000000000E+00 0. -1.
         25    2    1    2    0    0  0.10393199395E+02  0.69319381297E+02  0.34757909896E+03  0.37599330213E+03  0.12508612232E+03 0.  0.
         23    2    1    2    0    0 -0.10393199395E+02 -0.69319381297E+02  0.34208097600E+03  0.36210412696E+03  0.95847845033E+02 0.  0.
          5    1    3    3  502    0 -0.34719205480E+02 -0.21768038331E+02  0.11432547483E+03  0.12151978158E+03  0.41800000000E+01 0.  1.
         -5    1    3    3    0  502  0.45112404875E+02  0.91087419628E+02  0.23325362413E+03  0.25447352054E+03  0.41800000000E+01 0.  1.
        -11    1    4    4    0    0  0.30455076573E+02 -0.46957209555E+02  0.27375286922E+03  0.27941568429E+03  0.00000000000E+00 0.  1.
         11    1    4    4    0    0 -0.40848275968E+02 -0.22362171742E+02  0.68328106782E+02  0.82688442668E+02  0.00000000000E+00 0. -1.
</event>
<event>
 8    1  0.7052796E-009  0.1162899E+03  0.7561462E-02  0.1249346E+00
         -3   -1    0    0    0  501 -0.00000000000E+00  0.00000000000E+00  0.80071485087E+02  0.80071485087E+02  0.00000000000E+00 0.  1.
          3   -1    0    0  501    0  0.00000000000E+00 -0.00000000000E+00 -0.38561354428E+03  0.38561354428E+03  0.00000000000E+00 0. -1.
         25    2    1    2    0    0  0.43513272506E+02  0.88654071536E+02 -0.33716215413E+02  0.16290171788E+03  0.12508891726E+03 0.  0.
         23    2    1    2    0    0 -0.43513272506E+02 -0.88654071536E+02 -0.27182584378E+03  0.30278331149E+03  0.89640923055E+02 0.  0.
          5    1    3    3  502    0  0.48304695066E+02  0.64056045248E+02  0.36493117667E+02  0.88236843411E+02  0.41800000000E+01 0.  1.
         -5    1    3    3    0  502 -0.47914225595E+01  0.24598026288E+02 -0.70209333080E+02  0.74664874465E+02  0.41800000000E+01 0.  1.
        -11    1    4    4    0    0 -0.16895543582E+02 -0.97372336459E+02 -0.16487246479E+03  0.19222320606E+03  0.00000000000E+00 0.  1.
         11    1    4    4    0    0 -0.26617728924E+02  0.87182649233E+01 -0.10695337899E+03  0.11056010543E+03  0.00000000000E+00 0. -1.
</event>
<event>
 8    1  0.7052796E-009  0.3394866E+03  0.7561462E-02  0.1067015E+00
         -2   -1    0    0    0  501 -0.00000000000E+00  0.00000000000E+00  0.24637805351E+03  0.24637805351E+03  0.00000000000E+00 0.  1.
          2   -1    0    0  501    0  0.00000000000E+00 -0.00000000000E+00 -0.56154105677E+03  0.56154105677E+03  0.00000000000E+00 0. -1.
         25    2    1    2    0    0 -0.18674598643E+03  0.26169138000E+03  0.51612213968E+01  0.34501492741E+03  0.12510883310E+03 0.  0.
         23    2    1    2    0    0  0.18674598643E+03 -0.26169138000E+03 -0.32032422466E+03  0.46290418286E+03  0.91193375827E+02 0.  0.
          5    1    3    3  502    0 -0.15180807862E+03  0.10604680686E+03  0.82785899227E+01  0.18541204231E+03  0.41800000000E+01 0. -1.
         -5    1    3    3    0  502 -0.34937907810E+02  0.15564457313E+03 -0.31173685259E+01  0.15960288511E+03  0.41800000000E+01 0. -1.
        -11    1    4    4    0    0  0.37934706452E+02 -0.13012640379E+03 -0.13044930719E+03  0.18811949570E+03  0.00000000000E+00 0.  1.
         11    1    4    4    0    0  0.14881127998E+03 -0.13156497621E+03 -0.18987491747E+03  0.27478468716E+03  0.00000000000E+00 0. -1.
</event>
<event>
 8    1  0.7052796E-009  0.1066581E+03  0.7561462E-02  0.1266887E+00
          2   -1    0    0  501    0  0.00000000000E+00  0.00000000000E+00  0.32111232756E+03  0.32111232756E+03  0.00000000000E+00 0. -1.
         -2   -1    0    0    0  501 -0.00000000000E+00 -0.00000000000E+00 -0.10683513005E+03  0.10683513005E+03  0.00000000000E+00 0.  1.
         25    2    1    2    0    0  0.63140016095E+02  0.42992563706E+02 -0.35673974106E+02  0.15085113346E+03  0.12509360444E+03 0.  0.
         23    2    1    2    0    0 -0.63140016095E+02 -0.42992563706E+02  0.24995117161E+03  0.27709632415E+03  0.92042177825E+02 0.  0.
          5    1    3    3  502    0  0.63500987439E+02  0.43399337252E+01 -0.73008803836E+02  0.96948276251E+02  0.41800000000E+01 0. -1.
         -5    1    3    3    0  502 -0.36097134314E+00  0.38652629981E+02  0.37334829730E+02  0.53902857213E+02  0.41800000000E+01 0. -1.
        -11    1    4    4    0    0 -0.66197812795E+02  0.13409605889E+01  0.94284135333E+02  0.11521044558E+03  0.00000000000E+00 0.  1.
         11    1    4    4    0    0  0.30577966992E+01 -0.44333524295E+02  0.15566703628E+03  0.16188587857E+03  0.00000000000E+00 0. -1.
</event>
<event>
 8    1  0.7052796E-009  0.1366181E+03  0.7561462E-02  0.1217953E+00
          1   -1    0    0  501    0  0.00000000000E+00  0.00000000000E+00  0.20704650725E+02  0.20704650725E+02  0.00000000000E+00 0. -1.
         -1   -1    0    0    0  501 -0.00000000000E+00 -0.00000000000E+00 -0.12256520336E+04  0.12256520336E+04  0.00000000000E+00 0.  1.
         25    2    1    2    0    0  0.58180807129E+01 -0.10794846576E+03 -0.80282224061E+03  0.81966954554E+03  0.12509153670E+03 0.  0.
         23    2    1    2    0    0 -0.58180807129E+01  0.10794846576E+03 -0.40212514231E+03  0.42668713882E+03  0.93115858138E+02 0.  0.
          5    1    3    3  502    0  0.48235747552E+02 -0.32038587570E+02 -0.53294868501E+03  0.53610160575E+03  0.41800000000E+01 0.  1.
         -5    1    3    3    0  502 -0.42417666839E+02 -0.75909878192E+02 -0.26987355560E+03  0.28356793979E+03  0.41800000000E+01 0.  1.
        -11    1    4    4    0    0  0.30792931204E+02  0.35843074283E+02 -0.24976815842E+03  0.25419886614E+03  0.00000000000E+00 0.  1.
         11    1    4    4    0    0 -0.36611011917E+02  0.72105391478E+02 -0.15235698389E+03  0.17248827269E+03  0.00000000000E+00 0. -1.
</event>
<event>
 8    1  0.7052796E-009  0.8421847E+02  0.7561462E-02  0.1317489E+00
         -1   -1    0    0    0  501 -0.00000000000E+00  0.00000000000E+00  0.96354111204E+02  0.96354111204E+02  0.00000000000E+00 0.  1.
          1   -1    0    0  501    0  0.00000000000E+00 -0.00000000000E+00 -0.18187612717E+03  0.18187612717E+03  0.00000000000E+00 0. -1.
         25    2    1    2    0    0 -0.29765401057E+02  0.28435025073E+02  0.17604075835E+02  0.13286066975E+03  0.12509006487E+03 0.  0.
         23    2    1    2    0    0  0.29765401057E+02 -0.28435025073E+02 -0.10312609180E+03  0.14536956862E+03  0.93823189673E+02 0.  0.
          5    1    3    3  502    0 -0.60717030863E+02 -0.23245828964E+02  0.29163973159E+02  0.71378821309E+02  0.41800000000E+01 0.  1.
         -5    1    3    3    0  502  0.30951629806E+02  0.51680854037E+02 -0.11559897324E+02  0.61481848442E+02  0.41800000000E+01 0.  1.
        -11    1    4    4    0    0  0.12171302340E+02 -0.19949067199E+02 -0.11833053345E+03  0.12061600653E+03  0.00000000000E+00 0. -1.
         11    1    4    4    0    0  0.17594098717E+02 -0.84859578741E+01  0.15204441650E+02  0.24753562099E+02  0.00000000000E+00 0.  1.
</event>
<event>
 8    1  0.7052796E-009  0.1239984E+03  0.7561462E-02  0.1236643E+00
          2   -1    0    0  501    0  0.00000000000E+00  0.00000000000E+00  0.69372860576E+03  0.69372860576E+03  0.00000000000E+00 0.  1.
         -2   -1    0    0    0  501 -0.00000000000E+00 -0.00000000000E+00 -0.33720714822E+02  0.33720714822E+02  0.00000000000E+00 0. -1.
         25    2    1    2    0    0  0.10705995273E+03 -0.12455738879E+01  0.32343475185E+03  0.36293479709E+03  0.12509293866E+03 0.  0.
         23    2    1    2    0    0 -0.10705995273E+03  0.12455738879E+01  0.33657313909E+03  0.36451452349E+03  0.90144189742E+02 0.  0.
          5    1    3    3  502    0  0.24400602239E+02 -0.88946442222E+01 -0.26359386774E+01  0.26437183250E+02  0.41800000000E+01 0. -1.
         -5    1    3    3    0  502  0.82659350496E+02  0.76490703344E+01  0.32607069052E+03  0.33649761384E+03  0.41800000000E+01 0. -1.
        -11    1    4    4    0    0 -0.12276341546E+03  0.27844286262E+01  0.27918015886E+03  0.30499208239E+03  0.00000000000E+00 0. -1.
         11    1    4    4    0    0  0.15703462720E+02 -0.15388547383E+01  0.57392980227E+02  0.59522441101E+02  0.00000000000E+00 0.  1.
</event>
<event>
 8    1  0.7052796E-009  0.1139457E+03  0.7561462E-02  0.1253433E+00
         -1   -1    0    0    0  501 -0.00000000000E+00  0.00000000000E+00  0.21096213830E+02  0.21096213830E+02  0.00000000000E+00 0.  1.
          1   -1    0    0  501    0  0.00000000000E+00 -0.00000000000E+00 -0.70361761098E+03  0.70361761098E+03  0.00000000000E+00 0. -1.
         25    2    1    2    0    0 -0.22338471323E+02  0.31058508263E+02 -0.50107751250E+03  0.51787038260E+03  0.12508965351E+03 0.  0.
         23    2    1    2    0    0  0.22338471323E+02 -0.31058508263E+02 -0.18144388465E+03  0.20684344220E+03  0.91644356443E+02 0.  0.
          5    1    3    3  502    0  0.15901738495E+02  0.72406654461E+02 -0.27536908613E+03  0.28520377784E+03  0.41800000000E+01 0. -1.
         -5    1    3    3    0  502 -0.38240209818E+02 -0.41348146199E+02 -0.22570842637E+03  0.23266660477E+03  0.41800000000E+01 0. -1.
        -11    1    4    4    0    0  0.91274189312E+01 -0.62447076842E+02 -0.13712688267E+03  0.15095273808E+03  0.00000000000E+00 0.  1.
         11    1    4    4    0    0  0.13211052392E+02  0.31388568579E+02 -0.44317001980E+02  0.55890704122E+02  0.00000000000E+00 0. -1.
</event>
<event>
 8    1  0.7052796E-009  0.7506663E+02  0.7561462E-02  0.1343665E+00
          2   -1    0    0  501    0  0.00000000000E+00  0.00000000000E+00  0.61061639727E+03  0.61061639727E+03  0.00000000000E+00 0. -1.
         -2   -1    0    0    0  501 -0.00000000000E+00 -0.00000000000E+00 -0.18978688471E+02  0.18978688471E+02  0.00000000000E+00 0.  1.
         25    2    1    2    0    0  0.22894382916E+02 -0.96188341712E+01  0.36897840174E+03  0.39039607881E+03  0.12508941867E+03 0.  0.
         23    2    1    2    0    0 -0.22894382916E+02  0.96188341712E+01  0.22265930706E+03  0.23919900693E+03  0.83799302834E+02 0.  0.
          5    1    3    3  502    0  0.10682706321E+02  0.29318707896E+02  0.33677793913E+03  0.33824630010E+03  0.41800000000E+01 0.  1.
         -5    1    3    3    0  502  0.12211676596E+02 -0.38937542067E+02  0.32200462611E+02  0.52149778714E+02  0.41800000000E+01 0.  1.
        -11    1    4    4    0    0 -0.18882749465E+02  0.41448831511E+02  0.72267424798E+02  0.85423325550E+02  0.00000000000E+00 0.  1.
         11    1    4    4    0    0 -0.40116334517E+01 -0.31829997340E+02  0.15039188226E+03  0.15377568138E+03  0.00000000000E+00 0. -1.
</event>
<event>
 8    1  0.7052796E-009  0.2437916E+03  0.7561462E-02  0.1117292E+00
          2   -1    0    0  501    0  0.00000000000E+00  0.00000000000E+00  0.85525109504E+03  0.85525109504E+03  0.00000000000E+00 0. -1.
         -2   -1    0    0    0  501 -0.00000000000E+00 -0.00000000000E+00 -0.74827295630E+02  0.74827295630E+02  0.00000000000E+00 0.  1.
         25    2    1    2    0    0 -0.17614391871E+03  0.14132467922E+03  0.46160477034E+03  0.52889139326E+03  0.12509115402E+03 0.  0.
         23    2    1    2    0    0  0.17614391871E+03 -0.14132467922E+03  0.31881902907E+03  0.40118699740E+03  0.91137744838E+02 0.  0.
          5    1    3    3  502    0 -0.51631432288E+02 -0.18518751235E+02  0.85682772691E+02  0.10182219249E+03  0.41800000000E+01 0. -1.
         -5    1    3    3    0  502 -0.12451248642E+03  0.15984343045E+03  0.37592199765E+03  0.42706920077E+03  0.41800000000E+01 0. -1.
        -11    1    4    4    0    0  0.89258783784E+02 -0.98901002510E+02  0.11660586894E+03  0.17704651211E+03  0.00000000000E+00 0.  1.
         11    1    4    4    0    0  0.86885134927E+02 -0.42423676706E+02  0.20221316013E+03  0.22414048529E+03  0.00000000000E+00 0. -1.
</event>
<event>
 8    1  0.7052796E-009  0.1802803E+03  0.7561462E-02  0.1167532E+00
          1   -1    0    0  501    0  0.00000000000E+00  0.00000000000E+00  0.16414930839E+04  0.16414930839E+04  0.00000000000E+00 0. -1.
         -1   -1    0    0    0  501 -0.00000000000E+00 -0.00000000000E+00 -0.28628728496E+02  0.28628728496E+02  0.00000000000E+00 0.  1.
         25    2    1    2    0    0 -0.13214975529E+03  0.10484116773E+03  0.11546616135E+04  0.11736039497E+04  0.12509021112E+03 0.  0.
         23    2    1    2    0    0  0.13214975529E+03 -0.10484116773E+03  0.45820274196E+03  0.49651786269E+03  0.90138820511E+02 0.  0.
          5    1    3    3  502    0 -0.25362021658E+02  0.15264188066E+02  0.38393357543E+02  0.48659530242E+02  0.41800000000E+01 0.  1.
         -5    1    3    3    0  502 -0.10678773363E+03  0.89576979664E+02  0.11162682559E+04  0.11249444195E+04  0.41800000000E+01 0.  1.
        -11    1    4    4    0    0  0.48552380617E+02 -0.95460198966E+02  0.25160764108E+03  0.27345271675E+03  0.00000000000E+00 0.  1.
         11    1    4    4    0    0  0.83597374670E+02 -0.93809687646E+01  0.20659510088E+03  0.22306514594E+03  0.00000000000E+00 0. -1.
</event>
<event>
 8    1  0.7052796E-009  0.3568843E+03  0.7561462E-02  0.1059824E+00
         -2   -1    0    0    0  501 -0.00000000000E+00  0.00000000000E+00  0.31982217128E+03  0.31982217128E+03  0.00000000000E+00 0.  1.
          2   -1    0    0  501    0  0.00000000000E+00 -0.00000000000E+00 -0.52632845896E+03  0.52632845896E+03  0.00000000000E+00 0. -1.
         25    2    1    2    0    0  0.16408059204E+03  0.29949567206E+03 -0.30843000431E+03  0.47686059927E+03  0.12508743069E+03 0.  0.
         23    2    1    2    0    0 -0.16408059204E+03 -0.29949567206E+03  0.10192371662E+03  0.36929003097E+03  0.96781117451E+02 0.  0.
          5    1    3    3  502    0  0.20689990138E+02  0.15136780850E+03 -0.94284632059E+02  0.17957548103E+03  0.41800000000E+01 0. -1.
         -5    1    3    3    0  502  0.14339060191E+03  0.14812786355E+03 -0.21414537225E+03  0.29728511825E+03  0.41800000000E+01 0. -1.
        -11    1    4    4    0    0 -0.88314275318E+02 -0.24764810137E+03  0.81133423007E+02  0.27515745613E+03  0.00000000000E+00 0.  1.
         11    1    4    4    0    0 -0.75766316726E+02 -0.51847570691E+02  0.20790293613E+02  0.94132574836E+02  0.00000000000E+00 0. -1.
</event>
<event>
 8    1  0.7052796E-009  0.1360212E+03  0.7561462E-02  0.1218785E+00
         -1   -1    0    0    0  501 -0.00000000000E+00  0.00000000000E+00  0.17333868455E+03  0.17333868455E+03  0.00000000000E+00 0.  1.
          1   -1    0    0  501    0  0.00000000000E+00 -0.00000000000E+00 -0.14980565839E+03  0.14980565839E+03  0.00000000000E+00 0. -1.
         25    2    1    2    0    0  0.88973134504E+02 -0.50085372957E+01  0.92113252959E+02  0.17909193867E+03  0.12509103492E+03 0.  0.
         23    2    1    2    0    0 -0.88973134504E+02  0.50085372957E+01 -0.68580226796E+02  0.14405240427E+03  0.90036345763E+02 0.  0.
          5    1    3    3  502    0 -0.92548273599E+01 -0.40639435960E+02  0.52739530546E+02  0.67350917343E+02  0.41800000000E+01 0. -1.
         -5    1    3    3    0  502  0.98227961864E+02  0.35630898665E+02  0.39373722413E+02  0.11174102133E+03  0.41800000000E+01 0. -1.
        -11    1    4    4    0    0 -0.55349571717E+02  0.46418586243E+02 -0.29991510493E+02  0.78216052954E+02  0.00000000000E+00 0. -1.
         11    1    4    4    0    0 -0.33623562786E+02 -0.41410048947E+02 -0.38588716302E+02  0.65836351312E+02  0.00000000000E+00 0.  1.
</event>
<event>
 8    1  0.7052796E-009  0.1167345E+03  0.7561462E-02  0.1248583E+00
          1   -1    0    0  501    0  0.00000000000E+00  0.00000000000E+00  0.19732273506E+03  0.19732273506E+03  0.00000000000E+00 0. -1.
         -1   -1    0    0    0  501 -0.00000000000E+00 -0.00000000000E+00 -0.10153359843E+03  0.10153359843E+03  0.00000000000E+00 0.  1.
         25    2    1    2    0    0  0.67837421002E+02 -0.15553621210E+02 -0.94884688020E+01  0.14346238101E+03  0.12509033898E+03 0.  0.
         23    2    1    2    0    0 -0.67837421002E+02  0.15553621210E+02  0.10527760543E+03  0.15539395248E+03  0.90664631695E+02 0.  0.
          5    1    3    3  502    0 -0.25369551078E+01  0.33380210262E+02  0.33445051568E+02  0.47504930825E+02  0.41800000000E+01 0. -1.
         -5    1    3    3    0  502  0.70374376110E+02 -0.48933831472E+02 -0.42933520370E+02  0.95957450188E+02  0.41800000000E+01 0. -1.
        -11    1    4    4    0    0 -0.82227498274E+02  0.35298135011E+02  0.77279898540E+02  0.11823494630E+03  0.00000000000E+00 0.  1.
         11    1    4    4    0    0  0.14390077272E+02 -0.19744513801E+02  0.27997706891E+02  0.37159006180E+02  0.00000000000E+00 0. -1.
</event>
<event>
 8    1  0.7052796E-009  0.4058121E+03  0.7561462E-02  0.1041786E+00
         -2   -1    0    0    0  501 -0.00000000000E+00  0.00000000000E+00  0.32906447921E+03  0.32906447921E+03  0.00000000000E+00 0. -1.
          2   -1    0    0  501    0  0.00000000000E+00 -0.00000000000E+00 -0.99489116085E+03  0.99489116085E+03  0.00000000000E+00 0.  1.
         25    2    1    2    0    0  0.35204418833E+03  0.17563669211E+03  0.12900895749E+03  0.43251978025E+03  0.12508673409E+03 0.  0.
         23    2    1    2    0    0 -0.35204418833E+03 -0.17563669211E+03 -0.79483563913E+03  0.89143585980E+03  0.90060206276E+02 0.  0.
          5    1    3    3  502    0  0.28333130122E+03  0.18792003391E+03  0.12573732197E+03  0.36251608507E+03  0.41800000000E+01 0. -1.
         -5    1    3    3    0  502  0.68712887107E+02 -0.12283341800E+02  0.32716355197E+01  0.70003695183E+02  0.41800000000E+01 0. -1.
        -11    1    4    4    0    0 -0.13849866830E+03 -0.25967182068E+02 -0.32137986876E+03  0.35091479836E+03  0.00000000000E+00 0.  1.
         11    1    4    4    0    0 -0.21354552003E+03 -0.14966951004E+03 -0.47345577037E+03  0.54052106144E+03  0.00000000000E+00 0. -1.
</event>
<event>
 8    1  0.7052796E-009  0.1326135E+03  0.7561462E-02  0.1223629E+00
         -4   -1    0    0    0  501 -0.00000000000E+00  0.00000000000E+00  0.14715714707E+03  0.14715714707E+03  0.00000000000E+00 0.  1.
          4   -1    0    0  501    0  0.00000000000E+00 -0.00000000000E+00 -0.13924751500E+03  0.13924751500E+03  0.00000000000E+00 0. -1.
         25    2    1    2    0    0 -0.61332886677E+02 -0.61192570564E+02 -0.29059437923E+02  0.15492399815E+03  0.12510292000E+03 0.  0.
         23    2    1    2    0    0  0.61332886677E+02  0.61192570564E+02  0.36969069991E+02  0.13148066391E+03  0.91728943994E+02 0.  0.
          5    1    3    3  502    0  0.38497630542E+02 -0.23353086460E+02 -0.59508896627E+01  0.45610521729E+02  0.41800000000E+01 0. -1.
         -5    1    3    3    0  502 -0.99830517219E+02 -0.37839484103E+02 -0.23108548261E+02  0.10931347643E+03  0.41800000000E+01 0. -1.
        -11    1    4    4    0    0  0.50945937018E+02 -0.15137641656E+00  0.45964461671E+02  0.68616639018E+02  0.00000000000E+00 0.  1.
         11    1    4    4    0    0  0.10386949660E+02  0.61343946980E+02 -0.89953916799E+01  0.62864024894E+02  0.00000000000E+00 0. -1.
</event>
<event>
 8    1  0.7052796E-009  0.1440687E+03  0.7561462E-02  0.1207957E+00
         -2   -1    0    0    0  501 -0.00000000000E+00  0.00000000000E+00  0.73108878647E+02  0.73108878647E+02  0.00000000000E+00 0.  1.
          2   -1    0    0  501    0  0.00000000000E+00 -0.00000000000E+00 -0.45737786829E+03  0.45737786829E+03  0.00000000000E+00 0. -1.
         25    2    1    2    0    0 -0.10860773515E+03 -0.45548136712E+02 -0.32857964437E+03  0.37078542293E+03  0.12508786620E+03 0.  0.
         23    2    1    2    0    0  0.10860773515E+03  0.45548136712E+02 -0.55689345272E+02  0.15970132401E+03  0.92373896851E+02 0.  0.
          5    1    3    3  502    0 -0.14767078721E+02  0.40266009004E+02 -0.10572330628E+03  0.11416789385E+03  0.41800000000E+01 0. -1.
         -5    1    3    3    0  502 -0.93840656431E+02 -0.85814145717E+02 -0.22285633809E+03  0.25661752908E+03  0.41800000000E+01 0. -1.
        -11    1    4    4    0    0  0.83681634529E+02  0.36537211899E+02  0.70609721786E+01  0.91582974067E+02  0.00000000000E+00 0.  1.
         11    1    4    4    0    0  0.24926100623E+02  0.90109248133E+01 -0.62750317451E+02  0.68118349939E+02  0.00000000000E+00 0. -1.
</event>
<event>
 8    1  0.7052796E-009  0.1178097E+03  0.7561462E-02  0.1246755E+00
         -2   -1    0    0    0  501 -0.00000000000E+00  0.00000000000E+00  0.25055636515E+02  0.25055636515E+02  0.00000000000E+00 0.  1.
          2   -1    0    0  501    0  0.00000000000E+00 -0.00000000000E+00 -0.63696877930E+03  0.63696877930E+03  0.00000000000E+00 0. -1.
         25    2    1    2    0    0 -0.30652078099E+02  0.55224889676E+02 -0.30907321278E+03  0.33935640251E+03  0.12508868349E+03 0.  0.
         23    2    1    2    0    0  0.30652078099E+02 -0.55224889676E+02 -0.30283993001E+03  0.32266801331E+03  0.91723962362E+02 0.  0.
          5    1    3    3  502    0 -0.97834096527E+01 -0.32396091894E+02 -0.27834367834E+02  0.44016432241E+02  0.41800000000E+01 0.  1.
         -5    1    3    3    0  502 -0.20868668446E+02  0.87620981570E+02 -0.28123884494E+03  0.29533997027E+03  0.41800000000E+01 0.  1.
        -11    1    4    4    0    0  0.35294254505E+02 -0.79318024697E+02 -0.23391443191E+03  0.24950550074E+03  0.00000000000E+00 0. -1.
         11    1    4    4    0    0 -0.46421764067E+01  0.24093135021E+02 -0.68925498105E+02  0.73162512573E+02  0.00000000000E+00 0.  1.
</event>
<event>
 8    1  0.7052796E-009  0.1060885E+03  0.7561462E-02  0.1267990E+00
         -2   -1    0    0    0  501 -0.00000000000E+00  0.00000000000E+00  0.75757633314E+02  0.75757633314E+02  0.00000000000E+00 0.  1.
          2   -1    0    0  501    0  0.00000000000E+00 -0.00000000000E+00 -0.26014730549E+03  0.26014730549E+03  0.00000000000E+00 0. -1.
         25    2    1    2    0    0  0.71442379162E+02  0.53542227510E+02 -0.11719675009E+03  0.19327142276E+03  0.12509189005E+03 0.  0.
         23    2    1    2    0    0 -0.71442379162E+02 -0.53542227510E+02 -0.67192922086E+02  0.14263351604E+03  0.88649012706E+02 0.  0.
          5    1    3    3  502    0  0.23427897556E+02  0.66927635151E+02 -0.12388638971E+03  0.14280575859E+03  0.41800000000E+01 0. -1.
         -5    1    3    3    0  502  0.48014481606E+02 -0.13385407641E+02  0.66896396222E+01  0.50465664168E+02  0.41800000000E+01 0. -1.
        -11    1    4    4    0    0 -0.60486231383E+02 -0.52545676308E+02 -0.88052961967E+02  0.11905022636E+03  0.00000000000E+00 0. -1.
         11    1    4    4    0    0 -0.10956147779E+02 -0.99655120137E+00  0.20860039881E+02  0.23583289683E+02  0.00000000000E+00 0.  1.
</event>
<event>
 8    1  0.7052796E-009  0.9958263E+02  0.7561462E-02  0.1281176E+00
         -2   -1    0    0    0  501 -0.00000000000E+00  0.00000000000E+00  0.36329380496E+02  0.36329380496E+02  0.00000000000E+00 0.  1.
          2   -1    0    0  501    0  0.00000000000E+00 -0.00000000000E+00 -0.38489963652E+03  0.38489963652E+03  0.00000000000E+00 0. -1.
         25    2    1    2    0    0  0.22146534956E+02  0.45197132819E+02 -0.19407073203E+03  0.23631204861E+03  0.12508671178E+03 0.  0.
         23    2    1    2    0    0 -0.22146534956E+02 -0.45197132819E+02 -0.15449952400E+03  0.18491696840E+03  0.88266258913E+02 0.  0.
          5    1    3    3  502    0 -0.20067614425E+02 -0.28007739409E+02 -0.11638153151E+03  0.12144659688E+03  0.41800000000E+01 0.  1.
         -5    1    3    3    0  502  0.42214149381E+02  0.73204872228E+02 -0.77689200514E+02  0.11486545174E+03  0.41800000000E+01 0.  1.
        -11    1    4    4    0    0 -0.38883637052E+02 -0.49131670652E+02 -0.53279140361E+02  0.82246732999E+02  0.00000000000E+00 0.  1.
         11    1    4    4    0    0  0.16737102096E+02  0.39345378326E+01 -0.10122038363E+03  0.10267023540E+03  0.00000000000E+00 0. -1.
</event>
<event>
 8    1  0.7052796E-009  0.1373034E+03  0.7561462E-02  0.1217004E+00
         -1   -1    0    0    0  501 -0.00000000000E+00  0.00000000000E+00  0.32613362834E+02  0.32613362834E+02  0.00000000000E+00 0.  1.
          1   -1    0    0  501    0  0.00000000000E+00 -0.00000000000E+00 -0.92294312281E+03  0.92294312281E+03  0.00000000000E+00 0. -1.
         25    2    1    2    0    0 -0.79216977599E+02  0.97771795207E+02 -0.60691843611E+03  0.63232265028E+03  0.12508913817E+03 0.  0.
         23    2    1    2    0    0  0.79216977599E+02 -0.97771795207E+02 -0.28341132387E+03  0.32323383537E+03  0.91233109956E+02 0.  0.
          5    1    3    3  502    0 -0.59880131730E+02  0.30879921008E+02 -0.50080956403E+03  0.50533839308E+03  0.41800000000E+01 0. -1.
         -5    1    3    3    0  502 -0.19336845869E+02  0.66891874199E+02 -0.10610887208E+03  0.12698425720E+03  0.41800000000E+01 0. -1.
        -11    1    4    4    0    0  0.73693861371E+02 -0.49532647064E+02 -0.10104872986E+03  0.13451808107E+03  0.00000000000E+00 0.  1.
         11    1    4    4    0    0  0.55231162285E+01 -0.48239148143E+02 -0.18236259401E+03  0.18871575430E+03  0.00000000000E+00 0. -1.
</event>
<event>
 8    1  0.7052796E-009  0.1006155E+03  0.7561462E-02  0.1279007E+00
         -1   -1    0    0    0  501 -0.00000000000E+00  0.00000000000E+00  0.30042592992E+03  0.30042592992E+03  0.00000000000E+00 0. -1.
          1   -1    0    0  501    0  0.00000000000E+00 -0.00000000000E+00 -0.43276550443E+02  0.43276550443E+02  0.00000000000E+00 0.  1.
         25    2    1    2    0    0 -0.25107465301E+02  0.14255404893E+02  0.11835921815E+03  0.17461636191E+03  0.12509343685E+03 0.  0.
         23    2    1    2    0    0  0.25107465301E+02 -0.14255404893E+02  0.13879016132E+03  0.16908611844E+03  0.92161842371E+02 0.  0.
          5    1    3    3  502    0  0.21860233501E+02 -0.46453355973E+02  0.48012063047E+02  0.70416011588E+02  0.41800000000E+01 0. -1.
         -5    1    3    3    0  502 -0.46967698802E+02  0.60708760866E+02  0.70347155106E+02  0.10420035033E+03  0.41800000000E+01 0. -1.
        -11    1    4    4    0    0  0.33433733708E+02  0.19077873153E+02  0.16185140199E+02  0.41758095706E+02  0.00000000000E+00 0.  1.
         11    1    4    4    0    0 -0.83262684067E+01 -0.33333278046E+02  0.12260502112E+03  0.12732802274E+03  0.00000000000E+00 0. -1.
</event>
<event>
 8    1  0.7052796E-009  0.1618418E+03  0.7561462E-02  0.1186633E+00
         -2   -1    0    0    0  501 -0.00000000000E+00  0.00000000000E+00  0.57514254633E+02  0.57514254633E+02  0.00000000000E+00 0.  1.
          2   -1    0    0  501    0  0.00000000000E+00 -0.00000000000E+00 -0.49089284776E+03  0.49089284776E+03  0.00000000000E+00 0. -1.
         25    2    1    2    0    0  0.24840442073E+02 -0.12525077339E+03 -0.24030105684E+03  0.29949474812E+03  0.12509077678E+03 0.  0.
         23    2    1    2    0    0 -0.24840442073E+02  0.12525077339E+03 -0.19307753629E+03  0.24891235428E+03  0.91507493106E+02 0.  0.
          5    1    3    3  502    0  0.61457607249E+02 -0.21951814032E+02 -0.61704440159E+02  0.89910121585E+02  0.41800000000E+01 0.  1.
         -5    1    3    3    0  502 -0.36617165176E+02 -0.10329895936E+03 -0.17859661668E+03  0.20958462653E+03  0.41800000000E+01 0.  1.
        -11    1    4    4    0    0  0.27099240461E+02  0.32560515225E+02 -0.96249463540E+02  0.10515947517E+03  0.00000000000E+00 0. -1.
         11    1    4    4    0    0 -0.51939682534E+02  0.92690258165E+02 -0.96828072751E+02  0.14375287911E+03  0.00000000000E+00 0.  1.
</event>
<event>
 8    1  0.7052796E-009  0.8097193E+02  0.7561462E-02  0.1326316E+00
          1   -1    0    0  501    0  0.00000000000E+00  0.00000000000E+00  0.15505336574E+03  0.15505336574E+03  0.00000000000E+00 0. -1.
         -1   -1    0    0    0  501 -0.00000000000E+00 -0.00000000000E+00 -0.93872092241E+02  0.93872092241E+02  0.00000000000E+00 0.  1.
         25    2    1    2    0    0 -0.15934818027E+02  0.10413767678E+02 -0.15877964646E+02  0.12752193716E+03  0.12508944685E+03 0.  0.
         23    2    1    2    0    0  0.15934818027E+02 -0.10413767678E+02  0.77059238144E+02  0.12140352082E+03  0.91860348908E+02 0.  0.
          5    1    3    3  502    0 -0.46608022496E+02  0.31466158010E+02  0.33473854314E+02  0.65577421294E+02  0.41800000000E+01 0.  1.
         -5    1    3    3    0  502  0.30673204470E+02 -0.21052390332E+02 -0.49351818960E+02  0.61944515865E+02  0.41800000000E+01 0.  1.
        -11    1    4    4    0    0 -0.25250641260E+02  0.13411450563E+01 -0.77041045069E+01  0.26433818876E+02  0.00000000000E+00 0.  1.
         11    1    4    4    0    0  0.41185459287E+02 -0.11754912735E+02  0.84763342651E+02  0.94969701945E+02  0.00000000000E+00 0. -1.
</event>
<event>
 8    1  0.7052796E-009  0.1417689E+03  0.7561462E-02  0.1210968E+00
         -2   -1    0    0    0  501 -0.00000000000E+00  0.00000000000E+00  0.13643305883E+03  0.13643305883E+03  0.00000000000E+00 0.  1.
          2   -1    0    0  501    0  0.00000000000E+00 -0.00000000000E+00 -0.22964038554E+03  0.22964038554E+03  0.00000000000E+00 0. -1.
         25    2    1    2    0    0 -0.11488959355E+02  0.13322177111E+03 -0.90208989922E+02  0.20412076109E+03  0.12509031441E+03 0.  0.
         23    2    1    2    0    0  0.11488959355E+02 -0.13322177111E+03 -0.29983367832E+01  0.16195268329E+03  0.91321657433E+02 0.  0.
          5    1    3    3  502    0 -0.53413442640E+01  0.27276282150E+02  0.31747431168E+02  0.42401619217E+02  0.41800000000E+01 0. -1.
         -5    1    3    3    0  502 -0.61476150913E+01  0.10594548896E+03 -0.12195642109E+03  0.16171914187E+03  0.41800000000E+01 0. -1.
        -11    1    4    4    0    0 -0.25263611971E+02 -0.27722717662E+02  0.27074599953E+02  0.46258330352E+02  0.00000000000E+00 0.  1.
         11    1    4    4    0    0  0.36752571326E+02 -0.10549905345E+03 -0.30072936736E+02  0.11569435294E+03  0.00000000000E+00 0. -1.
</event>
<event>
 8    1  0.7052796E-009  0.8482142E+02  0.7561462E-02  0.1315900E+00
          1   -1    0    0  501    0  0.00000000000E+00  0.00000000000E+00  0.30540600182E+03  0.30540600182E+03  0.00000000000E+00 0. -1.
         -1   -1    0    0    0  501 -0.00000000000E+00 -0.00000000000E+00 -0.47602813554E+02  0.47602813554E+02  0.00000000000E+00 0.  1.
         25    2    1    2    0    0 -0.11104823587E+02  0.13721460673E+02  0.19013266203E+03  0.22827427627E+03  0.12508845048E+03 0.  0.
         23    2    1    2    0    0  0.11104823587E+02 -0.13721460673E+02  0.67670526239E+02  0.12473453911E+03  0.10328508864E+03 0.  0.
          5    1    3    3  502    0 -0.53976590818E+02  0.46895046634E+02  0.11624085633E+03  0.13653580788E+03  0.41800000000E+01 0. -1.
         -5    1    3    3    0  502  0.42871767231E+02 -0.33173585961E+02  0.73891805705E+02  0.91738468384E+02  0.41800000000E+01 0. -1.
        -11    1    4    4    0    0  0.26244913600E+02 -0.97478237471E+01 -0.20807747324E+02  0.34882343763E+02  0.00000000000E+00 0.  1.
         11    1    4    4    0    0 -0.15140090012E+02 -0.39736369261E+01  0.88478273563E+02  0.89852195347E+02  0.00000000000E+00 0. -1.
</event>
<event>
 8    1  0.7052796E-009  0.1011339E+03  0.7561462E-02  0.1277930E+00
          1   -1    0    0  501    0  0.00000000000E+00  0.00000000000E+00  0.66311360616E+02  0.66311360616E+02  0.00000000000E+00 0. -1.
         -1   -1    0    0    0  501 -0.00000000000E+00 -0.00000000000E+00 -0.22541485243E+03  0.22541485243E+03  0.00000000000E+00 0.  1.
         25    2    1    2    0    0 -0.55583701661E+02  0.58360668938E+01 -0.86152153153E+02  0.16184267035E+03  0.12508896388E+03 0.  0.
         23    2    1    2    0    0  0.55583701661E+02 -0.58360668938E+01 -0.72951338665E+02  0.12988354270E+03  0.91783600303E+02 0.  0.
          5    1    3    3  502    0 -0.71492006023E+02 -0.35805779720E+02 -0.20973757772E+02  0.82767938851E+02  0.41800000000E+01 0. -1.
         -5    1    3    3    0  502  0.15908304362E+02  0.41641846614E+02 -0.65178395381E+02  0.79074731498E+02  0.41800000000E+01 0. -1.
        -11    1    4    4    0    0  0.36015013763E+02 -0.29618870834E+02 -0.84888444305E+02  0.96852499722E+02  0.00000000000E+00 0.  1.
         11    1    4    4    0    0  0.19568687898E+02  0.23782803940E+02  0.11937105639E+02  0.33031042980E+02  0.00000000000E+00 0. -1.
</event>
<event>
 8    1  0.7052796E-009  0.1003924E+03  0.7561462E-02  0.1279473E+00
         -1   -1    0    0    0  501 -0.00000000000E+00  0.00000000000E+00  0.34558795902E+02  0.34558795902E+02  0.00000000000E+00 0.  1.
          1   -1    0    0  501    0  0.00000000000E+00 -0.00000000000E+00 -0.54094362446E+03  0.54094362446E+03  0.00000000000E+00 0. -1.
         25    2    1    2    0    0 -0.62295293036E+02 -0.10200223155E+02 -0.38285275661E+03  0.40768630333E+03  0.12508853102E+03 0.  0.
         23    2    1    2    0    0  0.62295293036E+02  0.10200223155E+02 -0.12353207195E+03  0.16781611704E+03  0.94431606200E+02 0.  0.
          5    1    3    3  502    0 -0.98489451095E+02 -0.11743201269E+01 -0.22896797661E+03  0.24928970640E+03  0.41800000000E+01 0. -1.
         -5    1    3    3    0  502  0.36194158059E+02 -0.90259030279E+01 -0.15388477999E+03  0.15839659692E+03  0.41800000000E+01 0. -1.
        -11    1    4    4    0    0  0.23904469292E+02 -0.29436718676E+01  0.11592805871E+02  0.26729796186E+02  0.00000000000E+00 0.  1.
         11    1    4    4    0    0  0.38390823744E+02  0.13143895022E+02 -0.13512487783E+03  0.14108632085E+03  0.00000000000E+00 0. -1.
</event>
<event>
 8    1  0.7052796E-009  0.1045063E+03  0.7561462E-02  0.1271095E+00
         -2   -1    0    0    0  501 -0.00000000000E+00  0.00000000000E+00  0.89830168168E+02  0.89830168168E+02  0.00000000000E+00 0.  1.
          2   -1    0    0  501    0  0.00000000000E+00 -0.00000000000E+00 -0.14036803066E+03  0.14036803066E+03  0.00000000000E+00 0. -1.
         25    2    1    2    0    0  0.10350099363E+00  0.24938364183E+02 -0.39739141894E+02  0.13359844095E+03  0.12508961310E+03 0.  0.
         23    2    1    2    0    0 -0.10350099363E+00 -0.24938364183E+02 -0.10798720600E+02  0.96599757878E+02  0.92698263926E+02 0.  0.
          5    1    3    3  502    0 -0.42371549979E+02 -0.23378854553E+02 -0.48376448527E+02  0.68554155673E+02  0.41800000000E+01 0. -1.
         -5    1    3    3    0  502  0.42475050973E+02  0.48317218737E+02  0.86373066334E+01  0.65044285279E+02  0.41800000000E+01 0. -1.
        -11    1    4    4    0    0  0.14075711125E+02 -0.58165705507E+02 -0.56991003205E+01  0.60115344840E+02  0.00000000000E+00 0.  1.
         11    1    4    4    0    0 -0.14179212119E+02  0.33227341323E+02 -0.50996202794E+01  0.36484413038E+02  0.00000000000E+00 0. -1.
</event>
<event>
 8    1  0.7052796E-009  0.1888651E+03  0.7561462E-02  0.1159489E+00
         -1   -1    0    0    0  501 -0.00000000000E+00  0.00000000000E+00  0.10308343678E+03  0.10308343678E+03  0.00000000000E+00 0.  1.
          1   -1    0    0  501    0  0.00000000000E+00 -0.00000000000E+00 -0.50769789689E+03  0.50769789689E+03  0.00000000000E+00 0. -1.
         25    2    1    2    0    0 -0.17425497468E+03 -0.36901069813E+02 -0.33356034378E+03  0.39829363670E+03  0.12509529544E+03 0.  0.
         23    2    1    2    0    0  0.17425497468E+03  0.36901069813E+02 -0.71054116329E+02  0.21248769697E+03  0.91519663272E+02 0.  0.
          5    1    3    3  502    0 -0.60913230728E+02 -0.19308794391E+02 -0.24526105879E+03  0.25348315640E+03  0.41800000000E+01 0.  1.
         -5    1    3    3    0  502 -0.11334174395E+03 -0.17592275421E+02 -0.88299284992E+02  0.14481048030E+03  0.41800000000E+01 0.  1.
        -11    1    4    4    0    0  0.98101552012E+02  0.65072116708E+02 -0.54016284173E+02  0.12952240669E+03  0.00000000000E+00 0.  1.
         11    1    4    4    0    0  0.76153422664E+02 -0.28171046895E+02 -0.17037832156E+02  0.82965290280E+02  0.00000000000E+00 0. -1.
</event>
<event>
 8    1  0.7052796E-009  0.7804804E+02  0.7561462E-02  0.1334684E+00
         -1   -1    0    0    0  501 -0.00000000000E+00  0.00000000000E+00  0.23519237701E+03  0.23519237701E+03  0.00000000000E+00 0.  1.
          1   -1    0    0  501    0  0.00000000000E+00 -0.00000000000E+00 -0.63593018205E+02  0.63593018205E+02  0.00000000000E+00 0. -1.
         25    2    1    2    0    0 -0.54075969415E+02  0.22027797219E+02  0.92751669487E+02  0.16631321751E+03  0.12509108605E+03 0.  0.
         23    2    1    2    0    0  0.54075969415E+02 -0.22027797219E+02  0.78847689322E+02  0.13247217771E+03  0.89008344755E+02 0.  0.
          5    1    3    3  502    0  0.80213365958E+01  0.16204884743E+02  0.10151043861E+03  0.10319293424E+03  0.41800000000E+01 0.  1.
         -5    1    3    3    0  502 -0.62097306011E+02  0.58229124759E+01 -0.87587691264E+01  0.63120283270E+02  0.41800000000E+01 0.  1.
        -11    1    4    4    0    0  0.44782573018E+02  0.62919857476E+01 -0.30442639083E+01  0.45324777699E+02  0.00000000000E+00 0. -1.
         11    1    4    4    0    0  0.92933963969E+01 -0.28319782966E+02  0.81891953231E+02  0.87147400006E+02  0.00000000000E+00 0.  1.
</event>
<event>
 8    1  0.7052796E-009  0.1290371E+03  0.7561462E-02  0.1228892E+00
         -1   -1    0    0    0  501 -0.00000000000E+00  0.00000000000E+00  0.84861656517E+03  0.84861656517E+03  0.00000000000E+00 0.  1.
          1   -1    0    0  501    0  0.00000000000E+00 -0.00000000000E+00 -0.28589309360E+02  0.28589309360E+02  0.00000000000E+00 0. -1.
         25    2    1    2    0    0  0.93536330122E+02 -0.59213895633E+02  0.40878119795E+03  0.44159473723E+03  0.12509401929E+03 0.  0.
         23    2    1    2    0    0 -0.93536330122E+02  0.59213895633E+02  0.41124605787E+03  0.43561113731E+03  0.91533667843E+02 0.  0.
          5    1    3    3  502    0  0.73252147069E+02 -0.67215119014E+02  0.40737123231E+03  0.41934775854E+03  0.41800000000E+01 0.  1.
         -5    1    3    3    0  502  0.20284183053E+02  0.80012233810E+01  0.14099656368E+01  0.22246978690E+02  0.41800000000E+01 0.  1.
        -11    1    4    4    0    0  0.76264618206E+00  0.40153794761E+02  0.19248388454E+03  0.19662897719E+03  0.00000000000E+00 0.  1.
         11    1    4    4    0    0 -0.94298976304E+02  0.19060100872E+02  0.21876217332E+03  0.23898216012E+03  0.00000000000E+00 0. -1.
</event>
<event>
 8    1  0.7052796E-009  0.1066687E+03  0.7561462E-02  0.1266866E+00
          2   -1    0    0  501    0  0.00000000000E+00  0.00000000000E+00  0.48877996852E+02  0.48877996852E+02  0.00000000000E+00 0.  1.
         -2   -1    0    0    0  501 -0.00000000000E+00 -0.00000000000E+00 -0.33653795127E+03  0.33653795127E+03  0.00000000000E+00 0. -1.
         25    2    1    2    0    0  0.61992695205E+02  0.22196021593E+02 -0.12913358084E+03  0.19146453765E+03  0.12508968720E+03 0.  0.
         23    2    1    2    0    0 -0.61992695205E+02 -0.22196021593E+02 -0.15852637358E+03  0.19395141048E+03  0.90281675170E+02 0.  0.
          5    1    3    3  502    0  0.31985808044E+02  0.51225597926E+02 -0.13607661916E+03  0.14893445700E+03  0.41800000000E+01 0. -1.
         -5    1    3    3    0  502  0.30006887162E+02 -0.29029576333E+02  0.69430383200E+01  0.42530080653E+02  0.41800000000E+01 0. -1.
        -11    1    4    4    0    0 -0.32941196429E+02 -0.56799136690E+02 -0.10575741929E+03  0.12448251317E+03  0.00000000000E+00 0.  1.
         11    1    4    4    0    0 -0.29051498776E+02  0.34603115097E+02 -0.52768954292E+02  0.69468897304E+02  0.00000000000E+00 0. -1.
</event>
<event>
 8    1  0.7052796E-009  0.2616470E+03  0.7561462E-02  0.1106158E+00
         -2   -1    0    0    0  501 -0.00000000000E+00  0.00000000000E+00  0.71437585376E+03  0.71437585376E+03  0.00000000000E+00 0.  1.
          2   -1    0    0  501    0  0.00000000000E+00 -0.00000000000E+00 -0.10408624930E+03  0.10408624930E+03  0.00000000000E+00 0. -1.
         25    2    1    2    0    0  0.19057955457E+03 -0.15346670545E+03  0.38967298085E+03  0.47682798137E+03  0.12508915026E+03 0.  0.
         23    2    1    2    0    0 -0.19057955457E+03  0.15346670545E+03  0.22061662361E+03  0.34163412169E+03  0.90385741080E+02 0.  0.
          5    1    3    3  502    0  0.10176107927E+03 -0.15230818870E+03  0.22995281603E+03  0.29402188966E+03  0.41800000000E+01 0. -1.
         -5    1    3    3    0  502  0.88818475300E+02 -0.11585167433E+01  0.15972016482E+03  0.18280609171E+03  0.41800000000E+01 0. -1.
        -11    1    4    4    0    0 -0.18587332887E+03  0.12904885807E+03  0.22164240372E+03  0.31674572970E+03  0.00000000000E+00 0. -1.
         11    1    4    4    0    0 -0.47062256920E+01  0.24417847381E+02 -0.10257801144E+01  0.24888391990E+02  0.00000000000E+00 0.  1.
</event>
<event>
 8    1  0.7052796E-009  0.1106702E+03  0.7561462E-02  0.1259334E+00
          1   -1    0    0  501    0  0.00000000000E+00  0.00000000000E+00  0.20550807852E+03  0.20550807852E+03  0.00000000000E+00 0. -1.
         -1   -1    0    0    0  501 -0.00000000000E+00 -0.00000000000E+00 -0.78127509883E+02  0.78127509883E+02  0.00000000000E+00 0.  1.
         25    2    1    2    0    0  0.64705044429E+02 -0.44443874139E+01  0.53734298943E+02  0.15079699993E+03  0.12508343197E+03 0.  0.
         23    2    1    2    0    0 -0.64705044429E+02  0.44443874139E+01  0.73646269697E+02  0.13283858847E+03  0.89531124156E+02 0.  0.
          5    1    3    3  502    0  0.91904246893E+02  0.24640998722E+02  0.56363961540E+02  0.11067040244E+03  0.41800000000E+01 0.  1.
         -5    1    3    3    0  502 -0.27199202464E+02 -0.29085386136E+02 -0.26296625972E+01  0.40126597498E+02  0.41800000000E+01 0.  1.
        -11    1    4    4    0    0 -0.55969998464E+02  0.26800745322E+02  0.75429721557E+01  0.62512535597E+02  0.00000000000E+00 0.  1.
         11    1    4    4    0    0 -0.87350459653E+01 -0.22356357909E+02  0.66103297542E+02  0.70326052874E+02  0.00000000000E+00 0. -1.
</event>
<event>
 8    1  0.7052796E-009  0.1061264E+03  0.7561462E-02  0.1267916E+00
          1   -1    0    0  501    0  0.00000000000E+00  0.00000000000E+00  0.27438396995E+03  0.27438396995E+03  0.00000000000E+00 0. -1.
         -1   -1    0    0    0  501 -0.00000000000E+00 -0.00000000000E+00 -0.45363981611E+02  0.45363981611E+02  0.00000000000E+00 0.  1.
         25    2    1    2    0    0  0.11067535997E+02  0.19595920868E+02  0.11652271090E+03  0.17243792437E+03  0.12510317797E+03 0.  0.
         23    2    1    2    0    0 -0.11067535997E+02 -0.19595920868E+02  0.11249727743E+03  0.14731002719E+03  0.92401927538E+02 0.  0.
          5    1    3    3  502    0  0.62922611597E+02  0.22639670049E+02  0.34765184505E+02  0.75484436567E+02  0.41800000000E+01 0.  1.
         -5    1    3    3    0  502 -0.51855075600E+02 -0.30437491806E+01  0.81757526398E+02  0.96953487804E+02  0.41800000000E+01 0.  1.
        -11    1    4    4    0    0 -0.46811748163E+02  0.86209833917E+01  0.72332200823E+02  0.86588731349E+02  0.00000000000E+00 0.  1.
         11    1    4    4    0    0  0.35744212166E+02 -0.28216904260E+02  0.40165076610E+02  0.60721295839E+02  0.00000000000E+00 0. -1.
</event>
<event>
 8    1  0.7052796E-009  0.1390619E+03  0.7561462E-02  0.1214597E+00
         -1   -1    0    0    0  501 -0.00000000000E+00  0.00000000000E+00  0.22331818436E+02  0.22331818436E+02  0.00000000000E+00 0.  1.
          1   -1    0    0  501    0  0.00000000000E+00 -0.00000000000E+00 -0.12293660689E+04  0.12293660689E+04  0.00000000000E+00 0. -1.
         25    2    1    2    0    0  0.41715871063E+01 -0.12420624435E+03 -0.69956408495E+03  0.72144502765E+03  0.12509366771E+03 0.  0.
         23    2    1    2    0    0 -0.41715871063E+01  0.12420624435E+03 -0.50747016551E+03  0.53025285968E+03  0.90540228843E+02 0.  0.
          5    1    3    3  502    0  0.19695982520E+02 -0.12728589026E+03 -0.37607122082E+03  0.39753825617E+03  0.41800000000E+01 0. -1.
         -5    1    3    3    0  502 -0.15524395414E+02  0.30796459134E+01 -0.32349286413E+03  0.32390677148E+03  0.41800000000E+01 0. -1.
        -11    1    4    4    0    0  0.20157857987E+02  0.34684555913E+02 -0.53328499790E+02  0.66732949488E+02  0.00000000000E+00 0.  1.
         11    1    4    4    0    0 -0.24329445093E+02  0.89521688436E+02 -0.45414166572E+03  0.46351991019E+03  0.00000000000E+00 0. -1.
</event>
<event>
 8    1  0.7052796E-009  0.1266725E+03  0.7561462E-02  0.1232478E+00
         -2   -1    0    0    0  501 -0.00000000000E+00  0.00000000000E+00  0.22626169955E+02  0.22626169955E+02  0.00000000000E+00 0.  1.
          2   -1    0    0  501    0  0.00000000000E+00 -0.00000000000E+00 -0.14135734899E+04  0.14135734899E+04  0.00000000000E+00 0. -1.
         25    2    1    2    0    0  0.38129885799E+02 -0.72242840421E+02 -0.12016358299E+04  0.12108879391E+04  0.12509203505E+03 0.  0.
         23    2    1    2    0    0 -0.38129885799E+02  0.72242840421E+02 -0.18931149006E+03  0.22531172075E+03  0.90849408660E+02 0.  0.
          5    1    3    3  502    0  0.28411917159E+01  0.27730413346E+02 -0.92772820477E+02  0.96960387860E+02  0.41800000000E+01 0. -1.
         -5    1    3    3    0  502  0.35288694084E+02 -0.99973253767E+02 -0.11088630094E+04  0.11139275513E+04  0.41800000000E+01 0. -1.
        -11    1    4    4    0    0 -0.62885734192E+02  0.70153222740E+02 -0.16784368815E+03  0.19247751525E+03  0.00000000000E+00 0. -1.
         11    1    4    4    0    0  0.24755848392E+02  0.20896176807E+01 -0.21467801912E+02  0.32834205497E+02  0.00000000000E+00 0.  1.
</event>
<event>
 8    1  0.7052796E-009  0.4907729E+02  0.7561462E-02  0.1450383E+00
          1   -1    0    0  501    0  0.00000000000E+00  0.00000000000E+00  0.87332444544E+02  0.87332444544E+02  0.00000000000E+00 0. -1.
         -1   -1    0    0    0  501 -0.00000000000E+00 -0.00000000000E+00 -0.16116631729E+03  0.16116631729E+03  0.00000000000E+00 0.  1.
         25    2    1    2    0    0  0.27234227757E+02  0.37057673160E+02 -0.30500709019E+02  0.13672680780E+03  0.12509577298E+03 0.  0.
         23    2    1    2    0    0 -0.27234227757E+02 -0.37057673160E+02 -0.43333163729E+02  0.11177195404E+03  0.92196704547E+02 0.  0.
          5    1    3    3  502    0  0.24933821077E+02  0.28937903298E+02  0.45835468990E+02  0.59811874225E+02  0.41800000000E+01 0. -1.
         -5    1    3    3    0  502  0.23004066798E+01  0.81197698622E+01 -0.76336178009E+02  0.76914933573E+02  0.41800000000E+01 0. -1.
        -11    1    4    4    0    0 -0.15911524600E+02 -0.35472231254E+02 -0.71492791185E+02  0.81379819345E+02  0.00000000000E+00 0.  1.
         11    1    4    4    0    0 -0.11322703158E+02 -0.15854419067E+01  0.28159627455E+02  0.30392134694E+02  0.00000000000E+00 0. -1.
</event>
<event>
 8    1  0.7052796E-009  0.4074096E+03  0.7561462E-02  0.1041244E+00
          2   -1    0    0  501    0  0.00000000000E+00  0.00000000000E+00  0.17436231116E+04  0.17436231116E+04  0.00000000000E+00 0. -1.
         -2   -1    0    0    0  501 -0.00000000000E+00 -0.00000000000E+00 -0.10880434526E+03  0.10880434526E+03  0.00000000000E+00 0.  1.
         25    2    1    2    0    0  0.39811132164E+03 -0.14399600171E+02  0.11135128559E+04  0.11892257935E+04  0.12508850833E+03 0.  0.
         23    2    1    2    0    0 -0.39811132164E+03  0.14399600171E+02  0.52130591052E+03  0.66320166338E+03  0.96832954423E+02 0.  0.
          5    1    3    3  502    0 -0.47898919777E+01  0.10718767852E+02  0.19918800169E+02  0.23496085836E+02  0.41800000000E+01 0.  1.
         -5    1    3    3    0  502  0.40290121362E+03 -0.25118368023E+02  0.10935940557E+04  0.11657297077E+04  0.41800000000E+01 0.  1.
        -11    1    4    4    0    0 -0.18123993305E+03 -0.89182780080E+00  0.31537494899E+03  0.36374450805E+03  0.00000000000E+00 0.  1.
         11    1    4    4    0    0 -0.21687138859E+03  0.15291427972E+02  0.20593096153E+03  0.29945715533E+03  0.00000000000E+00 0. -1.
</event>
<event>
 8    1  0.7052796E-009  0.1076267E+03  0.7561462E-02  0.1265029E+00
         -1   -1    0    0    0  501 -0.00000000000E+00  0.00000000000E+00  0.27069813849E+03  0.27069813849E+03  0.00000000000E+00 0.  1.
          1   -1    0    0  501    0  0.00000000000E+00 -0.00000000000E+00 -0.59373549871E+02  0.59373549871E+02  0.00000000000E+00 0. -1.
         25    2    1    2    0    0 -0.42947437211E+02  0.50962584048E+01  0.53741504517E+02  0.14284765729E+03  0.12508736816E+03 0.  0.
         23    2    1    2    0    0  0.42947437211E+02 -0.50962584048E+01  0.15758308411E+03  0.18722403108E+03  0.91378089297E+02 0.  0.
          5    1    3    3  502    0  0.34025136691E+02  0.34280796358E+02  0.30234166366E+02  0.57135454332E+02  0.41800000000E+01 0. -1.
         -5    1    3    3    0  502 -0.76972573902E+02 -0.29184537954E+02  0.23507338150E+02  0.85712202956E+02  0.41800000000E+01 0. -1.
        -11    1    4    4    0    0  0.52073598498E+02  0.21418106770E+02  0.47623802331E+02  0.73745654154E+02  0.00000000000E+00 0. -1.
         11    1    4    4    0    0 -0.91261612875E+01 -0.26514365174E+02  0.10995928178E+03  0.11347837692E+03  0.00000000000E+00 0.  1.
</event>
<event>
 8    1  0.7052796E-009  0.1065757E+03  0.7561462E-02  0.1267046E+00
          1   -1    0    0  501    0  0.00000000000E+00  0.00000000000E+00  0.47249825648E+03  0.47249825648E+03  0.00000000000E+00 0. -1.
         -1   -1    0    0    0  501 -0.00000000000E+00 -0.00000000000E+00 -0.26723444650E+02  0.26723444650E+02  0.00000000000E+00 0.  1.
         25    2    1    2    0    0 -0.18711675765E+02  0.47960137892E+01  0.19384735530E+03  0.23151677663E+03  0.12510032832E+03 0.  0.
         23    2    1    2    0    0  0.18711675765E+02 -0.47960137892E+01  0.25192745653E+03  0.26770492450E+03  0.88461034862E+02 0.  0.
          5    1    3    3  502    0  0.35384999514E+02 -0.39040820939E+02  0.11290828101E+03  0.12466770316E+03  0.41800000000E+01 0. -1.
         -5    1    3    3    0  502 -0.54096675278E+02  0.43836834728E+02  0.80939074290E+02  0.10684907347E+03  0.41800000000E+01 0. -1.
        -11    1    4    4    0    0 -0.34816705011E+02  0.75086701981E+01  0.97895563449E+02  0.10417353032E+03  0.00000000000E+00 0. -1.
         11    1    4    4    0    0  0.53528380775E+02 -0.12304683987E+02  0.15403189308E+03  0.16353139418E+03  0.00000000000E+00 0.  1.
</event>
<event>
 8    1  0.7052796E-009  0.1030576E+03  0.7561462E-02  0.1273995E+00
         -1   -1    0    0    0  501 -0.00000000000E+00  0.00000000000E+00  0.48016112998E+03  0.48016112998E+03  0.00000000000E+00 0.  1.
          1   -1    0    0  501    0  0.00000000000E+00 -0.00000000000E+00 -0.36888344493E+02  0.36888344493E+02  0.00000000000E+00 0. -1.
         25    2    1    2    0    0 -0.76644746087E+02  0.35563757670E+01  0.24763708920E+03  0.28785150590E+03  0.12508915457E+03 0.  0.
         23    2    1    2    0    0  0.76644746087E+02 -0.35563757670E+01  0.19563569629E+03  0.22919796857E+03  0.91494908184E+02 0.  0.
          5    1    3    3  502    0  0.99924311687E+01  0.34758793547E+02  0.18437029892E+02  0.40809543991E+02  0.41800000000E+01 0. -1.
         -5    1    3    3    0  502 -0.86637177255E+02 -0.31202417780E+02  0.22920005931E+03  0.24704196191E+03  0.41800000000E+01 0. -1.
        -11    1    4    4    0    0  0.38358479499E+02  0.37843345076E+01  0.18474296971E+03  0.18872111433E+03  0.00000000000E+00 0.  1.
         11    1    4    4    0    0  0.38286266588E+02 -0.73407102745E+01  0.10892726573E+02  0.40476854235E+02  0.00000000000E+00 0. -1.
</event>
<event>
 8    1  0.7052796E-009  0.9164992E+02  0.7561462E-02  0.1298905E+00
          2   -1    0    0  501    0  0.00000000000E+00  0.00000000000E+00  0.82461641788E+02  0.82461641788E+02  0.00000000000E+00 0. -1.
         -2   -1    0    0    0  501 -0.00000000000E+00 -0.00000000000E+00 -0.18058423208E+03  0.18058423208E+03  0.00000000000E+00 0.  1.
         25    2    1    2    0    0  0.15136032651E+02  0.41540685022E+02 -0.93389219641E+02  0.16224600498E+03  0.12508993481E+03 0.  0.
         23    2    1    2    0    0 -0.15136032651E+02 -0.41540685022E+02 -0.47333706529E+01  0.10079986889E+03  0.90462593231E+02 0.  0.
          5    1    3    3  502    0 -0.48530677002E+02  0.24820671454E+02 -0.76734612810E+02  0.94217649858E+02  0.41800000000E+01 0.  1.
         -5    1    3    3    0  502  0.63666709654E+02  0.16720013567E+02 -0.16654606831E+02  0.68028355121E+02  0.41800000000E+01 0.  1.
        -11    1    4    4    0    0  0.11821463991E+02 -0.31937543781E+02 -0.41835301650E+02  0.53943916967E+02  0.00000000000E+00 0.  1.
         11    1    4    4    0    0 -0.26957496642E+02 -0.96031412407E+01  0.37101930997E+02  0.46855951923E+02  0.00000000000E+00 0. -1.
</event>
<event>
 8    1  0.7052796E-009  0.1440536E+03  0.7561462E-02  0.1207976E+00
         -2   -1    0    0    0  501 -0.00000000000E+00  0.00000000000E+00  0.18444387019E+03  0.18444387019E+03  0.00000000000E+00 0.  1.
          2   -1    0    0  501    0  0.00000000000E+00 -0.00000000000E+00 -0.13618447290E+03  0.13618447290E+03  0.00000000000E+00 0. -1.
         25    2    1    2    0    0 -0.17055169446E+01 -0.10843066500E+03 -0.13916343817E+02  0.16613496687E+03  0.12508814768E+03 0.  0.
         23    2    1    2    0    0  0.17055169446E+01  0.10843066500E+03  0.62175741112E+02  0.15449337622E+03  0.90786907717E+02 0.  0.
          5    1    3    3  502    0 -0.20734364475E+02  0.16506061549E+02 -0.28152334170E+02  0.38889462033E+02  0.41800000000E+01 0.  1.
         -5    1    3    3    0  502  0.19028847530E+02 -0.12493672655E+03  0.14235990352E+02  0.12724550483E+03  0.41800000000E+01 0.  1.
        -11    1    4    4    0    0  0.11838969731E+02 -0.10285482730E+02  0.25305581693E+02  0.29771207972E+02  0.00000000000E+00 0. -1.
         11    1    4    4    0    0 -0.10133452786E+02  0.11871614773E+03  0.36870159419E+02  0.12472216825E+03  0.00000000000E+00 0.  1.
</event>
<event>
 8    1  0.7052796E-009  0.1020594E+03  0.7561462E-02  0.1276024E+00
         -3   -1    0    0    0  501 -0.00000000000E+00  0.00000000000E+00  0.49574020777E+03  0.49574020777E+03  0.00000000000E+00 0.  1.
          3   -1    0    0  501    0  0.00000000000E+00 -0.00000000000E+00 -0.32819160412E+02  0.32819160412E+02  0.00000000000E+00 0. -1.
         25    2    1    2    0    0  0.42975329832E+02  0.50469026749E+02  0.23859764513E+03  0.27743405549E+03  0.12508723854E+03 0.  0.
         23    2    1    2    0    0 -0.42975329832E+02 -0.50469026749E+02  0.22432340223E+03  0.25112531270E+03  0.91372491783E+02 0.  0.
          5    1    3    3  502    0  0.89399918863E+01 -0.14662851497E+02 -0.84954529435E+01  0.19610400038E+02  0.41800000000E+01 0. -1.
         -5    1    3    3    0  502  0.34035337945E+02  0.65131878246E+02  0.24709309807E+03  0.25782365545E+03  0.41800000000E+01 0. -1.
        -11    1    4    4    0    0 -0.65883637329E+02 -0.10425256780E+02  0.13618357880E+03  0.15164203500E+03  0.00000000000E+00 0. -1.
         11    1    4    4    0    0  0.22908307497E+02 -0.40043769969E+02  0.88139823434E+02  0.99483277694E+02  0.00000000000E+00 0.  1.
</event>
<event>
 8    1  0.7052796E-009  0.9486375E+02  0.7561462E-02  0.1291483E+00
          1   -1    0    0  501    0  0.00000000000E+00  0.00000000000E+00  0.13842489743E+03  0.13842489743E+03  0.00000000000E+00 0. -1.
         -1   -1    0    0    0  501 -0.00000000000E+00 -0.00000000000E+00 -0.11179492838E+03  0.11179492838E+03  0.00000000000E+00 0.  1.
         25    2    1    2    0    0 -0.50694895857E+02  0.23669898477E+02 -0.74976178809E+01  0.13723662410E+03  0.12508972844E+03 0.  0.
         23    2    1    2    0    0  0.50694895857E+02 -0.23669898477E+02  0.34127586928E+02  0.11298320171E+03  0.92034097589E+02 0.  0.
          5    1    3    3  502    0 -0.59684693566E+02  0.25109054998E+01  0.48176964476E+02  0.76857397813E+02  0.41800000000E+01 0. -1.
         -5    1    3    3    0  502  0.89897977092E+01  0.21158992977E+02 -0.55674582357E+02  0.60379226289E+02  0.41800000000E+01 0. -1.
        -11    1    4    4    0    0 -0.21541427092E+02 -0.26542727540E+02  0.31383929591E+01  0.34327816371E+02  0.00000000000E+00 0. -1.
         11    1    4    4    0    0  0.72236322949E+02  0.28728290626E+01  0.30989193969E+02  0.78655385339E+02  0.00000000000E+00 0.  1.
</event>
<event>
 8    1  0.7052796E-009  0.1200598E+03  0.7561462E-02  0.1242998E+00
          2   -1    0    0  501    0  0.00000000000E+00  0.00000000000E+00  0.10577511100E+04  0.10577511100E+04  0.00000000000E+00 0.  1.
         -2   -1    0    0    0  501 -0.00000000000E+00 -0.00000000000E+00 -0.22763391507E+02  0.22763391507E+02  0.00000000000E+00 0. -1.
         25    2    1    2    0    0  0.79984467156E+02  0.65776483768E+02  0.69411377424E+03  0.71285694774E+03  0.12508811114E+03 0.  0.
         23    2    1    2    0    0 -0.79984467156E+02 -0.65776483768E+02  0.34087394421E+03  0.36765755373E+03  0.90845859378E+02 0.  0.
          5    1    3    3  502    0  0.94224602224E+02  0.43725872882E+02  0.29359929978E+03  0.31146147250E+03  0.41800000000E+01 0.  1.
         -5    1    3    3    0  502 -0.14240135068E+02  0.22050610886E+02  0.40051447446E+03  0.40139547523E+03  0.41800000000E+01 0.  1.
        -11    1    4    4    0    0 -0.49981756126E+02 -0.61538692922E+02  0.32276315239E+03  0.33235709593E+03  0.00000000000E+00 0.  1.
         11    1    4    4    0    0 -0.30002711030E+02 -0.42377908461E+01  0.18110791821E+02  0.35300457798E+02  0.00000000000E+00 0. -1.
</event>
<event>
 8    1  0.7052796E-009  0.1482197E+03  0.7561462E-02  0.1202678E+00
          2   -1    0    0  501    0  0.00000000000E+00  0.00000000000E+00  0.14509823272E+03  0.14509823272E+03  0.00000000000E+00 0. -1.
         -2   -1    0    0    0  501 -0.00000000000E+00 -0.00000000000E+00 -0.16605433128E+03  0.16605433128E+03  0.00000000000E+00 0.  1.
         25    2    1    2    0    0  0.10935866097E+03 -0.87135221395E+01 -0.28269652525E+02  0.16876558137E+03  0.12508959192E+03 0.  0.
         23    2    1    2    0    0 -0.10935866097E+03  0.87135221395E+01  0.73135539674E+01  0.14238698262E+03  0.90472772430E+02 0.  0.
          5    1    3    3  502    0  0.11822793556E+03 -0.37327494305E+02 -0.47599059250E+02  0.13286959554E+03  0.41800000000E+01 0.  1.
         -5    1    3    3    0  502 -0.88692745861E+01  0.28613972166E+02  0.19329406725E+02  0.35895985836E+02  0.41800000000E+01 0.  1.
        -11    1    4    4    0    0 -0.99033789083E+02 -0.28877356186E+02  0.34936612689E+01  0.10321724056E+03  0.00000000000E+00 0.  1.
         11    1    4    4    0    0 -0.10324871888E+02  0.37590878325E+02  0.38198926985E+01  0.39169742059E+02  0.00000000000E+00 0. -1.
</event>
<event>
 8    1  0.7052796E-009  0.1387521E+03  0.7561462E-02  0.1215018E+00
          2   -1    0    0  501    0  0.00000000000E+00  0.00000000000E+00  0.12366919622E+04  0.12366919622E+04  0.00000000000E+00 0. -1.
         -2   -1    0    0    0  501 -0.00000000000E+00 -0.00000000000E+00 -0.42363138695E+02  0.42363138695E+02  0.00000000000E+00 0.  1.
         25    2    1    2    0    0 -0.10373743081E+03  0.35416755653E+02  0.10937069928E+04  0.11062812549E+04  0.12508967809E+03 0.  0.
         23    2    1    2    0    0  0.10373743081E+03 -0.35416755653E+02  0.10062183066E+03  0.17277384602E+03  0.87808017462E+02 0.  0.
          5    1    3    3  502    0 -0.60524940568E+02  0.82367995717E+02  0.68916897972E+03  0.69672025244E+03  0.41800000000E+01 0.  1.
         -5    1    3    3    0  502 -0.43212490238E+02 -0.46951240065E+02  0.40453801310E+03  0.40956100241E+03  0.41800000000E+01 0.  1.
        -11    1    4    4    0    0  0.25783347252E+02 -0.36617869617E+00  0.81100786767E+02  0.85101425937E+02  0.00000000000E+00 0. -1.
         11    1    4    4    0    0  0.77954083554E+02 -0.35050576956E+02  0.19521043892E+02  0.87672420078E+02  0.00000000000E+00 0.  1.
</event>
<event>
 8    1  0.7052796E-009  0.2570207E+03  0.7561462E-02  0.1108947E+00
          2   -1    0    0  501    0  0.00000000000E+00  0.00000000000E+00  0.12369961090E+04  0.12369961090E+04  0.00000000000E+00 0. -1.
         -2   -1    0    0    0  501 -0.00000000000E+00 -0.00000000000E+00 -0.57577907135E+02  0.57577907135E+02  0.00000000000E+00 0.  1.
         25    2    1    2    0    0  0.23671695198E+03  0.54873168628E+02  0.62010942408E+03  0.67766380848E+03  0.12508620828E+03 0.  0.
         23    2    1    2    0    0 -0.23671695198E+03 -0.54873168628E+02  0.55930877774E+03  0.61691020761E+03  0.93305495056E+02 0.  0.
          5    1    3    3  502    0  0.24324418205E+03  0.32202256805E+02  0.52406977907E+03  0.57868067462E+03  0.41800000000E+01 0.  1.
         -5    1    3    3    0  502 -0.65272300681E+01  0.22670911824E+02  0.96039645012E+02  0.98983133863E+02  0.41800000000E+01 0.  1.
        -11    1    4    4    0    0 -0.12585708750E+03 -0.43833415478E+02  0.40658243713E+03  0.42786756476E+03  0.00000000000E+00 0. -1.
         11    1    4    4    0    0 -0.11085986448E+03 -0.11039753151E+02  0.15272634061E+03  0.18904264285E+03  0.00000000000E+00 0.  1.
</event>
<event>
 8    1  0.7052796E-009  0.1172466E+03  0.7561462E-02  0.1247710E+00
          2   -1    0    0  501    0  0.00000000000E+00  0.00000000000E+00  0.20892355564E+03  0.20892355564E+03  0.00000000000E+00 0. -1.
         -2   -1    0    0    0  501 -0.00000000000E+00 -0.00000000000E+00 -0.69384155098E+02  0.69384155098E+02  0.00000000000E+00 0.  1.
         25    2    1    2    0    0  0.90976277904E+01  0.57403821462E+02  0.86286975307E+02  0.16269776599E+03  0.12508859021E+03 0.  0.
         23    2    1    2    0    0 -0.90976277904E+01 -0.57403821462E+02  0.53252425234E+02  0.11560994475E+03  0.84568747071E+02 0.  0.
          5    1    3    3  502    0 -0.47027039166E+02 -0.60869315561E+01  0.10090725439E+02  0.48660952399E+02  0.41800000000E+01 0. -1.
         -5    1    3    3    0  502  0.56124666957E+02  0.63490753018E+02  0.76196249868E+02  0.11403681359E+03  0.41800000000E+01 0. -1.
        -11    1    4    4    0    0  0.32470826898E+02 -0.50306641327E+02  0.37183904081E+02  0.70482306175E+02  0.00000000000E+00 0.  1.
         11    1    4    4    0    0 -0.41568454688E+02 -0.70971801345E+01  0.16068521153E+02  0.45127638572E+02  0.00000000000E+00 0. -1.
</event>
<event>
 8    1  0.7052796E-009  0.1237736E+03  0.7561462E-02  0.1236998E+00
         -1   -1    0    0    0  501 -0.00000000000E+00  0.00000000000E+00  0.57752269054E+02  0.57752269054E+02  0.00000000000E+00 0.  1.
          1   -1    0    0  501    0  0.00000000000E+00 -0.00000000000E+00 -0.39713303547E+03  0.39713303547E+03  0.00000000000E+00 0. -1.
         25    2    1    2    0    0 -0.64036775326E+02 -0.72200522048E+02 -0.11948429803E+03  0.19808401005E+03  0.12508858295E+03 0.  0.
         23    2    1    2    0    0  0.64036775326E+02  0.72200522048E+02 -0.21989646838E+03  0.25680129447E+03  0.90988043474E+02 0.  0.
          5    1    3    3  502    0 -0.53682503289E+02 -0.10409358504E+03 -0.11464883397E+03  0.16394850758E+03  0.41800000000E+01 0. -1.
         -5    1    3    3    0  502 -0.10354272037E+02  0.31893062993E+02 -0.48354640597E+01  0.34135502475E+02  0.41800000000E+01 0. -1.
        -11    1    4    4    0    0  0.39694958435E+02  0.47081283274E+02 -0.21224134612E+03  0.22099485506E+03  0.00000000000E+00 0. -1.
         11    1    4    4    0    0  0.24341816892E+02  0.25119238774E+02 -0.76551222602E+01  0.35806439407E+02  0.00000000000E+00 0.  1.
</event>
<event>
 8    1  0.7052796E-009  0.1136308E+03  0.7561462E-02  0.1253990E+00
         -1   -1    0    0    0  501 -0.00000000000E+00  0.00000000000E+00  0.41311339115E+02  0.41311339115E+02  0.00000000000E+00 0.  1.
          1   -1    0    0  501    0  0.00000000000E+00 -0.00000000000E+00 -0.69272237167E+03  0.69272237167E+03  0.00000000000E+00 0. -1.
         25    2    1    2    0    0  0.48047351946E+02 -0.88401934323E+02 -0.17030470967E+03  0.23403691581E+03  0.12508450665E+03 0.  0.
         23    2    1    2    0    0 -0.48047351946E+02  0.88401934323E+02 -0.48110632289E+03  0.49999679498E+03  0.91706330459E+02 0.  0.
          5    1    3    3  502    0  0.36906410520E+02 -0.69548125916E+02 -0.18909864239E+03  0.20487750953E+03  0.41800000000E+01 0.  1.
         -5    1    3    3    0  502  0.11140941427E+02 -0.18853808407E+02  0.18793932723E+02  0.29159406279E+02  0.41800000000E+01 0.  1.
        -11    1    4    4    0    0  0.76203460890E+01  0.65476469474E+02 -0.15587435803E+03  0.16923963253E+03  0.00000000000E+00 0. -1.
         11    1    4    4    0    0 -0.55667698035E+02  0.22925464849E+02 -0.32523196486E+03  0.33075716245E+03  0.00000000000E+00 0.  1.
</event>
<event>
 8    1  0.7052796E-009  0.1010083E+03  0.7561462E-02  0.1278190E+00
         -4   -1    0    0    0  501 -0.00000000000E+00  0.00000000000E+00  0.83518752296E+02  0.83518752296E+02  0.00000000000E+00 0.  1.
          4   -1    0    0  501    0  0.00000000000E+00 -0.00000000000E+00 -0.15201302409E+03  0.15201302409E+03  0.00000000000E+00 0. -1.
         25    2    1    2    0    0  0.15101721439E+00 -0.16962495132E+02 -0.67924707814E+02  0.14335827619E+03  0.12510028126E+03 0.  0.
         23    2    1    2    0    0 -0.15101721439E+00  0.16962495132E+02 -0.56956398237E+00  0.92173500201E+02  0.90597354756E+02 0.  0.
          5    1    3    3  502    0 -0.81972313956E+01 -0.63394655855E+02 -0.45210348766E+01  0.64218292954E+02  0.41800000000E+01 0.  1.
         -5    1    3    3    0  502  0.83482486100E+01  0.46432160723E+02 -0.63403672938E+02  0.79139983234E+02  0.41800000000E+01 0.  1.
        -11    1    4    4    0    0 -0.13120879936E+02  0.51793042502E+02  0.80176745138E+01  0.54027399036E+02  0.00000000000E+00 0.  1.
         11    1    4    4    0    0  0.12969862722E+02 -0.34830547370E+02 -0.85872384961E+01  0.38146101165E+02  0.00000000000E+00 0. -1.
</event>
<event>
 8    1  0.7052796E-009  0.1295913E+03  0.7561462E-02  0.1228063E+00
         -2   -1    0    0    0  501 -0.00000000000E+00  0.00000000000E+00  0.42807642675E+03  0.42807642675E+03  0.00000000000E+00 0.  1.
          2   -1    0    0  501    0  0.00000000000E+00 -0.00000000000E+00 -0.58133687806E+02  0.58133687806E+02  0.00000000000E+00 0. -1.
         25    2    1    2    0    0 -0.13025711596E+02  0.11397178444E+03  0.20730526207E+03  0.26792194394E+03  0.12508980594E+03 0.  0.
         23    2    1    2    0    0  0.13025711596E+02 -0.11397178444E+03  0.16263747687E+03  0.21828817061E+03  0.89663480503E+02 0.  0.
          5    1    3    3  502    0  0.13806248365E+02  0.10846626712E+03  0.74785219280E+02  0.13253620267E+03  0.41800000000E+01 0. -1.
         -5    1    3    3    0  502 -0.26831959961E+02  0.55055173238E+01  0.13252004279E+03  0.13538574126E+03  0.41800000000E+01 0. -1.
        -11    1    4    4    0    0 -0.12585038960E+02 -0.13876353682E+02  0.90151118056E+02  0.92076926990E+02  0.00000000000E+00 0.  1.
         11    1    4    4    0    0  0.25610750556E+02 -0.10009543076E+03  0.72486358813E+02  0.12621124362E+03  0.00000000000E+00 0. -1.
</event>
<event>
 8    1  0.7052796E-009  0.1297640E+03  0.7561462E-02  0.1227806E+00
         -2   -1    0    0    0  501 -0.00000000000E+00  0.00000000000E+00  0.30785616304E+02  0.30785616304E+02  0.00000000000E+00 0.  1.
          2   -1    0    0  501    0  0.00000000000E+00 -0.00000000000E+00 -0.83303910704E+03  0.83303910704E+03  0.00000000000E+00 0. -1.
         25    2    1    2    0    0  0.54166444768E+02  0.10022346952E+03 -0.34112174209E+03  0.38076935831E+03  0.12507003527E+03 0.  0.
         23    2    1    2    0    0 -0.54166444768E+02 -0.10022346952E+03 -0.46113174865E+03  0.48305536504E+03  0.87870634987E+02 0.  0.
          5    1    3    3  502    0  0.52847634683E+02  0.88736727813E+02 -0.11623911957E+03  0.15555090701E+03  0.41800000000E+01 0.  1.
         -5    1    3    3    0  502  0.13188100855E+01  0.11486741707E+02 -0.22488262252E+03  0.22521845130E+03  0.41800000000E+01 0.  1.
        -11    1    4    4    0    0  0.23248963934E+02 -0.37987382749E+02 -0.14045640241E+03  0.14734841889E+03  0.00000000000E+00 0.  1.
         11    1    4    4    0    0 -0.77415408702E+02 -0.62236086771E+02 -0.32067534624E+03  0.33570694614E+03  0.00000000000E+00 0. -1.
</event>
<event>
 8    1  0.7052796E-009  0.7706363E+02  0.7561462E-02  0.1337597E+00
         -4   -1    0    0    0  501 -0.00000000000E+00  0.00000000000E+00  0.27706748045E+03  0.27706748045E+03  0.00000000000E+00 0.  1.
          4   -1    0    0  501    0  0.00000000000E+00 -0.00000000000E+00 -0.51587103410E+02  0.51587103410E+02  0.00000000000E+00 0. -1.
         25    2    1    2    0    0 -0.25404881062E+02 -0.13547940155E+02  0.67475617722E+02  0.14501841550E+03  0.12509367363E+03 0.  0.
         23    2    1    2    0    0  0.25404881062E+02  0.13547940155E+02  0.15800475931E+03  0.18363616836E+03  0.89038102507E+02 0.  0.
          5    1    3    3  502    0 -0.61255915344E+01  0.20615545459E+02 -0.31557445997E+02  0.38417032473E+02  0.41800000000E+01 0. -1.
         -5    1    3    3    0  502 -0.19279289528E+02 -0.34163485614E+02  0.99033063719E+02  0.10660138303E+03  0.41800000000E+01 0. -1.
        -11    1    4    4    0    0  0.45209035813E+02  0.39561155109E+02  0.11343899481E+03  0.12836412060E+03  0.00000000000E+00 0. -1.
         11    1    4    4    0    0 -0.19804154751E+02 -0.26013214954E+02  0.44565764504E+02  0.55272047759E+02  0.00000000000E+00 0.  1.
</event>
<event>
 8    1  0.7052796E-009  0.9897750E+02  0.7561462E-02  0.1282461E+00
         -1   -1    0    0    0  501 -0.00000000000E+00  0.00000000000E+00  0.11676481319E+03  0.11676481319E+03  0.00000000000E+00 0.  1.
          1   -1    0    0  501    0  0.00000000000E+00 -0.00000000000E+00 -0.10137217522E+03  0.10137217522E+03  0.00000000000E+00 0. -1.
         25    2    1    2    0    0 -0.55349945513E+01 -0.63923987227E+01  0.50824520316E+01  0.12545987051E+03  0.12507137508E+03 0.  0.
         23    2    1    2    0    0  0.55349945513E+01  0.63923987227E+01  0.10310185943E+02  0.92677117895E+02  0.91712863444E+02 0.  0.
          5    1    3    3  502    0 -0.58448175313E+02  0.62232976724E+01 -0.24010359234E+02  0.63630876010E+02  0.41800000000E+01 0.  1.
         -5    1    3    3    0  502  0.52913180762E+02 -0.12615696395E+02  0.29092811265E+02  0.61828994502E+02  0.41800000000E+01 0.  1.
        -11    1    4    4    0    0 -0.56545614586E+01  0.44447246775E+02 -0.13020026347E+02  0.46658899443E+02  0.00000000000E+00 0. -1.
         11    1    4    4    0    0  0.11189556010E+02 -0.38054848052E+02  0.23330212290E+02  0.46018218452E+02  0.00000000000E+00 0.  1.
</event>
<event>
 8    1  0.7052796E-009  0.1887179E+03  0.7561462E-02  0.1159623E+00
         -2   -1    0    0    0  501 -0.00000000000E+00  0.00000000000E+00  0.17538600293E+03  0.17538600293E+03  0.00000000000E+00 0.  1.
          2   -1    0    0  501    0  0.00000000000E+00 -0.00000000000E+00 -0.50407090258E+03  0.50407090258E+03  0.00000000000E+00 0. -1.
         25    2    1    2    0    0  0.16920533843E+03 -0.23912535557E+02  0.80490835505E+02  0.22655719210E+03  0.12508849180E+03 0.  0.
         23    2    1    2    0    0 -0.16920533843E+03  0.23912535557E+02 -0.40917573516E+03  0.45289971340E+03  0.92147231378E+02 0.  0.
          5    1    3    3  502    0  0.15878359036E+03 -0.70617198421E+00  0.10546426822E+03  0.19066439499E+03  0.41800000000E+01 0.  1.
         -5    1    3    3    0  502  0.10421748073E+02 -0.23206363573E+02 -0.24973432711E+02  0.35892797112E+02  0.41800000000E+01 0.  1.
        -11    1    4    4    0    0 -0.71366220446E+02 -0.34074297212E+02 -0.19438545528E+03  0.20985685687E+03  0.00000000000E+00 0. -1.
         11    1    4    4    0    0 -0.97839117986E+02  0.57986832769E+02 -0.21479027988E+03  0.24304285653E+03  0.00000000000E+00 0.  1.
</event>
<event>
 8    1  0.7052796E-009  0.1132743E+03  0.7561462E-02  0.1254624E+00
          1   -1    0    0  501    0  0.00000000000E+00  0.00000000000E+00  0.37248027779E+02  0.37248027779E+02  0.00000000000E+00 0. -1.
         -1   -1    0    0    0  501 -0.00000000000E+00 -0.00000000000E+00 -0.44562604379E+03  0.44562604379E+03  0.00000000000E+00 0.  1.
         25    2    1    2    0    0  0.57997963530E+02  0.36751564755E+02 -0.20870201383E+03  0.25282284086E+03  0.12509363292E+03 0.  0.
         23    2    1    2    0    0 -0.57997963530E+02 -0.36751564755E+02 -0.19967600218E+03  0.23005123071E+03  0.91316053455E+02 0.  0.
          5    1    3    3  502    0  0.58934644165E+02  0.67695676646E+02 -0.20170015674E+03  0.22080856538E+03  0.41800000000E+01 0.  1.
         -5    1    3    3    0  502 -0.93668063523E+00 -0.30944111892E+02 -0.70018570910E+01  0.32014275473E+02  0.41800000000E+01 0.  1.
        -11    1    4    4    0    0  0.20399231032E+02 -0.89463717286E+01 -0.88149648549E+02  0.90920441778E+02  0.00000000000E+00 0.  1.
         11    1    4    4    0    0 -0.78397194561E+02 -0.27805193026E+02 -0.11152635363E+03  0.13913078893E+03  0.00000000000E+00 0. -1.
</event>
<event>
 8    1  0.7052796E-009  0.1011969E+03  0.7561462E-02  0.1277799E+00
         -2   -1    0    0    0  501 -0.00000000000E+00  0.00000000000E+00  0.72291481890E+02  0.72291481890E+02  0.00000000000E+00 0.  1.
          2   -1    0    0  501    0  0.00000000000E+00 -0.00000000000E+00 -0.16673055859E+03  0.16673055859E+03  0.00000000000E+00 0. -1.
         25    2    1    2    0    0 -0.24426474360E+02  0.13522773546E+02 -0.53576181885E+02  0.13891966477E+03  0.12509495569E+03 0.  0.
         23    2    1    2    0    0  0.24426474360E+02 -0.13522773546E+02 -0.40862894814E+02  0.10010237571E+03  0.87012593319E+02 0.  0.
          5    1    3    3  502    0 -0.67002839801E+02 -0.23248262000E+02 -0.37113239966E+02  0.80154396063E+02  0.41800000000E+01 0.  1.
         -5    1    3    3    0  502  0.42576365441E+02  0.36771035547E+02 -0.16462941920E+02  0.58765268705E+02  0.41800000000E+01 0.  1.
        -11    1    4    4    0    0  0.33107046041E+02  0.21089004311E+02  0.75368583088E+01  0.39970324411E+02  0.00000000000E+00 0.  1.
         11    1    4    4    0    0 -0.86805716805E+01 -0.34611777857E+02 -0.48399753122E+02  0.60132051299E+02  0.00000000000E+00 0. -1.
</event>
<event>
 8    1  0.7052796E-009  0.1108290E+03  0.7561462E-02  0.1259042E+00
          2   -1    0    0  501    0  0.00000000000E+00  0.00000000000E+00  0.21673605368E+03  0.21673605368E+03  0.00000000000E+00 0. -1.
         -2   -1    0    0    0  501 -0.00000000000E+00 -0.00000000000E+00 -0.67051021034E+02  0.67051021034E+02  0.00000000000E+00 0.  1.
         25    2    1    2    0    0  0.38581102226E+02 -0.26553976245E+02  0.10807820616E+03  0.17181701469E+03  0.12508626139E+03 0.  0.
         23    2    1    2    0    0 -0.38581102226E+02  0.26553976245E+02  0.41606826490E+02  0.11197006002E+03  0.92803831965E+02 0.  0.
          5    1    3    3  502    0 -0.31622615724E+02  0.28338166272E+02  0.22692977199E+02  0.48326856995E+02  0.41800000000E+01 0. -1.
         -5    1    3    3    0  502  0.70203717951E+02 -0.54892142517E+02  0.85385228959E+02  0.12349015770E+03  0.41800000000E+01 0. -1.
        -11    1    4    4    0    0 -0.45862014215E+02  0.48442661597E+02  0.27296092682E+01  0.66764261227E+02  0.00000000000E+00 0.  1.
         11    1    4    4    0    0  0.72809119885E+01 -0.21888685352E+02  0.38877217222E+02  0.45205798795E+02  0.00000000000E+00 0. -1.
</event>
<event>
 8    1  0.7052796E-009  0.6188449E+02  0.7561462E-02  0.1390089E+00
          1   -1    0    0  501    0  0.00000000000E+00  0.00000000000E+00  0.30646770744E+03  0.30646770744E+03  0.00000000000E+00 0. -1.
         -1   -1    0    0    0  501 -0.00000000000E+00 -0.00000000000E+00 -0.44466934627E+02  0.44466934627E+02  0.00000000000E+00 0.  1.
         25    2    1    2    0    0 -0.28123238870E+01  0.22524421857E+02  0.19936272644E+03  0.23645019137E+03  0.12509171659E+03 0.  0.
         23    2    1    2    0    0  0.28123238870E+01 -0.22524421857E+02  0.62638046370E+02  0.11448445069E+03  0.93101588881E+02 0.  0.
          5    1    3    3  502    0 -0.13557094541E+02  0.35156424246E+02  0.21188735819E+03  0.21525216361E+03  0.41800000000E+01 0.  1.
         -5    1    3    3    0  502  0.10744770654E+02 -0.12632002389E+02 -0.12524631745E+02  0.21198027765E+02  0.41800000000E+01 0.  1.
        -11    1    4    4    0    0  0.33870262830E+02 -0.12848595775E+02 -0.76583320695E+01  0.37026087663E+02  0.00000000000E+00 0.  1.
         11    1    4    4    0    0 -0.31057938943E+02 -0.96758260819E+01  0.70296378439E+02  0.77458363031E+02  0.00000000000E+00 0. -1.
</event>
<event>
 8    1  0.7052796E-009  0.9680362E+02  0.7561462E-02  0.1287165E+00
         -1   -1    0    0    0  501 -0.00000000000E+00  0.00000000000E+00  0.32494310727E+02  0.32494310727E+02  0.00000000000E+00 0.  1.
          1   -1    0    0  501    0  0.00000000000E+00 -0.00000000000E+00 -0.44762305550E+03  0.44762305550E+03  0.00000000000E+00 0. -1.
         25    2    1    2    0    0 -0.43720842107E+02  0.16297730184E+02 -0.19662560010E+03  0.23766748994E+03  0.12508829327E+03 0.  0.
         23    2    1    2    0    0  0.43720842107E+02 -0.16297730184E+02 -0.21850314467E+03  0.24244987629E+03  0.94133895263E+02 0.  0.
          5    1    3    3  502    0 -0.50329478912E+02  0.50761048313E+02 -0.18816603654E+03  0.20132975483E+03  0.41800000000E+01 0.  1.
         -5    1    3    3    0  502  0.66086368054E+01 -0.34463318129E+02 -0.84595635612E+01  0.36337735105E+02  0.41800000000E+01 0.  1.
        -11    1    4    4    0    0 -0.13714170251E+02 -0.25056758173E+02 -0.14968622898E+03  0.15238729193E+03  0.00000000000E+00 0. -1.
         11    1    4    4    0    0  0.57435012358E+02  0.87590279893E+01 -0.68816915691E+02  0.90062584357E+02  0.00000000000E+00 0.  1.
</event>
<event>
 8    1  0.7052796E-009  0.1536539E+03  0.7561462E-02  0.1196054E+00
          2   -1    0    0  501    0  0.00000000000E+00  0.00000000000E+00  0.68745805884E+03  0.68745805884E+03  0.00000000000E+00 0.  1.
         -2   -1    0    0    0  501 -0.00000000000E+00 -0.00000000000E+00 -0.52663843237E+02  0.52663843237E+02  0.00000000000E+00 0. -1.
         25    2    1    2    0    0  0.11139878849E+03  0.84575109567E+02  0.19912416816E+03  0.27360253712E+03  0.12508107266E+03 0.  0.
         23    2    1    2    0    0 -0.11139878849E+03 -0.84575109567E+02  0.43567004744E+03  0.46651936495E+03  0.90935627807E+02 0.  0.
          5    1    3    3  502    0  0.98297358140E+00 -0.15329392480E+02 -0.85167939258E+01  0.18054492229E+02  0.41800000000E+01 0.  1.
         -5    1    3    3    0  502  0.11041581491E+03  0.99904502047E+02  0.20764096209E+03  0.25554804489E+03  0.41800000000E+01 0.  1.
        -11    1    4    4    0    0 -0.51310364331E+02 -0.22486280586E+02  0.30340107647E+03  0.30852973845E+03  0.00000000000E+00 0.  1.
         11    1    4    4    0    0 -0.60088424163E+02 -0.62088828981E+02  0.13226897096E+03  0.15798962650E+03  0.00000000000E+00 0. -1.
</event>
<event>
 8    1  0.7052796E-009  0.6422530E+02  0.7561462E-02  0.1380910E+00
         -2   -1    0    0    0  501 -0.00000000000E+00  0.00000000000E+00  0.28726944566E+02  0.28726944566E+02  0.00000000000E+00 0.  1.
          2   -1    0    0  501    0  0.00000000000E+00 -0.00000000000E+00 -0.50936417115E+03  0.50936417115E+03  0.00000000000E+00 0. -1.
         25    2    1    2    0    0 -0.27126323879E+02  0.23377105440E+02 -0.18412398815E+03  0.22545731018E+03  0.12508808574E+03 0.  0.
         23    2    1    2    0    0  0.27126323879E+02 -0.23377105440E+02 -0.29651323843E+03  0.31263380554E+03  0.92398426901E+02 0.  0.
          5    1    3    3  502    0 -0.37144657798E+02  0.16122782850E+02 -0.20045618674E+03  0.20454785487E+03  0.41800000000E+01 0. -1.
         -5    1    3    3    0  502  0.10018333918E+02  0.72543225902E+01  0.16332198586E+02  0.20909455311E+02  0.41800000000E+01 0. -1.
        -11    1    4    4    0    0  0.14165547061E+02  0.22735248331E+02 -0.24072559749E+02  0.36014474494E+02  0.00000000000E+00 0.  1.
         11    1    4    4    0    0  0.12960776819E+02 -0.46112353771E+02 -0.27244067868E+03  0.27661933105E+03  0.00000000000E+00 0. -1.
</event>
<event>
 8    1  0.7052796E-009  0.8901833E+02  0.7561462E-02  0.1305247E+00
          3   -1    0    0  501    0  0.00000000000E+00  0.00000000000E+00  0.22978330182E+03  0.22978330182E+03  0.00000000000E+00 0. -1.
         -3   -1    0    0    0  501 -0.00000000000E+00 -0.00000000000E+00 -0.77093581230E+02  0.77093581230E+02  0.00000000000E+00 0.  1.
         25    2    1    2    0    0 -0.70790961409E+02  0.27447373057E+02  0.73505683268E+02  0.16374994458E+03  0.12508493263E+03 0.  0.
         23    2    1    2    0    0  0.70790961409E+02 -0.27447373057E+02  0.79184037323E+02  0.14312693847E+03  0.91926548099E+02 0.  0.
          5    1    3    3  502    0 -0.76331070067E+02  0.47388148418E+01 -0.97168887561E+01  0.77206081048E+02  0.41800000000E+01 0.  1.
         -5    1    3    3    0  502  0.55401086582E+01  0.22708558215E+02  0.83222572024E+02  0.86543863529E+02  0.41800000000E+01 0.  1.
        -11    1    4    4    0    0  0.35390782988E+02 -0.22543439222E+02 -0.13267391414E+02  0.44008383830E+02  0.00000000000E+00 0.  1.
         11    1    4    4    0    0  0.35400178421E+02 -0.49039338356E+01  0.92451428736E+02  0.99118554644E+02  0.00000000000E+00 0. -1.
</event>
<event>
 8    1  0.7052796E-009  0.1902522E+03  0.7561462E-02  0.1158234E+00
          2   -1    0    0  501    0  0.00000000000E+00  0.00000000000E+00  0.48256726691E+03  0.48256726691E+03  0.00000000000E+00 0.  1.
         -2   -1    0    0    0  501 -0.00000000000E+00 -0.00000000000E+00 -0.95337833311E+02  0.95337833311E+02  0.00000000000E+00 0. -1.
         25    2    1    2    0    0  0.11278710589E+03 -0.12694143868E+03  0.29875004763E+03  0.36569770667E+03  0.12509261207E+03 0.  0.
         23    2    1    2    0    0 -0.11278710589E+03  0.12694143868E+03  0.88479385969E+02  0.21220739356E+03  0.91478500370E+02 0.  0.
          5    1    3    3  502    0  0.74864114278E+02 -0.31331473611E+01  0.15481189050E+03  0.17204257049E+03  0.41800000000E+01 0.  1.
         -5    1    3    3    0  502  0.37922991614E+02 -0.12380829131E+03  0.14393815713E+03  0.19365513618E+03  0.41800000000E+01 0.  1.
        -11    1    4    4    0    0 -0.34683084738E+02  0.11530978449E+02  0.59564456083E+02  0.69884220389E+02  0.00000000000E+00 0.  1.
         11    1    4    4    0    0 -0.78104021154E+02  0.11541046023E+03  0.28914929886E+02  0.14232317317E+03  0.00000000000E+00 0. -1.
</event>
<event>
 8    1  0.7052796E-009  0.1006293E+03  0.7561462E-02  0.1278978E+00
         -1   -1    0    0    0  501 -0.00000000000E+00  0.00000000000E+00  0.20606804467E+02  0.20606804467E+02  0.00000000000E+00 0.  1.
          1   -1    0    0  501    0  0.00000000000E+00 -0.00000000000E+00 -0.74004456036E+03  0.74004456036E+03  0.00000000000E+00 0. -1.
         25    2    1    2    0    0  0.11514180680E+02 -0.40885417526E+02 -0.50391427346E+03  0.52094178889E+03  0.12508620505E+03 0.  0.
         23    2    1    2    0    0 -0.11514180680E+02  0.40885417526E+02 -0.21552348243E+03  0.23970957593E+03  0.95948504896E+02 0.  0.
          5    1    3    3  502    0 -0.42316460419E+02  0.10108459970E+01 -0.71772053001E+02  0.83429039453E+02  0.41800000000E+01 0. -1.
         -5    1    3    3    0  502  0.53830641099E+02 -0.41896263523E+02 -0.43214222046E+03  0.43751274944E+03  0.41800000000E+01 0. -1.
        -11    1    4    4    0    0  0.20241842483E+02 -0.15618503302E+02 -0.16576740001E+02  0.30470611112E+02  0.00000000000E+00 0.  1.
         11    1    4    4    0    0 -0.31756023163E+02  0.56503920828E+02 -0.19894674243E+03  0.20923896482E+03  0.00000000000E+00 0. -1.
</event>
<event>
 8    1  0.7052796E-009  0.1637656E+03  0.7561462E-02  0.1184510E+00
         -2   -1    0    0    0  501 -0.00000000000E+00  0.00000000000E+00  0.34894076529E+02  0.34894076529E+02  0.00000000000E+00 0.  1.
          2   -1    0    0  501    0  0.00000000000E+00 -0.00000000000E+00 -0.90142436603E+03  0.90142436603E+03  0.00000000000E+00 0. -1.
         25    2    1    2    0    0  0.12459399281E+03  0.51603897731E+02 -0.57692021485E+03  0.60553388154E+03  0.12509085530E+03 0.  0.
         23    2    1    2    0    0 -0.12459399281E+03 -0.51603897731E+02 -0.28961007465E+03  0.33078456102E+03  0.85777649581E+02 0.  0.
          5    1    3    3  502    0  0.11683992531E+03 -0.13893669919E+02 -0.35906438809E+03  0.37787472713E+03  0.41800000000E+01 0. -1.
         -5    1    3    3    0  502  0.77540675021E+01  0.65497567650E+02 -0.21785582676E+03  0.22765915440E+03  0.41800000000E+01 0. -1.
        -11    1    4    4    0    0 -0.58345479693E+02 -0.50941540974E+02 -0.81724418624E+02  0.11259714116E+03  0.00000000000E+00 0.  1.
         11    1    4    4    0    0 -0.66248513115E+02 -0.66235675704E+00 -0.20788565602E+03  0.21818741986E+03  0.00000000000E+00 0. -1.
</event>
<event>
 8    1  0.7052796E-009  0.1967927E+03  0.7561462E-02  0.1152474E+00
         -2   -1    0    0    0  501 -0.00000000000E+00  0.00000000000E+00  0.11520946925E+03  0.11520946925E+03  0.00000000000E+00 0.  1.
          2   -1    0    0  501    0  0.00000000000E+00 -0.00000000000E+00 -0.35261811402E+03  0.35261811402E+03  0.00000000000E+00 0. -1.
         25    2    1    2    0    0 -0.12889919637E+03 -0.10747009881E+03 -0.95985119172E+02  0.23027399984E+03  0.12509255349E+03 0.  0.
         23    2    1    2    0    0  0.12889919637E+03  0.10747009881E+03 -0.14142352559E+03  0.23755358343E+03  0.90919010358E+02 0.  0.
          5    1    3    3  502    0 -0.23477721526E+02 -0.97597404663E+02 -0.27716739327E+02  0.10422162369E+03  0.41800000000E+01 0.  1.
         -5    1    3    3    0  502 -0.10542147485E+03 -0.98726941500E+01 -0.68268379846E+02  0.12605237616E+03  0.41800000000E+01 0.  1.
        -11    1    4    4    0    0  0.74095965418E+02  0.10961197863E+03 -0.77528668220E+02  0.15334827142E+03  0.00000000000E+00 0.  1.
         11    1    4    4    0    0  0.54803230954E+02 -0.21418798200E+01 -0.63894857369E+02  0.84205312007E+02  0.00000000000E+00 0. -1.
</event>
<event>
 8    1  0.7052796E-009  0.1232563E+03  0.7561462E-02  0.1237820E+00
          2   -1    0    0  501    0  0.00000000000E+00  0.00000000000E+00  0.11663370396E+03  0.11663370396E+03  0.00000000000E+00 0. -1.
         -2   -1    0    0    0  501 -0.00000000000E+00 -0.00000000000E+00 -0.20441171111E+03  0.20441171111E+03  0.00000000000E+00 0.  1.
         25    2    1    2    0    0  0.92639988668E+02 -0.51957229486E+02 -0.73699115698E+02  0.17989224561E+03  0.12509172307E+03 0.  0.
         23    2    1    2    0    0 -0.92639988668E+02  0.51957229486E+02 -0.14078891456E+02  0.14115316946E+03  0.91892768312E+02 0.  0.
          5    1    3    3  502    0  0.79285171805E+01  0.10309177389E+02 -0.73414754342E+02  0.74674889208E+02  0.41800000000E+01 0.  1.
         -5    1    3    3    0  502  0.84711471487E+02 -0.62266406875E+02 -0.28436135511E+00  0.10521735640E+03  0.41800000000E+01 0.  1.
        -11    1    4    4    0    0 -0.48980316942E+02  0.65622792229E+02 -0.37146407389E+02  0.89918173300E+02  0.00000000000E+00 0.  1.
         11    1    4    4    0    0 -0.43659671726E+02 -0.13665562743E+02  0.23067515933E+02  0.51234996161E+02  0.00000000000E+00 0. -1.
</event>
<event>
 8    1  0.7052796E-009  0.9937054E+02  0.7561462E-02  0.1281625E+00
         -3   -1    0    0    0  501 -0.00000000000E+00  0.00000000000E+00  0.25398109884E+02  0.25398109884E+02  0.00000000000E+00 0.  1.
          3   -1    0    0  501    0  0.00000000000E+00 -0.00000000000E+00 -0.48398668196E+03  0.48398668196E+03  0.00000000000E+00 0. -1.
         25    2    1    2    0    0  0.15906144612E+02 -0.18186834235E+02 -0.25324703736E+03  0.28348899645E+03  0.12509269684E+03 0.  0.
         23    2    1    2    0    0 -0.15906144612E+02  0.18186834235E+02 -0.20534153472E+03  0.22589579540E+03  0.90994494998E+02 0.  0.
          5    1    3    3  502    0  0.32092052701E+02  0.37686640676E+02 -0.44313073772E+02  0.66568037669E+02  0.41800000000E+01 0.  1.
         -5    1    3    3    0  502 -0.16185908089E+02 -0.55873474910E+02 -0.20893396359E+03  0.21692095878E+03  0.41800000000E+01 0.  1.
        -11    1    4    4    0    0 -0.32117915386E+02  0.47445964146E+02 -0.98624055129E+02  0.11405868776E+03  0.00000000000E+00 0. -1.
         11    1    4    4    0    0  0.16211770774E+02 -0.29259129911E+02 -0.10671747959E+03  0.11183710764E+03  0.00000000000E+00 0.  1.
</event>
<event>
 8    1  0.7052796E-009  0.1156904E+03  0.7561462E-02  0.1250381E+00
         -2   -1    0    0    0  501 -0.00000000000E+00  0.00000000000E+00  0.28990903826E+03  0.28990903826E+03  0.00000000000E+00 0.  1.
          2   -1    0    0  501    0  0.00000000000E+00 -0.00000000000E+00 -0.76658208851E+02  0.76658208851E+02  0.00000000000E+00 0. -1.
         25    2    1    2    0    0 -0.55878206018E+02  0.58609477769E+02  0.18914537886E+03  0.24079322697E+03  0.12509180235E+03 0.  0.
         23    2    1    2    0    0  0.55878206018E+02 -0.58609477769E+02  0.24105450546E+02  0.12577402014E+03  0.93169665690E+02 0.  0.
          5    1    3    3  502    0  0.35334215095E+02 -0.27630469021E+01  0.26575794095E+02  0.44495914603E+02  0.41800000000E+01 0.  1.
         -5    1    3    3    0  502 -0.91212421114E+02  0.61372524671E+02  0.16256958477E+03  0.19629731237E+03  0.41800000000E+01 0.  1.
        -11    1    4    4    0    0  0.40392428866E+02 -0.57339399011E+02 -0.24851389705E+02  0.74410661594E+02  0.00000000000E+00 0. -1.
         11    1    4    4    0    0  0.15485777152E+02 -0.12700787585E+01  0.48956840251E+02  0.51363358549E+02  0.00000000000E+00 0.  1.
</event>
<event>
 8    1  0.7052796E-009  0.1490239E+03  0.7561462E-02  0.1201678E+00
         -2   -1    0    0    0  501 -0.00000000000E+00  0.00000000000E+00  0.13685316416E+03  0.13685316416E+03  0.00000000000E+00 0. -1.
          2   -1    0    0  501    0  0.00000000000E+00 -0.00000000000E+00 -0.19728534726E+03  0.19728534726E+03  0.00000000000E+00 0.  1.
         25    2    1    2    0    0 -0.58097847618E+02 -0.10726179001E+03 -0.50764232779E+02  0.18194579046E+03  0.12508721694E+03 0.  0.
         23    2    1    2    0    0  0.58097847618E+02  0.10726179001E+03 -0.96679503261E+01  0.15219272096E+03  0.90491455707E+02 0.  0.
          5    1    3    3  502    0 -0.86153510279E+02 -0.28250228477E+02 -0.25484491839E+02  0.94273190604E+02  0.41800000000E+01 0.  1.
         -5    1    3    3    0  502  0.28055662661E+02 -0.79011561535E+02 -0.25279740941E+02  0.87672599856E+02  0.41800000000E+01 0.  1.
        -11    1    4    4    0    0  0.38747378244E+02  0.52463263005E+02 -0.49379979339E+02  0.81805474423E+02  0.00000000000E+00 0. -1.
         11    1    4    4    0    0  0.19350469374E+02  0.54798527006E+02  0.39712029013E+02  0.70387246539E+02  0.00000000000E+00 0.  1.
</event>
<event>
 8    1  0.7052796E-009  0.8878838E+02  0.7561462E-02  0.1305813E+00
         -1   -1    0    0    0  501 -0.00000000000E+00  0.00000000000E+00  0.45699720452E+03  0.45699720452E+03  0.00000000000E+00 0.  1.
          1   -1    0    0  501    0  0.00000000000E+00 -0.00000000000E+00 -0.32158022545E+02  0.32158022545E+02  0.00000000000E+00 0. -1.
         25    2    1    2    0    0 -0.18338842953E+02  0.19079888456E+02  0.33275667102E+03  0.35647807803E+03  0.12509701319E+03 0.  0.
         23    2    1    2    0    0  0.18338842953E+02 -0.19079888456E+02  0.92082510959E+02  0.13267714903E+03  0.91780617488E+02 0.  0.
          5    1    3    3  502    0 -0.18759231374E+02 -0.30088306100E+02  0.28690156815E+03  0.28911450523E+03  0.41800000000E+01 0. -1.
         -5    1    3    3    0  502  0.42038842106E+00  0.49168194555E+02  0.45855102865E+02  0.67363572805E+02  0.41800000000E+01 0. -1.
        -11    1    4    4    0    0  0.54285660808E+02 -0.77467824637E+01  0.70255306392E+02  0.89122127915E+02  0.00000000000E+00 0.  1.
         11    1    4    4    0    0 -0.35946817855E+02 -0.11333105992E+02  0.21827204567E+02  0.43555021117E+02  0.00000000000E+00 0. -1.
</event>
<event>
 8    1  0.7052796E-009  0.9825943E+02  0.7561462E-02  0.1283999E+00
          2   -1    0    0  501    0  0.00000000000E+00  0.00000000000E+00  0.15636887604E+03  0.15636887604E+03  0.00000000000E+00 0. -1.
         -2   -1    0    0    0  501 -0.00000000000E+00 -0.00000000000E+00 -0.10556654463E+03  0.10556654463E+03  0.00000000000E+00 0.  1.
         25    2    1    2    0    0 -0.58692305763E+02 -0.11974756672E+02  0.56536617115E+02  0.14977311485E+03  0.12508962908E+03 0.  0.
         23    2    1    2    0    0  0.58692305763E+02  0.11974756672E+02 -0.57342857010E+01  0.11216230582E+03  0.94653680648E+02 0.  0.
          5    1    3    3  502    0 -0.93675688214E+01  0.30778190963E+02 -0.28022350243E+02  0.42869253524E+02  0.41800000000E+01 0. -1.
         -5    1    3    3    0  502 -0.49324736942E+02 -0.42752947635E+02  0.84558967358E+02  0.10690386133E+03  0.41800000000E+01 0. -1.
        -11    1    4    4    0    0  0.77677750985E+02  0.15882321403E+02  0.18216567647E+02  0.81350626722E+02  0.00000000000E+00 0. -1.
         11    1    4    4    0    0 -0.18985445222E+02 -0.39075647311E+01 -0.23950853348E+02  0.30811679093E+02  0.00000000000E+00 0.  1.
</event>
<event>
 8    1  0.7052796E-009  0.6736287E+02  0.7561462E-02  0.1369297E+00
          1   -1    0    0  501    0  0.00000000000E+00  0.00000000000E+00  0.39033613398E+03  0.39033613398E+03  0.00000000000E+00 0. -1.
         -1   -1    0    0    0  501 -0.00000000000E+00 -0.00000000000E+00 -0.31640002109E+02  0.31640002109E+02  0.00000000000E+00 0.  1.
         25    2    1    2    0    0 -0.21343042707E+02 -0.12178530072E+02  0.19065830823E+03  0.22935264721E+03  0.12509278244E+03 0.  0.
         23    2    1    2    0    0  0.21343042707E+02  0.12178530072E+02  0.16803782364E+03  0.19262348888E+03  0.90902454465E+02 0.  0.
          5    1    3    3  502    0 -0.33365557970E+02  0.67815525167E+01 -0.29242272045E+01  0.34427800074E+02  0.41800000000E+01 0. -1.
         -5    1    3    3    0  502  0.12022515263E+02 -0.18960082589E+02  0.19358253544E+03  0.19492484714E+03  0.41800000000E+01 0. -1.
        -11    1    4    4    0    0  0.36892967285E+02 -0.19914183868E+02  0.34165646651E+02  0.54082873123E+02  0.00000000000E+00 0.  1.
         11    1    4    4    0    0 -0.15549924578E+02  0.32092713941E+02  0.13387217698E+03  0.13854061575E+03  0.00000000000E+00 0. -1.
</event>
<event>
 8    1  0.7052796E-009  0.1717916E+03  0.7561462E-02  0.1175992E+00
          1   -1    0    0  501    0  0.00000000000E+00  0.00000000000E+00  0.13295713627E+04  0.13295713627E+04  0.00000000000E+00 0.  1.
         -1   -1    0    0    0  501 -0.00000000000E+00 -0.00000000000E+00 -0.25096106744E+02  0.25096106744E+02  0.00000000000E+00 0. -1.
         25    2    1    2    0    0  0.14236125731E+03  0.18698520292E+02  0.57822763523E+03  0.60877907419E+03  0.12509356810E+03 0.  0.
         23    2    1    2    0    0 -0.14236125731E+03 -0.18698520292E+02  0.72624762072E+03  0.74588839525E+03  0.91090775196E+02 0.  0.
          5    1    3    3  502    0  0.66462280336E+02 -0.40154834337E+02  0.38712878120E+03  0.39486176196E+03  0.41800000000E+01 0. -1.
         -5    1    3    3    0  502  0.75898976976E+02  0.58853354629E+02  0.19109885404E+03  0.21391731223E+03  0.41800000000E+01 0. -1.
        -11    1    4    4    0    0 -0.55795453676E+02  0.36816857612E+02  0.26287201992E+03  0.27123847904E+03  0.00000000000E+00 0. -1.
         11    1    4    4    0    0 -0.86565803636E+02 -0.55515377905E+02  0.46337560080E+03  0.47464991621E+03  0.00000000000E+00 0.  1.
</event>
<event>
 8    1  0.7052796E-009  0.2003363E+03  0.7561462E-02  0.1149456E+00
         -2   -1    0    0    0  501 -0.00000000000E+00  0.00000000000E+00  0.22337988675E+02  0.22337988675E+02  0.00000000000E+00 0.  1.
          2   -1    0    0  501    0  0.00000000000E+00 -0.00000000000E+00 -0.21289909178E+04  0.21289909178E+04  0.00000000000E+00 0. -1.
         25    2    1    2    0    0 -0.62292047595E+02 -0.15414435301E+03 -0.15013469182E+04  0.15156948941E+04  0.12509061640E+03 0.  0.
         23    2    1    2    0    0  0.62292047595E+02  0.15414435301E+03 -0.60530601086E+03  0.63563401236E+03  0.99972246765E+02 0.  0.
          5    1    3    3  502    0 -0.64572617656E+02 -0.13466026486E+02 -0.40680039582E+03  0.41213467612E+03  0.41800000000E+01 0.  1.
         -5    1    3    3    0  502  0.22805700610E+01 -0.14067832652E+03 -0.10945465224E+04  0.11035602180E+04  0.41800000000E+01 0.  1.
        -11    1    4    4    0    0 -0.26209468931E+02  0.54967874452E+02 -0.20304485980E+03  0.21198023156E+03  0.00000000000E+00 0. -1.
         11    1    4    4    0    0  0.88501516527E+02  0.99176478558E+02 -0.40226115106E+03  0.42365378079E+03  0.00000000000E+00 0.  1.
</event>
<event>
 8    1  0.7052796E-009  0.9350181E+02  0.7561462E-02  0.1294586E+00
         -1   -1    0    0    0  501 -0.00000000000E+00  0.00000000000E+00  0.14136472851E+02  0.14136472851E+02  0.00000000000E+00 0.  1.
          1   -1    0    0  501    0  0.00000000000E+00 -0.00000000000E+00 -0.97131781400E+03  0.97131781400E+03  0.00000000000E+00 0. -1.
         25    2    1    2    0    0  0.12932334442E+02  0.29171776036E+02 -0.66613437617E+03  0.67852849964E+03  0.12509068678E+03 0.  0.
         23    2    1    2    0    0 -0.12932334442E+02 -0.29171776036E+02 -0.29104696498E+03  0.30692578721E+03  0.92069893234E+02 0.  0.
          5    1    3    3  502    0  0.41814978226E+02  0.46618245400E+02 -0.60761960474E+03  0.61085252694E+03  0.41800000000E+01 0.  1.
         -5    1    3    3    0  502 -0.28882643784E+02 -0.17446469364E+02 -0.58514771435E+02  0.67675972703E+02  0.41800000000E+01 0.  1.
        -11    1    4    4    0    0 -0.41797961243E+02  0.86273327889E+01 -0.19660673409E+03  0.20118575577E+03  0.00000000000E+00 0. -1.
         11    1    4    4    0    0  0.28865626801E+02 -0.37799108825E+02 -0.94440230882E+02  0.10574003143E+03  0.00000000000E+00 0.  1.
</event>
<event>
 8    1  0.7052796E-009  0.1050858E+03  0.7561462E-02  0.1269951E+00
          3   -1    0    0  501    0  0.00000000000E+00  0.00000000000E+00  0.36081012165E+03  0.36081012165E+03  0.00000000000E+00 0. -1.
         -3   -1    0    0    0  501 -0.00000000000E+00 -0.00000000000E+00 -0.36178087961E+02  0.36178087961E+02  0.00000000000E+00 0.  1.
         25    2    1    2    0    0  0.32312665964E+02 -0.80542870726E+00  0.16017874869E+03  0.20579481200E+03  0.12509802564E+03 0.  0.
         23    2    1    2    0    0 -0.32312665964E+02  0.80542870726E+00  0.16445328500E+03  0.19119339761E+03  0.92006930411E+02 0.  0.
          5    1    3    3  502    0 -0.17252943142E+02  0.53009367637E+02  0.67461030489E+02  0.87613470077E+02  0.41800000000E+01 0.  1.
         -5    1    3    3    0  502  0.49565609106E+02 -0.53814796345E+02  0.92717718199E+02  0.11818134193E+03  0.41800000000E+01 0.  1.
        -11    1    4    4    0    0  0.12680180586E+02  0.26354169679E+02  0.14657412548E+02  0.32713437328E+02  0.00000000000E+00 0.  1.
         11    1    4    4    0    0 -0.44992846550E+02 -0.25548740972E+02  0.14979587246E+03  0.15847996028E+03  0.00000000000E+00 0. -1.
</event>
<event>
 8    1  0.7052796E-009  0.1050902E+03  0.7561462E-02  0.1269942E+00
          2   -1    0    0  501    0  0.00000000000E+00  0.00000000000E+00  0.27355409716E+03  0.27355409716E+03  0.00000000000E+00 0.  1.
         -2   -1    0    0    0  501 -0.00000000000E+00 -0.00000000000E+00 -0.70368424908E+02  0.70368424908E+02  0.00000000000E+00 0. -1.
         25    2    1    2    0    0  0.62423342888E+02 -0.56802059538E+02  0.92944058076E+02  0.17722537184E+03  0.12508831595E+03 0.  0.
         23    2    1    2    0    0 -0.62423342888E+02  0.56802059538E+02  0.11024161418E+03  0.16669715023E+03  0.92258217488E+02 0.  0.
          5    1    3    3  502    0  0.42659966104E+02 -0.29875260575E+02  0.12202577118E+03  0.13274097006E+03  0.41800000000E+01 0.  1.
         -5    1    3    3    0  502  0.19763376784E+02 -0.26926798963E+02 -0.29081713101E+02  0.44484401774E+02  0.41800000000E+01 0.  1.
        -11    1    4    4    0    0 -0.27264784911E+02  0.78401533741E+02  0.64712038862E+02  0.10525120884E+03  0.00000000000E+00 0. -1.
         11    1    4    4    0    0 -0.35158557977E+02 -0.21599474203E+02  0.45529575318E+02  0.61445941391E+02  0.00000000000E+00 0.  1.
</event>
<event>
 8    1  0.7052796E-009  0.8647912E+02  0.7561462E-02  0.1311609E+00
          2   -1    0    0  501    0  0.00000000000E+00  0.00000000000E+00  0.15886440982E+03  0.15886440982E+03  0.00000000000E+00 0. -1.
         -2   -1    0    0    0  501 -0.00000000000E+00 -0.00000000000E+00 -0.15243215590E+03  0.15243215590E+03  0.00000000000E+00 0.  1.
         25    2    1    2    0    0  0.59450514081E+02 -0.16079446274E+01 -0.91384836712E+02  0.16593913589E+03  0.12509060447E+03 0.  0.
         23    2    1    2    0    0 -0.59450514081E+02  0.16079446274E+01  0.97817090632E+02  0.14535742984E+03  0.89574829494E+02 0.  0.
          5    1    3    3  502    0  0.70222406914E+01 -0.12995466149E+02 -0.10841414493E+03  0.10949563108E+03  0.41800000000E+01 0. -1.
         -5    1    3    3    0  502  0.52428273390E+02  0.11387521521E+02  0.17029308214E+02  0.56443504810E+02  0.41800000000E+01 0. -1.
        -11    1    4    4    0    0 -0.49967872243E+02 -0.38184019156E+02  0.77129027409E+02  0.99517307261E+02  0.00000000000E+00 0.  1.
         11    1    4    4    0    0 -0.94826418385E+01  0.39791963783E+02  0.20688063223E+02  0.45840122577E+02  0.00000000000E+00 0. -1.
</event>
<event>
 8    1  0.7052796E-009  0.1114798E+03  0.7561462E-02  0.1257854E+00
          1   -1    0    0  501    0  0.00000000000E+00  0.00000000000E+00  0.72767228940E+02  0.72767228940E+02  0.00000000000E+00 0. -1.
         -1   -1    0    0    0  501 -0.00000000000E+00 -0.00000000000E+00 -0.25257581014E+03  0.25257581014E+03  0.00000000000E+00 0.  1.
         25    2    1    2    0    0 -0.72030436805E+02  0.73908936841E+01 -0.14171485850E+03  0.20242471549E+03  0.12509858187E+03 0.  0.
         23    2    1    2    0    0  0.72030436805E+02 -0.73908936841E+01 -0.38093722706E+02  0.12291832359E+03  0.91732074160E+02 0.  0.
          5    1    3    3  502    0 -0.99265656821E+02 -0.20562077914E+02 -0.79643572480E+02  0.12898465300E+03  0.41800000000E+01 0.  1.
         -5    1    3    3    0  502  0.27235220016E+02  0.27952971598E+02 -0.62071286015E+02  0.73440062487E+02  0.41800000000E+01 0.  1.
        -11    1    4    4    0    0  0.36821973238E+02  0.15822838350E+02 -0.62460336826E+02  0.74212624283E+02  0.00000000000E+00 0.  1.
         11    1    4    4    0    0  0.35208463568E+02 -0.23213732034E+02  0.24366614119E+02  0.48705699311E+02  0.00000000000E+00 0. -1.
</event>
<event>
 8    1  0.7052796E-009  0.1416990E+03  0.7561462E-02  0.1211061E+00
          1   -1    0    0  501    0  0.00000000000E+00  0.00000000000E+00  0.24791539450E+03  0.24791539450E+03  0.00000000000E+00 0. -1.
         -1   -1    0    0    0  501 -0.00000000000E+00 -0.00000000000E+00 -0.16229694774E+03  0.16229694774E+03  0.00000000000E+00 0.  1.
         25    2    1    2    0    0  0.50568987502E+02 -0.11004163036E+03  0.16400487061E+03  0.23919176492E+03  0.12509484367E+03 0.  0.
         23    2    1    2    0    0 -0.50568987502E+02  0.11004163036E+03 -0.78386423851E+02  0.17102057733E+03  0.91854360368E+02 0.  0.
          5    1    3    3  502    0  0.71366744744E+02 -0.10438179558E+03  0.74044071415E+02  0.14659047860E+03  0.41800000000E+01 0.  1.
         -5    1    3    3    0  502 -0.20797757242E+02 -0.56598347755E+01  0.89960799196E+02  0.92601286320E+02  0.41800000000E+01 0.  1.
        -11    1    4    4    0    0  0.92554185587E+00  0.69188607886E+02 -0.79349496949E+02  0.10528182538E+03  0.00000000000E+00 0.  1.
         11    1    4    4    0    0 -0.51494529358E+02  0.40853022470E+02  0.96307309755E+00  0.65738751954E+02  0.00000000000E+00 0. -1.
</event>
<event>
 8    1  0.7052796E-009  0.1423244E+03  0.7561462E-02  0.1210235E+00
         -1   -1    0    0    0  501 -0.00000000000E+00  0.00000000000E+00  0.26156361238E+03  0.26156361238E+03  0.00000000000E+00 0.  1.
          1   -1    0    0  501    0  0.00000000000E+00 -0.00000000000E+00 -0.11771352029E+03  0.11771352029E+03  0.00000000000E+00 0. -1.
         25    2    1    2    0    0 -0.77841616178E+02 -0.10370776303E+03  0.27522960308E+02  0.18225715102E+03  0.12508212675E+03 0.  0.
         23    2    1    2    0    0  0.77841616178E+02  0.10370776303E+03  0.11632713178E+03  0.19701998164E+03  0.92033984248E+02 0.  0.
          5    1    3    3  502    0  0.48328353822E+01 -0.52939149795E+02  0.59615227635E+02  0.79983483575E+02  0.41800000000E+01 0. -1.
         -5    1    3    3    0  502 -0.82674451560E+02 -0.50768613236E+02 -0.32092267327E+02  0.10227366745E+03  0.41800000000E+01 0. -1.
        -11    1    4    4    0    0  0.33436932018E+02  0.18700793796E+02 -0.88561491373E+01  0.39321488895E+02  0.00000000000E+00 0. -1.
         11    1    4    4    0    0  0.44404684160E+02  0.85006969235E+02  0.12518328092E+03  0.15769849275E+03  0.00000000000E+00 0.  1.
</event>
<event>
 8    1  0.7052796E-009  0.9156313E+02  0.7561462E-02  0.1299110E+00
         -2   -1    0    0    0  501 -0.00000000000E+00  0.00000000000E+00  0.17050664005E+02  0.17050664005E+02  0.00000000000E+00 0.  1.
          2   -1    0    0  501    0  0.00000000000E+00 -0.00000000000E+00 -0.12966167738E+04  0.12966167738E+04  0.00000000000E+00 0. -1.
         25    2    1    2    0    0  0.16060885557E+02  0.63097843874E+02 -0.10335176501E+04  0.10430940568E+04  0.12508872152E+03 0.  0.
         23    2    1    2    0    0 -0.16060885557E+02 -0.63097843874E+02 -0.24604845971E+03  0.27057338105E+03  0.91819497178E+02 0.  0.
          5    1    3    3  502    0 -0.10934457554E+02 -0.17941031927E+02 -0.64146354837E+03  0.64182115833E+03  0.41800000000E+01 0. -1.
         -5    1    3    3    0  502  0.26995343111E+02  0.81038875801E+02 -0.39205410174E+03  0.40127289845E+03  0.41800000000E+01 0. -1.
        -11    1    4    4    0    0  0.12366196405E+02 -0.30623183426E+02 -0.16342517905E+02  0.36848067360E+02  0.00000000000E+00 0. -1.
         11    1    4    4    0    0 -0.28427081962E+02 -0.32474660448E+02 -0.22970594181E+03  0.23372531369E+03  0.00000000000E+00 0.  1.
</event>
<event>
 8    1  0.7052796E-009  0.1217345E+03  0.7561462E-02  0.1240263E+00
          1   -1    0    0  501    0  0.00000000000E+00  0.00000000000E+00  0.15376483705E+03  0.15376483705E+03  0.00000000000E+00 0. -1.
         -1   -1    0    0    0  501 -0.00000000000E+00 -0.00000000000E+00 -0.13260833412E+03  0.13260833412E+03  0.00000000000E+00 0.  1.
         25    2    1    2    0    0  0.46957213011E+02  0.69271731104E+02  0.48358312524E+02  0.15807905664E+03  0.12508760600E+03 0.  0.
         23    2    1    2    0    0 -0.46957213011E+02 -0.69271731104E+02 -0.27201809594E+02  0.12829411454E+03  0.93358924562E+02 0.  0.
          5    1    3    3  502    0  0.77236769292E+02  0.50518907769E+02  0.70252724574E+02  0.11606289796E+03  0.41800000000E+01 0.  1.
         -5    1    3    3    0  502 -0.30279556281E+02  0.18752823335E+02 -0.21894412050E+02  0.42016158684E+02  0.41800000000E+01 0.  1.
        -11    1    4    4    0    0  0.17727746389E+02 -0.40923664131E+02 -0.35744933580E+02  0.57155223336E+02  0.00000000000E+00 0.  1.
         11    1    4    4    0    0 -0.64684959400E+02 -0.28348066973E+02  0.85431239857E+01  0.71138891200E+02  0.00000000000E+00 0. -1.
</event>
<event>
 8    1  0.7052796E-009  0.1471700E+03  0.7561462E-02  0.1203994E+00
          1   -1    0    0  501    0  0.00000000000E+00  0.00000000000E+00  0.14288070025E+03  0.14288070025E+03  0.00000000000E+00 0. -1.
         -1   -1    0    0    0  501 -0.00000000000E+00 -0.00000000000E+00 -0.33155573077E+03  0.33155573077E+03  0.00000000000E+00 0.  1.
         25    2    1    2    0    0 -0.98057494093E+02  0.98840588638E+02 -0.23357654857E+03  0.29931666681E+03  0.12509088248E+03 0.  0.
         23    2    1    2    0    0  0.98057494093E+02 -0.98840588638E+02  0.44901518051E+02  0.17511976421E+03  0.96260331313E+02 0.  0.
          5    1    3    3  502    0 -0.66237880981E+02  0.60583347385E+02 -0.23261769404E+03  0.24937173625E+03  0.41800000000E+01 0. -1.
         -5    1    3    3    0  502 -0.31819613112E+02  0.38257241252E+02 -0.95885452373E+00  0.49944930562E+02  0.41800000000E+01 0. -1.
        -11    1    4    4    0    0  0.65058800961E+02 -0.18422882613E+02 -0.15372375748E+02  0.69342340041E+02  0.00000000000E+00 0.  1.
         11    1    4    4    0    0  0.32998693133E+02 -0.80417706025E+02  0.60273893799E+02  0.10577742417E+03  0.00000000000E+00 0. -1.
</event>
<event>
 8    1  0.7052796E-009  0.1136558E+03  0.7561462E-02  0.1253946E+00
          2   -1    0    0  501    0  0.00000000000E+00  0.00000000000E+00  0.12562264935E+04  0.12562264935E+04  0.00000000000E+00 0.  1.
         -2   -1    0    0    0  501 -0.00000000000E+00 -0.00000000000E+00 -0.19318685719E+02  0.19318685719E+02  0.00000000000E+00 0. -1.
         25    2    1    2    0    0  0.58445469861E+02 -0.66545558268E+02  0.93179902641E+03  0.94432232594E+03  0.12510413809E+03 0.  0.
         23    2    1    2    0    0 -0.58445469861E+02  0.66545558268E+02  0.30510878135E+03  0.33122285327E+03  0.93664431858E+02 0.  0.
          5    1    3    3  502    0  0.33990616533E+02  0.96095925341E+01  0.66025276615E+03  0.66121017376E+03  0.41800000000E+01 0. -1.
         -5    1    3    3    0  502  0.24454853328E+02 -0.76155150802E+02  0.27154626027E+03  0.28311215218E+03  0.41800000000E+01 0. -1.
        -11    1    4    4    0    0  0.65031992753E+01  0.41549274498E+02  0.20520040020E+03  0.20946560112E+03  0.00000000000E+00 0.  1.
         11    1    4    4    0    0 -0.64948669137E+02  0.24996283770E+02  0.99908381156E+02  0.12175725215E+03  0.00000000000E+00 0. -1.
</event>
<event>
 8    1  0.7052796E-009  0.2509689E+03  0.7561462E-02  0.1112694E+00
          2   -1    0    0  501    0  0.00000000000E+00  0.00000000000E+00  0.58252032171E+03  0.58252032171E+03  0.00000000000E+00 0. -1.
         -2   -1    0    0    0  501 -0.00000000000E+00 -0.00000000000E+00 -0.11816245684E+03  0.11816245684E+03  0.00000000000E+00 0.  1.
         25    2    1    2    0    0  0.14717910351E+03 -0.18530400897E+03  0.25489686027E+03  0.36962186667E+03  0.12509456701E+03 0.  0.
         23    2    1    2    0    0 -0.14717910351E+03  0.18530400897E+03  0.20946100460E+03  0.33106091188E+03  0.98631387901E+02 0.  0.
          5    1    3    3  502    0  0.11156311078E+03 -0.18591168749E+03  0.16394720856E+03  0.27185592292E+03  0.41800000000E+01 0. -1.
         -5    1    3    3    0  502  0.35615992727E+02  0.60767851492E+00  0.90949651715E+02  0.97765943754E+02  0.41800000000E+01 0. -1.
        -11    1    4    4    0    0 -0.52305277100E+02  0.15244686103E+02  0.81551047603E+02  0.98075561850E+02  0.00000000000E+00 0.  1.
         11    1    4    4    0    0 -0.94873826407E+02  0.17005932287E+03  0.12790995699E+03  0.23298535003E+03  0.00000000000E+00 0. -1.
</event>
<event>
 8    1  0.7052796E-009  0.1086242E+03  0.7561462E-02  0.1263139E+00
         -2   -1    0    0    0  501 -0.00000000000E+00  0.00000000000E+00  0.21905707947E+02  0.21905707947E+02  0.00000000000E+00 0.  1.
          2   -1    0    0  501    0  0.00000000000E+00 -0.00000000000E+00 -0.70443146394E+03  0.70443146394E+03  0.00000000000E+00 0. -1.
         25    2    1    2    0    0  0.37928589463E+02 -0.58515795377E+00 -0.47988916804E+03  0.49737249268E+03  0.12508741966E+03 0.  0.
         23    2    1    2    0    0 -0.37928589463E+02  0.58515795377E+00 -0.20263658795E+03  0.22896467921E+03  0.99620867501E+02 0.  0.
          5    1    3    3  502    0  0.42640709650E+02  0.50558718395E+02 -0.37141179611E+03  0.37727789335E+03  0.41800000000E+01 0.  1.
         -5    1    3    3    0  502 -0.47121201872E+01 -0.51143876349E+02 -0.10847737193E+03  0.12009459932E+03  0.41800000000E+01 0.  1.
        -11    1    4    4    0    0 -0.24628866879E+02  0.45970803822E+02 -0.14680960504E+03  0.15579780493E+03  0.00000000000E+00 0. -1.
         11    1    4    4    0    0 -0.13299722584E+02 -0.45385645868E+02 -0.55826982908E+02  0.73166874283E+02  0.00000000000E+00 0.  1.
</event>
<event>
 8    1  0.7052796E-009  0.1789834E+03  0.7561462E-02  0.1168791E+00
         -2   -1    0    0    0  501 -0.00000000000E+00  0.00000000000E+00  0.57507825941E+02  0.57507825941E+02  0.00000000000E+00 0. -1.
          2   -1    0    0  501    0  0.00000000000E+00 -0.00000000000E+00 -0.56985790046E+03  0.56985790046E+03  0.00000000000E+00 0.  1.
         25    2    1    2    0    0  0.39001798364E+02  0.13828005847E+03 -0.23459729369E+03  0.30220117590E+03  0.12508855129E+03 0.  0.
         23    2    1    2    0    0 -0.39001798364E+02 -0.13828005847E+03 -0.27775278083E+03  0.32516455050E+03  0.89122740061E+02 0.  0.
          5    1    3    3  502    0  0.57174919770E+02  0.80331985332E+01 -0.57661696097E+02  0.81705858579E+02  0.41800000000E+01 0. -1.
         -5    1    3    3    0  502 -0.18173121406E+02  0.13024685994E+03 -0.17693559759E+03  0.22049531732E+03  0.41800000000E+01 0. -1.
        -11    1    4    4    0    0  0.23884158471E+02 -0.77305771415E+02 -0.12010160669E+03  0.14481378128E+03  0.00000000000E+00 0.  1.
         11    1    4    4    0    0 -0.62885956835E+02 -0.60974287058E+02 -0.15765117414E+03  0.18035076922E+03  0.00000000000E+00 0. -1.
</event>
<event>
 8    1  0.7052796E-009  0.8201130E+02  0.7561462E-02  0.1323439E+00
         -1   -1    0    0    0  501 -0.00000000000E+00  0.00000000000E+00  0.13777171511E+03  0.13777171511E+03  0.00000000000E+00 0.  1.
          1   -1    0    0  501    0  0.00000000000E+00 -0.00000000000E+00 -0.95757621164E+02  0.95757621164E+02  0.00000000000E+00 0. -1.
         25    2    1    2    0    0  0.20179733996E+02 -0.32456532785E+02  0.54248283131E+02  0.14159511454E+03  0.12508258093E+03 0.  0.
         23    2    1    2    0    0 -0.20179733996E+02  0.32456532785E+02 -0.12234189181E+02  0.91934221743E+02  0.82713829303E+02 0.  0.
          5    1    3    3  502    0 -0.38410762090E+02  0.66544247298E+01 -0.15700337558E+02  0.42233174309E+02  0.41800000000E+01 0. -1.
         -5    1    3    3    0  502  0.58590496086E+02 -0.39110957515E+02  0.69948620688E+02  0.99361940226E+02  0.41800000000E+01 0. -1.
        -11    1    4    4    0    0 -0.27724174111E+02  0.82999702665E+01  0.30641020032E+02  0.42147259047E+02  0.00000000000E+00 0.  1.
         11    1    4    4    0    0  0.75444401154E+01  0.24156562519E+02 -0.42875209213E+02  0.49786962696E+02  0.00000000000E+00 0. -1.
</event>
<event>
 8    1  0.7052796E-009  0.1964591E+03  0.7561462E-02  0.1152761E+00
         -1   -1    0    0    0  501 -0.00000000000E+00  0.00000000000E+00  0.51305085514E+03  0.51305085514E+03  0.00000000000E+00 0.  1.
          1   -1    0    0  501    0  0.00000000000E+00 -0.00000000000E+00 -0.84594361420E+02  0.84594361420E+02  0.00000000000E+00 0. -1.
         25    2    1    2    0    0 -0.18777486817E+02  0.17597298780E+03  0.20504966807E+03  0.29834933240E+03  0.12509145182E+03 0.  0.
         23    2    1    2    0    0  0.18777486817E+02 -0.17597298780E+03  0.22340682564E+03  0.29929588416E+03  0.91369196570E+02 0.  0.
          5    1    3    3  502    0  0.32935998698E+02  0.15373787714E+03  0.12770894100E+03  0.20260098936E+03  0.41800000000E+01 0. -1.
         -5    1    3    3    0  502 -0.51713485514E+02  0.22235110661E+02  0.77340727074E+02  0.95748343038E+02  0.41800000000E+01 0. -1.
        -11    1    4    4    0    0  0.13604112957E+02 -0.28031440943E+02  0.10562241627E+03  0.11012233374E+03  0.00000000000E+00 0.  1.
         11    1    4    4    0    0  0.51733738597E+01 -0.14794154686E+03  0.11778440938E+03  0.18917355042E+03  0.00000000000E+00 0. -1.
</event>
<event>
 8    1  0.7052796E-009  0.1165828E+03  0.7561462E-02  0.1248843E+00
         -1   -1    0    0    0  501 -0.00000000000E+00  0.00000000000E+00  0.25254431367E+03  0.25254431367E+03  0.00000000000E+00 0.  1.
          1   -1    0    0  501    0  0.00000000000E+00 -0.00000000000E+00 -0.18313684728E+03  0.18313684728E+03  0.00000000000E+00 0. -1.
         25    2    1    2    0    0 -0.50999761572E+02 -0.46344715248E+02 -0.13798740225E+03  0.19857607654E+03  0.12507248572E+03 0.  0.
         23    2    1    2    0    0  0.50999761572E+02  0.46344715248E+02  0.20739486865E+03  0.23710508441E+03  0.91964021220E+02 0.  0.
          5    1    3    3  502    0  0.35117414596E+02 -0.44115512887E+02 -0.53385119199E+02  0.77761524143E+02  0.41800000000E+01 0.  1.
         -5    1    3    3    0  502 -0.86117176168E+02 -0.22292023611E+01 -0.84602283052E+02  0.12081455240E+03  0.41800000000E+01 0.  1.
        -11    1    4    4    0    0  0.28637579314E+02 -0.95397462092E+01  0.11717977805E+02  0.32379448892E+02  0.00000000000E+00 0. -1.
         11    1    4    4    0    0  0.22362182258E+02  0.55884461457E+02  0.19567689084E+03  0.20472563552E+03  0.00000000000E+00 0.  1.
</event>
<event>
 8    1  0.7052796E-009  0.1575868E+03  0.7561462E-02  0.1191448E+00
          1   -1    0    0  501    0  0.00000000000E+00  0.00000000000E+00  0.33512616395E+03  0.33512616395E+03  0.00000000000E+00 0. -1.
         -1   -1    0    0    0  501 -0.00000000000E+00 -0.00000000000E+00 -0.15793698863E+03  0.15793698863E+03  0.00000000000E+00 0.  1.
         25    2    1    2    0    0  0.48868255744E+02  0.11961302155E+03  0.25771156392E+03  0.31425894854E+03  0.12509218685E+03 0.  0.
         23    2    1    2    0    0 -0.48868255744E+02 -0.11961302155E+03 -0.80522388600E+02  0.17880420405E+03  0.93764102801E+02 0.  0.
          5    1    3    3  502    0  0.82261964452E+02  0.36598436192E+02  0.13529319697E+03  0.16256751789E+03  0.41800000000E+01 0.  1.
         -5    1    3    3    0  502 -0.33393708708E+02  0.83014585362E+02  0.12241836696E+03  0.15169143065E+03  0.41800000000E+01 0.  1.
        -11    1    4    4    0    0 -0.52679737692E+02 -0.80750779897E+02 -0.96685294736E+02  0.13654262864E+03  0.00000000000E+00 0.  1.
         11    1    4    4    0    0  0.38114819479E+01 -0.38862241657E+02  0.16162906135E+02  0.42261575408E+02  0.00000000000E+00 0. -1.
</event>
<event>
 8    1  0.7052796E-009  0.1009904E+03  0.7561462E-02  0.1278227E+00
          2   -1    0    0  501    0  0.00000000000E+00  0.00000000000E+00  0.36044671377E+03  0.36044671377E+03  0.00000000000E+00 0.  1.
         -2   -1    0    0    0  501 -0.00000000000E+00 -0.00000000000E+00 -0.49633679682E+02  0.49633679682E+02  0.00000000000E+00 0. -1.
         25    2    1    2    0    0 -0.47292375910E+02  0.56105445367E+02  0.21681597203E+03  0.26084980334E+03  0.12509622039E+03 0.  0.
         23    2    1    2    0    0  0.47292375910E+02 -0.56105445367E+02  0.93997062055E+02  0.14923059011E+03  0.89721410655E+02 0.  0.
          5    1    3    3  502    0 -0.15729117240E+02  0.55786246782E+02  0.22120271239E+03  0.22870859807E+03  0.41800000000E+01 0.  1.
         -5    1    3    3    0  502 -0.31563258670E+02  0.31919858513E+00 -0.43867403614E+01  0.32141205276E+02  0.41800000000E+01 0.  1.
        -11    1    4    4    0    0 -0.10692595532E+02 -0.52884059910E+02  0.26256545742E+02  0.60003846428E+02  0.00000000000E+00 0.  1.
         11    1    4    4    0    0  0.57984971442E+02 -0.32213854567E+01  0.67740516313E+02  0.89226743680E+02  0.00000000000E+00 0. -1.
</event>
<event>
 8    1  0.7052796E-009  0.1066967E+03  0.7561462E-02  0.1266812E+00
          2   -1    0    0  501    0  0.00000000000E+00  0.00000000000E+00  0.59096135566E+02  0.59096135566E+02  0.00000000000E+00 0. -1.
         -2   -1    0    0    0  501 -0.00000000000E+00 -0.00000000000E+00 -0.21216028098E+03  0.21216028098E+03  0.00000000000E+00 0.  1.
         25    2    1    2    0    0  0.85323104785E+01 -0.23805639424E+02 -0.77529361949E+02  0.14932391813E+03  0.12508925521E+03 0.  0.
         23    2    1    2    0    0 -0.85323104785E+01  0.23805639424E+02 -0.75534783461E+02  0.12193249842E+03  0.92317505745E+02 0.  0.
          5    1    3    3  502    0 -0.55368207482E+02 -0.89823946023E+01 -0.14118265301E+02  0.57992410087E+02  0.41800000000E+01 0. -1.
         -5    1    3    3    0  502  0.63900517961E+02 -0.14823244821E+02 -0.63411096648E+02  0.91331508040E+02  0.41800000000E+01 0. -1.
        -11    1    4    4    0    0  0.18906522188E+02  0.50015813598E+02 -0.61452213898E+02  0.81458043091E+02  0.00000000000E+00 0. -1.
         11    1    4    4    0    0 -0.27438832667E+02 -0.26210174175E+02 -0.14082569562E+02  0.40474455325E+02  0.00000000000E+00 0.  1.
</event>
<event>
 8    1  0.7052796E-009  0.2438452E+03  0.7561462E-02  0.1117257E+00
         -1   -1    0    0    0  501 -0.00000000000E+00  0.00000000000E+00  0.13132188232E+03  0.13132188232E+03  0.00000000000E+00 0.  1.
          1   -1    0    0  501    0  0.00000000000E+00 -0.00000000000E+00 -0.59406150517E+03  0.59406150517E+03  0.00000000000E+00 0. -1.
         25    2    1    2    0    0  0.14093529337E+02  0.21838072178E+03 -0.41353789829E+03  0.48430280564E+03  0.12508735752E+03 0.  0.
         23    2    1    2    0    0 -0.14093529337E+02 -0.21838072178E+03 -0.49201724561E+02  0.24108058185E+03  0.88375732142E+02 0.  0.
          5    1    3    3  502    0  0.36173920302E+02  0.22552922108E+03 -0.37699685479E+03  0.44081297961E+03  0.41800000000E+01 0.  1.
         -5    1    3    3    0  502 -0.22080390966E+02 -0.71484993085E+01 -0.36541043508E+02  0.43489826031E+02  0.41800000000E+01 0.  1.
        -11    1    4    4    0    0 -0.46516486426E+02 -0.17742854138E+03 -0.43696712428E+02  0.18855787833E+03  0.00000000000E+00 0. -1.
         11    1    4    4    0    0  0.32422957090E+02 -0.40952180399E+02 -0.55050121330E+01  0.52522703514E+02  0.00000000000E+00 0.  1.
</event>
<event>
 8    1  0.7052796E-009  0.9557372E+02  0.7561462E-02  0.1289889E+00
          1   -1    0    0  501    0  0.00000000000E+00  0.00000000000E+00  0.31861527405E+03  0.31861527405E+03  0.00000000000E+00 0. -1.
         -1   -1    0    0    0  501 -0.00000000000E+00 -0.00000000000E+00 -0.53314772964E+02  0.53314772964E+02  0.00000000000E+00 0.  1.
         25    2    1    2    0    0  0.19660869704E+02  0.65421618094E+02  0.18382676675E+03  0.23260872616E+03  0.12509197177E+03 0.  0.
         23    2    1    2    0    0 -0.19660869704E+02 -0.65421618094E+02  0.81473734339E+02  0.13932132085E+03  0.90032900351E+02 0.  0.
          5    1    3    3  502    0  0.68738588476E+01  0.75769358623E+02  0.19693664201E+03  0.21116287318E+03  0.41800000000E+01 0. -1.
         -5    1    3    3    0  502  0.12787010857E+02 -0.10347740529E+02 -0.13109875264E+02  0.21445852982E+02  0.41800000000E+01 0. -1.
        -11    1    4    4    0    0 -0.14560091487E+02  0.12923931714E+02  0.51888551888E+02  0.55420628760E+02  0.00000000000E+00 0. -1.
         11    1    4    4    0    0 -0.51007782170E+01 -0.78345549808E+02  0.29585182450E+02  0.83900692094E+02  0.00000000000E+00 0.  1.
</event>
<event>
 8    1  0.7052796E-009  0.8806794E+02  0.7561462E-02  0.1307599E+00
         -1   -1    0    0    0  501 -0.00000000000E+00  0.00000000000E+00  0.20069889973E+02  0.20069889973E+02  0.00000000000E+00 0.  1.
          1   -1    0    0  501    0  0.00000000000E+00 -0.00000000000E+00 -0.79361653307E+03  0.79361653307E+03  0.00000000000E+00 0. -1.
         25    2    1    2    0    0 -0.52682224258E+02  0.35490443569E+02 -0.45925359797E+03  0.48020423054E+03  0.12508895809E+03 0.  0.
         23    2    1    2    0    0  0.52682224258E+02 -0.35490443569E+02 -0.31429304513E+03  0.33348219251E+03  0.91625685086E+02 0.  0.
          5    1    3    3  502    0 -0.16091329793E+02  0.67228604562E+01  0.63777159852E+00  0.17944550701E+02  0.41800000000E+01 0.  1.
         -5    1    3    3    0  502 -0.36590894464E+02  0.28767583113E+02 -0.45989136957E+03  0.46225967984E+03  0.41800000000E+01 0.  1.
        -11    1    4    4    0    0  0.69032989830E+02 -0.53357904294E+02 -0.24864247369E+03  0.26350654519E+03  0.00000000000E+00 0.  1.
         11    1    4    4    0    0 -0.16350765572E+02  0.17867460725E+02 -0.65650571434E+02  0.69975647315E+02  0.00000000000E+00 0. -1.
</event>
<event>
 8    1  0.7052796E-009  0.1075515E+03  0.7561462E-02  0.1265173E+00
          4   -1    0    0  501    0  0.00000000000E+00  0.00000000000E+00  0.51185158234E+03  0.51185158234E+03  0.00000000000E+00 0. -1.
         -4   -1    0    0    0  501 -0.00000000000E+00 -0.00000000000E+00 -0.27491713388E+02  0.27491713388E+02  0.00000000000E+00 0.  1.
         25    2    1    2    0    0  0.33805783228E+01 -0.85887159610E+01  0.36259065300E+03  0.38367174794E+03  0.12508730619E+03 0.  0.
         23    2    1    2    0    0 -0.33805783228E+01  0.85887159610E+01  0.12176921595E+03  0.15567154779E+03  0.96543743899E+02 0.  0.
          5    1    3    3  502    0  0.61380161936E+02  0.10177715136E+02  0.14925351621E+03  0.16175659079E+03  0.41800000000E+01 0. -1.
         -5    1    3    3    0  502 -0.57999583613E+02 -0.18766431096E+02  0.21333713679E+03  0.22191515714E+03  0.41800000000E+01 0. -1.
        -11    1    4    4    0    0 -0.46945624000E+02  0.10221941441E+02  0.38073444402E+02  0.61302258264E+02  0.00000000000E+00 0.  1.
         11    1    4    4    0    0  0.43565045678E+02 -0.16332254801E+01  0.83695771546E+02  0.94369289523E+02  0.00000000000E+00 0. -1.
</event>
<event>
 8    1  0.7052796E-009  0.1718762E+03  0.7561462E-02  0.1175905E+00
         -2   -1    0    0    0  501 -0.00000000000E+00  0.00000000000E+00  0.19301839925E+03  0.19301839925E+03  0.00000000000E+00 0.  1.
          2   -1    0    0  501    0  0.00000000000E+00 -0.00000000000E+00 -0.20977232684E+03  0.20977232684E+03  0.00000000000E+00 0. -1.
         25    2    1    2    0    0  0.14174703397E+03  0.40798838078E+02 -0.94100531880E+02  0.21507898039E+03  0.12508913173E+03 0.  0.
         23    2    1    2    0    0 -0.14174703397E+03 -0.40798838078E+02  0.77346604292E+02  0.18771174571E+03  0.86581958024E+02 0.  0.
          5    1    3    3  502    0 -0.19443712331E+02  0.42829608592E+01 -0.33108510140E+02  0.38859330239E+02  0.41800000000E+01 0.  1.
         -5    1    3    3    0  502  0.16119074630E+03  0.36515877218E+02 -0.60992021740E+02  0.17621965015E+03  0.41800000000E+01 0.  1.
        -11    1    4    4    0    0 -0.89504958013E+02  0.35171081873E+01  0.78635228256E+02  0.11919314864E+03  0.00000000000E+00 0.  1.
         11    1    4    4    0    0 -0.52242075956E+02 -0.44315946265E+02 -0.12886239640E+01  0.68518597076E+02  0.00000000000E+00 0. -1.
</event>
<event>
 8    1  0.7052796E-009  0.1055728E+03  0.7561462E-02  0.1268995E+00
          1   -1    0    0  501    0  0.00000000000E+00  0.00000000000E+00  0.11599326022E+04  0.11599326022E+04  0.00000000000E+00 0. -1.
         -1   -1    0    0    0  501 -0.00000000000E+00 -0.00000000000E+00 -0.35613472313E+02  0.35613472313E+02  0.00000000000E+00 0.  1.
         25    2    1    2    0    0 -0.93472534278E+02  0.16535697750E+02  0.10067071158E+04  0.10188808556E+04  0.12509371274E+03 0.  0.
         23    2    1    2    0    0  0.93472534278E+02 -0.16535697750E+02  0.11761201413E+03  0.17666521894E+03  0.91473874696E+02 0.  0.
          5    1    3    3  502    0 -0.98422247166E+01 -0.17096839436E+02  0.21228567487E+02  0.29279613789E+02  0.41800000000E+01 0. -1.
         -5    1    3    3    0  502 -0.83630309561E+02  0.33632537185E+02  0.98547854832E+03  0.98960124183E+03  0.41800000000E+01 0. -1.
        -11    1    4    4    0    0  0.26194780136E+02  0.10521450473E+02 -0.99512837511E+01  0.29931513071E+02  0.00000000000E+00 0.  1.
         11    1    4    4    0    0  0.67277754141E+02 -0.27057148223E+02  0.12756329788E+03  0.14673370587E+03  0.00000000000E+00 0. -1.
</event>
<event>
 8    1  0.7052796E-009  0.1275004E+03  0.7561462E-02  0.1231213E+00
         -1   -1    0    0    0  501 -0.00000000000E+00  0.00000000000E+00  0.10766076395E+03  0.10766076395E+03  0.00000000000E+00 0.  1.
          1   -1    0    0  501    0  0.00000000000E+00 -0.00000000000E+00 -0.27928415439E+03  0.27928415439E+03  0.00000000000E+00 0. -1.
         25    2    1    2    0    0 -0.22280192412E+02 -0.11852003910E+03 -0.23042097957E+02  0.17527995749E+03  0.12509483834E+03 0.  0.
         23    2    1    2    0    0  0.22280192412E+02  0.11852003910E+03 -0.14858129248E+03  0.21166496085E+03  0.90455782202E+02 0.  0.
          5    1    3    3  502    0 -0.24563235895E+02 -0.11814413052E+02  0.41984889287E+02  0.50230829595E+02  0.41800000000E+01 0. -1.
         -5    1    3    3    0  502  0.22830434829E+01 -0.10670562605E+03 -0.65026987244E+02  0.12504912790E+03  0.41800000000E+01 0. -1.
        -11    1    4    4    0    0  0.10274456914E+02  0.49196807404E+02 -0.34461818513E+01  0.50376249295E+02  0.00000000000E+00 0.  1.
         11    1    4    4    0    0  0.12005735498E+02  0.69323231696E+02 -0.14513511063E+03  0.16128871155E+03  0.00000000000E+00 0. -1.
</event>
<event>
 8    1  0.7052796E-009  0.1287823E+03  0.7561462E-02  0.1229274E+00
         -2   -1    0    0    0  501 -0.00000000000E+00  0.00000000000E+00  0.41972447153E+02  0.41972447153E+02  0.00000000000E+00 0.  1.
          2   -1    0    0  501    0  0.00000000000E+00 -0.00000000000E+00 -0.46278201146E+03  0.46278201146E+03  0.00000000000E+00 0. -1.
         25    2    1    2    0    0  0.43861060486E+02 -0.57415622884E+02 -0.13922915701E+03  0.20063415323E+03  0.12509579890E+03 0.  0.
         23    2    1    2    0    0 -0.43861060486E+02  0.57415622884E+02 -0.28158040729E+03  0.30412030538E+03  0.89338054565E+02 0.  0.
          5    1    3    3  502    0 -0.41252755638E+02 -0.36118632360E+02 -0.68622998722E+02  0.87937101413E+02  0.41800000000E+01 0.  1.
         -5    1    3    3    0  502  0.85113816124E+02 -0.21296990524E+02 -0.70606158288E+02  0.11269705182E+03  0.41800000000E+01 0.  1.
        -11    1    4    4    0    0  0.24829416152E+02  0.34133691185E+02 -0.95941768299E+02  0.10481618045E+03  0.00000000000E+00 0.  1.
         11    1    4    4    0    0 -0.68690476638E+02  0.23281931699E+02 -0.18563863899E+03  0.19930412492E+03  0.00000000000E+00 0. -1.
</event>
<event>
 8    1  0.7052796E-009  0.1240689E+03  0.7561462E-02  0.1236532E+00
         -1   -1    0    0    0  501 -0.00000000000E+00  0.00000000000E+00  0.24536415108E+02  0.24536415108E+02  0.00000000000E+00 0.  1.
          1   -1    0    0  501    0  0.00000000000E+00 -0.00000000000E+00 -0.79429441941E+03  0.79429441941E+03  0.00000000000E+00 0. -1.
         25    2    1    2    0    0  0.67453006680E+02 -0.18786859669E+02 -0.26533348493E+03  0.30158275792E+03  0.12508975754E+03 0.  0.
         23    2    1    2    0    0 -0.67453006680E+02  0.18786859669E+02 -0.50442451937E+03  0.51724807660E+03  0.90546246721E+02 0.  0.
          5    1    3    3  502    0 -0.33517235199E+02 -0.16916644334E+02 -0.42282593245E+02  0.56699806017E+02  0.41800000000E+01 0.  1.
         -5    1    3    3    0  502  0.10097024188E+03 -0.18702153343E+01 -0.22305089168E+03  0.24488295190E+03  0.41800000000E+01 0.  1.
        -11    1    4    4    0    0 -0.17532956425E+02  0.48239194074E+02 -0.16150417936E+03  0.16946393232E+03  0.00000000000E+00 0.  1.
         11    1    4    4    0    0 -0.49920050255E+02 -0.29452334405E+02 -0.34292034001E+03  0.34778414428E+03  0.00000000000E+00 0. -1.
</event>
<event>
 8    1  0.7052796E-009  0.2045489E+03  0.7561462E-02  0.1145957E+00
          1   -1    0    0  501    0  0.00000000000E+00  0.00000000000E+00  0.94818010001E+03  0.94818010001E+03  0.00000000000E+00 0. -1.
         -1   -1    0    0    0  501 -0.00000000000E+00 -0.00000000000E+00 -0.60533970356E+02  0.60533970356E+02  0.00000000000E+00 0.  1.
         25    2    1    2    0    0 -0.20114127193E+03 -0.81762835849E+01  0.60486082182E+03  0.64963739588E+03  0.12508984558E+03 0.  0.
         23    2    1    2    0    0  0.20114127193E+03  0.81762835849E+01  0.28278530784E+03  0.35907667449E+03  0.91890505210E+02 0.  0.
          5    1    3    3  502    0 -0.17743671030E+03  0.63875933177E+01  0.34283957807E+03  0.38611013481E+03  0.41800000000E+01 0. -1.
         -5    1    3    3    0  502 -0.23704561632E+02 -0.14563876903E+02  0.26202124375E+03  0.26352726107E+03  0.41800000000E+01 0. -1.
        -11    1    4    4    0    0  0.83232082268E+02  0.17620149972E+02  0.51908300645E+02  0.99662033290E+02  0.00000000000E+00 0.  1.
         11    1    4    4    0    0  0.11790918966E+03 -0.94438663869E+01  0.23087700719E+03  0.25941464120E+03  0.00000000000E+00 0. -1.
</event>
<event>
 8    1  0.7052796E-009  0.1011970E+03  0.7561462E-02  0.1277799E+00
          2   -1    0    0  501    0  0.00000000000E+00  0.00000000000E+00  0.73175161930E+03  0.73175161930E+03  0.00000000000E+00 0. -1.
         -2   -1    0    0    0  501 -0.00000000000E+00 -0.00000000000E+00 -0.22959775329E+02  0.22959775329E+02  0.00000000000E+00 0.  1.
         25    2    1    2    0    0  0.69619194372E+02  0.29846993335E+02  0.42012571770E+03  0.44484936115E+03  0.12509060798E+03 0.  0.
         23    2    1    2    0    0 -0.69619194372E+02 -0.29846993335E+02  0.28866612627E+03  0.30986203348E+03  0.83358695413E+02 0.  0.
          5    1    3    3  502    0  0.56452089250E+02  0.52683253116E+02  0.11513799390E+03  0.13869604746E+03  0.41800000000E+01 0. -1.
         -5    1    3    3    0  502  0.13167105122E+02 -0.22836259781E+02  0.30498772380E+03  0.30615331369E+03  0.41800000000E+01 0. -1.
        -11    1    4    4    0    0 -0.24423040994E+02 -0.44585424364E+02  0.72606354901E+02  0.88634235875E+02  0.00000000000E+00 0.  1.
         11    1    4    4    0    0 -0.45196153378E+02  0.14738431029E+02  0.21605977137E+03  0.22122779761E+03  0.00000000000E+00 0. -1.
</event>
<event>
 8    1  0.7052796E-009  0.8615550E+02  0.7561462E-02  0.1312438E+00
         -2   -1    0    0    0  501 -0.00000000000E+00  0.00000000000E+00  0.19114468532E+03  0.19114468532E+03  0.00000000000E+00 0.  1.
          2   -1    0    0  501    0  0.00000000000E+00 -0.00000000000E+00 -0.91265412554E+02  0.91265412554E+02  0.00000000000E+00 0. -1.
         25    2    1    2    0    0  0.22642435131E+02 -0.32530225208E+02 -0.13279702727E+02  0.13188062168E+03  0.12508098357E+03 0.  0.
         23    2    1    2    0    0 -0.22642435131E+02  0.32530225208E+02  0.11315897549E+03  0.15052947619E+03  0.91012493904E+02 0.  0.
          5    1    3    3  502    0  0.37677909631E+02 -0.41612275942E+02  0.44238987213E+02  0.71594460490E+02  0.41800000000E+01 0. -1.
         -5    1    3    3    0  502 -0.15035474500E+02  0.90820507346E+01 -0.57518689940E+02  0.60286161193E+02  0.41800000000E+01 0. -1.
        -11    1    4    4    0    0  0.22137496910E+02 -0.19370117994E+02  0.23392340404E+02  0.37582866178E+02  0.00000000000E+00 0. -1.
         11    1    4    4    0    0 -0.44779932041E+02  0.51900343202E+02  0.89766635086E+02  0.11294661001E+03  0.00000000000E+00 0.  1.
</event>
<event>
 8    1  0.7052796E-009  0.1600105E+03  0.7561462E-02  0.1188685E+00
          1   -1    0    0  501    0  0.00000000000E+00  0.00000000000E+00  0.42956348650E+03  0.42956348650E+03  0.00000000000E+00 0. -1.
         -1   -1    0    0    0  501 -0.00000000000E+00 -0.00000000000E+00 -0.66909599528E+02  0.66909599528E+02  0.00000000000E+00 0.  1.
         25    2    1    2    0    0 -0.12272841942E+03  0.53209249846E+01  0.25446149350E+03  0.30901320414E+03  0.12509169230E+03 0.  0.
         23    2    1    2    0    0  0.12272841942E+03 -0.53209249846E+01  0.10819239347E+03  0.18745988189E+03  0.91351169329E+02 0.  0.
          5    1    3    3  502    0 -0.13088211593E+03  0.35630652357E+02  0.23633439396E+03  0.27252722768E+03  0.41800000000E+01 0. -1.
         -5    1    3    3    0  502  0.81536965188E+01 -0.30309727372E+02  0.18127099543E+02  0.36485976458E+02  0.41800000000E+01 0. -1.
        -11    1    4    4    0    0  0.85457902743E+02 -0.46348931043E+02  0.75653208079E+02  0.12318556913E+03  0.00000000000E+00 0. -1.
         11    1    4    4    0    0  0.37270516672E+02  0.41028006058E+02  0.32539185388E+02  0.64274312753E+02  0.00000000000E+00 0.  1.
</event>
<event>
 8    1  0.7052796E-009  0.1012180E+03  0.7561462E-02  0.1277755E+00
          1   -1    0    0  501    0  0.00000000000E+00  0.00000000000E+00  0.21224363696E+03  0.21224363696E+03  0.00000000000E+00 0. -1.
         -1   -1    0    0    0  501 -0.00000000000E+00 -0.00000000000E+00 -0.72532730166E+02  0.72532730166E+02  0.00000000000E+00 0.  1.
         25    2    1    2    0    0 -0.12947945873E+02  0.39767008950E+02  0.25138497052E+02  0.13426474848E+03  0.12508402914E+03 0.  0.
         23    2    1    2    0    0  0.12947945873E+02 -0.39767008950E+02  0.11457240974E+03  0.15051161865E+03  0.88192096992E+02 0.  0.
          5    1    3    3  502    0  0.30907140333E+02 -0.32419658255E+02 -0.31370853066E+01  0.45095446213E+02  0.41800000000E+01 0. -1.
         -5    1    3    3    0  502 -0.43855086206E+02  0.72186667205E+02  0.28275582358E+02  0.89169302263E+02  0.41800000000E+01 0. -1.
        -11    1    4    4    0    0  0.26657108641E+02 -0.49395678378E+02  0.28740128339E+02  0.63059729308E+02  0.00000000000E+00 0.  1.
         11    1    4    4    0    0 -0.13709162767E+02  0.96286694278E+01  0.85832281406E+02  0.87451889345E+02  0.00000000000E+00 0. -1.
</event>
<event>
 8    1  0.7052796E-009  0.1581957E+03  0.7561462E-02  0.1190749E+00
          2   -1    0    0  501    0  0.00000000000E+00  0.00000000000E+00  0.65242146376E+03  0.65242146376E+03  0.00000000000E+00 0.  1.
         -2   -1    0    0    0  501 -0.00000000000E+00 -0.00000000000E+00 -0.48299420612E+02  0.48299420612E+02  0.00000000000E+00 0. -1.
         25    2    1    2    0    0 -0.60070788972E+02  0.11136332100E+03  0.20050184817E+03  0.26806499910E+03  0.12509022213E+03 0.  0.
         23    2    1    2    0    0  0.60070788972E+02 -0.11136332100E+03  0.40362019498E+03  0.43265588527E+03  0.90948140788E+02 0.  0.
          5    1    3    3  502    0 -0.23812974946E+02  0.13073922443E+03  0.12767546563E+03  0.18433203602E+03  0.41800000000E+01 0. -1.
         -5    1    3    3    0  502 -0.36257814026E+02 -0.19375903435E+02  0.72826382543E+02  0.83732963080E+02  0.41800000000E+01 0. -1.
        -11    1    4    4    0    0  0.71802512141E+02 -0.74676353382E+02  0.19804902057E+03  0.22350743400E+03  0.00000000000E+00 0. -1.
         11    1    4    4    0    0 -0.11731723169E+02 -0.36686967616E+02  0.20557117441E+03  0.20914845127E+03  0.00000000000E+00 0.  1.
</event>
<event>
 8    1  0.7052796E-009  0.1153208E+03  0.7561462E-02  0.1251022E+00
         -2   -1    0    0    0  501 -0.00000000000E+00  0.00000000000E+00  0.82886578394E+02  0.82886578394E+02  0.00000000000E+00 0.  1.
          2   -1    0    0  501    0  0.00000000000E+00 -0.00000000000E+00 -0.25160487586E+03  0.25160487586E+03  0.00000000000E+00 0. -1.
         25    2    1    2    0    0  0.42352561519E+02 -0.81876520874E+02 -0.71151540102E+02  0.17090626912E+03  0.12509559155E+03 0.  0.
         23    2    1    2    0    0 -0.42352561519E+02  0.81876520874E+02 -0.97566757368E+02  0.16358518514E+03  0.93505810072E+02 0.  0.
          5    1    3    3  502    0  0.56122709251E+02 -0.71060572274E+02 -0.10121041920E+03  0.13586899860E+03  0.41800000000E+01 0. -1.
         -5    1    3    3    0  502 -0.13770147732E+02 -0.10815948600E+02  0.30058879097E+02  0.35037270517E+02  0.41800000000E+01 0. -1.
        -11    1    4    4    0    0 -0.64299824375E+02  0.75432916313E+02 -0.50472152007E+02  0.11122962917E+03  0.00000000000E+00 0.  1.
         11    1    4    4    0    0  0.21947262856E+02  0.64436045613E+01 -0.47094605361E+02  0.52355555968E+02  0.00000000000E+00 0. -1.
</event>
<event>
 8    1  0.7052796E-009  0.8486461E+02  0.7561462E-02  0.1315787E+00
         -1   -1    0    0    0  501 -0.00000000000E+00  0.00000000000E+00  0.95283693950E+02  0.95283693950E+02  0.00000000000E+00 0.  1.
          1   -1    0    0  501    0  0.00000000000E+00 -0.00000000000E+00 -0.14058821422E+03  0.14058821422E+03  0.00000000000E+00 0. -1.
         25    2    1    2    0    0  0.24062821058E+02  0.30905941857E+02 -0.23013678465E+02  0.13308310603E+03  0.12508911669E+03 0.  0.
         23    2    1    2    0    0 -0.24062821058E+02 -0.30905941857E+02 -0.22290841806E+02  0.10278880214E+03  0.92382139060E+02 0.  0.
          5    1    3    3  502    0 -0.14439741257E+02  0.48174634366E+02  0.34861456607E+02  0.61335919987E+02  0.41800000000E+01 0.  1.
         -5    1    3    3    0  502  0.38502562316E+02 -0.17268692509E+02 -0.57875135072E+02  0.71747186046E+02  0.41800000000E+01 0.  1.
        -11    1    4    4    0    0 -0.40075514355E+02  0.21458568541E+01  0.21586062461E+02  0.45569832620E+02  0.00000000000E+00 0.  1.
         11    1    4    4    0    0  0.16012693296E+02 -0.33051798711E+02 -0.43876904267E+02  0.57218969518E+02  0.00000000000E+00 0. -1.
</event>
<event>
 8    1  0.7052796E-009  0.1196972E+03  0.7561462E-02  0.1243597E+00
         -2   -1    0    0    0  501 -0.00000000000E+00  0.00000000000E+00  0.30899968666E+02  0.30899968666E+02  0.00000000000E+00 0.  1.
          2   -1    0    0  501    0  0.00000000000E+00 -0.00000000000E+00 -0.54981823020E+03  0.54981823020E+03  0.00000000000E+00 0. -1.
         25    2    1    2    0    0 -0.44563801833E+02 -0.52787316742E+02 -0.24153095697E+03  0.28063570838E+03  0.12508702730E+03 0.  0.
         23    2    1    2    0    0  0.44563801833E+02  0.52787316742E+02 -0.27738730456E+03  0.30008249049E+03  0.91287190354E+02 0.  0.
          5    1    3    3  502    0  0.30750633246E+02  0.15999028405E+02 -0.31131137820E+02  0.46778098475E+02  0.41800000000E+01 0. -1.
         -5    1    3    3    0  502 -0.75314435079E+02 -0.68786345147E+02 -0.21039981915E+03  0.23385760990E+03  0.41800000000E+01 0. -1.
        -11    1    4    4    0    0  0.33705944359E+02 -0.12695761592E+02 -0.17049297954E+03  0.17425592994E+03  0.00000000000E+00 0. -1.
         11    1    4    4    0    0  0.10857857474E+02  0.65483078334E+02 -0.10689432502E+03  0.12582656055E+03  0.00000000000E+00 0.  1.
</event>
<event>
 8    1  0.7052796E-009  0.7536927E+02  0.7561462E-02  0.1342731E+00
         -1   -1    0    0    0  501 -0.00000000000E+00  0.00000000000E+00  0.44696575184E+03  0.44696575184E+03  0.00000000000E+00 0.  1.
          1   -1    0    0  501    0  0.00000000000E+00 -0.00000000000E+00 -0.31580332817E+02  0.31580332817E+02  0.00000000000E+00 0. -1.
         25    2    1    2    0    0  0.37476789006E+02  0.15593737069E+02  0.28048534111E+03  0.30978435290E+03  0.12508654753E+03 0.  0.
         23    2    1    2    0    0 -0.37476789006E+02 -0.15593737069E+02  0.13490007791E+03  0.16876173176E+03  0.92923714600E+02 0.  0.
          5    1    3    3  502    0  0.24260874170E+01  0.17232878575E+02  0.27309735158E+03  0.27368319979E+03  0.41800000000E+01 0.  1.
         -5    1    3    3    0  502  0.35050701589E+02 -0.16391415059E+01  0.73879895272E+01  0.36101153112E+02  0.41800000000E+01 0.  1.
        -11    1    4    4    0    0  0.53843892489E+01  0.32580468462E+02  0.25298945303E+02  0.41599461610E+02  0.00000000000E+00 0. -1.
         11    1    4    4    0    0 -0.42861178255E+02 -0.48174205530E+02  0.10960113261E+03  0.12716227015E+03  0.00000000000E+00 0.  1.
</event>
<event>
 8    1  0.7052796E-009  0.1634664E+03  0.7561462E-02  0.1184838E+00
         -1   -1    0    0    0  501 -0.00000000000E+00  0.00000000000E+00  0.79462971810E+02  0.79462971810E+02  0.00000000000E+00 0.  1.
          1   -1    0    0  501    0  0.00000000000E+00 -0.00000000000E+00 -0.36695980733E+03  0.36695980733E+03  0.00000000000E+00 0. -1.
         25    2    1    2    0    0  0.41858314224E+02  0.12144531762E+03 -0.11740011431E+03  0.21431502072E+03  0.12508819939E+03 0.  0.
         23    2    1    2    0    0 -0.41858314224E+02 -0.12144531762E+03 -0.17009672121E+03  0.23210775842E+03  0.91869653911E+02 0.  0.
          5    1    3    3  502    0 -0.14188801079E+02 -0.17709673366E+02  0.10914571863E+01  0.23100179341E+02  0.41800000000E+01 0. -1.
         -5    1    3    3    0  502  0.56047115303E+02  0.13915499098E+03 -0.11849157150E+03  0.19121484138E+03  0.41800000000E+01 0. -1.
        -11    1    4    4    0    0 -0.49529118427E+02 -0.13185561323E+03 -0.13663762951E+03  0.19623679092E+03  0.00000000000E+00 0.  1.
         11    1    4    4    0    0  0.76708042036E+01  0.10410295609E+02 -0.33459091707E+02  0.35870967503E+02  0.00000000000E+00 0. -1.
</event>
<event>
 8    1  0.7052796E-009  0.8623249E+02  0.7561462E-02  0.1312241E+00
         -1   -1    0    0    0  501 -0.00000000000E+00  0.00000000000E+00  0.12652782181E+03  0.12652782181E+03  0.00000000000E+00 0.  1.
          1   -1    0    0  501    0  0.00000000000E+00 -0.00000000000E+00 -0.12802091254E+03  0.12802091254E+03  0.00000000000E+00 0. -1.
         25    2    1    2    0    0  0.38777108495E+02 -0.50151806127E+02  0.12721954258E+02  0.14081320020E+03  0.12509053293E+03 0.  0.
         23    2    1    2    0    0 -0.38777108495E+02  0.50151806127E+02 -0.14215044988E+02  0.11373553415E+03  0.93353288227E+02 0.  0.
          5    1    3    3  502    0 -0.22646850797E+02 -0.26514354106E+01 -0.40443022773E+02  0.46615667449E+02  0.41800000000E+01 0.  1.
         -5    1    3    3    0  502  0.61423959292E+02 -0.47500370716E+02  0.53164977030E+02  0.94197532749E+02  0.41800000000E+01 0.  1.
        -11    1    4    4    0    0 -0.42137896433E+02  0.31602307199E+02  0.33506189941E+02  0.62425739087E+02  0.00000000000E+00 0.  1.
         11    1    4    4    0    0  0.33607879374E+01  0.18549498928E+02 -0.47721234930E+02  0.51309795062E+02  0.00000000000E+00 0. -1.
</event>
<event>
 8    1  0.7052796E-009  0.1287941E+03  0.7561462E-02  0.1229256E+00
         -2   -1    0    0    0  501 -0.00000000000E+00  0.00000000000E+00  0.64663677672E+02  0.64663677672E+02  0.00000000000E+00 0.  1.
          2   -1    0    0  501    0  0.00000000000E+00 -0.00000000000E+00 -0.38513753613E+03  0.38513753613E+03  0.00000000000E+00 0. -1.
         25    2    1    2    0    0  0.94194414706E+02  0.63934114972E+02 -0.16519468038E+03  0.23643370084E+03  0.12510576985E+03 0.  0.
         23    2    1    2    0    0 -0.94194414706E+02 -0.63934114972E+02 -0.15527917807E+03  0.21336751295E+03  0.91945166393E+02 0.  0.
          5    1    3    3  502    0  0.98762142653E+02  0.23841775317E+02 -0.48055367800E+02  0.11246858160E+03  0.41800000000E+01 0.  1.
         -5    1    3    3    0  502 -0.45677279477E+01  0.40092339655E+02 -0.11713931258E+03  0.12396511925E+03  0.41800000000E+01 0.  1.
        -11    1    4    4    0    0 -0.49399295182E+02 -0.22373021540E+02 -0.91756490978E+01  0.55000318123E+02  0.00000000000E+00 0.  1.
         11    1    4    4    0    0 -0.44795119524E+02 -0.41561093433E+02 -0.14610352897E+03  0.15836719483E+03  0.00000000000E+00 0. -1.
</event>
<event>
 8    1  0.7052796E-009  0.1261947E+03  0.7561462E-02  0.1233214E+00
         -3   -1    0    0    0  501 -0.00000000000E+00  0.00000000000E+00  0.13518356400E+03  0.13518356400E+03  0.00000000000E+00 0.  1.
          3   -1    0    0  501    0  0.00000000000E+00 -0.00000000000E+00 -0.16921752145E+03  0.16921752145E+03  0.00000000000E+00 0. -1.
         25    2    1    2    0    0 -0.34453370527E+02 -0.98180629244E+02 -0.23303327130E+01  0.16272660558E+03  0.12509215409E+03 0.  0.
         23    2    1    2    0    0  0.34453370527E+02  0.98180629244E+02 -0.31703624745E+02  0.14167447987E+03  0.90774818779E+02 0.  0.
          5    1    3    3  502    0 -0.43504199142E+02 -0.65785137535E+01  0.41556809067E+02  0.60665747881E+02  0.41800000000E+01 0.  1.
         -5    1    3    3    0  502  0.90508286146E+01 -0.91602115490E+02 -0.43887141780E+02  0.10206085770E+03  0.41800000000E+01 0.  1.
        -11    1    4    4    0    0  0.47991684181E+02  0.71220795243E+02  0.13896382038E+02  0.86998349751E+02  0.00000000000E+00 0.  1.
         11    1    4    4    0    0 -0.13538313654E+02  0.26959834000E+02 -0.45600006783E+02  0.54676130117E+02  0.00000000000E+00 0. -1.
</event>
<event>
 8    1  0.7052796E-009  0.9949976E+02  0.7561462E-02  0.1281351E+00
         -1   -1    0    0    0  501 -0.00000000000E+00  0.00000000000E+00  0.13558583386E+03  0.13558583386E+03  0.00000000000E+00 0.  1.
          1   -1    0    0  501    0  0.00000000000E+00 -0.00000000000E+00 -0.15683401895E+03  0.15683401895E+03  0.00000000000E+00 0. -1.
         25    2    1    2    0    0 -0.78022103615E+02 -0.41613148911E+02 -0.51602507070E+02  0.16165397023E+03  0.12510029792E+03 0.  0.
         23    2    1    2    0    0  0.78022103615E+02  0.41613148911E+02  0.30354321988E+02  0.13076588258E+03  0.91428815859E+02 0.  0.
          5    1    3    3  502    0 -0.74597127047E+02 -0.20705809130E+02  0.25475255345E+02  0.81608350861E+02  0.41800000000E+01 0.  1.
         -5    1    3    3    0  502 -0.34249765679E+01 -0.20907339781E+02 -0.77077762415E+02  0.80045619369E+02  0.41800000000E+01 0.  1.
        -11    1    4    4    0    0  0.10230508371E+02 -0.10278797104E+02  0.42156638214E+02  0.44581376346E+02  0.00000000000E+00 0.  1.
         11    1    4    4    0    0  0.67791595244E+02  0.51891946015E+02 -0.11802316225E+02  0.86184506236E+02  0.00000000000E+00 0. -1.
</event>
<event>
 8    1  0.7052796E-009  0.1177062E+03  0.7561462E-02  0.1246930E+00
          2   -1    0    0  501    0  0.00000000000E+00  0.00000000000E+00  0.17855681629E+03  0.17855681629E+03  0.00000000000E+00 0. -1.
         -2   -1    0    0    0  501 -0.00000000000E+00 -0.00000000000E+00 -0.90635031533E+02  0.90635031533E+02  0.00000000000E+00 0.  1.
         25    2    1    2    0    0 -0.57466415657E+02  0.31137597344E+02  0.14650569653E+02  0.14189396883E+03  0.12508924935E+03 0.  0.
         23    2    1    2    0    0  0.57466415657E+02 -0.31137597344E+02  0.73271215100E+02  0.12729787899E+03  0.81019381232E+02 0.  0.
          5    1    3    3  502    0 -0.33814270550E+02 -0.46148864544E+02  0.20086930952E+02  0.60778941967E+02  0.41800000000E+01 0. -1.
         -5    1    3    3    0  502 -0.23652145107E+02  0.77286461889E+02 -0.54363612995E+01  0.81115026867E+02  0.41800000000E+01 0. -1.
        -11    1    4    4    0    0  0.74600643455E+02 -0.22451496136E+02  0.36982648673E+02  0.86238286077E+02  0.00000000000E+00 0.  1.
         11    1    4    4    0    0 -0.17134227798E+02 -0.86861012084E+01  0.36288566428E+02  0.41059592909E+02  0.00000000000E+00 0. -1.
</event>
<event>
 8    1  0.7052796E-009  0.8861189E+02  0.7561462E-02  0.1306248E+00
          2   -1    0    0  501    0  0.00000000000E+00  0.00000000000E+00  0.79385209044E+02  0.79385209044E+02  0.00000000000E+00 0. -1.
         -2   -1    0    0    0  501 -0.00000000000E+00 -0.00000000000E+00 -0.25053293793E+03  0.25053293793E+03  0.00000000000E+00 0.  1.
         25    2    1    2    0    0  0.73429244709E+02 -0.24256527234E+02 -0.38959275757E+02  0.15215167579E+03  0.12510824987E+03 0.  0.
         23    2    1    2    0    0 -0.73429244709E+02  0.24256527234E+02 -0.13218845313E+03  0.17776647119E+03  0.90260168649E+02 0.  0.
          5    1    3    3  502    0  0.11248481662E+02 -0.28334577608E+02  0.40640339912E+02  0.50975349495E+02  0.41800000000E+01 0. -1.
         -5    1    3    3    0  502  0.62180763047E+02  0.40780503733E+01 -0.79599615669E+02  0.10117632630E+03  0.41800000000E+01 0. -1.
        -11    1    4    4    0    0 -0.31215720299E+02  0.27580094976E+02 -0.12870679084E+03  0.13527941765E+03  0.00000000000E+00 0.  1.
         11    1    4    4    0    0 -0.42213524410E+02 -0.33235677419E+01 -0.34816622940E+01  0.42487053534E+02  0.00000000000E+00 0. -1.
</event>
<event>
 8    1  0.7052796E-009  0.9411815E+02  0.7561462E-02  0.1293175E+00
         -1   -1    0    0    0  501 -0.00000000000E+00  0.00000000000E+00  0.24306532164E+03  0.24306532164E+03  0.00000000000E+00 0.  1.
          1   -1    0    0  501    0  0.00000000000E+00 -0.00000000000E+00 -0.65502438064E+02  0.65502438064E+02  0.00000000000E+00 0. -1.
         25    2    1    2    0    0 -0.44703141184E+02  0.31393464432E+02  0.14125724654E+03  0.19643141997E+03  0.12509105728E+03 0.  0.
         23    2    1    2    0    0  0.44703141184E+02 -0.31393464432E+02  0.36305637031E+02  0.11213633973E+03  0.90953498923E+02 0.  0.
          5    1    3    3  502    0  0.21464497967E+02 -0.12907878337E+02 -0.84921845411E+01  0.26775503626E+02  0.41800000000E+01 0. -1.
         -5    1    3    3    0  502 -0.66167639151E+02  0.44301342770E+02  0.14974943108E+03  0.16965591635E+03  0.41800000000E+01 0. -1.
        -11    1    4    4    0    0  0.77669692403E+01  0.19056652378E+02  0.44546092069E+02  0.49069706843E+02  0.00000000000E+00 0.  1.
         11    1    4    4    0    0  0.36936171944E+02 -0.50450116810E+02 -0.82404550388E+01  0.63066632884E+02  0.00000000000E+00 0. -1.
</event>
<event>
 8    1  0.7052796E-009  0.6921654E+02  0.7561462E-02  0.1362778E+00
          1   -1    0    0  501    0  0.00000000000E+00  0.00000000000E+00  0.87132371188E+02  0.87132371188E+02  0.00000000000E+00 0. -1.
         -1   -1    0    0    0  501 -0.00000000000E+00 -0.00000000000E+00 -0.13580425854E+03  0.13580425854E+03  0.00000000000E+00 0.  1.
         25    2    1    2    0    0 -0.54298619497E+01  0.30603700589E+01 -0.37843118106E+02  0.13083783875E+03  0.12509032415E+03 0.  0.
         23    2    1    2    0    0  0.54298619497E+01 -0.30603700589E+01 -0.10828769244E+02  0.92098790974E+02  0.91247333056E+02 0.  0.
          5    1    3    3  502    0  0.21480984977E+02 -0.35286427232E+02 -0.64549785561E+02  0.76750973143E+02  0.41800000000E+01 0.  1.
         -5    1    3    3    0  502 -0.26910846927E+02  0.38346797291E+02  0.26706667455E+02  0.54086865609E+02  0.41800000000E+01 0.  1.
        -11    1    4    4    0    0  0.22376787039E+02  0.13540775687E+02  0.33092324431E+02  0.42180269565E+02  0.00000000000E+00 0. -1.
         11    1    4    4    0    0 -0.16946925089E+02 -0.16601145746E+02 -0.43921093675E+02  0.49918521409E+02  0.00000000000E+00 0.  1.
</event>
<event>
 8    1  0.7052796E-009  0.8855745E+02  0.7561462E-02  0.1306383E+00
          1   -1    0    0  501    0  0.00000000000E+00  0.00000000000E+00  0.56616470988E+03  0.56616470988E+03  0.00000000000E+00 0. -1.
         -1   -1    0    0    0  501 -0.00000000000E+00 -0.00000000000E+00 -0.46580906850E+02  0.46580906850E+02  0.00000000000E+00 0.  1.
         25    2    1    2    0    0 -0.13848592804E+02 -0.31953825470E+02  0.49747677090E+03  0.51414373686E+03  0.12509122306E+03 0.  0.
         23    2    1    2    0    0  0.13848592804E+02  0.31953825470E+02  0.22107032129E+02  0.98601879865E+02  0.89558803914E+02 0.  0.
          5    1    3    3  502    0  0.58875407946E+01 -0.52163552739E+02  0.80527210097E+02  0.96217479373E+02  0.41800000000E+01 0. -1.
         -5    1    3    3    0  502 -0.19736133598E+02  0.20209727269E+02  0.41694956080E+03  0.41792625749E+03  0.41800000000E+01 0. -1.
        -11    1    4    4    0    0  0.39190495594E+02 -0.15465943385E+02  0.66156264088E+01  0.42648058133E+02  0.00000000000E+00 0.  1.
         11    1    4    4    0    0 -0.25341902791E+02  0.47419768854E+02  0.15491405720E+02  0.55953821732E+02  0.00000000000E+00 0. -1.
</event>
<event>
 8    1  0.7052796E-009  0.1054479E+03  0.7561462E-02  0.1269240E+00
         -2   -1    0    0    0  501 -0.00000000000E+00  0.00000000000E+00  0.27802607168E+02  0.27802607168E+02  0.00000000000E+00 0.  1.
          2   -1    0    0  501    0  0.00000000000E+00 -0.00000000000E+00 -0.59694048039E+03  0.59694048039E+03  0.00000000000E+00 0. -1.
         25    2    1    2    0    0 -0.11427548849E+02  0.37164029062E+02 -0.46564726384E+03  0.48372241043E+03  0.12509293386E+03 0.  0.
         23    2    1    2    0    0  0.11427548849E+02 -0.37164029062E+02 -0.10349060938E+03  0.14102067713E+03  0.87548679138E+02 0.  0.
          5    1    3    3  502    0 -0.21838327703E+02  0.73694210183E+02 -0.40342045890E+03  0.41069853692E+03  0.41800000000E+01 0.  1.
         -5    1    3    3    0  502  0.10410778854E+02 -0.36530181121E+02 -0.62226804945E+02  0.73023873513E+02  0.41800000000E+01 0.  1.
        -11    1    4    4    0    0  0.41140781883E+02  0.77390970009E+01 -0.42282895249E+02  0.59500426780E+02  0.00000000000E+00 0.  1.
         11    1    4    4    0    0 -0.29713233035E+02 -0.44903126063E+02 -0.61207714134E+02  0.81520250349E+02  0.00000000000E+00 0. -1.
</event>
<event>
 8    1  0.7052796E-009  0.8578708E+02  0.7561462E-02  0.1313387E+00
          3   -1    0    0  501    0  0.00000000000E+00  0.00000000000E+00  0.19315436616E+03  0.19315436616E+03  0.00000000000E+00 0. -1.
         -3   -1    0    0    0  501 -0.00000000000E+00 -0.00000000000E+00 -0.12632409575E+03  0.12632409575E+03  0.00000000000E+00 0.  1.
         25    2    1    2    0    0  0.39047971346E+02 -0.34971835564E+02 -0.65960272294E+02  0.15082062862E+03  0.12509328978E+03 0.  0.
         23    2    1    2    0    0 -0.39047971346E+02  0.34971835564E+02  0.13279054270E+03  0.16865783329E+03  0.89801799258E+02 0.  0.
          5    1    3    3  502    0  0.67394092828E+02 -0.22352442840E+02 -0.87541683757E+02  0.11279456655E+03  0.41800000000E+01 0.  1.
         -5    1    3    3    0  502 -0.28346121483E+02 -0.12619392724E+02  0.21581411464E+02  0.38026062071E+02  0.41800000000E+01 0.  1.
        -11    1    4    4    0    0 -0.25251190376E+02 -0.59591271509E+01 -0.30424352248E+01  0.26122599869E+02  0.00000000000E+00 0.  1.
         11    1    4    4    0    0 -0.13796780969E+02  0.40930962715E+02  0.13583297793E+03  0.14253523342E+03  0.00000000000E+00 0. -1.
</event>
<event>
 8    1  0.7052796E-009  0.1034918E+03  0.7561462E-02  0.1273120E+00
          1   -1    0    0  501    0  0.00000000000E+00  0.00000000000E+00  0.19359719502E+03  0.19359719502E+03  0.00000000000E+00 0. -1.
         -1   -1    0    0    0  501 -0.00000000000E+00 -0.00000000000E+00 -0.60931870806E+02  0.60931870806E+02  0.00000000000E+00 0.  1.
         25    2    1    2    0    0 -0.59876982787E+01 -0.23266338139E+02  0.10933189989E+03  0.16786392529E+03  0.12509059940E+03 0.  0.
         23    2    1    2    0    0  0.59876982787E+01  0.23266338139E+02  0.23333424330E+02  0.86665140545E+02  0.79932614581E+02 0.  0.
          5    1    3    3  502    0  0.25381230562E+02  0.44607905993E+02  0.54992408951E+02  0.75337305395E+02  0.41800000000E+01 0.  1.
         -5    1    3    3    0  502 -0.31368928841E+02 -0.67874244132E+02  0.54339490937E+02  0.92526619890E+02  0.41800000000E+01 0.  1.
        -11    1    4    4    0    0  0.16240273948E+02  0.49680274158E+02  0.25678110790E+02  0.58234367104E+02  0.00000000000E+00 0. -1.
         11    1    4    4    0    0 -0.10252575669E+02 -0.26413936019E+02 -0.23446864594E+01  0.28430773441E+02  0.00000000000E+00 0.  1.
</event>
<event>
 8    1  0.7052796E-009  0.1566761E+03  0.7561462E-02  0.1192501E+00
          1   -1    0    0  501    0  0.00000000000E+00  0.00000000000E+00  0.79965500632E+03  0.79965500632E+03  0.00000000000E+00 0. -1.
         -1   -1    0    0    0  501 -0.00000000000E+00 -0.00000000000E+00 -0.32249406792E+02  0.32249406792E+02  0.00000000000E+00 0.  1.
         25    2    1    2    0    0  0.36827324938E+02 -0.11076374938E+03  0.42075149605E+03  0.45420750655E+03  0.12509107700E+03 0.  0.
         23    2    1    2    0    0 -0.36827324938E+02  0.11076374938E+03  0.34665410348E+03  0.37769690656E+03  0.94133021438E+02 0.  0.
          5    1    3    3  502    0 -0.41500388169E+02 -0.45531292351E+02  0.22686962150E+03  0.23512268789E+03  0.41800000000E+01 0.  1.
         -5    1    3    3    0  502  0.78327713107E+02 -0.65232457029E+02  0.19388187455E+03  0.21908481867E+03  0.41800000000E+01 0.  1.
        -11    1    4    4    0    0 -0.63454674842E+02  0.42663169085E+02  0.16395368182E+03  0.18090730096E+03  0.00000000000E+00 0. -1.
         11    1    4    4    0    0  0.26627349905E+02  0.68100580295E+02  0.18270042166E+03  0.19678960560E+03  0.00000000000E+00 0.  1.
</event>
<event>
 8    1  0.7052796E-009  0.1541297E+03  0.7561462E-02  0.1195488E+00
          2   -1    0    0  501    0  0.00000000000E+00  0.00000000000E+00  0.68099253747E+03  0.68099253747E+03  0.00000000000E+00 0.  1.
         -2   -1    0    0    0  501 -0.00000000000E+00 -0.00000000000E+00 -0.45917115918E+02  0.45917115918E+02  0.00000000000E+00 0. -1.
         25    2    1    2    0    0  0.11536385140E+03 -0.11018499462E+02  0.49676401761E+03  0.52521626481E+03  0.12508960827E+03 0.  0.
         23    2    1    2    0    0 -0.11536385140E+03  0.11018499462E+02  0.13831140394E+03  0.20169338857E+03  0.90110781782E+02 0.  0.
          5    1    3    3  502    0  0.35928385129E+02 -0.61445324518E+02  0.15324784702E+03  0.16902293270E+03  0.41800000000E+01 0. -1.
         -5    1    3    3    0  502  0.79435466266E+02  0.50426825055E+02  0.34351617059E+03  0.35619333211E+03  0.41800000000E+01 0. -1.
        -11    1    4    4    0    0 -0.50344034490E+02  0.46648260948E+02  0.43198273779E+02  0.81096688685E+02  0.00000000000E+00 0.  1.
         11    1    4    4    0    0 -0.65019816906E+02 -0.35629761485E+02  0.95113130161E+02  0.12059669988E+03  0.00000000000E+00 0. -1.
</event>
<event>
 8    1  0.7052796E-009  0.1085396E+03  0.7561462E-02  0.1263298E+00
          2   -1    0    0  501    0  0.00000000000E+00  0.00000000000E+00  0.35057916180E+03  0.35057916180E+03  0.00000000000E+00 0. -1.
         -2   -1    0    0    0  501 -0.00000000000E+00 -0.00000000000E+00 -0.59701866956E+02  0.59701866956E+02  0.00000000000E+00 0.  1.
         25    2    1    2    0    0  0.91497534479E+02 -0.20165677078E+02  0.17962225509E+03  0.23809569321E+03  0.12508777421E+03 0.  0.
         23    2    1    2    0    0 -0.91497534479E+02  0.20165677078E+02  0.11125503976E+03  0.17218533555E+03  0.92150163089E+02 0.  0.
          5    1    3    3  502    0 -0.88124412424E+01  0.12593337639E+02 -0.11562245418E+02  0.19682713041E+02  0.41800000000E+01 0.  1.
         -5    1    3    3    0  502  0.10030997572E+03 -0.32759014717E+02  0.19118450051E+03  0.21841298017E+03  0.41800000000E+01 0.  1.
        -11    1    4    4    0    0 -0.73708557759E+02  0.83307001886E+01  0.17752350190E+02  0.76272524475E+02  0.00000000000E+00 0.  1.
         11    1    4    4    0    0 -0.17788976721E+02  0.11834976890E+02  0.93502689569E+02  0.95912811071E+02  0.00000000000E+00 0. -1.
</event>
<event>
 8    1  0.7052796E-009  0.1323306E+03  0.7561462E-02  0.1224038E+00
          1   -1    0    0  501    0  0.00000000000E+00  0.00000000000E+00  0.15652985580E+03  0.15652985580E+03  0.00000000000E+00 0. -1.
         -1   -1    0    0    0  501 -0.00000000000E+00 -0.00000000000E+00 -0.16065108301E+03  0.16065108301E+03  0.00000000000E+00 0.  1.
         25    2    1    2    0    0  0.60035385956E+02 -0.99827832044E+02 -0.19083815875E+02  0.17199149978E+03  0.12508813034E+03 0.  0.
         23    2    1    2    0    0 -0.60035385956E+02  0.99827832044E+02  0.14962588661E+02  0.14518943903E+03  0.85359536838E+02 0.  0.
          5    1    3    3  502    0  0.15429928166E+02 -0.73143892695E+02  0.46552204084E+02  0.88162871022E+02  0.41800000000E+01 0.  1.
         -5    1    3    3    0  502  0.44605457789E+02 -0.26683939349E+02 -0.65636019959E+02  0.83828628760E+02  0.41800000000E+01 0.  1.
        -11    1    4    4    0    0 -0.76923151490E+02  0.73675101071E+02 -0.75346370328E+01  0.10677997241E+03  0.00000000000E+00 0.  1.
         11    1    4    4    0    0  0.16887765534E+02  0.26152730973E+02  0.22497225694E+02  0.38409466620E+02  0.00000000000E+00 0. -1.
</event>
<event>
 8    1  0.7052796E-009  0.9662045E+02  0.7561462E-02  0.1287568E+00
          1   -1    0    0  501    0  0.00000000000E+00  0.00000000000E+00  0.70622585051E+02  0.70622585051E+02  0.00000000000E+00 0. -1.
         -1   -1    0    0    0  501 -0.00000000000E+00 -0.00000000000E+00 -0.18814906226E+03  0.18814906226E+03  0.00000000000E+00 0.  1.
         25    2    1    2    0    0  0.28631357190E+02  0.17626171447E+02 -0.88133073417E+02  0.15666897548E+03  0.12508913907E+03 0.  0.
         23    2    1    2    0    0 -0.28631357190E+02 -0.17626171447E+02 -0.29393403793E+02  0.10210267184E+03  0.91818009536E+02 0.  0.
          5    1    3    3  502    0 -0.42753882581E+02  0.13716705345E+02 -0.26782513812E+01  0.45173973832E+02  0.41800000000E+01 0. -1.
         -5    1    3    3    0  502  0.71385239772E+02  0.39094661024E+01 -0.85454822036E+02  0.11149500164E+03  0.41800000000E+01 0. -1.
        -11    1    4    4    0    0 -0.34487360251E+02  0.19044802116E+02 -0.46728845393E+02  0.61120107137E+02  0.00000000000E+00 0.  1.
         11    1    4    4    0    0  0.58560030602E+01 -0.36670973563E+02  0.17335441600E+02  0.40982564700E+02  0.00000000000E+00 0. -1.
</event>
<event>
 8    1  0.7052796E-009  0.9213967E+02  0.7561462E-02  0.1297751E+00
         -1   -1    0    0    0  501 -0.00000000000E+00  0.00000000000E+00  0.27035944982E+02  0.27035944982E+02  0.00000000000E+00 0.  1.
          1   -1    0    0  501    0  0.00000000000E+00 -0.00000000000E+00 -0.77311128427E+03  0.77311128427E+03  0.00000000000E+00 0. -1.
         25    2    1    2    0    0 -0.12269285039E+02  0.62530181432E+02 -0.59602570083E+03  0.61233426350E+03  0.12508419269E+03 0.  0.
         23    2    1    2    0    0  0.12269285039E+02 -0.62530181432E+02 -0.15004963846E+03  0.18781296575E+03  0.93264447448E+02 0.  0.
          5    1    3    3  502    0 -0.16177509537E+02  0.64405412653E+02 -0.60090878656E+03  0.60458135198E+03  0.41800000000E+01 0.  1.
         -5    1    3    3    0  502  0.39082244980E+01 -0.18752312207E+01  0.48830857288E+01  0.77529115236E+01  0.41800000000E+01 0.  1.
        -11    1    4    4    0    0 -0.28623355556E+02 -0.64721703372E+02 -0.81255712342E+02  0.10775289397E+03  0.00000000000E+00 0.  1.
         11    1    4    4    0    0  0.40892640596E+02  0.21915219395E+01 -0.68793926114E+02  0.80060071781E+02  0.00000000000E+00 0. -1.
</event>
<event>
 8    1  0.7052796E-009  0.8495095E+02  0.7561462E-02  0.1315561E+00
          4   -1    0    0  501    0  0.00000000000E+00  0.00000000000E+00  0.62857933384E+02  0.62857933384E+02  0.00000000000E+00 0. -1.
         -4   -1    0    0    0  501 -0.00000000000E+00 -0.00000000000E+00 -0.26479294965E+03  0.26479294965E+03  0.00000000000E+00 0.  1.
         25    2    1    2    0    0  0.18356633101E+02 -0.15072655659E+02 -0.38859617920E+02  0.13312254743E+03  0.12508953514E+03 0.  0.
         23    2    1    2    0    0 -0.18356633101E+02  0.15072655659E+02 -0.16307539835E+03  0.19452833561E+03  0.10336119620E+03 0.  0.
          5    1    3    3  502    0  0.24057850897E+02  0.26500156193E+02  0.33610351109E+02  0.49276430164E+02  0.41800000000E+01 0. -1.
         -5    1    3    3    0  502 -0.57012177964E+01 -0.41572811851E+02 -0.72469969029E+02  0.83846117266E+02  0.41800000000E+01 0. -1.
        -11    1    4    4    0    0  0.24270989040E+02 -0.23810165503E+02 -0.11341754957E+03  0.11840416142E+03  0.00000000000E+00 0.  1.
         11    1    4    4    0    0 -0.42627622141E+02  0.38882821162E+02 -0.49657848776E+02  0.76124174189E+02  0.00000000000E+00 0. -1.
</event>
<event>
 8    1  0.7052796E-009  0.1748934E+03  0.7561462E-02  0.1172839E+00
         -2   -1    0    0    0  501 -0.00000000000E+00  0.00000000000E+00  0.15966420839E+02  0.15966420839E+02  0.00000000000E+00 0. -1.
          2   -1    0    0  501    0  0.00000000000E+00 -0.00000000000E+00 -0.23587191157E+04  0.23587191157E+04  0.00000000000E+00 0.  1.
         25    2    1    2    0    0 -0.13991517087E+03  0.58477230777E+01 -0.16726034471E+04  0.16831102521E+04  0.12508948153E+03 0.  0.
         23    2    1    2    0    0  0.13991517087E+03 -0.58477230777E+01 -0.67014924776E+03  0.69157528449E+03  0.97805464774E+02 0.  0.
          5    1    3    3  502    0 -0.90560247902E+01  0.42373198293E+02 -0.65860358924E+03  0.66004065002E+03  0.41800000000E+01 0.  1.
         -5    1    3    3    0  502 -0.13085914608E+03 -0.36525475215E+02 -0.10139998579E+04  0.10230696020E+04  0.41800000000E+01 0.  1.
        -11    1    4    4    0    0  0.89122922287E+01  0.32604500186E+02 -0.15483224954E+03  0.15847873006E+03  0.00000000000E+00 0. -1.
         11    1    4    4    0    0  0.13100287864E+03 -0.38452223264E+02 -0.51531699822E+03  0.53309655443E+03  0.00000000000E+00 0.  1.
</event>
<event>
 8    1  0.7052796E-009  0.9897358E+02  0.7561462E-02  0.1282469E+00
          1   -1    0    0  501    0  0.00000000000E+00  0.00000000000E+00  0.53638688543E+03  0.53638688543E+03  0.00000000000E+00 0. -1.
         -1   -1    0    0    0  501 -0.00000000000E+00 -0.00000000000E+00 -0.36498338577E+02  0.36498338577E+02  0.00000000000E+00 0.  1.
         25    2    1    2    0    0 -0.19958025340E+02 -0.67984158163E+02  0.38129978879E+03  0.40750329325E+03  0.12509690860E+03 0.  0.
         23    2    1    2    0    0  0.19958025340E+02  0.67984158163E+02  0.11858875806E+03  0.16538193075E+03  0.90927008889E+02 0.  0.
          5    1    3    3  502    0 -0.27492170806E+02 -0.71015959491E+02  0.38847346336E+03  0.39588911338E+03  0.41800000000E+01 0.  1.
         -5    1    3    3    0  502  0.75341454659E+01  0.30318013287E+01 -0.71736745692E+01  0.11614179869E+02  0.41800000000E+01 0.  1.
        -11    1    4    4    0    0  0.31787821501E+02 -0.10268441837E+02  0.19914718770E+02  0.38890905328E+02  0.00000000000E+00 0.  1.
         11    1    4    4    0    0 -0.11829796161E+02  0.78252600000E+02  0.98674039289E+02  0.12649102543E+03  0.00000000000E+00 0. -1.
</event>
<event>
 8    1  0.7052796E-009  0.9925316E+02  0.7561462E-02  0.1281874E+00
          1   -1    0    0  501    0  0.00000000000E+00  0.00000000000E+00  0.44816492181E+03  0.44816492181E+03  0.00000000000E+00 0. -1.
         -1   -1    0    0    0  501 -0.00000000000E+00 -0.00000000000E+00 -0.47331371452E+02  0.47331371452E+02  0.00000000000E+00 0.  1.
         25    2    1    2    0    0 -0.78209176258E+02 -0.50782437926E+02  0.17496570720E+03  0.23442577216E+03  0.12508762011E+03 0.  0.
         23    2    1    2    0    0  0.78209176258E+02  0.50782437926E+02  0.22586784316E+03  0.26107052110E+03  0.91902139048E+02 0.  0.
          5    1    3    3  502    0 -0.67799401948E+02 -0.31190705108E+02  0.19390399138E+02  0.77220974925E+02  0.41800000000E+01 0.  1.
         -5    1    3    3    0  502 -0.10409774311E+02 -0.19591732818E+02  0.15557530806E+03  0.15720479724E+03  0.41800000000E+01 0.  1.
        -11    1    4    4    0    0  0.60439685763E+02  0.16631420585E+02  0.47645924576E+02  0.78738134944E+02  0.00000000000E+00 0.  1.
         11    1    4    4    0    0  0.17769490495E+02  0.34151017340E+02  0.17822191858E+03  0.18233238616E+03  0.00000000000E+00 0. -1.
</event>
<event>
 8    1  0.7052796E-009  0.6686085E+02  0.7561462E-02  0.1371105E+00
          1   -1    0    0  501    0  0.00000000000E+00  0.00000000000E+00  0.46099260996E+02  0.46099260996E+02  0.00000000000E+00 0. -1.
         -1   -1    0    0    0  501 -0.00000000000E+00 -0.00000000000E+00 -0.29096412628E+03  0.29096412628E+03  0.00000000000E+00 0.  1.
         25    2    1    2    0    0 -0.17735827612E+02  0.16204414929E+02 -0.10539195593E+03  0.16533254488E+03  0.12510093276E+03 0.  0.
         23    2    1    2    0    0  0.17735827612E+02 -0.16204414929E+02 -0.13947290935E+03  0.17173084239E+03  0.97270998466E+02 0.  0.
          5    1    3    3  502    0 -0.49585612290E+01  0.18969637925E+02  0.26220492374E+02  0.33006379881E+02  0.41800000000E+01 0.  1.
         -5    1    3    3    0  502 -0.12777266383E+02 -0.27652229963E+01 -0.13161244831E+03  0.13232616500E+03  0.41800000000E+01 0.  1.
        -11    1    4    4    0    0 -0.27394416344E+02  0.26284448111E+02 -0.58882500201E+02  0.70060510198E+02  0.00000000000E+00 0.  1.
         11    1    4    4    0    0  0.45130243956E+02 -0.42488863040E+02 -0.80590409150E+02  0.10167033220E+03  0.00000000000E+00 0. -1.
</event>
<event>
 8    1  0.7052796E-009  0.1235104E+03  0.7561462E-02  0.1237416E+00
          2   -1    0    0  501    0  0.00000000000E+00  0.00000000000E+00  0.20084734844E+04  0.20084734844E+04  0.00000000000E+00 0.  1.
         -2   -1    0    0    0  501 -0.00000000000E+00 -0.00000000000E+00 -0.19405170390E+02  0.19405170390E+02  0.00000000000E+00 0. -1.
         25    2    1    2    0    0  0.14658236237E+02  0.10383402375E+03  0.16984641379E+04  0.17062891708E+04  0.12508372473E+03 0.  0.
         23    2    1    2    0    0 -0.14658236237E+02 -0.10383402375E+03  0.29060417614E+03  0.32158948404E+03  0.89289644867E+02 0.  0.
          5    1    3    3  502    0  0.39010425311E+02  0.62840926802E+02  0.39142500527E+03  0.39837394809E+03  0.41800000000E+01 0. -1.
         -5    1    3    3    0  502 -0.24352189075E+02  0.40993096947E+02  0.13070391326E+04  0.13079152227E+04  0.41800000000E+01 0. -1.
        -11    1    4    4    0    0 -0.35572756254E+02 -0.24912866864E+02  0.44007386092E+02  0.61828164727E+02  0.00000000000E+00 0.  1.
         11    1    4    4    0    0  0.20914520017E+02 -0.78921156886E+02  0.24659679004E+03  0.25976131931E+03  0.00000000000E+00 0. -1.
</event>
<event>
 8    1  0.7052796E-009  0.9514657E+02  0.7561462E-02  0.1290846E+00
          1   -1    0    0  501    0  0.00000000000E+00  0.00000000000E+00  0.12721504114E+03  0.12721504114E+03  0.00000000000E+00 0. -1.
         -1   -1    0    0    0  501 -0.00000000000E+00 -0.00000000000E+00 -0.13992805054E+03  0.13992805054E+03  0.00000000000E+00 0.  1.
         25    2    1    2    0    0 -0.16140260892E+02  0.45254923406E+02  0.54201433568E+02  0.14453975760E+03  0.12508169335E+03 0.  0.
         23    2    1    2    0    0  0.16140260892E+02 -0.45254923406E+02 -0.66914442967E+02  0.12260333408E+03  0.90804838723E+02 0.  0.
          5    1    3    3  502    0 -0.62610639058E+02  0.26727607189E+02 -0.32031466123E+01  0.68280228892E+02  0.41800000000E+01 0. -1.
         -5    1    3    3    0  502  0.46470378166E+02  0.18527316217E+02  0.57404580180E+02  0.76259528708E+02  0.41800000000E+01 0. -1.
        -11    1    4    4    0    0 -0.16085110262E+02  0.29703488495E+00  0.15982031858E+02  0.22676956237E+02  0.00000000000E+00 0. -1.
         11    1    4    4    0    0  0.32225371154E+02 -0.45551958291E+02 -0.82896474825E+02  0.99926377842E+02  0.00000000000E+00 0.  1.
</event>
<event>
 8    1  0.7052796E-009  0.1408800E+03  0.7561462E-02  0.1212150E+00
         -3   -1    0    0    0  501 -0.00000000000E+00  0.00000000000E+00  0.24535839513E+03  0.24535839513E+03  0.00000000000E+00 0.  1.
          3   -1    0    0  501    0  0.00000000000E+00 -0.00000000000E+00 -0.85834918540E+02  0.85834918540E+02  0.00000000000E+00 0. -1.
         25    2    1    2    0    0 -0.92697495725E+02 -0.75654259317E+01  0.11975868110E+03  0.19657001182E+03  0.12509023329E+03 0.  0.
         23    2    1    2    0    0  0.92697495725E+02  0.75654259317E+01  0.39764795491E+02  0.13462330185E+03  0.88837678139E+02 0.  0.
          5    1    3    3  502    0  0.86077262648E+01  0.40228309502E+02  0.48548845845E+02  0.63772036738E+02  0.41800000000E+01 0. -1.
         -5    1    3    3    0  502 -0.10130522199E+03 -0.47793735434E+02  0.71209835251E+02  0.13279797508E+03  0.41800000000E+01 0. -1.
        -11    1    4    4    0    0 -0.11839559586E+02  0.19797529642E+02  0.36818394753E+01  0.23359650961E+02  0.00000000000E+00 0.  1.
         11    1    4    4    0    0  0.10453705531E+03 -0.12232103710E+02  0.36082956016E+02  0.11126365089E+03  0.00000000000E+00 0. -1.
</event>
<event>
 8    1  0.7052796E-009  0.1066316E+03  0.7561462E-02  0.1266938E+00
          4   -1    0    0  501    0  0.00000000000E+00  0.00000000000E+00  0.12591709649E+03  0.12591709649E+03  0.00000000000E+00 0. -1.
         -4   -1    0    0    0  501 -0.00000000000E+00 -0.00000000000E+00 -0.16501798228E+03  0.16501798228E+03  0.00000000000E+00 0.  1.
         25    2    1    2    0    0  0.32047104200E+02  0.16551289619E+02  0.67656850761E+02  0.14671639624E+03  0.12508912581E+03 0.  0.
         23    2    1    2    0    0 -0.32047104200E+02 -0.16551289619E+02 -0.10675773655E+03  0.14421868253E+03  0.90004733207E+02 0.  0.
          5    1    3    3  502    0  0.70729893386E+02  0.28403463544E+02  0.11226282943E+02  0.77155533751E+02  0.41800000000E+01 0. -1.
         -5    1    3    3    0  502 -0.38682789185E+02 -0.11852173924E+02  0.56430567818E+02  0.69560862489E+02  0.41800000000E+01 0. -1.
        -11    1    4    4    0    0 -0.61451665003E+02  0.20068345265E+01 -0.59619538081E+02  0.85643586085E+02  0.00000000000E+00 0. -1.
         11    1    4    4    0    0  0.29404560803E+02 -0.18558124146E+02 -0.47138198474E+02  0.58575096442E+02  0.00000000000E+00 0.  1.
</event>
<event>
 8    1  0.7052796E-009  0.1433487E+03  0.7561462E-02  0.1208893E+00
         -1   -1    0    0    0  501 -0.00000000000E+00  0.00000000000E+00  0.11319485363E+03  0.11319485363E+03  0.00000000000E+00 0.  1.
          1   -1    0    0  501    0  0.00000000000E+00 -0.00000000000E+00 -0.26668985273E+03  0.26668985273E+03  0.00000000000E+00 0. -1.
         25    2    1    2    0    0 -0.12843813373E+03 -0.13739764369E+01 -0.35914357902E+02  0.18285811289E+03  0.12509598850E+03 0.  0.
         23    2    1    2    0    0  0.12843813373E+03  0.13739764369E+01 -0.11758064120E+03  0.19702659347E+03  0.92173908131E+02 0.  0.
          5    1    3    3  502    0 -0.49174282330E+02  0.58065150046E+01  0.46611003646E+02  0.68131371042E+02  0.41800000000E+01 0. -1.
         -5    1    3    3    0  502 -0.79263851405E+02 -0.71804914415E+01 -0.82525361549E+02  0.11472674185E+03  0.41800000000E+01 0. -1.
        -11    1    4    4    0    0  0.94504132514E+02  0.42810638531E+02 -0.68042141646E+02  0.12407060439E+03  0.00000000000E+00 0.  1.
         11    1    4    4    0    0  0.33934001220E+02 -0.41436662095E+02 -0.49538499555E+02  0.72955989079E+02  0.00000000000E+00 0. -1.
</event>
<event>
 8    1  0.7052796E-009  0.1290833E+03  0.7561462E-02  0.1228822E+00
         -2   -1    0    0    0  501 -0.00000000000E+00  0.00000000000E+00  0.89918579660E+02  0.89918579660E+02  0.00000000000E+00 0.  1.
          2   -1    0    0  501    0  0.00000000000E+00 -0.00000000000E+00 -0.24836028015E+03  0.24836028015E+03  0.00000000000E+00 0. -1.
         25    2    1    2    0    0  0.79100597342E+02  0.64084307585E+02 -0.97999032630E+02  0.18872511268E+03  0.12509858025E+03 0.  0.
         23    2    1    2    0    0 -0.79100597342E+02 -0.64084307585E+02 -0.60442667859E+02  0.14955374713E+03  0.91374527112E+02 0.  0.
          5    1    3    3  502    0 -0.63899702404E+01  0.41514390762E+02 -0.90536147344E+02  0.99892656066E+02  0.41800000000E+01 0. -1.
         -5    1    3    3    0  502  0.85490567582E+02  0.22569916823E+02 -0.74628852863E+01  0.88832456612E+02  0.41800000000E+01 0. -1.
        -11    1    4    4    0    0 -0.66856384332E+02 -0.49396144109E+01 -0.58737888103E+02  0.89130889232E+02  0.00000000000E+00 0.  1.
         11    1    4    4    0    0 -0.12244213010E+02 -0.59144693174E+02 -0.17047797566E+01  0.60422857900E+02  0.00000000000E+00 0. -1.
</event>
<event>
 8    1  0.7052796E-009  0.9550481E+02  0.7561462E-02  0.1290043E+00
          2   -1    0    0  501    0  0.00000000000E+00  0.00000000000E+00  0.59944916834E+03  0.59944916834E+03  0.00000000000E+00 0. -1.
         -2   -1    0    0    0  501 -0.00000000000E+00 -0.00000000000E+00 -0.25517010607E+02  0.25517010607E+02  0.00000000000E+00 0.  1.
         25    2    1    2    0    0  0.67928183498E+00  0.58597264441E+02  0.34258462961E+03  0.36938317579E+03  0.12508237802E+03 0.  0.
         23    2    1    2    0    0 -0.67928183498E+00 -0.58597264441E+02  0.23134752812E+03  0.25558300315E+03  0.91470716124E+02 0.  0.
          5    1    3    3  502    0  0.50623875779E+02  0.63577010071E+02  0.15388084719E+03  0.17407354923E+03  0.41800000000E+01 0. -1.
         -5    1    3    3    0  502 -0.49944593944E+02 -0.49797456299E+01  0.18870378241E+03  0.19530962656E+03  0.41800000000E+01 0. -1.
        -11    1    4    4    0    0 -0.39920526468E+01 -0.47940380323E+02  0.23785053383E+03  0.24266662933E+03  0.00000000000E+00 0. -1.
         11    1    4    4    0    0  0.33127708118E+01 -0.10656884117E+02 -0.65030057022E+01  0.12916373822E+02  0.00000000000E+00 0.  1.
</event>
<event>
 8    1  0.7052796E-009  0.1234738E+03  0.7561462E-02  0.1237474E+00
         -1   -1    0    0    0  501 -0.00000000000E+00  0.00000000000E+00  0.10412083297E+03  0.10412083297E+03  0.00000000000E+00 0.  1.
          1   -1    0    0  501    0  0.00000000000E+00 -0.00000000000E+00 -0.20653870569E+03  0.20653870569E+03  0.00000000000E+00 0. -1.
         25    2    1    2    0    0 -0.52278590549E+01  0.68948584096E+02 -0.13079225675E+03  0.19373607356E+03  0.12508322835E+03 0.  0.
         23    2    1    2    0    0  0.52278590549E+01 -0.68948584096E+02  0.28374384034E+02  0.11692346510E+03  0.89915256000E+02 0.  0.
          5    1    3    3  502    0  0.53931759220E+02  0.43802433090E+02 -0.33992801097E+02  0.77461414417E+02  0.41800000000E+01 0.  1.
         -5    1    3    3    0  502 -0.59159618274E+02  0.25146151006E+02 -0.96799455652E+02  0.11627465914E+03  0.41800000000E+01 0.  1.
        -11    1    4    4    0    0 -0.41946752707E+02 -0.27766304087E+02  0.71862666716E+01  0.50814762953E+02  0.00000000000E+00 0.  1.
         11    1    4    4    0    0  0.47174611762E+02 -0.41182280009E+02  0.21188117362E+02  0.66108702143E+02  0.00000000000E+00 0. -1.
</event>
<event>
 8    1  0.7052796E-009  0.1151247E+03  0.7561462E-02  0.1251364E+00
          1   -1    0    0  501    0  0.00000000000E+00  0.00000000000E+00  0.16370255889E+04  0.16370255889E+04  0.00000000000E+00 0. -1.
         -1   -1    0    0    0  501 -0.00000000000E+00 -0.00000000000E+00 -0.11360853825E+02  0.11360853825E+02  0.00000000000E+00 0.  1.
         25    2    1    2    0    0  0.10517737680E+02 -0.61852100980E+02  0.12182460191E+04  0.12262575784E+04  0.12509188749E+03 0.  0.
         23    2    1    2    0    0 -0.10517737680E+02  0.61852100980E+02  0.40741871597E+03  0.42212886433E+03  0.90920090036E+02 0.  0.
          5    1    3    3  502    0 -0.39058242680E+02 -0.75933577294E+02  0.87057111828E+03  0.87475882326E+03  0.41800000000E+01 0.  1.
         -5    1    3    3    0  502  0.49575980360E+02  0.14081476314E+02  0.34767490085E+03  0.35149875517E+03  0.41800000000E+01 0.  1.
        -11    1    4    4    0    0 -0.12347562450E+02  0.76903563941E+02  0.39477874667E+03  0.40238896514E+03  0.00000000000E+00 0. -1.
         11    1    4    4    0    0  0.18298247709E+01 -0.15051462961E+02  0.12639969307E+02  0.19739899190E+02  0.00000000000E+00 0.  1.
</event>
<event>
 8    1  0.7052796E-009  0.9748933E+02  0.7561462E-02  0.1285666E+00
         -2   -1    0    0    0  501 -0.00000000000E+00  0.00000000000E+00  0.16025412472E+03  0.16025412472E+03  0.00000000000E+00 0.  1.
          2   -1    0    0  501    0  0.00000000000E+00 -0.00000000000E+00 -0.78014495172E+02  0.78014495172E+02  0.00000000000E+00 0. -1.
         25    2    1    2    0    0  0.83839745236E+01  0.16442400408E+02  0.25670021380E+02  0.12902412796E+03  0.12509049539E+03 0.  0.
         23    2    1    2    0    0 -0.83839745236E+01 -0.16442400408E+02  0.56569608168E+02  0.10924449193E+03  0.91616564493E+02 0.  0.
          5    1    3    3  502    0 -0.35053788594E+02  0.52325595079E+02  0.34353671114E+02  0.71863642505E+02  0.41800000000E+01 0. -1.
         -5    1    3    3    0  502  0.43437763118E+02 -0.35883194671E+02 -0.86836497338E+01  0.57160485452E+02  0.41800000000E+01 0. -1.
        -11    1    4    4    0    0  0.17645639302E+01  0.28871110578E+02  0.55743357442E+02  0.62801087656E+02  0.00000000000E+00 0.  1.
         11    1    4    4    0    0 -0.10148538454E+02 -0.45313510986E+02  0.82625072637E+00  0.46443404277E+02  0.00000000000E+00 0. -1.
</event>
<event>
 8    1  0.7052796E-009  0.8195403E+02  0.7561462E-02  0.1323596E+00
         -2   -1    0    0    0  501 -0.00000000000E+00  0.00000000000E+00  0.11171895694E+03  0.11171895694E+03  0.00000000000E+00 0.  1.
          2   -1    0    0  501    0  0.00000000000E+00 -0.00000000000E+00 -0.13904487054E+03  0.13904487054E+03  0.00000000000E+00 0. -1.
         25    2    1    2    0    0  0.31951258804E+02  0.87054580833E+01  0.30867084596E+02  0.13303713771E+03  0.12509770246E+03 0.  0.
         23    2    1    2    0    0 -0.31951258804E+02 -0.87054580833E+01 -0.58192998200E+02  0.11772668977E+03  0.96832228649E+02 0.  0.
          5    1    3    3  502    0  0.25232683483E+02 -0.19577403688E+02  0.74085498969E+02  0.80784259657E+02  0.41800000000E+01 0.  1.
         -5    1    3    3    0  502  0.67185753211E+01  0.28282861771E+02 -0.43218414373E+02  0.52252878057E+02  0.41800000000E+01 0.  1.
        -11    1    4    4    0    0 -0.62145665703E+02  0.15013438512E+02 -0.37090342953E+02  0.73913331964E+02  0.00000000000E+00 0. -1.
         11    1    4    4    0    0  0.30194406900E+02 -0.23718896596E+02 -0.21102655246E+02  0.43813357805E+02  0.00000000000E+00 0.  1.
</event>
<event>
 8    1  0.7052796E-009  0.7238749E+02  0.7561462E-02  0.1352157E+00
          1   -1    0    0  501    0  0.00000000000E+00  0.00000000000E+00  0.19189725753E+03  0.19189725753E+03  0.00000000000E+00 0. -1.
         -1   -1    0    0    0  501 -0.00000000000E+00 -0.00000000000E+00 -0.71158243619E+02  0.71158243619E+02  0.00000000000E+00 0.  1.
         25    2    1    2    0    0  0.77277573740E+01  0.16277992853E+02  0.12246388686E+02  0.12697456079E+03  0.12509146160E+03 0.  0.
         23    2    1    2    0    0 -0.77277573740E+01 -0.16277992853E+02  0.10849262523E+03  0.13608094036E+03  0.80141632850E+02 0.  0.
          5    1    3    3  502    0  0.36590132607E+02 -0.11995305010E+02 -0.43342256253E+02  0.58127005114E+02  0.41800000000E+01 0. -1.
         -5    1    3    3    0  502 -0.28862375233E+02  0.28273297864E+02  0.55588644939E+02  0.68847555674E+02  0.41800000000E+01 0. -1.
        -11    1    4    4    0    0 -0.21169865383E+02 -0.35877481385E+02  0.23501919679E+02  0.47829876641E+02  0.00000000000E+00 0.  1.
         11    1    4    4    0    0  0.13442108009E+02  0.19599488532E+02  0.84990705548E+02  0.88251063722E+02  0.00000000000E+00 0. -1.
</event>
<event>
 8    1  0.7052796E-009  0.7363573E+02  0.7561462E-02  0.1348149E+00
          2   -1    0    0  501    0  0.00000000000E+00  0.00000000000E+00  0.29493535734E+03  0.29493535734E+03  0.00000000000E+00 0. -1.
         -2   -1    0    0    0  501 -0.00000000000E+00 -0.00000000000E+00 -0.46416231928E+02  0.46416231928E+02  0.00000000000E+00 0.  1.
         25    2    1    2    0    0  0.21013696923E+02 -0.26298013658E+02  0.18483686036E+03  0.22570987219E+03  0.12508845061E+03 0.  0.
         23    2    1    2    0    0 -0.21013696923E+02  0.26298013658E+02  0.63682265052E+02  0.11564171708E+03  0.90467755947E+02 0.  0.
          5    1    3    3  502    0  0.38465518360E+02 -0.22832458195E+02  0.52919454644E+01  0.45237090277E+02  0.41800000000E+01 0. -1.
         -5    1    3    3    0  502 -0.17451821436E+02 -0.34655554628E+01  0.17954491490E+03  0.18047278191E+03  0.41800000000E+01 0. -1.
        -11    1    4    4    0    0 -0.44932638208E+02  0.36670214326E+02  0.14197764346E+02  0.59709489258E+02  0.00000000000E+00 0.  1.
         11    1    4    4    0    0  0.23918941284E+02 -0.10372200668E+02  0.49484500705E+02  0.55932227820E+02  0.00000000000E+00 0. -1.
</event>
<event>
 8    1  0.7052796E-009  0.1060869E+03  0.7561462E-02  0.1267993E+00
         -1   -1    0    0    0  501 -0.00000000000E+00  0.00000000000E+00  0.42241756250E+03  0.42241756250E+03  0.00000000000E+00 0.  1.
          1   -1    0    0  501    0  0.00000000000E+00 -0.00000000000E+00 -0.33301768987E+02  0.33301768987E+02  0.00000000000E+00 0. -1.
         25    2    1    2    0    0  0.31763921635E+02 -0.18580932068E+01  0.29215447167E+03  0.31939535438E+03  0.12508700112E+03 0.  0.
         23    2    1    2    0    0 -0.31763921635E+02  0.18580932068E+01  0.96961321839E+02  0.13632397711E+03  0.90389875399E+02 0.  0.
          5    1    3    3  502    0  0.44029022120E+02 -0.54716390191E+02  0.12298413341E+03  0.14168630003E+03  0.41800000000E+01 0.  1.
         -5    1    3    3    0  502 -0.12265100485E+02  0.52858296984E+02  0.16917033826E+03  0.17770905435E+03  0.41800000000E+01 0.  1.
        -11    1    4    4    0    0 -0.10819590668E+02  0.41323316461E+02  0.75527276720E+02  0.86770095968E+02  0.00000000000E+00 0.  1.
         11    1    4    4    0    0 -0.20944330967E+02 -0.39465223254E+02  0.21434045119E+02  0.49553881143E+02  0.00000000000E+00 0. -1.
</event>
<event>
 8    1  0.7052796E-009  0.1211461E+03  0.7561462E-02  0.1241218E+00
          2   -1    0    0  501    0  0.00000000000E+00  0.00000000000E+00  0.47296975931E+03  0.47296975931E+03  0.00000000000E+00 0. -1.
         -2   -1    0    0    0  501 -0.00000000000E+00 -0.00000000000E+00 -0.42992906851E+02  0.42992906851E+02  0.00000000000E+00 0.  1.
         25    2    1    2    0    0 -0.20990639247E+02 -0.89473597640E+02  0.23362743456E+03  0.28049173412E+03  0.12509077952E+03 0.  0.
         23    2    1    2    0    0  0.20990639247E+02  0.89473597640E+02  0.19634941789E+03  0.23547093203E+03  0.91909380998E+02 0.  0.
          5    1    3    3  502    0 -0.34271119371E+02 -0.98115865342E+02  0.94901428247E+02  0.14080122918E+03  0.41800000000E+01 0.  1.
         -5    1    3    3    0  502  0.13280480123E+02  0.86422677021E+01  0.13872600632E+03  0.13969050495E+03  0.41800000000E+01 0.  1.
        -11    1    4    4    0    0  0.21892724488E+02 -0.88140267149E+01  0.11817748325E+02  0.26393893762E+02  0.00000000000E+00 0.  1.
         11    1    4    4    0    0 -0.90208524066E+00  0.98287624355E+02  0.18453166957E+03  0.20907703827E+03  0.00000000000E+00 0. -1.
</event>
<event>
 8    1  0.7052796E-009  0.9588245E+02  0.7561462E-02  0.1289201E+00
          2   -1    0    0  501    0  0.00000000000E+00  0.00000000000E+00  0.44470945132E+02  0.44470945132E+02  0.00000000000E+00 0. -1.
         -2   -1    0    0    0  501 -0.00000000000E+00 -0.00000000000E+00 -0.30878913937E+03  0.30878913937E+03  0.00000000000E+00 0.  1.
         25    2    1    2    0    0  0.30187235647E+02 -0.31099098973E+02 -0.13758358367E+03  0.19093107483E+03  0.12508800777E+03 0.  0.
         23    2    1    2    0    0 -0.30187235647E+02  0.31099098973E+02 -0.12673461058E+03  0.16232900968E+03  0.91709447233E+02 0.  0.
          5    1    3    3  502    0 -0.14399702418E+02 -0.61914892027E+02 -0.30046212395E+02  0.70434739751E+02  0.41800000000E+01 0. -1.
         -5    1    3    3    0  502  0.44586938065E+02  0.30815793055E+02 -0.10753737127E+03  0.12049633508E+03  0.41800000000E+01 0. -1.
        -11    1    4    4    0    0  0.99829520122E+01  0.31998271390E+02 -0.11599107968E+03  0.12073723232E+03  0.00000000000E+00 0.  1.
         11    1    4    4    0    0 -0.40170187659E+02 -0.89917241755E+00 -0.10743530896E+02  0.41591777357E+02  0.00000000000E+00 0. -1.
</event>
<event>
 8    1  0.7052796E-009  0.6674273E+02  0.7561462E-02  0.1371533E+00
          1   -1    0    0  501    0  0.00000000000E+00  0.00000000000E+00  0.32692894597E+03  0.32692894597E+03  0.00000000000E+00 0. -1.
         -1   -1    0    0    0  501 -0.00000000000E+00 -0.00000000000E+00 -0.41464634366E+02  0.41464634366E+02  0.00000000000E+00 0.  1.
         25    2    1    2    0    0 -0.23442443485E+02 -0.29817157986E+02  0.12950936325E+03  0.18401116311E+03  0.12509525136E+03 0.  0.
         23    2    1    2    0    0  0.23442443485E+02  0.29817157986E+02  0.15595494836E+03  0.18438241723E+03  0.90754166841E+02 0.  0.
          5    1    3    3  502    0 -0.24674158405E+02  0.13139276895E+02  0.13726351969E+03  0.14014350120E+03  0.41800000000E+01 0.  1.
         -5    1    3    3    0  502  0.12317149202E+01 -0.42956434880E+02 -0.77541564427E+01  0.43867661910E+02  0.41800000000E+01 0.  1.
        -11    1    4    4    0    0  0.28820048485E+02 -0.28276926006E+01  0.14738873192E+03  0.15020662215E+03  0.00000000000E+00 0. -1.
         11    1    4    4    0    0 -0.53776049995E+01  0.32644850586E+02  0.85662164368E+01  0.34175795080E+02  0.00000000000E+00 0.  1.
</event>
<event>
 8    1  0.7052796E-009  0.2179246E+03  0.7561462E-02  0.1135440E+00
          1   -1    0    0  501    0  0.00000000000E+00  0.00000000000E+00  0.85332039008E+03  0.85332039008E+03  0.00000000000E+00 0. -1.
         -1   -1    0    0    0  501 -0.00000000000E+00 -0.00000000000E+00 -0.59091131800E+02  0.59091131800E+02  0.00000000000E+00 0.  1.
         25    2    1    2    0    0  0.19565655195E+03 -0.13832774427E+02  0.43591547068E+03  0.49410799060E+03  0.12509027468E+03 0.  0.
         23    2    1    2    0    0 -0.19565655195E+03  0.13832774427E+02  0.35831378760E+03  0.41830353128E+03  0.90090187756E+02 0.  0.
          5    1    3    3  502    0  0.16829319721E+03 -0.49796015678E+02  0.39789991565E+03  0.43490695405E+03  0.41800000000E+01 0. -1.
         -5    1    3    3    0  502  0.27363354744E+02  0.35963241251E+02  0.38015555036E+02  0.59201036552E+02  0.41800000000E+01 0. -1.
        -11    1    4    4    0    0 -0.73448348032E+02 -0.37371584600E+02  0.11885440273E+03  0.14462940300E+03  0.00000000000E+00 0. -1.
         11    1    4    4    0    0 -0.12220820392E+03  0.51204359028E+02  0.23945938487E+03  0.27367412828E+03  0.00000000000E+00 0.  1.
</event>
<event>
 8    1  0.7052796E-009  0.9139612E+02  0.7561462E-02  0.1299506E+00
          3   -1    0    0  501    0  0.00000000000E+00  0.00000000000E+00  0.29384924910E+03  0.29384924910E+03  0.00000000000E+00 0. -1.
         -3   -1    0    0    0  501 -0.00000000000E+00 -0.00000000000E+00 -0.50204786487E+02  0.50204786487E+02  0.00000000000E+00 0.  1.
         25    2    1    2    0    0 -0.44430300853E+02 -0.66265132826E+01  0.86202111807E+02  0.15841914487E+03  0.12509140285E+03 0.  0.
         23    2    1    2    0    0  0.44430300853E+02  0.66265132826E+01  0.15744235081E+03  0.18563489073E+03  0.87488607910E+02 0.  0.
          5    1    3    3  502    0 -0.76663308082E+01 -0.63723273271E+02  0.34661643794E+02  0.73063877087E+02  0.41800000000E+01 0. -1.
         -5    1    3    3    0  502 -0.36763970045E+02  0.57096759988E+02  0.51540468013E+02  0.85355267779E+02  0.41800000000E+01 0. -1.
        -11    1    4    4    0    0  0.31039159791E+02 -0.64688122386E+01  0.16303376060E+03  0.16608817558E+03  0.00000000000E+00 0. -1.
         11    1    4    4    0    0  0.13391141062E+02  0.13095325521E+02 -0.55914097916E+01  0.19546715144E+02  0.00000000000E+00 0.  1.
</event>
<event>
 8    1  0.7052796E-009  0.7478704E+02  0.7561462E-02  0.1344532E+00
          1   -1    0    0  501    0  0.00000000000E+00  0.00000000000E+00  0.24202009876E+03  0.24202009876E+03  0.00000000000E+00 0. -1.
         -1   -1    0    0    0  501 -0.00000000000E+00 -0.00000000000E+00 -0.50394689857E+02  0.50394689857E+02  0.00000000000E+00 0.  1.
         25    2    1    2    0    0 -0.18910379547E+02  0.22945519476E+01  0.87728926303E+02  0.15396614743E+03  0.12508534135E+03 0.  0.
         23    2    1    2    0    0  0.18910379547E+02 -0.22945519476E+01  0.10389648260E+03  0.13844864119E+03  0.89502400676E+02 0.  0.
          5    1    3    3  502    0 -0.36484722460E+01  0.44352794538E+02  0.98139610810E+02  0.10783940533E+03  0.41800000000E+01 0. -1.
         -5    1    3    3    0  502 -0.15261907301E+02 -0.42058242591E+02 -0.10410684507E+02  0.46126742094E+02  0.41800000000E+01 0. -1.
        -11    1    4    4    0    0  0.39279081128E+02  0.10735313402E+01  0.76737740390E+01  0.40036052400E+02  0.00000000000E+00 0.  1.
         11    1    4    4    0    0 -0.20368701581E+02 -0.33680832879E+01  0.96222708558E+02  0.98412588785E+02  0.00000000000E+00 0. -1.
</event>
<event>
 8    1  0.7052796E-009  0.2440109E+03  0.7561462E-02  0.1117149E+00
          2   -1    0    0  501    0  0.00000000000E+00  0.00000000000E+00  0.80955423571E+03  0.80955423571E+03  0.00000000000E+00 0. -1.
         -2   -1    0    0    0  501 -0.00000000000E+00 -0.00000000000E+00 -0.86708495285E+02  0.86708495285E+02  0.00000000000E+00 0.  1.
         25    2    1    2    0    0 -0.23234167489E+03 -0.51740113745E+02  0.31535481938E+03  0.41443695093E+03  0.12509848495E+03 0.  0.
         23    2    1    2    0    0  0.23234167489E+03  0.51740113745E+02  0.40749092105E+03  0.48182578006E+03  0.97198448211E+02 0.  0.
          5    1    3    3  502    0 -0.10126306071E+03 -0.20359235884E+02  0.45864166992E+02  0.11309155656E+03  0.41800000000E+01 0.  1.
         -5    1    3    3    0  502 -0.13107861417E+03 -0.31380877861E+02  0.26949065238E+03  0.30134539438E+03  0.41800000000E+01 0.  1.
        -11    1    4    4    0    0  0.53088457689E+02  0.46336038826E+02  0.17161006407E+03  0.18551395345E+03  0.00000000000E+00 0. -1.
         11    1    4    4    0    0  0.17925321720E+03  0.54040749190E+01  0.23588085698E+03  0.29631182661E+03  0.00000000000E+00 0.  1.
</event>
<event>
 8    1  0.7052796E-009  0.9887975E+02  0.7561462E-02  0.1282669E+00
         -1   -1    0    0    0  501 -0.00000000000E+00  0.00000000000E+00  0.12119235844E+03  0.12119235844E+03  0.00000000000E+00 0.  1.
          1   -1    0    0  501    0  0.00000000000E+00 -0.00000000000E+00 -0.11580701989E+03  0.11580701989E+03  0.00000000000E+00 0. -1.
         25    2    1    2    0    0  0.93944684110E+01  0.31043549177E+02 -0.32260492561E+02  0.13319263283E+03  0.12509028770E+03 0.  0.
         23    2    1    2    0    0 -0.93944684110E+01 -0.31043549177E+02  0.37645831112E+02  0.10380674550E+03  0.91140955825E+02 0.  0.
          5    1    3    3  502    0  0.54067107128E+02  0.35888566514E+02  0.16155964941E+02  0.67005439203E+02  0.41800000000E+01 0.  1.
         -5    1    3    3    0  502 -0.44672638717E+02 -0.48450173365E+01 -0.48416457502E+02  0.66187193625E+02  0.41800000000E+01 0.  1.
        -11    1    4    4    0    0 -0.18550377043E+02 -0.57071681544E+02  0.45281831133E+02  0.75178039037E+02  0.00000000000E+00 0.  1.
         11    1    4    4    0    0  0.91559086318E+01  0.26028132367E+02 -0.76360000210E+01  0.28628706462E+02  0.00000000000E+00 0. -1.
</event>
<event>
 8    1  0.7052796E-009  0.9641360E+02  0.7561462E-02  0.1288024E+00
         -2   -1    0    0    0  501 -0.00000000000E+00  0.00000000000E+00  0.64715904989E+02  0.64715904989E+02  0.00000000000E+00 0.  1.
          2   -1    0    0  501    0  0.00000000000E+00 -0.00000000000E+00 -0.21796808024E+03  0.21796808024E+03  0.00000000000E+00 0. -1.
         25    2    1    2    0    0  0.36808974909E+02 -0.32082723052E+02 -0.92764954717E+02  0.16320291251E+03  0.12508258102E+03 0.  0.
         23    2    1    2    0    0 -0.36808974909E+02  0.32082723052E+02 -0.60487220531E+02  0.11948107272E+03  0.90734894823E+02 0.  0.
          5    1    3    3  502    0  0.14043255070E+02  0.34277295102E+02  0.10099634028E+02  0.38621509292E+02  0.41800000000E+01 0.  1.
         -5    1    3    3    0  502  0.22765719839E+02 -0.66360018154E+02 -0.10286458875E+03  0.12458140321E+03  0.41800000000E+01 0.  1.
        -11    1    4    4    0    0 -0.46800673525E+02 -0.48097438705E+01  0.10282560687E+01  0.47058410396E+02  0.00000000000E+00 0.  1.
         11    1    4    4    0    0  0.99916986157E+01  0.36892466922E+02 -0.61515476600E+02  0.72422662324E+02  0.00000000000E+00 0. -1.
</event>
<event>
 8    1  0.7052796E-009  0.1290351E+03  0.7561462E-02  0.1228894E+00
         -3   -1    0    0    0  501 -0.00000000000E+00  0.00000000000E+00  0.24229318656E+03  0.24229318656E+03  0.00000000000E+00 0.  1.
          3   -1    0    0  501    0  0.00000000000E+00 -0.00000000000E+00 -0.74227952473E+02  0.74227952473E+02  0.00000000000E+00 0. -1.
         25    2    1    2    0    0 -0.71197437273E+02 -0.32705932889E+02  0.73324965377E+02  0.16480934028E+03  0.12508722947E+03 0.  0.
         23    2    1    2    0    0  0.71197437273E+02  0.32705932889E+02  0.94740268713E+02  0.15171179876E+03  0.88893184474E+02 0.  0.
          5    1    3    3  502    0  0.17826222362E+02 -0.51154953634E+02  0.41590579181E+02  0.68424061276E+02  0.41800000000E+01 0. -1.
         -5    1    3    3    0  502 -0.89023659635E+02  0.18449020745E+02  0.31734386196E+02  0.96385279003E+02  0.41800000000E+01 0. -1.
        -11    1    4    4    0    0 -0.46956878038E+01  0.36439781003E+02  0.54503915242E+02  0.65731148630E+02  0.00000000000E+00 0.  1.
         11    1    4    4    0    0  0.75893125076E+02 -0.37338481144E+01  0.40236353471E+02  0.85980650127E+02  0.00000000000E+00 0. -1.
</event>
<event>
 8    1  0.7052796E-009  0.1564913E+03  0.7561462E-02  0.1192716E+00
          2   -1    0    0  501    0  0.00000000000E+00  0.00000000000E+00  0.10955354636E+04  0.10955354636E+04  0.00000000000E+00 0. -1.
         -2   -1    0    0    0  501 -0.00000000000E+00 -0.00000000000E+00 -0.23411771290E+02  0.23411771290E+02  0.00000000000E+00 0.  1.
         25    2    1    2    0    0 -0.21584601504E+02  0.11523910349E+03  0.55544121725E+03  0.58129885229E+03  0.12508982319E+03 0.  0.
         23    2    1    2    0    0  0.21584601504E+02 -0.11523910349E+03  0.51668247506E+03  0.53764838260E+03  0.91427880183E+02 0.  0.
          5    1    3    3  502    0 -0.71313389897E+02  0.42293167456E+02  0.27571622792E+03  0.28794308870E+03  0.41800000000E+01 0.  1.
         -5    1    3    3    0  502  0.49728788393E+02  0.72945936038E+02  0.27972498933E+03  0.29335576360E+03  0.41800000000E+01 0.  1.
        -11    1    4    4    0    0  0.38425314539E+02 -0.17184732590E+02  0.87678340989E+02  0.97258990897E+02  0.00000000000E+00 0.  1.
         11    1    4    4    0    0 -0.16840713035E+02 -0.98054370904E+02  0.42900413408E+03  0.44038939170E+03  0.00000000000E+00 0. -1.
</event>
<event>
 8    1  0.7052796E-009  0.3877454E+03  0.7561462E-02  0.1048108E+00
         -1   -1    0    0    0  501 -0.00000000000E+00  0.00000000000E+00  0.35097588503E+03  0.35097588503E+03  0.00000000000E+00 0.  1.
          1   -1    0    0  501    0  0.00000000000E+00 -0.00000000000E+00 -0.46282568175E+03  0.46282568175E+03  0.00000000000E+00 0. -1.
         25    2    1    2    0    0 -0.41430125154E+02 -0.37181356981E+03 -0.15954843832E+03  0.42551735828E+03  0.12509009578E+03 0.  0.
         23    2    1    2    0    0  0.41430125154E+02  0.37181356981E+03  0.47698641598E+02  0.38828420850E+03  0.92345439483E+02 0.  0.
          5    1    3    3  502    0 -0.15845899274E+01 -0.34224911086E+03 -0.15429895560E+03  0.37544987003E+03  0.41800000000E+01 0. -1.
         -5    1    3    3    0  502 -0.39845535227E+02 -0.29564458954E+02 -0.52494827198E+01  0.50067488249E+02  0.41800000000E+01 0. -1.
        -11    1    4    4    0    0  0.36430339957E+02  0.51577836038E+02  0.22440293998E+02  0.67014995594E+02  0.00000000000E+00 0.  1.
         11    1    4    4    0    0  0.49997851972E+01  0.32023573377E+03  0.25258347600E+02  0.32126921290E+03  0.00000000000E+00 0. -1.
</event>
<event>
 8    1  0.7052796E-009  0.1713657E+03  0.7561462E-02  0.1176431E+00
          1   -1    0    0  501    0  0.00000000000E+00  0.00000000000E+00  0.29600816938E+03  0.29600816938E+03  0.00000000000E+00 0. -1.
         -1   -1    0    0    0  501 -0.00000000000E+00 -0.00000000000E+00 -0.12446101967E+03  0.12446101967E+03  0.00000000000E+00 0.  1.
         25    2    1    2    0    0 -0.12116505247E+03 -0.82470034975E+02  0.20166292277E+02  0.19374718649E+03  0.12509602839E+03 0.  0.
         23    2    1    2    0    0  0.12116505247E+03  0.82470034975E+02  0.15138085743E+03  0.22672200257E+03  0.83692447942E+02 0.  0.
          5    1    3    3  502    0 -0.12602986889E+03 -0.10332168050E+03  0.35800997133E+02  0.16690740340E+03  0.41800000000E+01 0. -1.
         -5    1    3    3    0  502  0.48648164214E+01  0.20851645529E+02 -0.15634704856E+02  0.26839783084E+02  0.41800000000E+01 0. -1.
        -11    1    4    4    0    0  0.51646292504E+02  0.21851279950E+01  0.90731433498E+02  0.10442369146E+03  0.00000000000E+00 0. -1.
         11    1    4    4    0    0  0.69518759967E+02  0.80284906980E+02  0.60649423936E+02  0.12229831111E+03  0.00000000000E+00 0.  1.
</event>
<event>
 8    1  0.7052796E-009  0.6722757E+02  0.7561462E-02  0.1369783E+00
         -2   -1    0    0    0  501 -0.00000000000E+00  0.00000000000E+00  0.65955359052E+02  0.65955359052E+02  0.00000000000E+00 0.  1.
          2   -1    0    0  501    0  0.00000000000E+00 -0.00000000000E+00 -0.24709536005E+03  0.24709536005E+03  0.00000000000E+00 0. -1.
         25    2    1    2    0    0 -0.10206251130E+02 -0.37591520994E+02 -0.16888840147E+03  0.21374648812E+03  0.12508788519E+03 0.  0.
         23    2    1    2    0    0  0.10206251130E+02  0.37591520994E+02 -0.12251599530E+02  0.99304230982E+02  0.90520376641E+02 0.  0.
          5    1    3    3  502    0 -0.29448889148E+02 -0.50246388588E+02 -0.17897462449E+03  0.18825866580E+03  0.41800000000E+01 0.  1.
         -5    1    3    3    0  502  0.19242638018E+02  0.12654867593E+02  0.10086223022E+02  0.25487822318E+02  0.41800000000E+01 0.  1.
        -11    1    4    4    0    0 -0.13332968709E+02  0.13869730825E+02  0.35877573251E+02  0.40710413288E+02  0.00000000000E+00 0.  1.
         11    1    4    4    0    0  0.23539219839E+02  0.23721790169E+02 -0.48129172780E+02  0.58593817694E+02  0.00000000000E+00 0. -1.
</event>
<event>
 8    1  0.7052796E-009  0.1499869E+03  0.7561462E-02  0.1200489E+00
         -1   -1    0    0    0  501 -0.00000000000E+00  0.00000000000E+00  0.49584688363E+03  0.49584688363E+03  0.00000000000E+00 0.  1.
          1   -1    0    0  501    0  0.00000000000E+00 -0.00000000000E+00 -0.96657103245E+02  0.96657103245E+02  0.00000000000E+00 0. -1.
         25    2    1    2    0    0  0.10327380773E+03  0.24995803239E+02 -0.55985345629E+01  0.16422270684E+03  0.12508990491E+03 0.  0.
         23    2    1    2    0    0 -0.10327380773E+03 -0.24995803239E+02  0.40478831495E+03  0.42828128003E+03  0.91000029476E+02 0.  0.
          5    1    3    3  502    0  0.12332453250E+03  0.47375449545E+02 -0.13523553780E+02  0.13286734905E+03  0.41800000000E+01 0. -1.
         -5    1    3    3    0  502 -0.20050724774E+02 -0.22379646306E+02  0.79250192175E+01  0.31355357794E+02  0.41800000000E+01 0. -1.
        -11    1    4    4    0    0 -0.49919223325E+02  0.32072369334E+02  0.13623836780E+03  0.14859831289E+03  0.00000000000E+00 0. -1.
         11    1    4    4    0    0 -0.53354584404E+02 -0.57068172573E+02  0.26854994714E+03  0.27968296714E+03  0.00000000000E+00 0.  1.
</event>
<event>
 8    1  0.7052796E-009  0.2197313E+03  0.7561462E-02  0.1134084E+00
          1   -1    0    0  501    0  0.00000000000E+00  0.00000000000E+00  0.99817333470E+02  0.99817333470E+02  0.00000000000E+00 0. -1.
         -1   -1    0    0    0  501 -0.00000000000E+00 -0.00000000000E+00 -0.71073373023E+03  0.71073373023E+03  0.00000000000E+00 0.  1.
         25    2    1    2    0    0  0.68814210719E+02 -0.18265489216E+03 -0.93175452957E+02  0.24985960060E+03  0.12509975919E+03 0.  0.
         23    2    1    2    0    0 -0.68814210719E+02  0.18265489216E+03 -0.51774094380E+03  0.56069146311E+03  0.90669877477E+02 0.  0.
          5    1    3    3  502    0  0.60251608428E+02 -0.14017350647E+02 -0.15281160952E+02  0.63857096061E+02  0.41800000000E+01 0. -1.
         -5    1    3    3    0  502  0.85626022915E+01 -0.16863754151E+03 -0.77894292005E+02  0.18600250453E+03  0.41800000000E+01 0. -1.
        -11    1    4    4    0    0 -0.35971370359E+02  0.17201471709E+02 -0.53275190699E+02  0.66543790533E+02  0.00000000000E+00 0. -1.
         11    1    4    4    0    0 -0.32842840360E+02  0.16545342045E+03 -0.46446575311E+03  0.49414767257E+03  0.00000000000E+00 0.  1.
</event>
<event>
 8    1  0.7052796E-009  0.1183698E+03  0.7561462E-02  0.1245811E+00
          3   -1    0    0  501    0  0.00000000000E+00  0.00000000000E+00  0.11438649164E+03  0.11438649164E+03  0.00000000000E+00 0. -1.
         -3   -1    0    0    0  501 -0.00000000000E+00 -0.00000000000E+00 -0.14387519726E+03  0.14387519726E+03  0.00000000000E+00 0.  1.
         25    2    1    2    0    0  0.61844771385E+02 -0.34203953585E+01  0.69892810019E+01  0.13976137872E+03  0.12509163873E+03 0.  0.
         23    2    1    2    0    0 -0.61844771385E+02  0.34203953585E+01 -0.36477986622E+02  0.11850031017E+03  0.94208307227E+02 0.  0.
          5    1    3    3  502    0  0.43905436078E+02 -0.63126313046E+02  0.64447815655E+01  0.77276298601E+02  0.41800000000E+01 0. -1.
         -5    1    3    3    0  502  0.17939335307E+02  0.59705917688E+02  0.54449943642E+00  0.62485080122E+02  0.41800000000E+01 0. -1.
        -11    1    4    4    0    0 -0.18473788228E+02 -0.34826987408E+02  0.13905137993E+02  0.41803741053E+02  0.00000000000E+00 0. -1.
         11    1    4    4    0    0 -0.43370983157E+02  0.38247382766E+02 -0.50383124616E+02  0.76696569118E+02  0.00000000000E+00 0.  1.
</event>
<event>
 8    1  0.7052796E-009  0.1528877E+03  0.7561462E-02  0.1196969E+00
         -1   -1    0    0    0  501 -0.00000000000E+00  0.00000000000E+00  0.11299490062E+03  0.11299490062E+03  0.00000000000E+00 0.  1.
          1   -1    0    0  501    0  0.00000000000E+00 -0.00000000000E+00 -0.22567077839E+03  0.22567077839E+03  0.00000000000E+00 0. -1.
         25    2    1    2    0    0 -0.86686583357E+02  0.60955768080E+02 -0.11971329907E+02  0.16437915264E+03  0.12508806373E+03 0.  0.
         23    2    1    2    0    0  0.86686583357E+02 -0.60955768080E+02 -0.10070454786E+03  0.17428652636E+03  0.94890557575E+02 0.  0.
          5    1    3    3  502    0  0.31147401492E+02  0.50061481268E+00 -0.29605440133E+01  0.31569739558E+02  0.41800000000E+01 0. -1.
         -5    1    3    3    0  502 -0.11783398485E+03  0.60455153268E+02 -0.90107858942E+01  0.13280941309E+03  0.41800000000E+01 0. -1.
        -11    1    4    4    0    0 -0.69982471519E+01 -0.46528998779E+02 -0.27303930713E+02  0.54400623369E+02  0.00000000000E+00 0. -1.
         11    1    4    4    0    0  0.93684830509E+02 -0.14426769301E+02 -0.73400617143E+02  0.11988590300E+03  0.00000000000E+00 0.  1.
</event>
<event>
 8    1  0.7052796E-009  0.1166706E+03  0.7561462E-02  0.1248693E+00
         -1   -1    0    0    0  501 -0.00000000000E+00  0.00000000000E+00  0.43723407614E+02  0.43723407614E+02  0.00000000000E+00 0.  1.
          1   -1    0    0  501    0  0.00000000000E+00 -0.00000000000E+00 -0.33343388037E+03  0.33343388037E+03  0.00000000000E+00 0. -1.
         25    2    1    2    0    0 -0.26741949219E+02 -0.44085010766E+02 -0.18751311363E+03  0.23122857022E+03  0.12508742495E+03 0.  0.
         23    2    1    2    0    0  0.26741949219E+02  0.44085010766E+02 -0.10219735912E+03  0.14592871776E+03  0.90511161921E+02 0.  0.
          5    1    3    3  502    0 -0.28251890595E+02 -0.86997631286E+02 -0.13723814535E+03  0.16498041735E+03  0.41800000000E+01 0. -1.
         -5    1    3    3    0  502  0.15099413764E+01  0.42912620520E+02 -0.50274968283E+02  0.66248152870E+02  0.41800000000E+01 0. -1.
        -11    1    4    4    0    0  0.19224085418E+02 -0.23652792360E+02 -0.11722485848E+02  0.32656342738E+02  0.00000000000E+00 0.  1.
         11    1    4    4    0    0  0.75178638008E+01  0.67737803126E+02 -0.90474873272E+02  0.11327237502E+03  0.00000000000E+00 0. -1.
</event>
<event>
 8    1  0.7052796E-009  0.1122124E+03  0.7561462E-02  0.1256527E+00
          1   -1    0    0  501    0  0.00000000000E+00  0.00000000000E+00  0.27986413064E+02  0.27986413064E+02  0.00000000000E+00 0. -1.
         -1   -1    0    0    0  501 -0.00000000000E+00 -0.00000000000E+00 -0.48045175504E+03  0.48045175504E+03  0.00000000000E+00 0.  1.
         25    2    1    2    0    0  0.25110272313E+02  0.32819506686E+02 -0.26520617135E+03  0.29612895917E+03  0.12510156412E+03 0.  0.
         23    2    1    2    0    0 -0.25110272313E+02 -0.32819506686E+02 -0.18725917063E+03  0.21230920894E+03  0.91112882834E+02 0.  0.
          5    1    3    3  502    0 -0.20960819185E+02 -0.39162052573E+02 -0.11354032800E+03  0.12199139636E+03  0.41800000000E+01 0. -1.
         -5    1    3    3    0  502  0.46071091498E+02  0.71981559259E+02 -0.15166584335E+03  0.17413756281E+03  0.41800000000E+01 0. -1.
        -11    1    4    4    0    0  0.74101581770E+01  0.25999219999E+02 -0.90834575166E+02  0.94772305715E+02  0.00000000000E+00 0. -1.
         11    1    4    4    0    0 -0.32520430490E+02 -0.58818726685E+02 -0.96424595466E+02  0.11753690322E+03  0.00000000000E+00 0.  1.
</event>
<event>
 8    1  0.7052796E-009  0.1595295E+03  0.7561462E-02  0.1189229E+00
         -1   -1    0    0    0  501 -0.00000000000E+00  0.00000000000E+00  0.33683378311E+03  0.33683378311E+03  0.00000000000E+00 0.  1.
          1   -1    0    0  501    0  0.00000000000E+00 -0.00000000000E+00 -0.91700265481E+02  0.91700265481E+02  0.00000000000E+00 0. -1.
         25    2    1    2    0    0  0.27195701571E+01 -0.13114721044E+03  0.18074942607E+03  0.25597690414E+03  0.12508730376E+03 0.  0.
         23    2    1    2    0    0 -0.27195701571E+01  0.13114721044E+03  0.64384091555E+02  0.17255714445E+03  0.91780553424E+02 0.  0.
          5    1    3    3  502    0 -0.40275041071E+02 -0.32060975122E+02  0.80963727195E+01  0.52278185797E+02  0.41800000000E+01 0.  1.
         -5    1    3    3    0  502  0.42994611228E+02 -0.99086235315E+02  0.17265305335E+03  0.20369871835E+03  0.41800000000E+01 0.  1.
        -11    1    4    4    0    0  0.42698653192E+02  0.81654142164E+02  0.28801296427E+02  0.96540605927E+02  0.00000000000E+00 0. -1.
         11    1    4    4    0    0 -0.45418223349E+02  0.49493068273E+02  0.35582795128E+02  0.76016538519E+02  0.00000000000E+00 0.  1.
</event>
<event>
 8    1  0.7052796E-009  0.1124779E+03  0.7561462E-02  0.1256049E+00
          1   -1    0    0  501    0  0.00000000000E+00  0.00000000000E+00  0.64661744572E+03  0.64661744572E+03  0.00000000000E+00 0. -1.
         -1   -1    0    0    0  501 -0.00000000000E+00 -0.00000000000E+00 -0.23298967641E+02  0.23298967641E+02  0.00000000000E+00 0.  1.
         25    2    1    2    0    0 -0.20763270498E+02 -0.53984349537E+02  0.31291519469E+03  0.34192137611E+03  0.12509550341E+03 0.  0.
         23    2    1    2    0    0  0.20763270498E+02  0.53984349537E+02  0.31040328339E+03  0.32799503725E+03  0.88798213550E+02 0.  0.
          5    1    3    3  502    0  0.41676469590E+02 -0.40829936962E+02  0.72539210249E+02  0.93184876956E+02  0.41800000000E+01 0. -1.
         -5    1    3    3    0  502 -0.62439740088E+02 -0.13154412575E+02  0.24037598444E+03  0.24873649915E+03  0.41800000000E+01 0. -1.
        -11    1    4    4    0    0 -0.27790827823E+02  0.45366972581E+02  0.20224207640E+03  0.20912281028E+03  0.00000000000E+00 0. -1.
         11    1    4    4    0    0  0.48554098321E+02  0.86173769556E+01  0.10816120699E+03  0.11887222698E+03  0.00000000000E+00 0.  1.
</event>
<event>
 8    1  0.7052796E-009  0.2664896E+03  0.7561462E-02  0.1103306E+00
         -2   -1    0    0    0  501 -0.00000000000E+00  0.00000000000E+00  0.88032185524E+02  0.88032185524E+02  0.00000000000E+00 0.  1.
          2   -1    0    0  501    0  0.00000000000E+00 -0.00000000000E+00 -0.13317232355E+04  0.13317232355E+04  0.00000000000E+00 0. -1.
         25    2    1    2    0    0  0.26372218508E+03  0.20430594232E+02 -0.10213970900E+04  0.10624810009E+04  0.12508821620E+03 0.  0.
         23    2    1    2    0    0 -0.26372218508E+03 -0.20430594232E+02 -0.22229396000E+03  0.35727442010E+03  0.90904381201E+02 0.  0.
          5    1    3    3  502    0  0.29421218434E+02  0.82138914709E+01 -0.27678748448E+02  0.41432615448E+02  0.41800000000E+01 0.  1.
         -5    1    3    3    0  502  0.23430096664E+03  0.12216702761E+02 -0.99371834151E+03  0.10210483855E+04  0.41800000000E+01 0.  1.
        -11    1    4    4    0    0 -0.16988593099E+03 -0.32231073007E+02 -0.90814388777E+02  0.19531340155E+03  0.00000000000E+00 0.  1.
         11    1    4    4    0    0 -0.93836254084E+02  0.11800478775E+02 -0.13147957122E+03  0.16196101855E+03  0.00000000000E+00 0. -1.
</event>
<event>
 8    1  0.7052796E-009  0.1378000E+03  0.7561462E-02  0.1216320E+00
          2   -1    0    0  501    0  0.00000000000E+00  0.00000000000E+00  0.71497943841E+03  0.71497943841E+03  0.00000000000E+00 0. -1.
         -2   -1    0    0    0  501 -0.00000000000E+00 -0.00000000000E+00 -0.26578428003E+02  0.26578428003E+02  0.00000000000E+00 0.  1.
         25    2    1    2    0    0  0.39389850005E+02  0.77160829977E+02  0.37652630438E+03  0.40611096780E+03  0.12509478931E+03 0.  0.
         23    2    1    2    0    0 -0.39389850005E+02 -0.77160829977E+02  0.31187470602E+03  0.33544689861E+03  0.88053594828E+02 0.  0.
          5    1    3    3  502    0  0.45404961569E+02  0.10969951540E+03  0.29618249873E+03  0.31911931808E+03  0.41800000000E+01 0.  1.
         -5    1    3    3    0  502 -0.60151115637E+01 -0.32538685421E+02  0.80343805649E+02  0.86991649727E+02  0.41800000000E+01 0.  1.
        -11    1    4    4    0    0  0.19351828094E+02 -0.58802448525E+02  0.16235014493E+03  0.17375209571E+03  0.00000000000E+00 0.  1.
         11    1    4    4    0    0 -0.58741678099E+02 -0.18358381452E+02  0.14952456109E+03  0.16169480290E+03  0.00000000000E+00 0. -1.
</event>
<event>
 8    1  0.7052796E-009  0.1512075E+03  0.7561462E-02  0.1198997E+00
          2   -1    0    0  501    0  0.00000000000E+00  0.00000000000E+00  0.93687117714E+03  0.93687117714E+03  0.00000000000E+00 0. -1.
         -2   -1    0    0    0  501 -0.00000000000E+00 -0.00000000000E+00 -0.34355384911E+02  0.34355384911E+02  0.00000000000E+00 0.  1.
         25    2    1    2    0    0  0.53354392596E+02  0.12604613583E+03  0.37647100096E+03  0.41965741015E+03  0.12509039836E+03 0.  0.
         23    2    1    2    0    0 -0.53354392596E+02 -0.12604613583E+03  0.52604479126E+03  0.55156915189E+03  0.93654083413E+02 0.  0.
          5    1    3    3  502    0 -0.17111123739E+02  0.75008450718E+02  0.27662485017E+03  0.28715472896E+03  0.41800000000E+01 0. -1.
         -5    1    3    3    0  502  0.70465516335E+02  0.51037685115E+02  0.99846150798E+02  0.13250268119E+03  0.41800000000E+01 0. -1.
        -11    1    4    4    0    0  0.10859291940E+01 -0.10208118047E+02  0.91587189575E-01  0.10266124122E+02  0.00000000000E+00 0.  1.
         11    1    4    4    0    0 -0.54440321790E+02 -0.11583801779E+03  0.52595320407E+03  0.54130302777E+03  0.00000000000E+00 0. -1.
</event>
<event>
 8    1  0.7052796E-009  0.1208499E+03  0.7561462E-02  0.1241702E+00
          3   -1    0    0  501    0  0.00000000000E+00  0.00000000000E+00  0.51999543820E+03  0.51999543820E+03  0.00000000000E+00 0. -1.
         -3   -1    0    0    0  501 -0.00000000000E+00 -0.00000000000E+00 -0.35746778628E+02  0.35746778628E+02  0.00000000000E+00 0.  1.
         25    2    1    2    0    0  0.22999056994E+02  0.53969207751E+02  0.14464018444E+03  0.20002445006E+03  0.12508943065E+03 0.  0.
         23    2    1    2    0    0 -0.22999056994E+02 -0.53969207751E+02  0.33960847513E+03  0.35571776676E+03  0.88088485067E+02 0.  0.
          5    1    3    3  502    0  0.65439712143E+02  0.64834006410E+02  0.11285543884E+03  0.14573821321E+03  0.41800000000E+01 0.  1.
         -5    1    3    3    0  502 -0.42440655149E+02 -0.10864798659E+02  0.31784745594E+02  0.54286236855E+02  0.41800000000E+01 0.  1.
        -11    1    4    4    0    0 -0.19415811589E+02 -0.78409088118E+02  0.27185559441E+03  0.28360257942E+03  0.00000000000E+00 0.  1.
         11    1    4    4    0    0 -0.35832454052E+01  0.24439880367E+02  0.67752880719E+02  0.72115187344E+02  0.00000000000E+00 0. -1.
</event>
<event>
 8    1  0.7052796E-009  0.1219778E+03  0.7561462E-02  0.1239870E+00
         -2   -1    0    0    0  501 -0.00000000000E+00  0.00000000000E+00  0.19261360129E+03  0.19261360129E+03  0.00000000000E+00 0.  1.
          2   -1    0    0  501    0  0.00000000000E+00 -0.00000000000E+00 -0.10562737963E+03  0.10562737963E+03  0.00000000000E+00 0. -1.
         25    2    1    2    0    0 -0.36194143190E+02  0.82269271224E+02  0.25380016192E+02  0.15611061735E+03  0.12509248833E+03 0.  0.
         23    2    1    2    0    0  0.36194143190E+02 -0.82269271224E+02  0.61606205470E+02  0.14213036357E+03  0.91254954430E+02 0.  0.
          5    1    3    3  502    0  0.37615967018E+02  0.56223121006E+02  0.36442351448E+02  0.76951398229E+02  0.41800000000E+01 0. -1.
         -5    1    3    3    0  502 -0.73810110208E+02  0.26046150218E+02 -0.11062335256E+02  0.79159219118E+02  0.41800000000E+01 0. -1.
        -11    1    4    4    0    0  0.18712669154E+02 -0.77429996655E+02  0.82350668938E+02  0.11457399811E+03  0.00000000000E+00 0.  1.
         11    1    4    4    0    0  0.17481474035E+02 -0.48392745686E+01 -0.20744463468E+02  0.27556365461E+02  0.00000000000E+00 0. -1.
</event>
<event>
 8    1  0.7052796E-009  0.2672599E+03  0.7561462E-02  0.1102858E+00
          1   -1    0    0  501    0  0.00000000000E+00  0.00000000000E+00  0.29858308040E+03  0.29858308040E+03  0.00000000000E+00 0. -1.
         -1   -1    0    0    0  501 -0.00000000000E+00 -0.00000000000E+00 -0.27756860568E+03  0.27756860568E+03  0.00000000000E+00 0.  1.
         25    2    1    2    0    0  0.10166222870E+03  0.24162298801E+03 -0.36574220471E+02  0.29274746992E+03  0.12508609220E+03 0.  0.
         23    2    1    2    0    0 -0.10166222870E+03 -0.24162298801E+03  0.57588695193E+02  0.28340421617E+03  0.91019859641E+02 0.  0.
          5    1    3    3  502    0  0.86669335833E+02  0.22409599474E+03 -0.71468846942E+02  0.25071070403E+03  0.41800000000E+01 0. -1.
         -5    1    3    3    0  502  0.14992892868E+02  0.17526993264E+02  0.34894626471E+02  0.42036765884E+02  0.41800000000E+01 0. -1.
        -11    1    4    4    0    0 -0.81047341910E+01 -0.10425502857E+03 -0.76685474639E+01  0.10485039017E+03  0.00000000000E+00 0.  1.
         11    1    4    4    0    0 -0.93557494511E+02 -0.13736795944E+03  0.65257242657E+02  0.17855382600E+03  0.00000000000E+00 0. -1.
</event>
<event>
 8    1  0.7052796E-009  0.1641651E+03  0.7561462E-02  0.1184073E+00
          2   -1    0    0  501    0  0.00000000000E+00  0.00000000000E+00  0.11940994732E+04  0.11940994732E+04  0.00000000000E+00 0. -1.
         -2   -1    0    0    0  501 -0.00000000000E+00 -0.00000000000E+00 -0.26545129797E+02  0.26545129797E+02  0.00000000000E+00 0.  1.
         25    2    1    2    0    0  0.10881611610E+03  0.65885420491E+02  0.41093036836E+03  0.44798768957E+03  0.12508943446E+03 0.  0.
         23    2    1    2    0    0 -0.10881611610E+03 -0.65885420491E+02  0.75662397501E+03  0.77265691339E+03  0.91307340845E+02 0.  0.
          5    1    3    3  502    0  0.15799071425E+02  0.81863452572E+02  0.17685037151E+03  0.19556268005E+03  0.41800000000E+01 0. -1.
         -5    1    3    3    0  502  0.93017044671E+02 -0.15978032081E+02  0.23407999685E+03  0.25242500953E+03  0.41800000000E+01 0. -1.
        -11    1    4    4    0    0  0.12530916113E+02 -0.12851833237E+02  0.39220708540E+02  0.43133020466E+02  0.00000000000E+00 0.  1.
         11    1    4    4    0    0 -0.12134703221E+03 -0.53033587254E+02  0.71740326647E+03  0.72952389292E+03  0.00000000000E+00 0. -1.
</event>
<event>
 8    1  0.7052796E-009  0.1220659E+03  0.7561462E-02  0.1239727E+00
         -2   -1    0    0    0  501 -0.00000000000E+00  0.00000000000E+00  0.14710074579E+03  0.14710074579E+03  0.00000000000E+00 0. -1.
          2   -1    0    0  501    0  0.00000000000E+00 -0.00000000000E+00 -0.11447163035E+03  0.11447163035E+03  0.00000000000E+00 0.  1.
         25    2    1    2    0    0 -0.33912612685E+02 -0.60158401427E+02  0.43512324399E+02  0.14936566571E+03  0.12509069173E+03 0.  0.
         23    2    1    2    0    0  0.33912612685E+02  0.60158401427E+02 -0.10883208958E+02  0.11220671043E+03  0.87765614377E+02 0.  0.
          5    1    3    3  502    0  0.26769008887E+02  0.19185635615E+02  0.36206838968E+02  0.49123070332E+02  0.41800000000E+01 0.  1.
         -5    1    3    3    0  502 -0.60681621572E+02 -0.79344037042E+02  0.73054854307E+01  0.10024259538E+03  0.41800000000E+01 0.  1.
        -11    1    4    4    0    0 -0.18695577407E+02  0.55007155508E+02 -0.12050561985E+02  0.59334035897E+02  0.00000000000E+00 0. -1.
         11    1    4    4    0    0  0.52608190092E+02  0.51512459195E+01  0.11673530269E+01  0.52872674534E+02  0.00000000000E+00 0.  1.
</event>
<event>
 8    1  0.7052796E-009  0.1221934E+03  0.7561462E-02  0.1239522E+00
          1   -1    0    0  501    0  0.00000000000E+00  0.00000000000E+00  0.18072454976E+03  0.18072454976E+03  0.00000000000E+00 0. -1.
         -1   -1    0    0    0  501 -0.00000000000E+00 -0.00000000000E+00 -0.99885999802E+02  0.99885999802E+02  0.00000000000E+00 0.  1.
         25    2    1    2    0    0  0.58556836559E+02 -0.32916990738E+02  0.90756771316E+02  0.16850959341E+03  0.12508501167E+03 0.  0.
         23    2    1    2    0    0 -0.58556836559E+02  0.32916990738E+02 -0.99182213547E+01  0.11210095616E+03  0.89195413950E+02 0.  0.
          5    1    3    3  502    0 -0.23293508573E+02 -0.46298043394E+02  0.61336742119E+02  0.80409978843E+02  0.41800000000E+01 0.  1.
         -5    1    3    3    0  502  0.81850345132E+02  0.13381052656E+02  0.29420029197E+02  0.88099614564E+02  0.41800000000E+01 0.  1.
        -11    1    4    4    0    0 -0.65022879031E+02 -0.10140118973E+02 -0.17048077251E+02  0.67981127883E+02  0.00000000000E+00 0. -1.
         11    1    4    4    0    0  0.64660424720E+01  0.43057109711E+02  0.71298558968E+01  0.44119828275E+02  0.00000000000E+00 0.  1.
</event>
<event>
 8    1  0.7052796E-009  0.1493828E+03  0.7561462E-02  0.1201234E+00
         -1   -1    0    0    0  501 -0.00000000000E+00  0.00000000000E+00  0.79711645368E+02  0.79711645368E+02  0.00000000000E+00 0.  1.
          1   -1    0    0  501    0  0.00000000000E+00 -0.00000000000E+00 -0.31708432530E+03  0.31708432530E+03  0.00000000000E+00 0. -1.
         25    2    1    2    0    0  0.21281946386E+01 -0.11126593727E+03 -0.16620660542E+03  0.23591651838E+03  0.12508928790E+03 0.  0.
         23    2    1    2    0    0 -0.21281946386E+01  0.11126593727E+03 -0.71166074510E+02  0.16087945229E+03  0.91831094935E+02 0.  0.
          5    1    3    3  502    0  0.16133953319E+02 -0.13654164683E+03 -0.12860424332E+03  0.18830945162E+03  0.41800000000E+01 0.  1.
         -5    1    3    3    0  502 -0.14005758680E+02  0.25275709558E+02 -0.37602362094E+02  0.47607066754E+02  0.41800000000E+01 0.  1.
        -11    1    4    4    0    0 -0.36295043361E+02  0.65716908789E+02 -0.74710236325E+01  0.75444406469E+02  0.00000000000E+00 0.  1.
         11    1    4    4    0    0  0.34166848723E+02  0.45549028485E+02 -0.63695050877E+02  0.85435045818E+02  0.00000000000E+00 0. -1.
</event>
<event>
 8    1  0.7052796E-009  0.1084586E+03  0.7561462E-02  0.1263451E+00
         -2   -1    0    0    0  501 -0.00000000000E+00  0.00000000000E+00  0.17019658299E+03  0.17019658299E+03  0.00000000000E+00 0. -1.
          2   -1    0    0  501    0  0.00000000000E+00 -0.00000000000E+00 -0.96505696353E+02  0.96505696353E+02  0.00000000000E+00 0.  1.
         25    2    1    2    0    0 -0.63373659340E+02 -0.23236173423E+02  0.33539729448E+02  0.14603867781E+03  0.12508493719E+03 0.  0.
         23    2    1    2    0    0  0.63373659340E+02  0.23236173423E+02  0.40151157186E+02  0.12066360153E+03  0.91604851709E+02 0.  0.
          5    1    3    3  502    0 -0.44287442072E+02 -0.55927185856E+02 -0.25420379775E+02  0.75847846053E+02  0.41800000000E+01 0. -1.
         -5    1    3    3    0  502 -0.19086217268E+02  0.32691012433E+02  0.58960109223E+02  0.70190831760E+02  0.41800000000E+01 0. -1.
        -11    1    4    4    0    0  0.63065559118E+02  0.50076569196E+02  0.11403285756E+02  0.81332419461E+02  0.00000000000E+00 0.  1.
         11    1    4    4    0    0  0.30810022197E+00 -0.26840395773E+02  0.28747871430E+02  0.39331182066E+02  0.00000000000E+00 0. -1.
</event>
<event>
 8    1  0.7052796E-009  0.1004868E+03  0.7561462E-02  0.1279276E+00
          1   -1    0    0  501    0  0.00000000000E+00  0.00000000000E+00  0.10615731623E+03  0.10615731623E+03  0.00000000000E+00 0. -1.
         -1   -1    0    0    0  501 -0.00000000000E+00 -0.00000000000E+00 -0.23893820822E+03  0.23893820822E+03  0.00000000000E+00 0.  1.
         25    2    1    2    0    0  0.67646748096E+02  0.47635609304E+02  0.17494164972E+02  0.15099279213E+03  0.12509014216E+03 0.  0.
         23    2    1    2    0    0 -0.67646748096E+02 -0.47635609304E+02 -0.15027505696E+03  0.19410273232E+03  0.90818743390E+02 0.  0.
          5    1    3    3  502    0  0.85548634848E+01  0.33998634920E+02 -0.49325331680E+02  0.60659324189E+02  0.41800000000E+01 0. -1.
         -5    1    3    3    0  502  0.59091884611E+02  0.13636974384E+02  0.66819496652E+02  0.90333467940E+02  0.41800000000E+01 0. -1.
        -11    1    4    4    0    0 -0.31268111144E+02 -0.58993394697E+02 -0.40949051388E+02  0.78324582360E+02  0.00000000000E+00 0. -1.
         11    1    4    4    0    0 -0.36378636952E+02  0.11357785393E+02 -0.10932600557E+03  0.11577814996E+03  0.00000000000E+00 0.  1.
</event>
<event>
 8    1  0.7052796E-009  0.2501739E+03  0.7561462E-02  0.1113195E+00
          1   -1    0    0  501    0  0.00000000000E+00  0.00000000000E+00  0.17933342632E+03  0.17933342632E+03  0.00000000000E+00 0. -1.
         -1   -1    0    0    0  501 -0.00000000000E+00 -0.00000000000E+00 -0.38908118882E+03  0.38908118882E+03  0.00000000000E+00 0.  1.
         25    2    1    2    0    0 -0.12321665923E+03 -0.19152940322E+03 -0.18106977966E+03  0.31670101501E+03  0.12508960947E+03 0.  0.
         23    2    1    2    0    0  0.12321665923E+03  0.19152940322E+03 -0.28677982843E+02  0.25171360013E+03  0.10330272203E+03 0.  0.
          5    1    3    3  502    0 -0.11085591023E+02 -0.13067413460E+03 -0.10546973462E+03  0.16834475668E+03  0.41800000000E+01 0. -1.
         -5    1    3    3    0  502 -0.11213106821E+03 -0.60855268617E+02 -0.75600045036E+02  0.14835625833E+03  0.41800000000E+01 0. -1.
        -11    1    4    4    0    0  0.38405254803E+02  0.13302047528E+03  0.16065535674E+02  0.13938260966E+03  0.00000000000E+00 0. -1.
         11    1    4    4    0    0  0.84811404427E+02  0.58508927943E+02 -0.44743518516E+02  0.11233099047E+03  0.00000000000E+00 0.  1.
</event>
<event>
 8    1  0.7052796E-009  0.9154901E+02  0.7561462E-02  0.1299143E+00
         -1   -1    0    0    0  501 -0.00000000000E+00  0.00000000000E+00  0.41312422121E+02  0.41312422121E+02  0.00000000000E+00 0.  1.
          1   -1    0    0  501    0  0.00000000000E+00 -0.00000000000E+00 -0.42452741484E+03  0.42452741484E+03  0.00000000000E+00 0. -1.
         25    2    1    2    0    0  0.31044234103E+02  0.82187686733E+01 -0.33556500507E+03  0.35955918195E+03  0.12509052748E+03 0.  0.
         23    2    1    2    0    0 -0.31044234103E+02 -0.82187686733E+01 -0.47649987647E+02  0.10628065501E+03  0.89407850202E+02 0.  0.
          5    1    3    3  502    0 -0.26153928007E+02 -0.43702789369E+02 -0.11577663412E+03  0.12655300532E+03  0.41800000000E+01 0.  1.
         -5    1    3    3    0  502  0.57198162111E+02  0.51921558042E+02 -0.21978837096E+03  0.23300617663E+03  0.41800000000E+01 0.  1.
        -11    1    4    4    0    0 -0.56853619768E+01  0.17568980203E+02 -0.63984373563E+02  0.66595739102E+02  0.00000000000E+00 0. -1.
         11    1    4    4    0    0 -0.25358872127E+02 -0.25787748877E+02  0.16334385916E+02  0.39684915912E+02  0.00000000000E+00 0.  1.
</event>
<event>
 8    1  0.7052796E-009  0.1225593E+03  0.7561462E-02  0.1238934E+00
          2   -1    0    0  501    0  0.00000000000E+00  0.00000000000E+00  0.13352310633E+04  0.13352310633E+04  0.00000000000E+00 0. -1.
         -2   -1    0    0    0  501 -0.00000000000E+00 -0.00000000000E+00 -0.16505372935E+02  0.16505372935E+02  0.00000000000E+00 0.  1.
         25    2    1    2    0    0 -0.56750564567E+01 -0.95541434904E+02  0.88014191152E+03  0.89412420615E+03  0.12509172456E+03 0.  0.
         23    2    1    2    0    0  0.56750564567E+01  0.95541434904E+02  0.43858377884E+03  0.45761223008E+03  0.88841713241E+02 0.  0.
          5    1    3    3  502    0  0.28009619467E+02 -0.58353184191E+02  0.77327170959E+03  0.77598726931E+03  0.41800000000E+01 0. -1.
         -5    1    3    3    0  502 -0.33684675924E+02 -0.37188250713E+02  0.10687020194E+03  0.11813693684E+03  0.41800000000E+01 0. -1.
        -11    1    4    4    0    0 -0.39526635335E+02  0.62367178335E+02  0.27209896617E+03  0.28193947440E+03  0.00000000000E+00 0.  1.
         11    1    4    4    0    0  0.45201691792E+02  0.33174256570E+02  0.16648481267E+03  0.17567275568E+03  0.00000000000E+00 0. -1.
</event>
<event>
 8    1  0.7052796E-009  0.1401028E+03  0.7561462E-02  0.1213191E+00
          2   -1    0    0  501    0  0.00000000000E+00  0.00000000000E+00  0.16801611109E+04  0.16801611109E+04  0.00000000000E+00 0. -1.
         -2   -1    0    0    0  501 -0.00000000000E+00 -0.00000000000E+00 -0.12595622320E+02  0.12595622320E+02  0.00000000000E+00 0.  1.
         25    2    1    2    0    0  0.98440608444E+01  0.86695308670E+02  0.10502648430E+04  0.10612809814E+04  0.12509236190E+03 0.  0.
         23    2    1    2    0    0 -0.98440608444E+01 -0.86695308670E+02  0.61730064559E+03  0.63147575181E+03  0.10044180403E+03 0.  0.
          5    1    3    3  502    0  0.79217883085E+01  0.11881237207E+03  0.86977793908E+03  0.87790105946E+03  0.41800000000E+01 0.  1.
         -5    1    3    3    0  502  0.19222725359E+01 -0.32117063397E+02  0.18048690390E+03  0.18337992194E+03  0.41800000000E+01 0.  1.
        -11    1    4    4    0    0 -0.48769157063E+02 -0.22899474707E+02  0.18203031090E+03  0.18983637879E+03  0.00000000000E+00 0.  1.
         11    1    4    4    0    0  0.38925096219E+02 -0.63795833963E+02  0.43527033469E+03  0.44163937303E+03  0.00000000000E+00 0. -1.
</event>
<event>
 8    1  0.7052796E-009  0.1476010E+03  0.7561462E-02  0.1203452E+00
         -1   -1    0    0    0  501 -0.00000000000E+00  0.00000000000E+00  0.10412528138E+03  0.10412528138E+03  0.00000000000E+00 0.  1.
          1   -1    0    0  501    0  0.00000000000E+00 -0.00000000000E+00 -0.28795286503E+03  0.28795286503E+03  0.00000000000E+00 0. -1.
         25    2    1    2    0    0 -0.76404914686E+01 -0.13045200228E+03 -0.65979057649E+02  0.19255262670E+03  0.12508867251E+03 0.  0.
         23    2    1    2    0    0  0.76404914686E+01  0.13045200228E+03 -0.11784852600E+03  0.19952551972E+03  0.94053473784E+02 0.  0.
          5    1    3    3  502    0 -0.49704333904E+02 -0.10129530465E+03 -0.81104154119E+02  0.13902019914E+03  0.41800000000E+01 0.  1.
         -5    1    3    3    0  502  0.42063842436E+02 -0.29156697631E+02  0.15125096471E+02  0.53532427560E+02  0.41800000000E+01 0.  1.
        -11    1    4    4    0    0  0.75095402424E+00  0.81765969465E+02 -0.12547431104E+03  0.14976661986E+03  0.00000000000E+00 0. -1.
         11    1    4    4    0    0  0.68895374444E+01  0.48686032814E+02  0.76257850414E+01  0.49758899856E+02  0.00000000000E+00 0.  1.
</event>
<event>
 8    1  0.7052796E-009  0.9955293E+02  0.7561462E-02  0.1281239E+00
          1   -1    0    0  501    0  0.00000000000E+00  0.00000000000E+00  0.54458617646E+03  0.54458617646E+03  0.00000000000E+00 0. -1.
         -1   -1    0    0    0  501 -0.00000000000E+00 -0.00000000000E+00 -0.28253539096E+02  0.28253539096E+02  0.00000000000E+00 0.  1.
         25    2    1    2    0    0  0.16107942878E+02  0.30362356114E+02  0.17477446391E+03  0.21765789678E+03  0.12509000083E+03 0.  0.
         23    2    1    2    0    0 -0.16107942878E+02 -0.30362356114E+02  0.34155817346E+03  0.35518181877E+03  0.91163589423E+02 0.  0.
          5    1    3    3  502    0  0.42613439325E+02 -0.28682449414E+02  0.31534471791E+02  0.60419230602E+02  0.41800000000E+01 0. -1.
         -5    1    3    3    0  502 -0.26505496447E+02  0.59044805528E+02  0.14323999212E+03  0.15723866618E+03  0.41800000000E+01 0. -1.
        -11    1    4    4    0    0  0.30406345705E+02 -0.12876791139E+02  0.53506357097E+02  0.62875176811E+02  0.00000000000E+00 0.  1.
         11    1    4    4    0    0 -0.46514288583E+02 -0.17485564976E+02  0.28805181636E+03  0.29230664196E+03  0.00000000000E+00 0. -1.
</event>
<event>
 8    1  0.7052796E-009  0.1952781E+03  0.7561462E-02  0.1153785E+00
         -1   -1    0    0    0  501 -0.00000000000E+00  0.00000000000E+00  0.27587447195E+03  0.27587447195E+03  0.00000000000E+00 0.  1.
          1   -1    0    0  501    0  0.00000000000E+00 -0.00000000000E+00 -0.14415931491E+03  0.14415931491E+03  0.00000000000E+00 0. -1.
         25    2    1    2    0    0 -0.98803203874E+02 -0.13286132803E+03  0.47059782889E+02  0.21278206484E+03  0.12508948146E+03 0.  0.
         23    2    1    2    0    0  0.98803203874E+02  0.13286132803E+03  0.84655374150E+02  0.20725172201E+03  0.91501575526E+02 0.  0.
          5    1    3    3  502    0 -0.10155520075E+03 -0.41343521343E+02  0.51090208560E+02  0.12103894979E+03  0.41800000000E+01 0. -1.
         -5    1    3    3    0  502  0.27519968774E+01 -0.91517806686E+02 -0.40304256708E+01  0.91743115047E+02  0.41800000000E+01 0. -1.
        -11    1    4    4    0    0  0.11589202060E+03  0.10442943881E+03  0.69743912997E+02  0.17088206907E+03  0.00000000000E+00 0.  1.
         11    1    4    4    0    0 -0.17088816726E+02  0.28431889216E+02  0.14911461153E+02  0.36369652943E+02  0.00000000000E+00 0. -1.
</event>
<event>
 8    1  0.7052796E-009  0.9771173E+02  0.7561462E-02  0.1285183E+00
          1   -1    0    0  501    0  0.00000000000E+00  0.00000000000E+00  0.25464182927E+03  0.25464182927E+03  0.00000000000E+00 0. -1.
         -1   -1    0    0    0  501 -0.00000000000E+00 -0.00000000000E+00 -0.58870823541E+02  0.58870823541E+02  0.00000000000E+00 0.  1.
         25    2    1    2    0    0 -0.14072941311E+02  0.17131830983E+02  0.44331954628E+02  0.13455183715E+03  0.12508927759E+03 0.  0.
         23    2    1    2    0    0  0.14072941311E+02 -0.17131830983E+02  0.15143905110E+03  0.17896081566E+03  0.92745027004E+02 0.  0.
          5    1    3    3  502    0  0.13415296957E+02  0.54453683458E+02 -0.15892815691E+02  0.58439950592E+02  0.41800000000E+01 0.  1.
         -5    1    3    3    0  502 -0.27488238269E+02 -0.37321852475E+02  0.60224770319E+02  0.76111886557E+02  0.41800000000E+01 0.  1.
        -11    1    4    4    0    0  0.21853231027E+02  0.34277485347E+02  0.45928715758E+02  0.61334791425E+02  0.00000000000E+00 0.  1.
         11    1    4    4    0    0 -0.77802897155E+01 -0.51409316329E+02  0.10551033535E+03  0.11762602424E+03  0.00000000000E+00 0. -1.
</event>
<event>
 8    1  0.7052796E-009  0.1076153E+03  0.7561462E-02  0.1265051E+00
         -2   -1    0    0    0  501 -0.00000000000E+00  0.00000000000E+00  0.19775351991E+02  0.19775351991E+02  0.00000000000E+00 0.  1.
          2   -1    0    0  501    0  0.00000000000E+00 -0.00000000000E+00 -0.68289754914E+03  0.68289754914E+03  0.00000000000E+00 0. -1.
         25    2    1    2    0    0  0.27445336040E+02  0.68432295524E+01 -0.27633597432E+03  0.30464655044E+03  0.12509146147E+03 0.  0.
         23    2    1    2    0    0 -0.27445336040E+02 -0.68432295524E+01 -0.38678622283E+03  0.39802635069E+03  0.89561807768E+02 0.  0.
          5    1    3    3  502    0  0.30508858735E+02 -0.55265214369E+02 -0.17002192873E+03  0.18141103337E+03  0.41800000000E+01 0.  1.
         -5    1    3    3    0  502 -0.30635226944E+01  0.62108443922E+02 -0.10631404559E+03  0.12323551707E+03  0.41800000000E+01 0.  1.
        -11    1    4    4    0    0  0.26110733212E+02  0.16852448477E+02 -0.82574349810E+02  0.88228672523E+02  0.00000000000E+00 0.  1.
         11    1    4    4    0    0 -0.53556069253E+02 -0.23695678029E+02 -0.30421187302E+03  0.30979767817E+03  0.00000000000E+00 0. -1.
</event>
<event>
 8    1  0.7052796E-009  0.1242192E+03  0.7561462E-02  0.1236295E+00
         -2   -1    0    0    0  501 -0.00000000000E+00  0.00000000000E+00  0.10241090609E+03  0.10241090609E+03  0.00000000000E+00 0. -1.
          2   -1    0    0  501    0  0.00000000000E+00 -0.00000000000E+00 -0.24589429848E+03  0.24589429848E+03  0.00000000000E+00 0.  1.
         25    2    1    2    0    0  0.10605123485E+03 -0.42659540764E+02 -0.99442151752E+02  0.19647379356E+03  0.12508600713E+03 0.  0.
         23    2    1    2    0    0 -0.10605123485E+03  0.42659540764E+02 -0.44041240634E+02  0.15183141101E+03  0.89701982492E+02 0.  0.
          5    1    3    3  502    0  0.48622625294E+01  0.44125515006E+01 -0.83265037388E+02  0.83628051866E+02  0.41800000000E+01 0.  1.
         -5    1    3    3    0  502  0.10118897232E+03 -0.47072092265E+02 -0.16177114363E+02  0.11284574169E+03  0.41800000000E+01 0.  1.
        -11    1    4    4    0    0 -0.41131045954E+02 -0.13338735219E+02  0.17131867392E+02  0.46510059975E+02  0.00000000000E+00 0. -1.
         11    1    4    4    0    0 -0.64920188893E+02  0.55998275983E+02 -0.61173108026E+02  0.10532135104E+03  0.00000000000E+00 0.  1.
</event>
<event>
 8    1  0.7052796E-009  0.1023503E+03  0.7561462E-02  0.1275430E+00
          1   -1    0    0  501    0  0.00000000000E+00  0.00000000000E+00  0.80559132006E+02  0.80559132006E+02  0.00000000000E+00 0. -1.
         -1   -1    0    0    0  501 -0.00000000000E+00 -0.00000000000E+00 -0.22109111431E+03  0.22109111431E+03  0.00000000000E+00 0.  1.
         25    2    1    2    0    0  0.45820442782E+02 -0.53454690288E+02 -0.38666638674E+02  0.14866013888E+03  0.12509121095E+03 0.  0.
         23    2    1    2    0    0 -0.45820442782E+02  0.53454690288E+02 -0.10186534363E+03  0.15299010743E+03  0.89847136006E+02 0.  0.
          5    1    3    3  502    0 -0.31553357186E+02 -0.25039259215E+02 -0.51094277001E+02  0.65197211550E+02  0.41800000000E+01 0.  1.
         -5    1    3    3    0  502  0.77373799968E+02 -0.28415431074E+02  0.12427638326E+02  0.83462927333E+02  0.41800000000E+01 0.  1.
        -11    1    4    4    0    0 -0.23479188759E+02 -0.27522796461E+00 -0.90762581496E+02  0.93750702691E+02  0.00000000000E+00 0.  1.
         11    1    4    4    0    0 -0.22341254023E+02  0.53729918253E+02 -0.11102762130E+02  0.59239404738E+02  0.00000000000E+00 0. -1.
</event>
<event>
 8    1  0.7052796E-009  0.1458416E+03  0.7561462E-02  0.1205678E+00
         -1   -1    0    0    0  501 -0.00000000000E+00  0.00000000000E+00  0.20959873472E+02  0.20959873472E+02  0.00000000000E+00 0.  1.
          1   -1    0    0  501    0  0.00000000000E+00 -0.00000000000E+00 -0.10857217565E+04  0.10857217565E+04  0.00000000000E+00 0. -1.
         25    2    1    2    0    0 -0.16360302499E+02 -0.10254686252E+03 -0.49225930723E+03  0.51841124034E+03  0.12508984790E+03 0.  0.
         23    2    1    2    0    0  0.16360302499E+02  0.10254686252E+03 -0.57250257583E+03  0.58827038966E+03  0.86714090593E+02 0.  0.
          5    1    3    3  502    0 -0.27416417904E+02  0.21452723873E+02 -0.15414534946E+03  0.15808270143E+03  0.41800000000E+01 0. -1.
         -5    1    3    3    0  502  0.11056115405E+02 -0.12399958640E+03 -0.33811395777E+03  0.36032853891E+03  0.41800000000E+01 0. -1.
        -11    1    4    4    0    0  0.41612038912E+01 -0.14138531652E+02 -0.32735559047E+02  0.35900285810E+02  0.00000000000E+00 0.  1.
         11    1    4    4    0    0  0.12199098608E+02  0.11668539418E+03 -0.53976701678E+03  0.55237010385E+03  0.00000000000E+00 0. -1.
</event>
<event>
 8    1  0.7052796E-009  0.2342476E+03  0.7561462E-02  0.1123685E+00
          1   -1    0    0  501    0  0.00000000000E+00  0.00000000000E+00  0.78273997808E+03  0.78273997808E+03  0.00000000000E+00 0. -1.
         -1   -1    0    0    0  501 -0.00000000000E+00 -0.00000000000E+00 -0.25593728678E+03  0.25593728678E+03  0.00000000000E+00 0.  1.
         25    2    1    2    0    0 -0.15819687525E+03 -0.14809557311E+03  0.70334850300E+03  0.74652858613E+03  0.12508902077E+03 0.  0.
         23    2    1    2    0    0  0.15819687525E+03  0.14809557311E+03 -0.17654581170E+03  0.29214867873E+03  0.84993392346E+02 0.  0.
          5    1    3    3  502    0 -0.42683453103E+01 -0.82105370312E+02  0.25089307302E+03  0.26405362542E+03  0.41800000000E+01 0.  1.
         -5    1    3    3    0  502 -0.15392852994E+03 -0.65990202799E+02  0.45245542998E+03  0.48247496071E+03  0.41800000000E+01 0.  1.
        -11    1    4    4    0    0  0.35698585051E+02  0.51393355160E+02 -0.10086578034E+03  0.11869950115E+03  0.00000000000E+00 0.  1.
         11    1    4    4    0    0  0.12249829019E+03  0.96702217951E+02 -0.75680031361E+02  0.17344917758E+03  0.00000000000E+00 0. -1.
</event>
<event>
 8    1  0.7052796E-009  0.1213768E+03  0.7561462E-02  0.1240843E+00
         -1   -1    0    0    0  501 -0.00000000000E+00  0.00000000000E+00  0.17836965785E+02  0.17836965785E+02  0.00000000000E+00 0.  1.
          1   -1    0    0  501    0  0.00000000000E+00 -0.00000000000E+00 -0.12396030053E+04  0.12396030053E+04  0.00000000000E+00 0. -1.
         25    2    1    2    0    0  0.98722637541E+02  0.17153812660E+02 -0.73924159355E+03  0.75641706892E+03  0.12509290975E+03 0.  0.
         23    2    1    2    0    0 -0.98722637541E+02 -0.17153812660E+02 -0.48252444595E+03  0.50102290215E+03  0.90297813301E+02 0.  0.
          5    1    3    3  502    0  0.18061171775E+02  0.34598567892E+02 -0.52997951102E+03  0.53143110685E+03  0.41800000000E+01 0.  1.
         -5    1    3    3    0  502  0.80661465766E+02 -0.17444755231E+02 -0.20926208253E+03  0.22498596207E+03  0.41800000000E+01 0.  1.
        -11    1    4    4    0    0 -0.43602666525E+02 -0.41879698370E+02 -0.13013888384E+03  0.14349644856E+03  0.00000000000E+00 0.  1.
         11    1    4    4    0    0 -0.55119971016E+02  0.24725885710E+02 -0.35238556211E+03  0.35752645358E+03  0.00000000000E+00 0. -1.
</event>
<event>
 8    1  0.7052796E-009  0.1235060E+03  0.7561462E-02  0.1237423E+00
          2   -1    0    0  501    0  0.00000000000E+00  0.00000000000E+00  0.44644577221E+03  0.44644577221E+03  0.00000000000E+00 0.  1.
         -2   -1    0    0    0  501 -0.00000000000E+00 -0.00000000000E+00 -0.36490803177E+02  0.36490803177E+02  0.00000000000E+00 0. -1.
         25    2    1    2    0    0  0.61570199890E+01  0.67897459607E+02  0.24845634801E+03  0.28639602089E+03  0.12507657654E+03 0.  0.
         23    2    1    2    0    0 -0.61570199890E+01 -0.67897459607E+02  0.16149862103E+03  0.19654055450E+03  0.88873005203E+02 0.  0.
          5    1    3    3  502    0 -0.38985122557E+02 -0.19059164272E+02  0.90905473468E+02  0.10081849548E+03  0.41800000000E+01 0. -1.
         -5    1    3    3    0  502  0.45142142546E+02  0.86956623879E+02  0.15755087454E+03  0.18557752541E+03  0.41800000000E+01 0. -1.
        -11    1    4    4    0    0 -0.35280838844E+02 -0.67569530199E+02  0.14296943223E+03  0.16202048498E+03  0.00000000000E+00 0.  1.
         11    1    4    4    0    0  0.29123818855E+02 -0.32792940855E+00  0.18529188799E+02  0.34520069524E+02  0.00000000000E+00 0. -1.
</event>
<event>
 8    1  0.7052796E-009  0.1435468E+03  0.7561462E-02  0.1208635E+00
          2   -1    0    0  501    0  0.00000000000E+00  0.00000000000E+00  0.20331563773E+03  0.20331563773E+03  0.00000000000E+00 0.  1.
         -2   -1    0    0    0  501 -0.00000000000E+00 -0.00000000000E+00 -0.14990065740E+03  0.14990065740E+03  0.00000000000E+00 0. -1.
         25    2    1    2    0    0 -0.11634786830E+03  0.66635637899E+02  0.47645682897E+02  0.18946109444E+03  0.12509300744E+03 0.  0.
         23    2    1    2    0    0  0.11634786830E+03 -0.66635637899E+02  0.57692974342E+01  0.16375520069E+03  0.93836806554E+02 0.  0.
          5    1    3    3  502    0 -0.64034997242E+02  0.87385756186E+01  0.81670841881E+02  0.10423263591E+03  0.41800000000E+01 0.  1.
         -5    1    3    3    0  502 -0.52312871058E+02  0.57897062280E+02 -0.34025158984E+02  0.85228458527E+02  0.41800000000E+01 0.  1.
        -11    1    4    4    0    0  0.66079573402E+02 -0.73920400459E+01 -0.35927518501E+02  0.75577370044E+02  0.00000000000E+00 0. -1.
         11    1    4    4    0    0  0.50268294897E+02 -0.59243597853E+02  0.41696815935E+02  0.88177830647E+02  0.00000000000E+00 0.  1.
</event>
<event>
 8    1  0.7052796E-009  0.1078811E+03  0.7561462E-02  0.1264545E+00
         -2   -1    0    0    0  501 -0.00000000000E+00  0.00000000000E+00  0.16358999572E+02  0.16358999572E+02  0.00000000000E+00 0. -1.
          2   -1    0    0  501    0  0.00000000000E+00 -0.00000000000E+00 -0.19475350502E+04  0.19475350502E+04  0.00000000000E+00 0.  1.
         25    2    1    2    0    0  0.53792034625E+02  0.53284644277E+02 -0.16761235518E+04  0.16824891060E+04  0.12508634956E+03 0.  0.
         23    2    1    2    0    0 -0.53792034625E+02 -0.53284644277E+02 -0.25505249884E+03  0.28140494371E+03  0.91674035997E+02 0.  0.
          5    1    3    3  502    0  0.61679055234E+02  0.22845635020E+02 -0.35999074465E+03  0.36597409407E+03  0.41800000000E+01 0.  1.
         -5    1    3    3    0  502 -0.78870206088E+01  0.30439009257E+02 -0.13161328071E+04  0.13165150120E+04  0.41800000000E+01 0.  1.
        -11    1    4    4    0    0 -0.46459341476E+02  0.15487455894E+02 -0.12170798006E+03  0.13119132635E+03  0.00000000000E+00 0.  1.
         11    1    4    4    0    0 -0.73326931485E+01 -0.68772100171E+02 -0.13334451878E+03  0.15021361736E+03  0.00000000000E+00 0. -1.
</event>
<event>
 8    1  0.7052796E-009  0.1090452E+03  0.7561462E-02  0.1262348E+00
         -2   -1    0    0    0  501 -0.00000000000E+00  0.00000000000E+00  0.13918695543E+03  0.13918695543E+03  0.00000000000E+00 0.  1.
          2   -1    0    0  501    0  0.00000000000E+00 -0.00000000000E+00 -0.11250136255E+03  0.11250136255E+03  0.00000000000E+00 0. -1.
         25    2    1    2    0    0 -0.36727256824E+02 -0.44302960389E+02  0.36402968038E+02  0.14242777801E+03  0.12509537231E+03 0.  0.
         23    2    1    2    0    0  0.36727256824E+02  0.44302960389E+02 -0.97173751596E+01  0.10926053996E+03  0.92367713623E+02 0.  0.
          5    1    3    3  502    0  0.31755896733E+02 -0.55177997067E+02  0.35378441932E+02  0.72953100628E+02  0.41800000000E+01 0. -1.
         -5    1    3    3    0  502 -0.68483153558E+02  0.10875036678E+02  0.10245261065E+01  0.69474677385E+02  0.41800000000E+01 0. -1.
        -11    1    4    4    0    0  0.49091147760E+02  0.12436771588E+02  0.28400440246E+02  0.58062027885E+02  0.00000000000E+00 0.  1.
         11    1    4    4    0    0 -0.12363890935E+02  0.31866188801E+02 -0.38117815406E+02  0.51198512079E+02  0.00000000000E+00 0. -1.
</event>
<event>
 8    1  0.7052796E-009  0.1315267E+03  0.7561462E-02  0.1225208E+00
          1   -1    0    0  501    0  0.00000000000E+00  0.00000000000E+00  0.75417677453E+03  0.75417677453E+03  0.00000000000E+00 0. -1.
         -1   -1    0    0    0  501 -0.00000000000E+00 -0.00000000000E+00 -0.38357882527E+02  0.38357882527E+02  0.00000000000E+00 0.  1.
         25    2    1    2    0    0  0.75659772197E+02 -0.78979664725E+02  0.55988081237E+03  0.58401780248E+03  0.12509228987E+03 0.  0.
         23    2    1    2    0    0 -0.75659772197E+02  0.78979664725E+02  0.15593807964E+03  0.20851685458E+03  0.84855202516E+02 0.  0.
          5    1    3    3  502    0  0.80836632183E+01  0.10222152010E+02  0.66829550207E+00  0.13702445826E+02  0.41800000000E+01 0.  1.
         -5    1    3    3    0  502  0.67576108979E+02 -0.89201816735E+02  0.55921251687E+03  0.57031535665E+03  0.41800000000E+01 0.  1.
        -11    1    4    4    0    0  0.49931253715E+01  0.52141162516E+02  0.72179554722E+02  0.89182510894E+02  0.00000000000E+00 0. -1.
         11    1    4    4    0    0 -0.80652897569E+02  0.26838502209E+02  0.83758524915E+02  0.11933434369E+03  0.00000000000E+00 0.  1.
</event>
<event>
 8    1  0.7052796E-009  0.9788448E+02  0.7561462E-02  0.1284809E+00
         -2   -1    0    0    0  501 -0.00000000000E+00  0.00000000000E+00  0.26820332124E+02  0.26820332124E+02  0.00000000000E+00 0.  1.
          2   -1    0    0  501    0  0.00000000000E+00 -0.00000000000E+00 -0.68040273227E+03  0.68040273227E+03  0.00000000000E+00 0. -1.
         25    2    1    2    0    0 -0.67748365814E+02 -0.38060899705E+02 -0.30304541229E+03  0.33693104196E+03  0.12509009543E+03 0.  0.
         23    2    1    2    0    0  0.67748365814E+02  0.38060899705E+02 -0.35053698786E+03  0.37029202243E+03  0.90562292704E+02 0.  0.
          5    1    3    3  502    0 -0.13716989035E+02 -0.16562489566E+02  0.57746191845E+01  0.22655914803E+02  0.41800000000E+01 0.  1.
         -5    1    3    3    0  502 -0.54031376778E+02 -0.21498410138E+02 -0.30882003147E+03  0.31427512716E+03  0.41800000000E+01 0.  1.
        -11    1    4    4    0    0  0.24339636855E+02 -0.27630461474E+02 -0.72413168895E+02  0.81237475052E+02  0.00000000000E+00 0.  1.
         11    1    4    4    0    0  0.43408728959E+02  0.65691361179E+02 -0.27812381896E+03  0.28905454737E+03  0.00000000000E+00 0. -1.
</event>
<event>
 8    1  0.7052796E-009  0.1162982E+03  0.7561462E-02  0.1249332E+00
          2   -1    0    0  501    0  0.00000000000E+00  0.00000000000E+00  0.74279086483E+03  0.74279086483E+03  0.00000000000E+00 0. -1.
         -2   -1    0    0    0  501 -0.00000000000E+00 -0.00000000000E+00 -0.23360682659E+02  0.23360682659E+02  0.00000000000E+00 0.  1.
         25    2    1    2    0    0  0.72687843743E+02  0.69794837669E+01  0.35749111989E+03  0.38572005507E+03  0.12509126373E+03 0.  0.
         23    2    1    2    0    0 -0.72687843743E+02 -0.69794837669E+01  0.36193906228E+03  0.38043149242E+03  0.91629688404E+02 0.  0.
          5    1    3    3  502    0  0.11062617389E+02  0.45071626354E+02  0.26023462814E+03  0.26437353704E+03  0.41800000000E+01 0.  1.
         -5    1    3    3    0  502  0.61625226354E+02 -0.38092142587E+02  0.97256491753E+02  0.12134651803E+03  0.41800000000E+01 0.  1.
        -11    1    4    4    0    0 -0.51518420596E+00  0.31593052681E+02  0.62799344814E+02  0.70300384790E+02  0.00000000000E+00 0.  1.
         11    1    4    4    0    0 -0.72172659537E+02 -0.38572536448E+02  0.29913971746E+03  0.31013110763E+03  0.00000000000E+00 0. -1.
</event>
<event>
 8    1  0.7052796E-009  0.1606680E+03  0.7561462E-02  0.1187945E+00
          3   -1    0    0  501    0  0.00000000000E+00  0.00000000000E+00  0.47602730577E+02  0.47602730577E+02  0.00000000000E+00 0. -1.
         -3   -1    0    0    0  501 -0.00000000000E+00 -0.00000000000E+00 -0.68635553725E+03  0.68635553725E+03  0.00000000000E+00 0.  1.
         25    2    1    2    0    0 -0.11510564674E+03  0.24505882819E+02 -0.16990414403E+03  0.24158833092E+03  0.12509058827E+03 0.  0.
         23    2    1    2    0    0  0.11510564674E+03 -0.24505882819E+02 -0.46884866265E+03  0.49236993691E+03  0.93590801382E+02 0.  0.
          5    1    3    3  502    0  0.25002320162E+02 -0.92854980494E+01 -0.34340887864E+02  0.43681866567E+02  0.41800000000E+01 0.  1.
         -5    1    3    3    0  502 -0.14010796690E+03  0.33791380868E+02 -0.13556325616E+03  0.19790646435E+03  0.41800000000E+01 0.  1.
        -11    1    4    4    0    0  0.10406690950E+03  0.18548265428E+02 -0.31793573570E+03  0.33504789485E+03  0.00000000000E+00 0.  1.
         11    1    4    4    0    0  0.11038737245E+02 -0.43054148247E+02 -0.15091292695E+03  0.15732204207E+03  0.00000000000E+00 0. -1.
</event>
<event>
 8    1  0.7052796E-009  0.1971295E+03  0.7561462E-02  0.1152184E+00
         -2   -1    0    0    0  501 -0.00000000000E+00  0.00000000000E+00  0.17543936965E+03  0.17543936965E+03  0.00000000000E+00 0.  1.
          2   -1    0    0  501    0  0.00000000000E+00 -0.00000000000E+00 -0.23969924146E+03  0.23969924146E+03  0.00000000000E+00 0. -1.
         25    2    1    2    0    0 -0.91583044686E+02  0.13833667038E+03  0.19170084021E+02  0.20866184336E+03  0.12509110402E+03 0.  0.
         23    2    1    2    0    0  0.91583044686E+02 -0.13833667038E+03 -0.83429955825E+02  0.20647676776E+03  0.90264110523E+02 0.  0.
          5    1    3    3  502    0  0.29932154010E+02  0.28410746644E+02 -0.87401886254E+01  0.42390655406E+02  0.41800000000E+01 0.  1.
         -5    1    3    3    0  502 -0.12151519870E+03  0.10992592374E+03  0.27910272646E+02  0.16627118795E+03  0.41800000000E+01 0.  1.
        -11    1    4    4    0    0  0.59572744239E+02 -0.14983272831E+02 -0.27717056069E+02  0.67391731822E+02  0.00000000000E+00 0.  1.
         11    1    4    4    0    0  0.32010300446E+02 -0.12335339755E+03 -0.55712899756E+02  0.13908503593E+03  0.00000000000E+00 0. -1.
</event>
<event>
 8    1  0.7052796E-009  0.1606520E+03  0.7561462E-02  0.1187963E+00
         -1   -1    0    0    0  501 -0.00000000000E+00  0.00000000000E+00  0.72609868075E+02  0.72609868075E+02  0.00000000000E+00 0.  1.
          1   -1    0    0  501    0  0.00000000000E+00 -0.00000000000E+00 -0.39347952834E+03  0.39347952834E+03  0.00000000000E+00 0. -1.
         25    2    1    2    0    0  0.97678889232E+02 -0.82041177721E+02 -0.19302692382E+03  0.26301881931E+03  0.12509031037E+03 0.  0.
         23    2    1    2    0    0 -0.97678889232E+02  0.82041177721E+02 -0.12784273644E+03  0.20307057710E+03  0.92854584057E+02 0.  0.
          5    1    3    3  502    0  0.11397905613E+03 -0.25422050401E+02 -0.10554607174E+03  0.15746412779E+03  0.41800000000E+01 0. -1.
         -5    1    3    3    0  502 -0.16300166899E+02 -0.56619127320E+02 -0.87480852085E+02  0.10555469152E+03  0.41800000000E+01 0. -1.
        -11    1    4    4    0    0 -0.38163252246E+02  0.76647875947E+02 -0.34661142041E+02  0.92372752892E+02  0.00000000000E+00 0.  1.
         11    1    4    4    0    0 -0.59515636987E+02  0.53933017736E+01 -0.93181594401E+02  0.11069782421E+03  0.00000000000E+00 0. -1.
</event>
<event>
 8    1  0.7052796E-009  0.1054941E+03  0.7561462E-02  0.1269149E+00
          2   -1    0    0  501    0  0.00000000000E+00  0.00000000000E+00  0.80915726613E+03  0.80915726613E+03  0.00000000000E+00 0. -1.
         -2   -1    0    0    0  501 -0.00000000000E+00 -0.00000000000E+00 -0.27978811565E+02  0.27978811565E+02  0.00000000000E+00 0.  1.
         25    2    1    2    0    0  0.11296731988E+02 -0.62280674758E+02  0.62699725836E+03  0.64247983893E+03  0.12509309668E+03 0.  0.
         23    2    1    2    0    0 -0.11296731988E+02  0.62280674758E+02  0.15418119620E+03  0.19465623876E+03  0.10056197803E+03 0.  0.
          5    1    3    3  502    0 -0.24499999587E+02  0.10716677787E+02  0.31878833251E+02  0.41819009697E+02  0.41800000000E+01 0. -1.
         -5    1    3    3    0  502  0.35796731575E+02 -0.72997352545E+02  0.59511842511E+03  0.60066082923E+03  0.41800000000E+01 0. -1.
        -11    1    4    4    0    0  0.24574631395E+02 -0.60768704089E+01  0.37739929472E+01  0.25594606559E+02  0.00000000000E+00 0.  1.
         11    1    4    4    0    0 -0.35871363383E+02  0.68357545167E+02  0.15040720325E+03  0.16906163220E+03  0.00000000000E+00 0. -1.
</event>
<event>
 8    1  0.7052796E-009  0.1380131E+03  0.7561462E-02  0.1216028E+00
         -2   -1    0    0    0  501 -0.00000000000E+00  0.00000000000E+00  0.80463891647E+02  0.80463891647E+02  0.00000000000E+00 0.  1.
          2   -1    0    0  501    0  0.00000000000E+00 -0.00000000000E+00 -0.35397340558E+03  0.35397340558E+03  0.00000000000E+00 0. -1.
         25    2    1    2    0    0 -0.95926540530E+02  0.81746629218E+02 -0.12986976384E+03  0.21999628455E+03  0.12509115511E+03 0.  0.
         23    2    1    2    0    0  0.95926540530E+02 -0.81746629218E+02 -0.14363975009E+03  0.21444101268E+03  0.97304458002E+02 0.  0.
          5    1    3    3  502    0 -0.49356940950E+02  0.15502042566E+02  0.14958300436E+02  0.54015220962E+02  0.41800000000E+01 0.  1.
         -5    1    3    3    0  502 -0.46569599579E+02  0.66244586652E+02 -0.14482806428E+03  0.16598106358E+03  0.41800000000E+01 0.  1.
        -11    1    4    4    0    0  0.55429310623E+02 -0.42402245381E+01 -0.12763743070E+02  0.57037716622E+02  0.00000000000E+00 0.  1.
         11    1    4    4    0    0  0.40497229906E+02 -0.77506404680E+02 -0.13087600702E+03  0.15740329606E+03  0.00000000000E+00 0. -1.
</event>
<event>
 8    1  0.7052796E-009  0.1130729E+03  0.7561462E-02  0.1254983E+00
          2   -1    0    0  501    0  0.00000000000E+00  0.00000000000E+00  0.80076733629E+03  0.80076733629E+03  0.00000000000E+00 0. -1.
         -2   -1    0    0    0  501 -0.00000000000E+00 -0.00000000000E+00 -0.16626949151E+02  0.16626949151E+02  0.00000000000E+00 0.  1.
         25    2    1    2    0    0  0.31255606368E+01 -0.39069941071E+02  0.43509113765E+03  0.45440983428E+03  0.12509104686E+03 0.  0.
         23    2    1    2    0    0 -0.31255606368E+01  0.39069941071E+02  0.34904924949E+03  0.36298445117E+03  0.91575672491E+02 0.  0.
          5    1    3    3  502    0  0.61109562667E+02 -0.65217811865E+00  0.21442976334E+03  0.22300762272E+03  0.41800000000E+01 0.  1.
         -5    1    3    3    0  502 -0.57984002030E+02 -0.38417762952E+02  0.22066137431E+03  0.23140221156E+03  0.41800000000E+01 0.  1.
        -11    1    4    4    0    0 -0.26870929086E+02  0.58597395049E+02  0.18078459392E+03  0.19193428807E+03  0.00000000000E+00 0.  1.
         11    1    4    4    0    0  0.23745368450E+02 -0.19527453978E+02  0.16826465557E+03  0.17105016310E+03  0.00000000000E+00 0. -1.
</event>
<event>
 8    1  0.7052796E-009  0.9269657E+02  0.7561462E-02  0.1296450E+00
          1   -1    0    0  501    0  0.00000000000E+00  0.00000000000E+00  0.14224477316E+03  0.14224477316E+03  0.00000000000E+00 0. -1.
         -1   -1    0    0    0  501 -0.00000000000E+00 -0.00000000000E+00 -0.10818938893E+03  0.10818938893E+03  0.00000000000E+00 0.  1.
         25    2    1    2    0    0 -0.54407845112E+02  0.96262869783E+01 -0.67790951700E+01  0.13691436947E+03  0.12508680756E+03 0.  0.
         23    2    1    2    0    0  0.54407845112E+02 -0.96262869783E+01  0.40834479399E+02  0.11351979262E+03  0.90368189078E+02 0.  0.
          5    1    3    3  502    0 -0.79263094136E+02  0.28603042873E+02  0.28997576652E+02  0.89213810620E+02  0.41800000000E+01 0.  1.
         -5    1    3    3    0  502  0.24855249024E+02 -0.18976755895E+02 -0.35776671822E+02  0.47700558854E+02  0.41800000000E+01 0.  1.
        -11    1    4    4    0    0  0.22990849542E+02  0.16755960384E+02 -0.23714669777E+02  0.37036832123E+02  0.00000000000E+00 0.  1.
         11    1    4    4    0    0  0.31416995571E+02 -0.26382247363E+02  0.64549149176E+02  0.76482960494E+02  0.00000000000E+00 0. -1.
</event>
<event>
 8    1  0.7052796E-009  0.8899252E+02  0.7561462E-02  0.1305310E+00
         -2   -1    0    0    0  501 -0.00000000000E+00  0.00000000000E+00  0.13983303280E+03  0.13983303280E+03  0.00000000000E+00 0.  1.
          2   -1    0    0  501    0  0.00000000000E+00 -0.00000000000E+00 -0.12823113954E+03  0.12823113954E+03  0.00000000000E+00 0. -1.
         25    2    1    2    0    0  0.34069156832E+02 -0.28667120645E+02 -0.57282462935E+02  0.14461493291E+03  0.12509870905E+03 0.  0.
         23    2    1    2    0    0 -0.34069156832E+02  0.28667120645E+02  0.68884356187E+02  0.12344923943E+03  0.92261307902E+02 0.  0.
          5    1    3    3  502    0  0.63978335023E+02 -0.70954474885E+01 -0.78705668628E+02  0.10176260316E+03  0.41800000000E+01 0. -1.
         -5    1    3    3    0  502 -0.29909178191E+02 -0.21571673157E+02  0.21423205693E+02  0.42852329749E+02  0.41800000000E+01 0. -1.
        -11    1    4    4    0    0 -0.52418934023E+02  0.20606969621E+02  0.82012086847E+02  0.99490573573E+02  0.00000000000E+00 0.  1.
         11    1    4    4    0    0  0.18349777190E+02  0.80601510241E+01 -0.13127730660E+02  0.23958665859E+02  0.00000000000E+00 0. -1.
</event>
<event>
 8    1  0.7052796E-009  0.1050681E+03  0.7561462E-02  0.1269985E+00
         -1   -1    0    0    0  501 -0.00000000000E+00  0.00000000000E+00  0.51117128041E+03  0.51117128041E+03  0.00000000000E+00 0.  1.
          1   -1    0    0  501    0  0.00000000000E+00 -0.00000000000E+00 -0.45713456789E+02  0.45713456789E+02  0.00000000000E+00 0. -1.
         25    2    1    2    0    0  0.31853640003E+02 -0.92702625820E+02  0.17083769474E+03  0.23332578300E+03  0.12508785654E+03 0.  0.
         23    2    1    2    0    0 -0.31853640003E+02  0.92702625820E+02  0.29462012888E+03  0.32355895420E+03  0.90999699371E+02 0.  0.
          5    1    3    3  502    0  0.16635826155E+01 -0.38939837046E+02  0.16685399585E+03  0.17139663575E+03  0.41800000000E+01 0.  1.
         -5    1    3    3    0  502  0.30190057387E+02 -0.53762788774E+02  0.39836988888E+01  0.61929147246E+02  0.41800000000E+01 0.  1.
        -11    1    4    4    0    0 -0.30122949704E+02  0.19434975622E+02  0.20344932414E+03  0.20658348886E+03  0.00000000000E+00 0.  1.
         11    1    4    4    0    0 -0.17306902986E+01  0.73267650198E+02  0.91170804741E+02  0.11697546534E+03  0.00000000000E+00 0. -1.
</event>
<event>
 8    1  0.7052796E-009  0.3263213E+03  0.7561462E-02  0.1072776E+00
          1   -1    0    0  501    0  0.00000000000E+00  0.00000000000E+00  0.10430140903E+04  0.10430140903E+04  0.00000000000E+00 0. -1.
         -1   -1    0    0    0  501 -0.00000000000E+00 -0.00000000000E+00 -0.11006426647E+03  0.11006426647E+03  0.00000000000E+00 0.  1.
         25    2    1    2    0    0 -0.24818087482E+02  0.31671906224E+03  0.54621735690E+03  0.64414834056E+03  0.12508709694E+03 0.  0.
         23    2    1    2    0    0  0.24818087482E+02 -0.31671906224E+03  0.38673246695E+03  0.50893001623E+03  0.92308496748E+02 0.  0.
          5    1    3    3  502    0  0.35221307222E+02  0.18018740848E+03  0.37132826891E+03  0.41425861288E+03  0.41800000000E+01 0. -1.
         -5    1    3    3    0  502 -0.60039394704E+02  0.13653165376E+03  0.17488908799E+03  0.22988972768E+03  0.41800000000E+01 0. -1.
        -11    1    4    4    0    0  0.34040451440E+02 -0.21816666148E+03  0.32280161134E+03  0.39109631141E+03  0.00000000000E+00 0.  1.
         11    1    4    4    0    0 -0.92223639582E+01 -0.98552400755E+02  0.63930855617E+02  0.11783370482E+03  0.00000000000E+00 0. -1.
</event>
<event>
 8    1  0.7052796E-009  0.1184381E+03  0.7561462E-02  0.1245696E+00
         -2   -1    0    0    0  501 -0.00000000000E+00  0.00000000000E+00  0.27974466265E+03  0.27974466265E+03  0.00000000000E+00 0.  1.
          2   -1    0    0  501    0  0.00000000000E+00 -0.00000000000E+00 -0.99455154906E+02  0.99455154906E+02  0.00000000000E+00 0. -1.
         25    2    1    2    0    0  0.16413770918E+01 -0.59729123251E+02 -0.30030390124E+02  0.14184179121E+03  0.12508799750E+03 0.  0.
         23    2    1    2    0    0 -0.16413770918E+01  0.59729123251E+02  0.21031989786E+03  0.23735802635E+03  0.92380251947E+02 0.  0.
          5    1    3    3  502    0 -0.22965965191E+01 -0.98083103794E+02 -0.11530158904E+02  0.98873588839E+02  0.41800000000E+01 0. -1.
         -5    1    3    3    0  502  0.39379736109E+01  0.38353980543E+02 -0.18500231220E+02  0.42968202369E+02  0.41800000000E+01 0. -1.
        -11    1    4    4    0    0  0.27853453260E+02 -0.54246130532E+01  0.21972452868E+02  0.35889134432E+02  0.00000000000E+00 0. -1.
         11    1    4    4    0    0 -0.29494830352E+02  0.65153736305E+02  0.18834744500E+03  0.20146889191E+03  0.00000000000E+00 0.  1.
</event>
<event>
 8    1  0.7052796E-009  0.9619660E+02  0.7561462E-02  0.1288504E+00
         -2   -1    0    0    0  501 -0.00000000000E+00  0.00000000000E+00  0.43422383438E+02  0.43422383438E+02  0.00000000000E+00 0.  1.
          2   -1    0    0  501    0  0.00000000000E+00 -0.00000000000E+00 -0.31120353666E+03  0.31120353666E+03  0.00000000000E+00 0. -1.
         25    2    1    2    0    0  0.55767526520E+01 -0.35899816591E+02 -0.18138553882E+03  0.22331168800E+03  0.12508996482E+03 0.  0.
         23    2    1    2    0    0 -0.55767526520E+01  0.35899816591E+02 -0.86395614400E+02  0.13131423210E+03  0.91974607169E+02 0.  0.
          5    1    3    3  502    0  0.24452407231E+02  0.34207327916E+02 -0.12298320519E+03  0.13004000408E+03  0.41800000000E+01 0.  1.
         -5    1    3    3    0  502 -0.18875654579E+02 -0.70107144507E+02 -0.58402333637E+02  0.93271683918E+02  0.41800000000E+01 0.  1.
        -11    1    4    4    0    0  0.30861095454E+02  0.23957270031E+02 -0.84298664911E+02  0.92911909386E+02  0.00000000000E+00 0. -1.
         11    1    4    4    0    0 -0.36437848106E+02  0.11942546559E+02 -0.20969494890E+01  0.38402322717E+02  0.00000000000E+00 0.  1.
</event>
<event>
 8    1  0.7052796E-009  0.1606908E+03  0.7561462E-02  0.1187919E+00
          1   -1    0    0  501    0  0.00000000000E+00  0.00000000000E+00  0.11861201467E+04  0.11861201467E+04  0.00000000000E+00 0. -1.
         -1   -1    0    0    0  501 -0.00000000000E+00 -0.00000000000E+00 -0.27918763042E+02  0.27918763042E+02  0.00000000000E+00 0.  1.
         25    2    1    2    0    0  0.13434564914E+03 -0.71100762290E+01  0.77624672588E+03  0.79768742889E+03  0.12508776178E+03 0.  0.
         23    2    1    2    0    0 -0.13434564914E+03  0.71100762290E+01  0.38195465775E+03  0.41635148082E+03  0.96746516096E+02 0.  0.
          5    1    3    3  502    0  0.44317922891E+02 -0.43708317987E+02  0.13038083293E+03  0.14453763989E+03  0.41800000000E+01 0. -1.
         -5    1    3    3    0  502  0.90027726251E+02  0.36598241758E+02  0.64586589295E+03  0.65314978900E+03  0.41800000000E+01 0. -1.
        -11    1    4    4    0    0 -0.13225559937E+03  0.32546584107E+02  0.34923817775E+03  0.37485747759E+03  0.00000000000E+00 0. -1.
         11    1    4    4    0    0 -0.20900497755E+01 -0.25436507878E+02  0.32716479995E+02  0.41494003234E+02  0.00000000000E+00 0.  1.
</event>
<event>
 8    1  0.7052796E-009  0.1176869E+03  0.7561462E-02  0.1246962E+00
         -4   -1    0    0    0  501 -0.00000000000E+00  0.00000000000E+00  0.73998055919E+01  0.73998055919E+01  0.00000000000E+00 0. -1.
          4   -1    0    0  501    0  0.00000000000E+00 -0.00000000000E+00 -0.21685326428E+04  0.21685326428E+04  0.00000000000E+00 0.  1.
         25    2    1    2    0    0  0.44223933308E+02 -0.15359265106E+02 -0.16034422996E+04  0.16089956043E+04  0.12509189896E+03 0.  0.
         23    2    1    2    0    0 -0.44223933308E+02  0.15359265106E+02 -0.55769053760E+03  0.56693684409E+03  0.90592417771E+02 0.  0.
          5    1    3    3  502    0 -0.43747534417E+02 -0.10584501790E+02 -0.50648581702E+03  0.50849900068E+03  0.41800000000E+01 0.  1.
         -5    1    3    3    0  502  0.87971467725E+02 -0.47747633154E+01 -0.10969564826E+04  0.11004966036E+04  0.41800000000E+01 0.  1.
        -11    1    4    4    0    0  0.19236478303E+02 -0.21285242192E+02 -0.15483389092E+03  0.15746948089E+03  0.00000000000E+00 0. -1.
         11    1    4    4    0    0 -0.63460411611E+02  0.36644507298E+02 -0.40285664668E+03  0.40946736321E+03  0.00000000000E+00 0.  1.
</event>
<event>
 8    1  0.7052796E-009  0.9569580E+02  0.7561462E-02  0.1289617E+00
          2   -1    0    0  501    0  0.00000000000E+00  0.00000000000E+00  0.14392580912E+03  0.14392580912E+03  0.00000000000E+00 0. -1.
         -2   -1    0    0    0  501 -0.00000000000E+00 -0.00000000000E+00 -0.88619887883E+02  0.88619887883E+02  0.00000000000E+00 0.  1.
         25    2    1    2    0    0  0.20882349634E+02  0.16115585956E+02  0.34165903947E+02  0.13232637837E+03  0.12508867568E+03 0.  0.
         23    2    1    2    0    0 -0.20882349634E+02 -0.16115585956E+02  0.21140017292E+02  0.10021931864E+03  0.94346313440E+02 0.  0.
          5    1    3    3  502    0 -0.16212664221E+02 -0.35573691964E+02  0.52863777238E+02  0.65881631620E+02  0.41800000000E+01 0.  1.
         -5    1    3    3    0  502  0.37095013854E+02  0.51689277920E+02 -0.18697873291E+02  0.66444746748E+02  0.41800000000E+01 0.  1.
        -11    1    4    4    0    0 -0.49777428187E+02  0.83263075005E+01  0.33303130232E+02  0.60466670463E+02  0.00000000000E+00 0. -1.
         11    1    4    4    0    0  0.28895078554E+02 -0.24441893457E+02 -0.12163112941E+02  0.39752648173E+02  0.00000000000E+00 0.  1.
</event>
<event>
 8    1  0.7052796E-009  0.9276600E+02  0.7561462E-02  0.1296288E+00
         -2   -1    0    0    0  501 -0.00000000000E+00  0.00000000000E+00  0.59555677199E+02  0.59555677199E+02  0.00000000000E+00 0.  1.
          2   -1    0    0  501    0  0.00000000000E+00 -0.00000000000E+00 -0.22847455768E+03  0.22847455768E+03  0.00000000000E+00 0. -1.
         25    2    1    2    0    0  0.38338380137E+02  0.12846707627E+02 -0.76229171690E+02  0.15196176271E+03  0.12508645579E+03 0.  0.
         23    2    1    2    0    0 -0.38338380137E+02 -0.12846707627E+02 -0.92689708795E+02  0.13606847217E+03  0.91040527867E+02 0.  0.
          5    1    3    3  502    0  0.68108187233E+02  0.68451242953E+01 -0.94130282373E+02  0.11646271229E+03  0.41800000000E+01 0. -1.
         -5    1    3    3    0  502 -0.29769807096E+02  0.60015833314E+01  0.17901110683E+02  0.35499050420E+02  0.41800000000E+01 0. -1.
        -11    1    4    4    0    0 -0.58636287497E+02  0.55572315369E+01 -0.26801104889E+02  0.64710093935E+02  0.00000000000E+00 0.  1.
         11    1    4    4    0    0  0.20297907360E+02 -0.18403939164E+02 -0.65888603906E+02  0.71358378237E+02  0.00000000000E+00 0. -1.
</event>
<event>
 8    1  0.7052796E-009  0.9676872E+02  0.7561462E-02  0.1287241E+00
          1   -1    0    0  501    0  0.00000000000E+00  0.00000000000E+00  0.13466420504E+03  0.13466420504E+03  0.00000000000E+00 0. -1.
         -1   -1    0    0    0  501 -0.00000000000E+00 -0.00000000000E+00 -0.11961932696E+03  0.11961932696E+03  0.00000000000E+00 0.  1.
         25    2    1    2    0    0  0.32208090407E+02 -0.34528405710E+02  0.59553426925E+02  0.14636795827E+03  0.12508955457E+03 0.  0.
         23    2    1    2    0    0 -0.32208090407E+02  0.34528405710E+02 -0.44508548842E+02  0.10791557373E+03  0.86227537624E+02 0.  0.
          5    1    3    3  502    0  0.33143795056E+02 -0.66375394387E+02 -0.47739130046E+01  0.74461176301E+02  0.41800000000E+01 0.  1.
         -5    1    3    3    0  502 -0.93570464918E+00  0.31846988677E+02  0.64327339929E+02  0.71906781971E+02  0.41800000000E+01 0.  1.
        -11    1    4    4    0    0  0.56509009583E+01 -0.19960807082E+02  0.90623183154E+01  0.22638288677E+02  0.00000000000E+00 0. -1.
         11    1    4    4    0    0 -0.37858991365E+02  0.54489212791E+02 -0.53570867157E+02  0.85277285052E+02  0.00000000000E+00 0.  1.
</event>
<event>
 8    1  0.7052796E-009  0.9787757E+02  0.7561462E-02  0.1284823E+00
         -2   -1    0    0    0  501 -0.00000000000E+00  0.00000000000E+00  0.23092811201E+02  0.23092811201E+02  0.00000000000E+00 0. -1.
          2   -1    0    0  501    0  0.00000000000E+00 -0.00000000000E+00 -0.53821259525E+03  0.53821259525E+03  0.00000000000E+00 0.  1.
         25    2    1    2    0    0  0.27041095225E+02 -0.17553977696E+00 -0.35743131293E+03  0.37965369643E+03  0.12509410100E+03 0.  0.
         23    2    1    2    0    0 -0.27041095225E+02  0.17553977696E+00 -0.15768847112E+03  0.18165171002E+03  0.86025799529E+02 0.  0.
          5    1    3    3  502    0 -0.14111637087E+02 -0.45881256626E+02 -0.65667944776E+02  0.81449244207E+02  0.41800000000E+01 0.  1.
         -5    1    3    3    0  502  0.41152732312E+02  0.45705716849E+02 -0.29176336815E+03  0.29820445222E+03  0.41800000000E+01 0.  1.
        -11    1    4    4    0    0 -0.44290520966E+02  0.28568330797E+02 -0.68174942227E+02  0.86172051848E+02  0.00000000000E+00 0.  1.
         11    1    4    4    0    0  0.17249425740E+02 -0.28392791020E+02 -0.89513528896E+02  0.95479658177E+02  0.00000000000E+00 0. -1.
</event>
<event>
 8    1  0.7052796E-009  0.1552682E+03  0.7561462E-02  0.1194145E+00
          2   -1    0    0  501    0  0.00000000000E+00  0.00000000000E+00  0.56200045430E+02  0.56200045430E+02  0.00000000000E+00 0. -1.
         -2   -1    0    0    0  501 -0.00000000000E+00 -0.00000000000E+00 -0.52222877540E+03  0.52222877540E+03  0.00000000000E+00 0.  1.
         25    2    1    2    0    0 -0.12854622191E+02  0.13136655311E+03 -0.25845772040E+03  0.31602305978E+03  0.12509104080E+03 0.  0.
         23    2    1    2    0    0  0.12854622191E+02 -0.13136655311E+03 -0.20757100958E+03  0.26240576106E+03  0.91370929918E+02 0.  0.
          5    1    3    3  502    0  0.31573366201E+02  0.84233073838E+02 -0.22635627431E+03  0.24361182956E+03  0.41800000000E+01 0.  1.
         -5    1    3    3    0  502 -0.44427988392E+02  0.47133479270E+02 -0.32101446092E+02  0.72411230219E+02  0.41800000000E+01 0.  1.
        -11    1    4    4    0    0  0.46983546195E+02 -0.93223665071E+02 -0.10660103919E+03  0.14920417855E+03  0.00000000000E+00 0. -1.
         11    1    4    4    0    0 -0.34128924004E+02 -0.38142888036E+02 -0.10096997039E+03  0.11320158251E+03  0.00000000000E+00 0.  1.
</event>
<event>
 8    1  0.7052796E-009  0.1800946E+03  0.7561462E-02  0.1167712E+00
          2   -1    0    0  501    0  0.00000000000E+00  0.00000000000E+00  0.37936474927E+03  0.37936474927E+03  0.00000000000E+00 0.  1.
         -2   -1    0    0    0  501 -0.00000000000E+00 -0.00000000000E+00 -0.12901739594E+03  0.12901739594E+03  0.00000000000E+00 0. -1.
         25    2    1    2    0    0 -0.23917622956E+02  0.17002776779E+03  0.23735248157E+03  0.31853737167E+03  0.12509341363E+03 0.  0.
         23    2    1    2    0    0  0.23917622956E+02 -0.17002776779E+03  0.12994871747E+02  0.18984477354E+03  0.79941709039E+02 0.  0.
          5    1    3    3  502    0  0.25089870446E+02  0.30032844730E+02  0.88138128142E+00  0.39366516160E+02  0.41800000000E+01 0.  1.
         -5    1    3    3    0  502 -0.49007493402E+02  0.13999492305E+03  0.23647110029E+03  0.27917085551E+03  0.41800000000E+01 0.  1.
        -11    1    4    4    0    0  0.57317593123E+00 -0.58550635353E+02 -0.32769052197E+02  0.67099301135E+02  0.00000000000E+00 0. -1.
         11    1    4    4    0    0  0.23344447025E+02 -0.11147713243E+03  0.45763923943E+02  0.12274547241E+03  0.00000000000E+00 0.  1.
</event>
<event>
 8    1  0.7052796E-009  0.1235292E+03  0.7561462E-02  0.1237386E+00
          1   -1    0    0  501    0  0.00000000000E+00  0.00000000000E+00  0.30672727701E+02  0.30672727701E+02  0.00000000000E+00 0. -1.
         -1   -1    0    0    0  501 -0.00000000000E+00 -0.00000000000E+00 -0.67490956144E+03  0.67490956144E+03  0.00000000000E+00 0.  1.
         25    2    1    2    0    0 -0.48850270521E+02 -0.62545611331E+02 -0.47840921226E+03  0.50081578432E+03  0.12507107187E+03 0.  0.
         23    2    1    2    0    0  0.48850270521E+02  0.62545611331E+02 -0.16582762147E+03  0.20476650482E+03  0.90178816946E+02 0.  0.
          5    1    3    3  502    0 -0.71827158446E+02  0.60531759884E+00 -0.33140450398E+03  0.33912523462E+03  0.41800000000E+01 0.  1.
         -5    1    3    3    0  502  0.22976887926E+02 -0.63150928930E+02 -0.14700470828E+03  0.16169054969E+03  0.41800000000E+01 0.  1.
        -11    1    4    4    0    0  0.27282326822E+02 -0.12269531403E+02 -0.11762177525E+02  0.32143670882E+02  0.00000000000E+00 0. -1.
         11    1    4    4    0    0  0.21567943699E+02  0.74815142734E+02 -0.15406544395E+03  0.17262283394E+03  0.00000000000E+00 0.  1.
</event>
<event>
 8    1  0.7052796E-009  0.2699777E+03  0.7561462E-02  0.1101292E+00
          2   -1    0    0  501    0  0.00000000000E+00  0.00000000000E+00  0.11037432741E+04  0.11037432741E+04  0.00000000000E+00 0. -1.
         -2   -1    0    0    0  501 -0.00000000000E+00 -0.00000000000E+00 -0.75307280689E+02  0.75307280689E+02  0.00000000000E+00 0.  1.
         25    2    1    2    0    0 -0.88263445366E+02  0.24577194367E+03  0.41195389400E+03  0.50353451645E+03  0.12508682741E+03 0.  0.
         23    2    1    2    0    0  0.88263445366E+02 -0.24577194367E+03  0.61648209939E+03  0.67551603831E+03  0.89874663143E+02 0.  0.
          5    1    3    3  502    0 -0.34971104015E+02  0.20804324844E+03  0.36961064738E+03  0.42559895958E+03  0.41800000000E+01 0.  1.
         -5    1    3    3    0  502 -0.53292341351E+02  0.37728695228E+02  0.42343246618E+02  0.77935556869E+02  0.41800000000E+01 0.  1.
        -11    1    4    4    0    0  0.65426092374E+02 -0.13018049656E+03  0.23738409780E+03  0.27852961268E+03  0.00000000000E+00 0. -1.
         11    1    4    4    0    0  0.22837352991E+02 -0.11559144711E+03  0.37909800159E+03  0.39698642564E+03  0.00000000000E+00 0.  1.
</event>
<event>
 8    1  0.7052796E-009  0.1338780E+03  0.7561462E-02  0.1221812E+00
         -1   -1    0    0    0  501 -0.00000000000E+00  0.00000000000E+00  0.72577825872E+02  0.72577825872E+02  0.00000000000E+00 0.  1.
          1   -1    0    0  501    0  0.00000000000E+00 -0.00000000000E+00 -0.27109966433E+03  0.27109966433E+03  0.00000000000E+00 0. -1.
         25    2    1    2    0    0 -0.36291814572E+02  0.80058732062E+02 -0.90304664433E+02  0.17755581888E+03  0.12507853540E+03 0.  0.
         23    2    1    2    0    0  0.36291814572E+02 -0.80058732062E+02 -0.10821717402E+03  0.16612167131E+03  0.90326942508E+02 0.  0.
          5    1    3    3  502    0 -0.34993013755E+01 -0.28452516972E+02  0.50005924163E+01  0.29398455004E+02  0.41800000000E+01 0.  1.
         -5    1    3    3    0  502 -0.32792513197E+02  0.10851124903E+03 -0.95305256850E+02  0.14815736388E+03  0.41800000000E+01 0.  1.
        -11    1    4    4    0    0  0.65796282560E+02 -0.63865117338E+02 -0.71203656604E+02  0.11609420625E+03  0.00000000000E+00 0. -1.
         11    1    4    4    0    0 -0.29504467988E+02 -0.16193614724E+02 -0.37013517417E+02  0.50027465063E+02  0.00000000000E+00 0.  1.
</event>
<event>
 8    1  0.7052796E-009  0.1223430E+03  0.7561462E-02  0.1239281E+00
          1   -1    0    0  501    0  0.00000000000E+00  0.00000000000E+00  0.32116686737E+03  0.32116686737E+03  0.00000000000E+00 0. -1.
         -1   -1    0    0    0  501 -0.00000000000E+00 -0.00000000000E+00 -0.48083444219E+02  0.48083444219E+02  0.00000000000E+00 0.  1.
         25    2    1    2    0    0 -0.57007431141E+02  0.16153361311E+02  0.13288058200E+03  0.19187561038E+03  0.12509285550E+03 0.  0.
         23    2    1    2    0    0  0.57007431141E+02 -0.16153361311E+02  0.14020284114E+03  0.17737470121E+03  0.91072332111E+02 0.  0.
          5    1    3    3  502    0  0.31711507324E+02 -0.24868007815E+02  0.36212339593E+02  0.54340072214E+02  0.41800000000E+01 0.  1.
         -5    1    3    3    0  502 -0.88718938465E+02  0.41021369126E+02  0.96668242409E+02  0.13753553816E+03  0.41800000000E+01 0.  1.
        -11    1    4    4    0    0 -0.13276231123E+02  0.22500989208E+02  0.20161365908E+02  0.33000507624E+02  0.00000000000E+00 0.  1.
         11    1    4    4    0    0  0.70283662264E+02 -0.38654350520E+02  0.12004147524E+03  0.14437419358E+03  0.00000000000E+00 0. -1.
</event>
<event>
 8    1  0.7052796E-009  0.1207568E+03  0.7561462E-02  0.1241854E+00
         -2   -1    0    0    0  501 -0.00000000000E+00  0.00000000000E+00  0.29481146946E+02  0.29481146946E+02  0.00000000000E+00 0.  1.
          2   -1    0    0  501    0  0.00000000000E+00 -0.00000000000E+00 -0.65897024520E+03  0.65897024520E+03  0.00000000000E+00 0. -1.
         25    2    1    2    0    0 -0.29302230806E+02 -0.45852532500E+02 -0.17673436720E+03  0.22326120684E+03  0.12509777961E+03 0.  0.
         23    2    1    2    0    0  0.29302230806E+02  0.45852532500E+02 -0.45275473106E+03  0.46519018531E+03  0.91945562947E+02 0.  0.
          5    1    3    3  502    0 -0.28420919746E+02  0.40313199273E+02 -0.75124052165E+02  0.89966651202E+02  0.41800000000E+01 0. -1.
         -5    1    3    3    0  502 -0.88131106019E+00 -0.86165731773E+02 -0.10161031503E+03  0.13329455563E+03  0.41800000000E+01 0. -1.
        -11    1    4    4    0    0 -0.28503751488E+02 -0.47723926678E+01 -0.96089014834E+02  0.10034110998E+03  0.00000000000E+00 0. -1.
         11    1    4    4    0    0  0.57805982295E+02  0.50624925168E+02 -0.35666571623E+03  0.36484907533E+03  0.00000000000E+00 0.  1.
</event>
<event>
 8    1  0.7052796E-009  0.6553239E+02  0.7561462E-02  0.1375980E+00
         -2   -1    0    0    0  501 -0.00000000000E+00  0.00000000000E+00  0.24067251358E+02  0.24067251358E+02  0.00000000000E+00 0.  1.
          2   -1    0    0  501    0  0.00000000000E+00 -0.00000000000E+00 -0.52333631915E+03  0.52333631915E+03  0.00000000000E+00 0. -1.
         25    2    1    2    0    0 -0.21947410900E+02  0.14591129079E+02 -0.31355593087E+03  0.33861304233E+03  0.12508749240E+03 0.  0.
         23    2    1    2    0    0  0.21947410900E+02 -0.14591129079E+02 -0.18571313692E+03  0.20879052819E+03  0.91703465261E+02 0.  0.
          5    1    3    3  502    0  0.27771459663E+02 -0.62520709240E+01 -0.10278127051E+02  0.30552490215E+02  0.41800000000E+01 0. -1.
         -5    1    3    3    0  502 -0.49718870563E+02  0.20843200003E+02 -0.30327780382E+03  0.30806055211E+03  0.41800000000E+01 0. -1.
        -11    1    4    4    0    0  0.33756004180E+02 -0.13520649014E+02 -0.19197021118E+03  0.19538382161E+03  0.00000000000E+00 0. -1.
         11    1    4    4    0    0 -0.11808593281E+02 -0.10704800646E+01  0.62570742565E+01  0.13406706571E+02  0.00000000000E+00 0.  1.
</event>
<event>
 8    1  0.7052796E-009  0.1504449E+03  0.7561462E-02  0.1199927E+00
         -1   -1    0    0    0  501 -0.00000000000E+00  0.00000000000E+00  0.46898435530E+02  0.46898435530E+02  0.00000000000E+00 0.  1.
          1   -1    0    0  501    0  0.00000000000E+00 -0.00000000000E+00 -0.59309663897E+03  0.59309663897E+03  0.00000000000E+00 0. -1.
         25    2    1    2    0    0 -0.51665843351E+02 -0.11500138373E+03 -0.30676057521E+03  0.35446376848E+03  0.12509130679E+03 0.  0.
         23    2    1    2    0    0  0.51665843351E+02  0.11500138373E+03 -0.23943762823E+03  0.28553130602E+03  0.91121190043E+02 0.  0.
          5    1    3    3  502    0  0.27556571008E+02 -0.82311618385E+02 -0.19562931488E+03  0.21406276735E+03  0.41800000000E+01 0. -1.
         -5    1    3    3    0  502 -0.79222414359E+02 -0.32689765346E+02 -0.11113126034E+03  0.14040100113E+03  0.41800000000E+01 0. -1.
        -11    1    4    4    0    0  0.10180337492E+02  0.50333865553E+02 -0.18335153729E+03  0.19040725701E+03  0.00000000000E+00 0. -1.
         11    1    4    4    0    0  0.41485505859E+02  0.64667518178E+02 -0.56086090934E+02  0.95124049009E+02  0.00000000000E+00 0.  1.
</event>
<event>
 8    1  0.7052796E-009  0.1002744E+03  0.7561462E-02  0.1279720E+00
          4   -1    0    0  501    0  0.00000000000E+00  0.00000000000E+00  0.34496405557E+02  0.34496405557E+02  0.00000000000E+00 0.  1.
         -4   -1    0    0    0  501 -0.00000000000E+00 -0.00000000000E+00 -0.40743511863E+03  0.40743511863E+03  0.00000000000E+00 0. -1.
         25    2    1    2    0    0  0.16605183420E+02  0.51225017362E+01 -0.13117242133E+03  0.18209085219E+03  0.12509557223E+03 0.  0.
         23    2    1    2    0    0 -0.16605183420E+02 -0.51225017362E+01 -0.24176629174E+03  0.25984067200E+03  0.93617641833E+02 0.  0.
          5    1    3    3  502    0 -0.52337858293E+02 -0.84466819765E+01 -0.38198962790E+02  0.65476950183E+02  0.41800000000E+01 0. -1.
         -5    1    3    3    0  502  0.68943041713E+02  0.13569183713E+02 -0.92973458542E+02  0.11661390200E+03  0.41800000000E+01 0. -1.
        -11    1    4    4    0    0 -0.38442767777E+02 -0.26285059529E+02 -0.21282483410E+03  0.21786041577E+03  0.00000000000E+00 0. -1.
         11    1    4    4    0    0  0.21837584357E+02  0.21162557793E+02 -0.28941457641E+02  0.41980256232E+02  0.00000000000E+00 0.  1.
</event>
<event>
 8    1  0.7052796E-009  0.1081779E+03  0.7561462E-02  0.1263982E+00
          4   -1    0    0  501    0  0.00000000000E+00  0.00000000000E+00  0.15669592178E+03  0.15669592178E+03  0.00000000000E+00 0.  1.
         -4   -1    0    0    0  501 -0.00000000000E+00 -0.00000000000E+00 -0.15754201737E+03  0.15754201737E+03  0.00000000000E+00 0. -1.
         25    2    1    2    0    0  0.49433316092E+02 -0.48177091281E+02  0.89743339985E+02  0.16871617868E+03  0.12508635822E+03 0.  0.
         23    2    1    2    0    0 -0.49433316092E+02  0.48177091281E+02 -0.90589435581E+02  0.14552176047E+03  0.90583950388E+02 0.  0.
          5    1    3    3  502    0  0.48309019038E+02  0.13861043786E+02  0.93691151605E+02  0.10640204013E+03  0.41800000000E+01 0. -1.
         -5    1    3    3    0  502  0.11242970533E+01 -0.62038135067E+02 -0.39478116202E+01  0.62314138548E+02  0.41800000000E+01 0. -1.
        -11    1    4    4    0    0  0.72286454619E+01 -0.16340652700E+02  0.34278502658E+01  0.18193966124E+02  0.00000000000E+00 0.  1.
         11    1    4    4    0    0 -0.56661961553E+02  0.64517743981E+02 -0.94017285847E+02  0.12732779435E+03  0.00000000000E+00 0. -1.
</event>
<event>
 8    1  0.7052796E-009  0.1182707E+03  0.7561462E-02  0.1245977E+00
          1   -1    0    0  501    0  0.00000000000E+00  0.00000000000E+00  0.95755403435E+03  0.95755403435E+03  0.00000000000E+00 0. -1.
         -1   -1    0    0    0  501 -0.00000000000E+00 -0.00000000000E+00 -0.47679312450E+02  0.47679312450E+02  0.00000000000E+00 0.  1.
         25    2    1    2    0    0 -0.81199092381E+02  0.83061853247E+01  0.86578576420E+03  0.87857519494E+03  0.12508836218E+03 0.  0.
         23    2    1    2    0    0  0.81199092381E+02 -0.83061853247E+01  0.44088957702E+02  0.12665815186E+03  0.86233206620E+02 0.  0.
          5    1    3    3  502    0 -0.11368774661E+03  0.16169458882E+02  0.70442593038E+03  0.71373644920E+03  0.41800000000E+01 0. -1.
         -5    1    3    3    0  502  0.32488654233E+02 -0.78632735571E+01  0.16135983382E+03  0.16483874574E+03  0.41800000000E+01 0. -1.
        -11    1    4    4    0    0  0.62180499404E+02 -0.20360952879E+02  0.67617555655E+02  0.94091002445E+02  0.00000000000E+00 0.  1.
         11    1    4    4    0    0  0.19018592978E+02  0.12054767554E+02 -0.23528597953E+02  0.32567149419E+02  0.00000000000E+00 0. -1.
</event>
<event>
 8    1  0.7052796E-009  0.1334604E+03  0.7561462E-02  0.1222410E+00
          1   -1    0    0  501    0  0.00000000000E+00  0.00000000000E+00  0.39986969059E+03  0.39986969059E+03  0.00000000000E+00 0. -1.
         -1   -1    0    0    0  501 -0.00000000000E+00 -0.00000000000E+00 -0.52591892449E+02  0.52591892449E+02  0.00000000000E+00 0.  1.
         25    2    1    2    0    0 -0.53183223108E+01 -0.96709973328E+02  0.23322135010E+03  0.28181687447E+03  0.12508976418E+03 0.  0.
         23    2    1    2    0    0  0.53183223108E+01  0.96709973328E+02  0.11405644805E+03  0.17064470857E+03  0.82034381382E+02 0.  0.
          5    1    3    3  502    0 -0.56021320335E+02 -0.24517780743E+02  0.14290676878E+03  0.15549703170E+03  0.41800000000E+01 0. -1.
         -5    1    3    3    0  502  0.50702998024E+02 -0.72192192585E+02  0.90314581315E+02  0.12631984277E+03  0.41800000000E+01 0. -1.
        -11    1    4    4    0    0 -0.28671071253E+02  0.64037573224E+02  0.34544268584E+02  0.78205802875E+02  0.00000000000E+00 0. -1.
         11    1    4    4    0    0  0.33989393563E+02  0.32672400103E+02  0.79512179463E+02  0.92438905696E+02  0.00000000000E+00 0.  1.
</event>
<event>
 8    1  0.7052796E-009  0.9694838E+02  0.7561462E-02  0.1286847E+00
         -2   -1    0    0    0  501 -0.00000000000E+00  0.00000000000E+00  0.22780014314E+02  0.22780014314E+02  0.00000000000E+00 0.  1.
          2   -1    0    0  501    0  0.00000000000E+00 -0.00000000000E+00 -0.52350857552E+03  0.52350857552E+03  0.00000000000E+00 0. -1.
         25    2    1    2    0    0  0.17535688841E+02 -0.25890453740E+01 -0.26225171609E+03  0.29109766290E+03  0.12509069996E+03 0.  0.
         23    2    1    2    0    0 -0.17535688841E+02  0.25890453740E+01 -0.23847684512E+03  0.25519092693E+03  0.89089842252E+02 0.  0.
          5    1    3    3  502    0  0.61999664488E+02 -0.28909062416E+02 -0.10382752819E+03  0.12440787876E+03  0.41800000000E+01 0. -1.
         -5    1    3    3    0  502 -0.44463975646E+02  0.26320017042E+02 -0.15842418789E+03  0.16668978414E+03  0.41800000000E+01 0. -1.
        -11    1    4    4    0    0  0.91030224843E+01  0.32334823892E+02 -0.37753792968E+02  0.50534688463E+02  0.00000000000E+00 0.  1.
         11    1    4    4    0    0 -0.26638711326E+02 -0.29745778518E+02 -0.20072305215E+03  0.20465623847E+03  0.00000000000E+00 0. -1.
</event>
<event>
 8    1  0.7052796E-009  0.7206812E+02  0.7561462E-02  0.1353198E+00
          2   -1    0    0  501    0  0.00000000000E+00  0.00000000000E+00  0.60596882699E+03  0.60596882699E+03  0.00000000000E+00 0. -1.
         -2   -1    0    0    0  501 -0.00000000000E+00 -0.00000000000E+00 -0.26208370243E+02  0.26208370243E+02  0.00000000000E+00 0.  1.
         25    2    1    2    0    0  0.58536997266E+02 -0.47000020380E+01  0.37604557758E+03  0.40063149901E+03  0.12508657606E+03 0.  0.
         23    2    1    2    0    0 -0.58536997266E+02  0.47000020380E+01  0.20371487916E+03  0.23154569822E+03  0.93085918940E+02 0.  0.
          5    1    3    3  502    0  0.18470692846E+02 -0.22871971817E+02  0.91332914834E+01  0.31067394521E+02  0.41800000000E+01 0. -1.
         -5    1    3    3    0  502  0.40066304419E+02  0.18171969779E+02  0.36691228610E+03  0.36956410449E+03  0.41800000000E+01 0. -1.
        -11    1    4    4    0    0 -0.58009275719E+02  0.15014538785E+02  0.21071480604E+03  0.21906903462E+03  0.00000000000E+00 0. -1.
         11    1    4    4    0    0 -0.52772154672E+00 -0.10314536747E+02 -0.69999268785E+01  0.12476663602E+02  0.00000000000E+00 0.  1.
</event>
<event>
 8    1  0.7052796E-009  0.1439617E+03  0.7561462E-02  0.1208095E+00
         -4   -1    0    0    0  501 -0.00000000000E+00  0.00000000000E+00  0.83499595829E+02  0.83499595829E+02  0.00000000000E+00 0.  1.
          4   -1    0    0  501    0  0.00000000000E+00 -0.00000000000E+00 -0.35355452200E+03  0.35355452200E+03  0.00000000000E+00 0. -1.
         25    2    1    2    0    0  0.11082520625E+03  0.11604603428E+02 -0.23415933223E+03  0.28791526699E+03  0.12509082674E+03 0.  0.
         23    2    1    2    0    0 -0.11082520625E+03 -0.11604603428E+02 -0.35895593938E+02  0.14913885084E+03  0.92395941495E+02 0.  0.
          5    1    3    3  502    0  0.10377964138E+03  0.41925734643E+02 -0.23052775982E+03  0.25629768168E+03  0.41800000000E+01 0.  1.
         -5    1    3    3    0  502  0.70455648686E+01 -0.30321131216E+02 -0.36315724159E+01  0.31617585308E+02  0.41800000000E+01 0.  1.
        -11    1    4    4    0    0 -0.93151469503E+02  0.31168785580E+02 -0.20321827604E+02  0.10030785683E+03  0.00000000000E+00 0.  1.
         11    1    4    4    0    0 -0.17673736743E+02 -0.42773389008E+02 -0.15573766333E+02  0.48830994005E+02  0.00000000000E+00 0. -1.
</event>
<event>
 8    1  0.7052796E-009  0.1546509E+03  0.7561462E-02  0.1194872E+00
         -2   -1    0    0    0  501 -0.00000000000E+00  0.00000000000E+00  0.14292221163E+03  0.14292221163E+03  0.00000000000E+00 0.  1.
          2   -1    0    0  501    0  0.00000000000E+00 -0.00000000000E+00 -0.22968818657E+03  0.22968818657E+03  0.00000000000E+00 0. -1.
         25    2    1    2    0    0  0.14029148042E+03  0.33736264599E+02 -0.49855923197E+02  0.19735925217E+03  0.12508087909E+03 0.  0.
         23    2    1    2    0    0 -0.14029148042E+03 -0.33736264599E+02 -0.36910051739E+02  0.17525114603E+03  0.92362206759E+02 0.  0.
          5    1    3    3  502    0  0.23194315948E+02  0.33230069714E+02  0.34170273478E+02  0.53172303082E+02  0.41800000000E+01 0.  1.
         -5    1    3    3    0  502  0.11709716447E+03  0.50619488535E+00 -0.84026196676E+02  0.14418694909E+03  0.41800000000E+01 0.  1.
        -11    1    4    4    0    0 -0.96904664276E+01  0.97427163660E+01 -0.34987730005E+02  0.37589452147E+02  0.00000000000E+00 0.  1.
         11    1    4    4    0    0 -0.13060101399E+03 -0.43478980965E+02 -0.19223217334E+01  0.13766169388E+03  0.00000000000E+00 0. -1.
</event>
<event>
 8    1  0.7052796E-009  0.1058058E+03  0.7561462E-02  0.1268540E+00
         -2   -1    0    0    0  501 -0.00000000000E+00  0.00000000000E+00  0.16091816493E+02  0.16091816493E+02  0.00000000000E+00 0.  1.
          2   -1    0    0  501    0  0.00000000000E+00 -0.00000000000E+00 -0.85697530950E+03  0.85697530950E+03  0.00000000000E+00 0. -1.
         25    2    1    2    0    0  0.17818049014E+02 -0.36532408651E+02 -0.55003925647E+03  0.56554609497E+03  0.12508837725E+03 0.  0.
         23    2    1    2    0    0 -0.17818049014E+02  0.36532408651E+02 -0.29084423653E+03  0.30752103102E+03  0.91250834757E+02 0.  0.
          5    1    3    3  502    0  0.47220938586E+02 -0.60213426671E+02 -0.47801928875E+03  0.48412331757E+03  0.41800000000E+01 0. -1.
         -5    1    3    3    0  502 -0.29402889572E+02  0.23681018019E+02 -0.72019967718E+02  0.81422777402E+02  0.41800000000E+01 0. -1.
        -11    1    4    4    0    0  0.12067413110E+02 -0.25458449204E+02 -0.54363615831E+02  0.61230366823E+02  0.00000000000E+00 0.  1.
         11    1    4    4    0    0 -0.29885462124E+02  0.61990857856E+02 -0.23648062070E+03  0.24629066420E+03  0.00000000000E+00 0. -1.
</event>
<event>
 8    1  0.7052796E-009  0.1013493E+03  0.7561462E-02  0.1277484E+00
          1   -1    0    0  501    0  0.00000000000E+00  0.00000000000E+00  0.30710973832E+03  0.30710973832E+03  0.00000000000E+00 0.  1.
         -1   -1    0    0    0  501 -0.00000000000E+00 -0.00000000000E+00 -0.63971959366E+02  0.63971959366E+02  0.00000000000E+00 0. -1.
         25    2    1    2    0    0 -0.77817055510E+02 -0.34532996934E+02  0.97158460608E+02  0.17982071735E+03  0.12509077470E+03 0.  0.
         23    2    1    2    0    0  0.77817055510E+02  0.34532996934E+02  0.14597931834E+03  0.19126098033E+03  0.89569968225E+02 0.  0.
          5    1    3    3  502    0  0.15873922011E+02 -0.13292754500E+02  0.79239057094E+02  0.82005971072E+02  0.41800000000E+01 0.  1.
         -5    1    3    3    0  502 -0.93690977521E+02 -0.21240242434E+02  0.17919403514E+02  0.97814746280E+02  0.41800000000E+01 0.  1.
        -11    1    4    4    0    0  0.32118506396E+02  0.18008353137E+02 -0.60940581780E+00  0.36827579492E+02  0.00000000000E+00 0. -1.
         11    1    4    4    0    0  0.45698549114E+02  0.16524643797E+02  0.14658872416E+03  0.15443340084E+03  0.00000000000E+00 0.  1.
</event>
<event>
 8    1  0.7052796E-009  0.8043126E+02  0.7561462E-02  0.1327832E+00
          2   -1    0    0  501    0  0.00000000000E+00  0.00000000000E+00  0.26633326767E+03  0.26633326767E+03  0.00000000000E+00 0. -1.
         -2   -1    0    0    0  501 -0.00000000000E+00 -0.00000000000E+00 -0.55054106363E+02  0.55054106363E+02  0.00000000000E+00 0.  1.
         25    2    1    2    0    0  0.43918793967E+01  0.47376362584E+02  0.13067673525E+03  0.18705222799E+03  0.12509323932E+03 0.  0.
         23    2    1    2    0    0 -0.43918793967E+01 -0.47376362584E+02  0.80602426060E+02  0.13433514604E+03  0.96360635323E+02 0.  0.
          5    1    3    3  502    0  0.49904780842E+02  0.12020053492E+02  0.89050386588E+01  0.52266059258E+02  0.41800000000E+01 0. -1.
         -5    1    3    3    0  502 -0.45512901446E+02  0.35356309092E+02  0.12177169659E+03  0.13478616873E+03  0.41800000000E+01 0. -1.
        -11    1    4    4    0    0  0.68048000373E+01 -0.31004597742E+02  0.10100806797E+03  0.10587832724E+03  0.00000000000E+00 0. -1.
         11    1    4    4    0    0 -0.11196679434E+02 -0.16371764842E+02 -0.20405641912E+02  0.28456818800E+02  0.00000000000E+00 0.  1.
</event>
<event>
 8    1  0.7052796E-009  0.9897599E+02  0.7561462E-02  0.1282464E+00
          1   -1    0    0  501    0  0.00000000000E+00  0.00000000000E+00  0.61453557181E+03  0.61453557181E+03  0.00000000000E+00 0. -1.
         -1   -1    0    0    0  501 -0.00000000000E+00 -0.00000000000E+00 -0.19537209076E+02  0.19537209076E+02  0.00000000000E+00 0.  1.
         25    2    1    2    0    0 -0.11390387983E+02  0.95780437753E+01  0.36047904940E+03  0.38185627742E+03  0.12509033413E+03 0.  0.
         23    2    1    2    0    0  0.11390387983E+02 -0.95780437753E+01  0.23451931333E+03  0.25221650346E+03  0.91609914479E+02 0.  0.
          5    1    3    3  502    0  0.40828488078E+01  0.59762729715E+02  0.27473874467E+03  0.28122429437E+03  0.41800000000E+01 0. -1.
         -5    1    3    3    0  502 -0.15473236791E+02 -0.50184685940E+02  0.85740304727E+02  0.10063198306E+03  0.41800000000E+01 0. -1.
        -11    1    4    4    0    0  0.33386460160E+02 -0.37152320216E+02  0.18360124024E+03  0.19027444925E+03  0.00000000000E+00 0. -1.
         11    1    4    4    0    0 -0.21996072177E+02  0.27574276441E+02  0.50918073097E+02  0.61942054215E+02  0.00000000000E+00 0.  1.
</event>
<event>
 8    1  0.7052796E-009  0.1114062E+03  0.7561462E-02  0.1257988E+00
         -1   -1    0    0    0  501 -0.00000000000E+00  0.00000000000E+00  0.32826022579E+02  0.32826022579E+02  0.00000000000E+00 0.  1.
          1   -1    0    0  501    0  0.00000000000E+00 -0.00000000000E+00 -0.58138006389E+03  0.58138006389E+03  0.00000000000E+00 0. -1.
         25    2    1    2    0    0 -0.50285607707E+02  0.69659185485E+02 -0.30667031546E+03  0.34216311825E+03  0.12509145711E+03 0.  0.
         23    2    1    2    0    0  0.50285607707E+02 -0.69659185485E+02 -0.24188372585E+03  0.27204296822E+03  0.90103247785E+02 0.  0.
          5    1    3    3  502    0  0.71077157765E+01  0.71657589315E+02 -0.77512312971E+02  0.10588182465E+03  0.41800000000E+01 0. -1.
         -5    1    3    3    0  502 -0.57393323483E+02 -0.19984038297E+01 -0.22915800249E+03  0.23628129360E+03  0.41800000000E+01 0. -1.
        -11    1    4    4    0    0  0.38687420525E+02 -0.22967572034E+02 -0.28399620034E+02  0.53204927310E+02  0.00000000000E+00 0.  1.
         11    1    4    4    0    0  0.11598187182E+02 -0.46691613451E+02 -0.21348410582E+03  0.21883804091E+03  0.00000000000E+00 0. -1.
</event>
<event>
 8    1  0.7052796E-009  0.1315698E+03  0.7561462E-02  0.1225145E+00
          1   -1    0    0  501    0  0.00000000000E+00  0.00000000000E+00  0.81424686899E+02  0.81424686899E+02  0.00000000000E+00 0. -1.
         -1   -1    0    0    0  501 -0.00000000000E+00 -0.00000000000E+00 -0.30130231591E+03  0.30130231591E+03  0.00000000000E+00 0.  1.
         25    2    1    2    0    0  0.10993304993E+03 -0.24709018335E+02 -0.12598470224E+03  0.21027449052E+03  0.12508958834E+03 0.  0.
         23    2    1    2    0    0 -0.10993304993E+03  0.24709018335E+02 -0.93892926770E+02  0.17245251229E+03  0.90709295241E+02 0.  0.
          5    1    3    3  502    0  0.89794080548E+02 -0.58431333069E+02 -0.37858939993E+02  0.11370122833E+03  0.41800000000E+01 0.  1.
         -5    1    3    3    0  502  0.20138969384E+02  0.33722314734E+02 -0.88125762250E+02  0.96573262195E+02  0.41800000000E+01 0.  1.
        -11    1    4    4    0    0 -0.67686738734E+02  0.29642590170E+02 -0.51849652953E+01  0.74074702953E+02  0.00000000000E+00 0. -1.
         11    1    4    4    0    0 -0.42246311198E+02 -0.49335718344E+01 -0.88707961475E+02  0.98377809337E+02  0.00000000000E+00 0.  1.
</event>
<event>
 8    1  0.7052796E-009  0.1532147E+03  0.7561462E-02  0.1196577E+00
          2   -1    0    0  501    0  0.00000000000E+00  0.00000000000E+00  0.58596280351E+03  0.58596280351E+03  0.00000000000E+00 0. -1.
         -2   -1    0    0    0  501 -0.00000000000E+00 -0.00000000000E+00 -0.44033322724E+02  0.44033322724E+02  0.00000000000E+00 0.  1.
         25    2    1    2    0    0 -0.94298598199E+02  0.58057988139E+02  0.20974884016E+03  0.26815000190E+03  0.12508753720E+03 0.  0.
         23    2    1    2    0    0  0.94298598199E+02 -0.58057988139E+02  0.33218064063E+03  0.36184612433E+03  0.91245186604E+02 0.  0.
          5    1    3    3  502    0 -0.12016222272E+03  0.28210194778E+02  0.13150953765E+03  0.18040788716E+03  0.41800000000E+01 0.  1.
         -5    1    3    3    0  502  0.25863624518E+02  0.29847793362E+02  0.78239302513E+02  0.87742114742E+02  0.41800000000E+01 0.  1.
        -11    1    4    4    0    0 -0.12115003651E+02  0.10994217529E+02  0.31316317800E+02  0.35332108529E+02  0.00000000000E+00 0. -1.
         11    1    4    4    0    0  0.10641360185E+03 -0.69052205668E+02  0.30086432283E+03  0.32651401580E+03  0.00000000000E+00 0.  1.
</event>
<event>
 8    1  0.7052796E-009  0.1010845E+03  0.7561462E-02  0.1278032E+00
          2   -1    0    0  501    0  0.00000000000E+00  0.00000000000E+00  0.26959718858E+03  0.26959718858E+03  0.00000000000E+00 0. -1.
         -2   -1    0    0    0  501 -0.00000000000E+00 -0.00000000000E+00 -0.54757015070E+02  0.54757015070E+02  0.00000000000E+00 0.  1.
         25    2    1    2    0    0 -0.11920218242E+02 -0.42464030874E+02  0.16095346637E+03  0.20856016274E+03  0.12508412219E+03 0.  0.
         23    2    1    2    0    0  0.11920218242E+02  0.42464030874E+02  0.53886707139E+02  0.11579404091E+03  0.92515929351E+02 0.  0.
          5    1    3    3  502    0 -0.97260261797E+01  0.38000050730E+02  0.15729409680E+02  0.42467471901E+02  0.41800000000E+01 0. -1.
         -5    1    3    3    0  502 -0.21941920621E+01 -0.80464081605E+02  0.14522405669E+03  0.16609269083E+03  0.41800000000E+01 0. -1.
        -11    1    4    4    0    0  0.27165958607E+01  0.61191933017E+02  0.67289820326E+02  0.90993145230E+02  0.00000000000E+00 0. -1.
         11    1    4    4    0    0  0.92036223812E+01 -0.18727902142E+02 -0.13403113187E+02  0.24800895683E+02  0.00000000000E+00 0.  1.
</event>
<event>
 8    1  0.7052796E-009  0.1381136E+03  0.7561462E-02  0.1215890E+00
          1   -1    0    0  501    0  0.00000000000E+00  0.00000000000E+00  0.13167416824E+03  0.13167416824E+03  0.00000000000E+00 0. -1.
         -1   -1    0    0    0  501 -0.00000000000E+00 -0.00000000000E+00 -0.20462002977E+03  0.20462002977E+03  0.00000000000E+00 0.  1.
         25    2    1    2    0    0  0.93759589751E+01  0.12254405689E+03 -0.36735797192E+02  0.17916454315E+03  0.12508181418E+03 0.  0.
         23    2    1    2    0    0 -0.93759589751E+01 -0.12254405689E+03 -0.36210064339E+02  0.15712965486E+03  0.90959360101E+02 0.  0.
          5    1    3    3  502    0 -0.34493631897E+02  0.52298364881E+02 -0.66124990424E+02  0.91186163255E+02  0.41800000000E+01 0.  1.
         -5    1    3    3    0  502  0.43869590872E+02  0.70245692013E+02  0.29389193232E+02  0.87978379892E+02  0.41800000000E+01 0.  1.
        -11    1    4    4    0    0  0.17521871719E+02 -0.58024213039E+02  0.23686434926E+02  0.65075897895E+02  0.00000000000E+00 0. -1.
         11    1    4    4    0    0 -0.26897830694E+02 -0.64519843855E+02 -0.59896499264E+02  0.92053756964E+02  0.00000000000E+00 0.  1.
</event>
<event>
 8    1  0.7052796E-009  0.1633936E+03  0.7561462E-02  0.1184918E+00
          2   -1    0    0  501    0  0.00000000000E+00  0.00000000000E+00  0.94726668722E+02  0.94726668722E+02  0.00000000000E+00 0. -1.
         -2   -1    0    0    0  501 -0.00000000000E+00 -0.00000000000E+00 -0.39329754886E+03  0.39329754886E+03  0.00000000000E+00 0.  1.
         25    2    1    2    0    0  0.28150898816E+02 -0.13233515843E+03 -0.26388666038E+03  0.32185004762E+03  0.12508483667E+03 0.  0.
         23    2    1    2    0    0 -0.28150898816E+02  0.13233515843E+03 -0.34684219755E+02  0.16617416996E+03  0.90032174247E+02 0.  0.
          5    1    3    3  502    0 -0.34721086798E+02 -0.41172854901E+01 -0.23898578738E+02  0.42557259944E+02  0.41800000000E+01 0.  1.
         -5    1    3    3    0  502  0.62871985614E+02 -0.12821787294E+03 -0.23998808164E+03  0.27929278768E+03  0.41800000000E+01 0.  1.
        -11    1    4    4    0    0  0.19719771535E+02  0.44583234973E+02 -0.44145431728E+02  0.65767418777E+02  0.00000000000E+00 0.  1.
         11    1    4    4    0    0 -0.47870670352E+02  0.87751923461E+02  0.94612119729E+01  0.10040675118E+03  0.00000000000E+00 0. -1.
</event>
<event>
 8    1  0.7052796E-009  0.1160550E+03  0.7561462E-02  0.1249751E+00
          2   -1    0    0  501    0  0.00000000000E+00  0.00000000000E+00  0.48703013372E+02  0.48703013372E+02  0.00000000000E+00 0. -1.
         -2   -1    0    0    0  501 -0.00000000000E+00 -0.00000000000E+00 -0.29174923999E+03  0.29174923999E+03  0.00000000000E+00 0.  1.
         25    2    1    2    0    0 -0.47837856611E+02 -0.84659042693E+01 -0.15367999551E+03  0.20402298837E+03  0.12509079385E+03 0.  0.
         23    2    1    2    0    0  0.47837856611E+02  0.84659042693E+01 -0.89366231116E+02  0.13642926499E+03  0.90920234391E+02 0.  0.
          5    1    3    3  502    0  0.28896329491E+02 -0.38324020633E+02 -0.80339330676E+02  0.93678219822E+02  0.41800000000E+01 0.  1.
         -5    1    3    3    0  502 -0.76734186101E+02  0.29858116364E+02 -0.73340664830E+02  0.11034476855E+03  0.41800000000E+01 0.  1.
        -11    1    4    4    0    0 -0.17986613959E+02  0.27594565152E+02 -0.18256484977E+02  0.37660025908E+02  0.00000000000E+00 0. -1.
         11    1    4    4    0    0  0.65824470570E+02 -0.19128660883E+02 -0.71109746139E+02  0.98769239082E+02  0.00000000000E+00 0.  1.
</event>
<event>
 8    1  0.7052796E-009  0.1449015E+03  0.7561462E-02  0.1206882E+00
          2   -1    0    0  501    0  0.00000000000E+00  0.00000000000E+00  0.11285688880E+03  0.11285688880E+03  0.00000000000E+00 0. -1.
         -2   -1    0    0    0  501 -0.00000000000E+00 -0.00000000000E+00 -0.22668260769E+03  0.22668260769E+03  0.00000000000E+00 0.  1.
         25    2    1    2    0    0  0.10495546333E+03  0.38727404254E+02 -0.96952459030E+02  0.19381128895E+03  0.12509026856E+03 0.  0.
         23    2    1    2    0    0 -0.10495546333E+03 -0.38727404254E+02 -0.16873259859E+02  0.14572820754E+03  0.91850652970E+02 0.  0.
          5    1    3    3  502    0  0.93482979740E+01 -0.40975679708E+02 -0.34237041899E+02  0.54369517568E+02  0.41800000000E+01 0. -1.
         -5    1    3    3    0  502  0.95607165353E+02  0.79703083962E+02 -0.62715417130E+02  0.13944177138E+03  0.41800000000E+01 0. -1.
        -11    1    4    4    0    0 -0.95904222293E+02 -0.14287465058E+02 -0.45420409321E+02  0.10707364332E+03  0.00000000000E+00 0.  1.
         11    1    4    4    0    0 -0.90512410341E+01 -0.24439939195E+02  0.28547149462E+02  0.38654564214E+02  0.00000000000E+00 0. -1.
</event>
<event>
 8    1  0.7052796E-009  0.9659027E+02  0.7561462E-02  0.1287634E+00
          2   -1    0    0  501    0  0.00000000000E+00  0.00000000000E+00  0.37453214509E+02  0.37453214509E+02  0.00000000000E+00 0. -1.
         -2   -1    0    0    0  501 -0.00000000000E+00 -0.00000000000E+00 -0.36630935040E+03  0.36630935040E+03  0.00000000000E+00 0.  1.
         25    2    1    2    0    0  0.30686593098E+02 -0.19469054401E+02 -0.13871914940E+03  0.19029035980E+03  0.12508680006E+03 0.  0.
         23    2    1    2    0    0 -0.30686593098E+02  0.19469054401E+02 -0.19013698650E+03  0.21347220511E+03  0.89986652599E+02 0.  0.
          5    1    3    3  502    0 -0.42403755261E+02  0.15847277053E+02 -0.29691783344E+02  0.54298149585E+02  0.41800000000E+01 0. -1.
         -5    1    3    3    0  502  0.73090348359E+02 -0.35316331454E+02 -0.10902736605E+03  0.13599221022E+03  0.41800000000E+01 0. -1.
        -11    1    4    4    0    0 -0.55444707829E+01  0.35949563349E+02 -0.17694125793E+03  0.18064141557E+03  0.00000000000E+00 0.  1.
         11    1    4    4    0    0 -0.25142122315E+02 -0.16480508948E+02 -0.13195728571E+02  0.32830789546E+02  0.00000000000E+00 0. -1.
</event>
<event>
 8    1  0.7052796E-009  0.1709548E+03  0.7561462E-02  0.1176856E+00
          2   -1    0    0  501    0  0.00000000000E+00  0.00000000000E+00  0.13638160180E+04  0.13638160180E+04  0.00000000000E+00 0. -1.
         -2   -1    0    0    0  501 -0.00000000000E+00 -0.00000000000E+00 -0.73152552935E+02  0.73152552935E+02  0.00000000000E+00 0.  1.
         25    2    1    2    0    0 -0.12088707769E+03  0.11847600417E+03  0.12096581227E+04  0.12278329399E+04  0.12510277936E+03 0.  0.
         23    2    1    2    0    0  0.12088707769E+03 -0.11847600417E+03  0.81005342366E+02  0.20913563102E+03  0.92334162451E+02 0.  0.
          5    1    3    3  502    0 -0.10275165319E+03  0.87289028062E+02  0.11507538437E+04  0.11586324516E+04  0.41800000000E+01 0. -1.
         -5    1    3    3    0  502 -0.18135424500E+02  0.31186976109E+02  0.58904278950E+02  0.69200488288E+02  0.41800000000E+01 0. -1.
        -11    1    4    4    0    0  0.11097134102E+03 -0.11589717245E+03  0.98919198166E+02  0.18849880868E+03  0.00000000000E+00 0.  1.
         11    1    4    4    0    0  0.99157366680E+01 -0.25788317248E+01 -0.17913855800E+02  0.20636822341E+02  0.00000000000E+00 0. -1.
</event>
<event>
 8    1  0.7052796E-009  0.3188525E+03  0.7561462E-02  0.1076179E+00
         -1   -1    0    0    0  501 -0.00000000000E+00  0.00000000000E+00  0.82113704387E+03  0.82113704387E+03  0.00000000000E+00 0.  1.
          1   -1    0    0  501    0  0.00000000000E+00 -0.00000000000E+00 -0.13297305953E+03  0.13297305953E+03  0.00000000000E+00 0. -1.
         25    2    1    2    0    0 -0.14253657199E+03 -0.26799824955E+03  0.45362183037E+03  0.55996553352E+03  0.12509555400E+03 0.  0.
         23    2    1    2    0    0  0.14253657199E+03  0.26799824955E+03  0.23454215397E+03  0.39414456989E+03  0.90554866612E+02 0.  0.
          5    1    3    3  502    0  0.21997870497E+02 -0.46259550918E+02  0.85886719147E+02  0.10008922661E+03  0.41800000000E+01 0.  1.
         -5    1    3    3    0  502 -0.16453444248E+03 -0.22173869863E+03  0.36773511122E+03  0.45987630691E+03  0.41800000000E+01 0.  1.
        -11    1    4    4    0    0  0.10824119210E+03  0.13617758602E+03  0.91218663629E+02  0.19642132063E+03  0.00000000000E+00 0.  1.
         11    1    4    4    0    0  0.34295379883E+02  0.13182066352E+03  0.14332349034E+03  0.19772324926E+03  0.00000000000E+00 0. -1.
</event>
<event>
 8    1  0.7052796E-009  0.1221313E+03  0.7561462E-02  0.1239622E+00
         -2   -1    0    0    0  501 -0.00000000000E+00  0.00000000000E+00  0.60692498063E+02  0.60692498063E+02  0.00000000000E+00 0. -1.
          2   -1    0    0  501    0  0.00000000000E+00 -0.00000000000E+00 -0.44656752733E+03  0.44656752733E+03  0.00000000000E+00 0.  1.
         25    2    1    2    0    0 -0.86437601622E+02 -0.28924091508E+02 -0.78080808936E+02  0.17335567011E+03  0.12509002195E+03 0.  0.
         23    2    1    2    0    0  0.86437601622E+02  0.28924091508E+02 -0.30779422033E+03  0.33390435528E+03  0.91906334746E+02 0.  0.
          5    1    3    3  502    0 -0.18043398700E+02  0.22853283759E+02 -0.82268281031E+02  0.87369212420E+02  0.41800000000E+01 0. -1.
         -5    1    3    3    0  502 -0.68394202922E+02 -0.51777375267E+02  0.41874720944E+01  0.85986457686E+02  0.41800000000E+01 0. -1.
        -11    1    4    4    0    0  0.23322079933E+02  0.55712382355E+02 -0.12990973412E+03  0.14326314244E+03  0.00000000000E+00 0.  1.
         11    1    4    4    0    0  0.63115521688E+02 -0.26788290847E+02 -0.17788448620E+03  0.19064121285E+03  0.00000000000E+00 0. -1.
</event>
<event>
 8    1  0.7052796E-009  0.1016254E+03  0.7561462E-02  0.1276915E+00
          1   -1    0    0  501    0  0.00000000000E+00  0.00000000000E+00  0.20832784501E+03  0.20832784501E+03  0.00000000000E+00 0. -1.
         -1   -1    0    0    0  501 -0.00000000000E+00 -0.00000000000E+00 -0.91910570294E+02  0.91910570294E+02  0.00000000000E+00 0.  1.
         25    2    1    2    0    0  0.33049841192E+02 -0.52804239940E+02  0.12582449664E+03  0.18803895266E+03  0.12508502710E+03 0.  0.
         23    2    1    2    0    0 -0.33049841192E+02  0.52804239940E+02 -0.94072219248E+01  0.11219946264E+03  0.92842037002E+02 0.  0.
          5    1    3    3  502    0  0.40204552338E+02  0.16289319610E+02 -0.76094644396E+00  0.43586688353E+02  0.41800000000E+01 0.  1.
         -5    1    3    3    0  502 -0.71547111461E+01 -0.69093559550E+02  0.12658544308E+03  0.14445226431E+03  0.41800000000E+01 0.  1.
        -11    1    4    4    0    0 -0.31585983791E+02 -0.52414483534E+01 -0.36134835412E+02  0.48279120571E+02  0.00000000000E+00 0. -1.
         11    1    4    4    0    0 -0.14638574012E+01  0.58045688293E+02  0.26727613487E+02  0.63920342072E+02  0.00000000000E+00 0.  1.
</event>
<event>
 8    1  0.7052796E-009  0.1918538E+03  0.7561462E-02  0.1156800E+00
          2   -1    0    0  501    0  0.00000000000E+00  0.00000000000E+00  0.54256337734E+02  0.54256337734E+02  0.00000000000E+00 0. -1.
         -2   -1    0    0    0  501 -0.00000000000E+00 -0.00000000000E+00 -0.77736038752E+03  0.77736038752E+03  0.00000000000E+00 0.  1.
         25    2    1    2    0    0  0.14769406383E+03 -0.81505661048E+02 -0.45504679837E+03  0.50116961401E+03  0.12508670605E+03 0.  0.
         23    2    1    2    0    0 -0.14769406383E+03  0.81505661048E+02 -0.26805725141E+03  0.33044711124E+03  0.94254411136E+02 0.  0.
          5    1    3    3  502    0  0.13999624182E+03 -0.28369061919E+02 -0.39725009215E+03  0.42217159961E+03  0.41800000000E+01 0.  1.
         -5    1    3    3    0  502  0.76978220016E+01 -0.53136599129E+02 -0.57796706215E+02  0.78998014404E+02  0.41800000000E+01 0.  1.
        -11    1    4    4    0    0 -0.82830596216E+02  0.57639498086E-01 -0.78197150209E+02  0.11391095335E+03  0.00000000000E+00 0. -1.
         11    1    4    4    0    0 -0.64863467609E+02  0.81448021550E+02 -0.18986010120E+03  0.21653615789E+03  0.00000000000E+00 0.  1.
</event>
<event>
 8    1  0.7052796E-009  0.6792858E+02  0.7561462E-02  0.1367282E+00
          3   -1    0    0  501    0  0.00000000000E+00  0.00000000000E+00  0.21437479592E+03  0.21437479592E+03  0.00000000000E+00 0. -1.
         -3   -1    0    0    0  501 -0.00000000000E+00 -0.00000000000E+00 -0.81077722386E+02  0.81077722386E+02  0.00000000000E+00 0.  1.
         25    2    1    2    0    0 -0.41845371681E+02 -0.68101113921E+01  0.48295133910E+01  0.13216663674E+03  0.12508909992E+03 0.  0.
         23    2    1    2    0    0  0.41845371681E+02  0.68101113921E+01  0.12846756014E+03  0.16328588157E+03  0.91438243434E+02 0.  0.
          5    1    3    3  502    0 -0.16209575394E+02  0.26434836781E+02 -0.52421841312E+02  0.61049756565E+02  0.41800000000E+01 0.  1.
         -5    1    3    3    0  502 -0.25635796287E+02 -0.33244948173E+02  0.57251354703E+02  0.71116880173E+02  0.41800000000E+01 0.  1.
        -11    1    4    4    0    0  0.34270548776E+02  0.25168253368E+02  0.10686016666E+02  0.43841788778E+02  0.00000000000E+00 0.  1.
         11    1    4    4    0    0  0.75748229050E+01 -0.18358141976E+02  0.11778154348E+03  0.11944409279E+03  0.00000000000E+00 0. -1.
</event>
<event>
 8    1  0.7052796E-009  0.2600038E+03  0.7561462E-02  0.1107141E+00
          2   -1    0    0  501    0  0.00000000000E+00  0.00000000000E+00  0.15424459198E+04  0.15424459198E+04  0.00000000000E+00 0. -1.
         -2   -1    0    0    0  501 -0.00000000000E+00 -0.00000000000E+00 -0.55200322947E+02  0.55200322947E+02  0.00000000000E+00 0.  1.
         25    2    1    2    0    0  0.21684166639E+03 -0.13812745627E+03  0.98553316351E+03  0.10261680803E+04  0.12508321332E+03 0.  0.
         23    2    1    2    0    0 -0.21684166639E+03  0.13812745627E+03  0.50171243339E+03  0.57147816246E+03  0.93661208071E+02 0.  0.
          5    1    3    3  502    0  0.20616823602E+03 -0.14108745787E+03  0.75375128137E+03  0.79408405026E+03  0.41800000000E+01 0. -1.
         -5    1    3    3    0  502  0.10673430368E+02  0.29600016025E+01  0.23178188214E+03  0.23208403007E+03  0.41800000000E+01 0. -1.
        -11    1    4    4    0    0 -0.92091585924E+02  0.73430567148E+02  0.32510027825E+03  0.34577897465E+03  0.00000000000E+00 0. -1.
         11    1    4    4    0    0 -0.12475008046E+03  0.64696889119E+02  0.17661215513E+03  0.22569918781E+03  0.00000000000E+00 0.  1.
</event>
<event>
 8    1  0.7052796E-009  0.1107866E+03  0.7561462E-02  0.1259120E+00
         -2   -1    0    0    0  501 -0.00000000000E+00  0.00000000000E+00  0.15900969634E+03  0.15900969634E+03  0.00000000000E+00 0.  1.
          2   -1    0    0  501    0  0.00000000000E+00 -0.00000000000E+00 -0.84290280049E+02  0.84290280049E+02  0.00000000000E+00 0. -1.
         25    2    1    2    0    0 -0.25516167293E+01  0.30001115047E+02  0.66708011365E+02  0.14492567050E+03  0.12508762344E+03 0.  0.
         23    2    1    2    0    0  0.25516167293E+01 -0.30001115047E+02  0.80114049274E+01  0.98374305891E+02  0.93309934084E+02 0.  0.
          5    1    3    3  502    0  0.28159151095E+02 -0.41217128713E+02  0.34600730348E+02  0.60880805106E+02  0.41800000000E+01 0.  1.
         -5    1    3    3    0  502 -0.30710767825E+02  0.71218243759E+02  0.32107281017E+02  0.84044865393E+02  0.41800000000E+01 0.  1.
        -11    1    4    4    0    0 -0.34549574171E+02 -0.42398394608E+02 -0.95073278582E+01  0.55512937445E+02  0.00000000000E+00 0. -1.
         11    1    4    4    0    0  0.37101190900E+02  0.12397279562E+02  0.17518732786E+02  0.42861368447E+02  0.00000000000E+00 0.  1.
</event>
<event>
 8    1  0.7052796E-009  0.7846001E+02  0.7561462E-02  0.1333479E+00
         -1   -1    0    0    0  501 -0.00000000000E+00  0.00000000000E+00  0.16643860475E+02  0.16643860475E+02  0.00000000000E+00 0.  1.
          1   -1    0    0  501    0  0.00000000000E+00 -0.00000000000E+00 -0.11756025308E+04  0.11756025308E+04  0.00000000000E+00 0. -1.
         25    2    1    2    0    0 -0.56115004680E+02 -0.35896484283E+02 -0.87598818936E+03  0.88737795124E+03  0.12508744593E+03 0.  0.
         23    2    1    2    0    0  0.56115004680E+02  0.35896484283E+02 -0.28297048100E+03  0.30486844006E+03  0.91842371998E+02 0.  0.
          5    1    3    3  502    0 -0.14234891141E+02 -0.87229675254E+01 -0.99251483098E+01  0.19867140137E+02  0.41800000000E+01 0.  1.
         -5    1    3    3    0  502 -0.41880113539E+02 -0.27173516757E+02 -0.86606304105E+03  0.86751081111E+03  0.41800000000E+01 0.  1.
        -11    1    4    4    0    0  0.89776339935E+01  0.41209255852E+02 -0.42913056527E+02  0.60169187301E+02  0.00000000000E+00 0.  1.
         11    1    4    4    0    0  0.47137370687E+02 -0.53127715693E+01 -0.24005742447E+03  0.24469925276E+03  0.00000000000E+00 0. -1.
</event>
<event>
 8    1  0.7052796E-009  0.1292826E+03  0.7561462E-02  0.1228524E+00
         -1   -1    0    0    0  501 -0.00000000000E+00  0.00000000000E+00  0.42446492293E+02  0.42446492293E+02  0.00000000000E+00 0.  1.
          1   -1    0    0  501    0  0.00000000000E+00 -0.00000000000E+00 -0.61190029038E+03  0.61190029038E+03  0.00000000000E+00 0. -1.
         25    2    1    2    0    0 -0.15913181242E+02 -0.10856190272E+03 -0.40835277715E+03  0.44095253040E+03  0.12509287510E+03 0.  0.
         23    2    1    2    0    0  0.15913181242E+02  0.10856190272E+03 -0.16110102094E+03  0.21339425227E+03  0.86859955647E+02 0.  0.
          5    1    3    3  502    0  0.20321408411E+02 -0.37588432012E+02 -0.25636055985E+02  0.50005295993E+02  0.41800000000E+01 0.  1.
         -5    1    3    3    0  502 -0.36234589654E+02 -0.70973470713E+02 -0.38271672116E+03  0.39094723441E+03  0.41800000000E+01 0.  1.
        -11    1    4    4    0    0 -0.32589393628E+02  0.36065062110E+02 -0.83639557594E+02  0.96738476712E+02  0.00000000000E+00 0. -1.
         11    1    4    4    0    0  0.48502574870E+02  0.72496840614E+02 -0.77461463343E+02  0.11665577556E+03  0.00000000000E+00 0.  1.
</event>
<event>
 8    1  0.7052796E-009  0.1393173E+03  0.7561462E-02  0.1214251E+00
          3   -1    0    0  501    0  0.00000000000E+00  0.00000000000E+00  0.15882848475E+03  0.15882848475E+03  0.00000000000E+00 0. -1.
         -3   -1    0    0    0  501 -0.00000000000E+00 -0.00000000000E+00 -0.15508174677E+03  0.15508174677E+03  0.00000000000E+00 0.  1.
         25    2    1    2    0    0  0.10071146839E+03  0.15766644840E+02 -0.49542036160E+02  0.16879988419E+03  0.12509036974E+03 0.  0.
         23    2    1    2    0    0 -0.10071146839E+03 -0.15766644840E+02  0.53288774134E+02  0.14511034733E+03  0.88464300707E+02 0.  0.
          5    1    3    3  502    0 -0.19950038588E+02 -0.12175432081E+02  0.15979863541E+02  0.28619462344E+02  0.41800000000E+01 0. -1.
         -5    1    3    3    0  502  0.12066150697E+03  0.27942076921E+02 -0.65521899701E+02  0.14018042184E+03  0.41800000000E+01 0. -1.
        -11    1    4    4    0    0 -0.10073360554E+03 -0.38789429264E+02  0.56546755896E+02  0.12185817457E+03  0.00000000000E+00 0. -1.
         11    1    4    4    0    0  0.22137157904E-01  0.23022784423E+02 -0.32579817621E+01  0.23252172755E+02  0.00000000000E+00 0.  1.
</event>
<event>
 8    1  0.7052796E-009  0.1012873E+03  0.7561462E-02  0.1277612E+00
          1   -1    0    0  501    0  0.00000000000E+00  0.00000000000E+00  0.23269562873E+03  0.23269562873E+03  0.00000000000E+00 0. -1.
         -1   -1    0    0    0  501 -0.00000000000E+00 -0.00000000000E+00 -0.87816494080E+02  0.87816494080E+02  0.00000000000E+00 0.  1.
         25    2    1    2    0    0 -0.66466121909E+02  0.13890437484E+02  0.14495688283E+03  0.20315160644E+03  0.12508951876E+03 0.  0.
         23    2    1    2    0    0  0.66466121909E+02 -0.13890437484E+02 -0.77748184906E-01  0.11736051637E+03  0.95722490261E+02 0.  0.
          5    1    3    3  502    0 -0.33641121648E+01  0.40678439934E+02  0.12510277074E+03  0.13165951684E+03  0.41800000000E+01 0. -1.
         -5    1    3    3    0  502 -0.63102009745E+02 -0.26788002450E+02  0.19854112087E+02  0.71492089603E+02  0.41800000000E+01 0. -1.
        -11    1    4    4    0    0  0.23961689827E+02  0.25444621629E+02 -0.35220414192E+02  0.49619239465E+02  0.00000000000E+00 0.  1.
         11    1    4    4    0    0  0.42504432082E+02 -0.39335059113E+02  0.35142666007E+02  0.67741276901E+02  0.00000000000E+00 0. -1.
</event>
<event>
 8    1  0.7052796E-009  0.1024151E+03  0.7561462E-02  0.1275298E+00
          1   -1    0    0  501    0  0.00000000000E+00  0.00000000000E+00  0.80542130425E+02  0.80542130425E+02  0.00000000000E+00 0. -1.
         -1   -1    0    0    0  501 -0.00000000000E+00 -0.00000000000E+00 -0.25453094284E+03  0.25453094284E+03  0.00000000000E+00 0.  1.
         25    2    1    2    0    0 -0.58762996115E+02  0.18425179699E+02 -0.12440207013E+02  0.13997522896E+03  0.12508288857E+03 0.  0.
         23    2    1    2    0    0  0.58762996115E+02 -0.18425179699E+02 -0.16154860540E+03  0.19509784431E+03  0.90402654755E+02 0.  0.
          5    1    3    3  502    0  0.19161345290E+00  0.34185211730E+02 -0.55397243513E+02  0.65230302817E+02  0.41800000000E+01 0. -1.
         -5    1    3    3    0  502 -0.58954609568E+02 -0.15760032032E+02  0.42957036500E+02  0.74744926141E+02  0.41800000000E+01 0. -1.
        -11    1    4    4    0    0 -0.24215772339E+02 -0.84414486914E+01 -0.42581419935E+02  0.49707534738E+02  0.00000000000E+00 0.  1.
         11    1    4    4    0    0  0.82978768454E+02 -0.99837310072E+01 -0.11896718547E+03  0.14539030957E+03  0.00000000000E+00 0. -1.
</event>
<event>
 8    1  0.7052796E-009  0.1532691E+03  0.7561462E-02  0.1196513E+00
          2   -1    0    0  501    0  0.00000000000E+00  0.00000000000E+00  0.32628181908E+03  0.32628181908E+03  0.00000000000E+00 0. -1.
         -2   -1    0    0    0  501 -0.00000000000E+00 -0.00000000000E+00 -0.76892119663E+02  0.76892119663E+02  0.00000000000E+00 0.  1.
         25    2    1    2    0    0  0.53938598850E+02 -0.99692441329E+02  0.16046460407E+03  0.23290512484E+03  0.12509177717E+03 0.  0.
         23    2    1    2    0    0 -0.53938598850E+02  0.99692441329E+02  0.88925095351E+02  0.17026881390E+03  0.90751534978E+02 0.  0.
          5    1    3    3  502    0  0.77539797155E+02 -0.22717211428E+02  0.11419159558E+03  0.13994886473E+03  0.41800000000E+01 0.  1.
         -5    1    3    3    0  502 -0.23601198305E+02 -0.76975229900E+02  0.46273008491E+02  0.92956260114E+02  0.41800000000E+01 0.  1.
        -11    1    4    4    0    0 -0.13965036317E+01  0.91880246719E+02  0.52100711374E+02  0.10563339474E+03  0.00000000000E+00 0. -1.
         11    1    4    4    0    0 -0.52542095219E+02  0.78121946100E+01  0.36824383978E+02  0.64635419160E+02  0.00000000000E+00 0.  1.
</event>
<event>
 8    1  0.7052796E-009  0.3757425E+03  0.7561462E-02  0.1052519E+00
          1   -1    0    0  501    0  0.00000000000E+00  0.00000000000E+00  0.30613912956E+03  0.30613912956E+03  0.00000000000E+00 0. -1.
         -1   -1    0    0    0  501 -0.00000000000E+00 -0.00000000000E+00 -0.49233718050E+03  0.49233718050E+03  0.00000000000E+00 0.  1.
         25    2    1    2    0    0 -0.16039721603E+03  0.33222221049E+03 -0.39663319846E+02  0.39155991087E+03  0.12508845191E+03 0.  0.
         23    2    1    2    0    0  0.16039721603E+03 -0.33222221049E+03 -0.14653473110E+03  0.40691639919E+03  0.89496728737E+02 0.  0.
          5    1    3    3  502    0 -0.13082807008E+03  0.30763245567E+03  0.25105968524E+01  0.33433140325E+03  0.41800000000E+01 0. -1.
         -5    1    3    3    0  502 -0.29569145955E+02  0.24589754826E+02 -0.42173916698E+02  0.57228507622E+02  0.41800000000E+01 0. -1.
        -11    1    4    4    0    0  0.81075841813E+02 -0.25576676601E+03 -0.11800498007E+03  0.29311278724E+03  0.00000000000E+00 0.  1.
         11    1    4    4    0    0  0.79321374221E+02 -0.76455444482E+02 -0.28529751029E+02  0.11380361195E+03  0.00000000000E+00 0. -1.
</event>
<event>
 8    1  0.7052796E-009  0.3223924E+03  0.7561462E-02  0.1074553E+00
         -1   -1    0    0    0  501 -0.00000000000E+00  0.00000000000E+00  0.42813998564E+03  0.42813998564E+03  0.00000000000E+00 0.  1.
          1   -1    0    0  501    0  0.00000000000E+00 -0.00000000000E+00 -0.26066168433E+03  0.26066168433E+03  0.00000000000E+00 0. -1.
         25    2    1    2    0    0 -0.20850398419E+03  0.22629699125E+03  0.12713708374E+02  0.33240575673E+03  0.12509080324E+03 0.  0.
         23    2    1    2    0    0  0.20850398419E+03 -0.22629699125E+03  0.15476459294E+03  0.35639591324E+03  0.91551778128E+02 0.  0.
          5    1    3    3  502    0 -0.20876963532E+03  0.23527234803E+03 -0.21087074905E+01  0.31457869830E+03  0.41800000000E+01 0.  1.
         -5    1    3    3    0  502  0.26565113814E+00 -0.89753567814E+01  0.14822415865E+02  0.17827058421E+02  0.41800000000E+01 0.  1.
        -11    1    4    4    0    0  0.86090004746E+02 -0.15850805772E+03  0.99026358802E+02  0.20577296474E+03  0.00000000000E+00 0.  1.
         11    1    4    4    0    0  0.12241397944E+03 -0.67788933526E+02  0.55738234138E+02  0.15062294850E+03  0.00000000000E+00 0. -1.
</event>
<event>
 8    1  0.7052796E-009  0.9004746E+02  0.7561462E-02  0.1302737E+00
          2   -1    0    0  501    0  0.00000000000E+00  0.00000000000E+00  0.20240696195E+03  0.20240696195E+03  0.00000000000E+00 0. -1.
         -2   -1    0    0    0  501 -0.00000000000E+00 -0.00000000000E+00 -0.74463013649E+02  0.74463013649E+02  0.00000000000E+00 0.  1.
         25    2    1    2    0    0 -0.20576596805E+02 -0.51494301176E+02  0.53398741239E+02  0.14688133000E+03  0.12509052780E+03 0.  0.
         23    2    1    2    0    0  0.20576596805E+02  0.51494301176E+02  0.74545207061E+02  0.12998864560E+03  0.90912049255E+02 0.  0.
          5    1    3    3  502    0 -0.14480733942E+01 -0.55906822983E+02  0.89474869654E+02  0.10559779577E+03  0.41800000000E+01 0.  1.
         -5    1    3    3    0  502 -0.19128523411E+02  0.44125218070E+01 -0.36076128415E+02  0.41283534223E+02  0.41800000000E+01 0.  1.
        -11    1    4    4    0    0  0.55144483562E+02  0.25860326663E+02  0.57308633542E+02  0.83629839417E+02  0.00000000000E+00 0.  1.
         11    1    4    4    0    0 -0.34567886757E+02  0.25633974513E+02  0.17236573519E+02  0.46358806184E+02  0.00000000000E+00 0. -1.
</event>
<event>
 8    1  0.7052796E-009  0.1076235E+03  0.7561462E-02  0.1265035E+00
         -2   -1    0    0    0  501 -0.00000000000E+00  0.00000000000E+00  0.17568772156E+02  0.17568772156E+02  0.00000000000E+00 0.  1.
          2   -1    0    0  501    0  0.00000000000E+00 -0.00000000000E+00 -0.83922443292E+03  0.83922443292E+03  0.00000000000E+00 0. -1.
         25    2    1    2    0    0  0.12607494667E+02  0.50401074745E+02 -0.53255404737E+03  0.54950927946E+03  0.12508963822E+03 0.  0.
         23    2    1    2    0    0 -0.12607494667E+02 -0.50401074745E+02 -0.28910161339E+03  0.30728392561E+03  0.90246611102E+02 0.  0.
          5    1    3    3  502    0 -0.17945351792E+02  0.85768092339E+02 -0.31755111019E+03  0.32944556652E+03  0.41800000000E+01 0.  1.
         -5    1    3    3    0  502  0.30552846459E+02 -0.35367017594E+02 -0.21500293718E+03  0.22006371295E+03  0.41800000000E+01 0.  1.
        -11    1    4    4    0    0  0.24734312949E+02 -0.13860720495E+02 -0.24191763651E+02  0.37271265584E+02  0.00000000000E+00 0.  1.
         11    1    4    4    0    0 -0.37341807616E+02 -0.36540354250E+02 -0.26490984974E+03  0.27001266003E+03  0.00000000000E+00 0. -1.
</event>
<event>
 8    1  0.7052796E-009  0.1608666E+03  0.7561462E-02  0.1187722E+00
         -1   -1    0    0    0  501 -0.00000000000E+00  0.00000000000E+00  0.16776175695E+03  0.16776175695E+03  0.00000000000E+00 0.  1.
          1   -1    0    0  501    0  0.00000000000E+00 -0.00000000000E+00 -0.16323030936E+03  0.16323030936E+03  0.00000000000E+00 0. -1.
         25    2    1    2    0    0  0.52441105736E+02  0.11306044086E+03  0.52233050277E+01  0.17665659375E+03  0.12509011289E+03 0.  0.
         23    2    1    2    0    0 -0.52441105736E+02 -0.11306044086E+03 -0.69185743836E+00  0.15433547255E+03  0.91028712851E+02 0.  0.
          5    1    3    3  502    0 -0.33017377799E+02  0.65487904982E+02 -0.18858348932E+02  0.75841431026E+02  0.41800000000E+01 0.  1.
         -5    1    3    3    0  502  0.85458483535E+02  0.47572535879E+02  0.24081653959E+02  0.10081516273E+03  0.41800000000E+01 0.  1.
        -11    1    4    4    0    0 -0.55100735404E+02 -0.12581310081E+03  0.96699861080E+01  0.13768999967E+03  0.00000000000E+00 0.  1.
         11    1    4    4    0    0  0.26596296676E+01  0.12752659952E+02 -0.10361843546E+02  0.16645472883E+02  0.00000000000E+00 0. -1.
</event>
<event>
 8    1  0.7052796E-009  0.9383220E+02  0.7561462E-02  0.1293828E+00
         -2   -1    0    0    0  501 -0.00000000000E+00  0.00000000000E+00  0.24296346206E+02  0.24296346206E+02  0.00000000000E+00 0.  1.
          2   -1    0    0  501    0  0.00000000000E+00 -0.00000000000E+00 -0.78314402278E+03  0.78314402278E+03  0.00000000000E+00 0. -1.
         25    2    1    2    0    0 -0.45340400723E+02 -0.72004838386E+02 -0.44450771258E+03  0.46954799731E+03  0.12509103302E+03 0.  0.
         23    2    1    2    0    0  0.45340400723E+02  0.72004838386E+02 -0.31433996400E+03  0.33789237168E+03  0.90117663014E+02 0.  0.
          5    1    3    3  502    0 -0.37035146137E+02 -0.46886212341E+02 -0.62367227941E+02  0.86470009125E+02  0.41800000000E+01 0.  1.
         -5    1    3    3    0  502 -0.83052545861E+01 -0.25118626045E+02 -0.38214048464E+03  0.38307798818E+03  0.41800000000E+01 0.  1.
        -11    1    4    4    0    0  0.15715350530E+02  0.69499944154E+02 -0.29236266999E+03  0.30092049662E+03  0.00000000000E+00 0. -1.
         11    1    4    4    0    0  0.29625050193E+02  0.25048942326E+01 -0.21977294004E+02  0.36971875065E+02  0.00000000000E+00 0.  1.
</event>
<event>
 8    1  0.7052796E-009  0.2838820E+03  0.7561462E-02  0.1093587E+00
         -1   -1    0    0    0  501 -0.00000000000E+00  0.00000000000E+00  0.25970224555E+03  0.25970224555E+03  0.00000000000E+00 0.  1.
          1   -1    0    0  501    0  0.00000000000E+00 -0.00000000000E+00 -0.33427450102E+03  0.33427450102E+03  0.00000000000E+00 0. -1.
         25    2    1    2    0    0 -0.45187320920E+02  0.26779659952E+03 -0.62916757698E+01  0.29907298400E+03  0.12509257327E+03 0.  0.
         23    2    1    2    0    0  0.45187320920E+02 -0.26779659952E+03 -0.68280579698E+02  0.29490376257E+03  0.92461229341E+02 0.  0.
          5    1    3    3  502    0  0.31275261215E+02  0.11322726173E+03  0.33142198571E+02  0.12212465963E+03  0.41800000000E+01 0.  1.
         -5    1    3    3    0  502 -0.76462582135E+02  0.15456933779E+03 -0.39433874341E+02  0.17694832437E+03  0.41800000000E+01 0.  1.
        -11    1    4    4    0    0  0.26933808827E+02 -0.34760429480E+02  0.15450961552E+02  0.46609545465E+02  0.00000000000E+00 0.  1.
         11    1    4    4    0    0  0.18253512093E+02 -0.23303617004E+03 -0.83731541250E+02  0.24829421711E+03  0.00000000000E+00 0. -1.
</event>
<event>
 8    1  0.7052796E-009  0.1172064E+03  0.7561462E-02  0.1247778E+00
          2   -1    0    0  501    0  0.00000000000E+00  0.00000000000E+00  0.37480500138E+03  0.37480500138E+03  0.00000000000E+00 0. -1.
         -2   -1    0    0    0  501 -0.00000000000E+00 -0.00000000000E+00 -0.55264224772E+02  0.55264224772E+02  0.00000000000E+00 0.  1.
         25    2    1    2    0    0  0.83556662400E+02  0.20676627940E+02  0.11409029403E+03  0.18992783907E+03  0.12508697010E+03 0.  0.
         23    2    1    2    0    0 -0.83556662400E+02 -0.20676627940E+02  0.20545048259E+03  0.24014138709E+03  0.89714804924E+02 0.  0.
          5    1    3    3  502    0 -0.84274339946E+01 -0.37388732400E+02  0.11220516292E+02  0.40153596851E+02  0.41800000000E+01 0. -1.
         -5    1    3    3    0  502  0.91984096394E+02  0.58065360340E+02  0.10286977773E+03  0.14977424222E+03  0.41800000000E+01 0. -1.
        -11    1    4    4    0    0 -0.35047155653E+02 -0.15135006871E+02  0.11106866072E+02  0.39758445975E+02  0.00000000000E+00 0.  1.
         11    1    4    4    0    0 -0.48509506746E+02 -0.55416210689E+01  0.19434361651E+03  0.20038294111E+03  0.00000000000E+00 0. -1.
</event>
<event>
 8    1  0.7052796E-009  0.1048765E+03  0.7561462E-02  0.1270363E+00
          2   -1    0    0  501    0  0.00000000000E+00  0.00000000000E+00  0.65952059412E+03  0.65952059412E+03  0.00000000000E+00 0. -1.
         -2   -1    0    0    0  501 -0.00000000000E+00 -0.00000000000E+00 -0.30425970577E+02  0.30425970577E+02  0.00000000000E+00 0.  1.
         25    2    1    2    0    0 -0.67940356842E+02 -0.58001936754E+02  0.38320809733E+03  0.41288632897E+03  0.12508620239E+03 0.  0.
         23    2    1    2    0    0  0.67940356842E+02  0.58001936754E+02  0.24588652621E+03  0.27706023573E+03  0.91225400510E+02 0.  0.
          5    1    3    3  502    0 -0.65821291618E+02 -0.61313952265E+02  0.39209747056E+03  0.40230553313E+03  0.41800000000E+01 0.  1.
         -5    1    3    3    0  502 -0.21190652241E+01  0.33120155105E+01 -0.88893732220E+01  0.10580795832E+02  0.41800000000E+01 0.  1.
        -11    1    4    4    0    0 -0.11208583369E+02 -0.55026961833E+01  0.16667687753E+01  0.12597226860E+02  0.00000000000E+00 0.  1.
         11    1    4    4    0    0  0.79148940211E+02  0.63504632937E+02  0.24421975744E+03  0.26446300887E+03  0.00000000000E+00 0. -1.
</event>
<event>
 8    1  0.7052796E-009  0.1203085E+03  0.7561462E-02  0.1242589E+00
         -1   -1    0    0    0  501 -0.00000000000E+00  0.00000000000E+00  0.81841767023E+02  0.81841767023E+02  0.00000000000E+00 0.  1.
          1   -1    0    0  501    0  0.00000000000E+00 -0.00000000000E+00 -0.24140903601E+03  0.24140903601E+03  0.00000000000E+00 0. -1.
         25    2    1    2    0    0 -0.36802031942E+02  0.80001401944E+02 -0.82994824884E+02  0.17403998689E+03  0.12508861743E+03 0.  0.
         23    2    1    2    0    0  0.36802031942E+02 -0.80001401944E+02 -0.76572444105E+02  0.14921081614E+03  0.92983410291E+02 0.  0.
          5    1    3    3  502    0  0.37202628833E+02  0.31421665015E+02  0.50252066784E+01  0.49133305675E+02  0.41800000000E+01 0.  1.
         -5    1    3    3    0  502 -0.74004660775E+02  0.48579736929E+02 -0.88020031562E+02  0.12490668122E+03  0.41800000000E+01 0.  1.
        -11    1    4    4    0    0 -0.89664187826E+01 -0.43951099400E+02  0.89388003296E+01  0.45738364155E+02  0.00000000000E+00 0.  1.
         11    1    4    4    0    0  0.45768450725E+02 -0.36050302544E+02 -0.85511244435E+02  0.10347245199E+03  0.00000000000E+00 0. -1.
</event>
<event>
 8    1  0.7052796E-009  0.1569844E+03  0.7561462E-02  0.1192144E+00
          2   -1    0    0  501    0  0.00000000000E+00  0.00000000000E+00  0.77510214370E+03  0.77510214370E+03  0.00000000000E+00 0. -1.
         -2   -1    0    0    0  501 -0.00000000000E+00 -0.00000000000E+00 -0.40541113192E+02  0.40541113192E+02  0.00000000000E+00 0.  1.
         25    2    1    2    0    0 -0.12404234267E+03  0.63520009913E+02  0.44530364046E+03  0.48307874504E+03  0.12509375390E+03 0.  0.
         23    2    1    2    0    0  0.12404234267E+03 -0.63520009913E+02  0.28925739004E+03  0.33256451185E+03  0.86648845434E+02 0.  0.
          5    1    3    3  502    0 -0.12859660994E+03  0.74523463451E+02  0.44630159638E+03  0.47041834788E+03  0.41800000000E+01 0. -1.
         -5    1    3    3    0  502  0.45542672726E+01 -0.11003453539E+02 -0.99795591649E+00  0.12660397157E+02  0.41800000000E+01 0. -1.
        -11    1    4    4    0    0  0.93108995833E+02 -0.75108113191E+02  0.16380661205E+03  0.20283766890E+03  0.00000000000E+00 0.  1.
         11    1    4    4    0    0  0.30933346833E+02  0.11588103278E+02  0.12545077799E+03  0.12972684296E+03  0.00000000000E+00 0. -1.
</event>
<event>
 8    1  0.7052796E-009  0.1116125E+03  0.7561462E-02  0.1257613E+00
         -2   -1    0    0    0  501 -0.00000000000E+00  0.00000000000E+00  0.72628867978E+02  0.72628867978E+02  0.00000000000E+00 0.  1.
          2   -1    0    0  501    0  0.00000000000E+00 -0.00000000000E+00 -0.20501438661E+03  0.20501438661E+03  0.00000000000E+00 0. -1.
         25    2    1    2    0    0  0.13646131432E+01  0.32227556562E+02 -0.23338154472E+02  0.13127496521E+03  0.12509184412E+03 0.  0.
         23    2    1    2    0    0 -0.13646131432E+01 -0.32227556562E+02 -0.10904736416E+03  0.14636828938E+03  0.92151347975E+02 0.  0.
          5    1    3    3  502    0 -0.32074791765E+02 -0.38747323231E+02 -0.61442472172E+01  0.50846548537E+02  0.41800000000E+01 0. -1.
         -5    1    3    3    0  502  0.33439404908E+02  0.70974879793E+02 -0.17193907255E+02  0.80428416675E+02  0.41800000000E+01 0. -1.
        -11    1    4    4    0    0  0.36172025976E+02  0.10151330268E+02 -0.63182501768E+02  0.73508458691E+02  0.00000000000E+00 0. -1.
         11    1    4    4    0    0 -0.37536639119E+02 -0.42378886831E+02 -0.45864862396E+02  0.72859830689E+02  0.00000000000E+00 0.  1.
</event>
<event>
 8    1  0.7052796E-009  0.1088727E+03  0.7561462E-02  0.1262672E+00
         -2   -1    0    0    0  501 -0.00000000000E+00  0.00000000000E+00  0.14237799523E+02  0.14237799523E+02  0.00000000000E+00 0.  1.
          2   -1    0    0  501    0  0.00000000000E+00 -0.00000000000E+00 -0.92235341696E+03  0.92235341696E+03  0.00000000000E+00 0. -1.
         25    2    1    2    0    0  0.10868024103E+02  0.20704873904E+02 -0.62847115670E+03  0.64122562540E+03  0.12508997608E+03 0.  0.
         23    2    1    2    0    0 -0.10868024103E+02 -0.20704873904E+02 -0.27964446074E+03  0.29536559108E+03  0.92157485990E+02 0.  0.
          5    1    3    3  502    0 -0.29204059597E+01 -0.51792980337E+02 -0.30576860132E+03  0.31016600642E+03  0.41800000000E+01 0.  1.
         -5    1    3    3    0  502  0.13788430063E+02  0.72497854241E+02 -0.32270255538E+03  0.33105961899E+03  0.41800000000E+01 0.  1.
        -11    1    4    4    0    0 -0.22995930287E+02  0.31045031351E+02 -0.81140452831E+02  0.89868681236E+02  0.00000000000E+00 0.  1.
         11    1    4    4    0    0  0.12127906184E+02 -0.51749905255E+02 -0.19850400791E+03  0.20549690985E+03  0.00000000000E+00 0. -1.
</event>
<event>
 8    1  0.7052796E-009  0.9117288E+02  0.7561462E-02  0.1300036E+00
         -2   -1    0    0    0  501 -0.00000000000E+00  0.00000000000E+00  0.59905096759E+02  0.59905096759E+02  0.00000000000E+00 0. -1.
          2   -1    0    0  501    0  0.00000000000E+00 -0.00000000000E+00 -0.26579466434E+03  0.26579466434E+03  0.00000000000E+00 0.  1.
         25    2    1    2    0    0  0.51327162661E+02 -0.10378897880E+02 -0.16234014991E+03  0.21152654076E+03  0.12508778527E+03 0.  0.
         23    2    1    2    0    0 -0.51327162661E+02  0.10378897880E+02 -0.43549417670E+02  0.11417322034E+03  0.91633909203E+02 0.  0.
          5    1    3    3  502    0  0.56294221797E+02  0.46032125703E+02 -0.59501771497E+02  0.94052800148E+02  0.41800000000E+01 0. -1.
         -5    1    3    3    0  502 -0.49670591367E+01 -0.56411023583E+02 -0.10283837842E+03  0.11747374061E+03  0.41800000000E+01 0. -1.
        -11    1    4    4    0    0 -0.23826027160E+02  0.17040228421E+01 -0.70663203915E+02  0.74591364457E+02  0.00000000000E+00 0.  1.
         11    1    4    4    0    0 -0.27501135501E+02  0.86748750383E+01  0.27113786245E+02  0.39581855885E+02  0.00000000000E+00 0. -1.
</event>
<event>
 8    1  0.7052796E-009  0.8621804E+02  0.7561462E-02  0.1312278E+00
         -1   -1    0    0    0  501 -0.00000000000E+00  0.00000000000E+00  0.22520213340E+03  0.22520213340E+03  0.00000000000E+00 0.  1.
          1   -1    0    0  501    0  0.00000000000E+00 -0.00000000000E+00 -0.57050935722E+02  0.57050935722E+02  0.00000000000E+00 0. -1.
         25    2    1    2    0    0  0.30066212526E+02  0.13279258580E+02  0.11158959606E+03  0.17081974050E+03  0.12508728933E+03 0.  0.
         23    2    1    2    0    0 -0.30066212526E+02 -0.13279258580E+02  0.56561601623E+02  0.11143332862E+03  0.90210066545E+02 0.  0.
          5    1    3    3  502    0 -0.28872426301E+02 -0.38624693433E+02  0.27444487398E+02  0.55643114865E+02  0.41800000000E+01 0. -1.
         -5    1    3    3    0  502  0.58938638827E+02  0.51903952012E+02  0.84145108657E+02  0.11517662563E+03  0.41800000000E+01 0. -1.
        -11    1    4    4    0    0 -0.12689891796E+02  0.10126303911E+02 -0.22169799982E+02  0.27478635627E+02  0.00000000000E+00 0. -1.
         11    1    4    4    0    0 -0.17376320730E+02 -0.23405562490E+02  0.78731401605E+02  0.83954692998E+02  0.00000000000E+00 0.  1.
</event>
<event>
 8    1  0.7052796E-009  0.1168953E+03  0.7561462E-02  0.1248308E+00
          2   -1    0    0  501    0  0.00000000000E+00  0.00000000000E+00  0.43444354283E+02  0.43444354283E+02  0.00000000000E+00 0. -1.
         -2   -1    0    0    0  501 -0.00000000000E+00 -0.00000000000E+00 -0.36977902195E+03  0.36977902195E+03  0.00000000000E+00 0.  1.
         25    2    1    2    0    0 -0.52797388665E+02 -0.39002303243E+02 -0.18487316491E+03  0.23266841547E+03  0.12509100905E+03 0.  0.
         23    2    1    2    0    0  0.52797388665E+02  0.39002303243E+02 -0.14146150276E+03  0.18055496077E+03  0.90994467886E+02 0.  0.
          5    1    3    3  502    0  0.84735960376E+00 -0.75423688548E+02 -0.11124059342E+03  0.13446706971E+03  0.41800000000E+01 0. -1.
         -5    1    3    3    0  502 -0.53644748268E+02  0.36421385305E+02 -0.73632571487E+02  0.98201345755E+02  0.41800000000E+01 0. -1.
        -11    1    4    4    0    0 -0.12093014979E+02  0.23691306078E+02 -0.96599155075E+02  0.10019438984E+03  0.00000000000E+00 0.  1.
         11    1    4    4    0    0  0.64890403644E+02  0.15310997165E+02 -0.44862347689E+02  0.80360570925E+02  0.00000000000E+00 0. -1.
</event>
<event>
 8    1  0.7052796E-009  0.7705203E+02  0.7561462E-02  0.1337632E+00
         -4   -1    0    0    0  501 -0.00000000000E+00  0.00000000000E+00  0.21833598562E+02  0.21833598562E+02  0.00000000000E+00 0.  1.
          4   -1    0    0  501    0  0.00000000000E+00 -0.00000000000E+00 -0.73563804977E+03  0.73563804977E+03  0.00000000000E+00 0. -1.
         25    2    1    2    0    0 -0.21172072147E+02  0.16223231776E+02 -0.56604032160E+03  0.58031177535E+03  0.12509460838E+03 0.  0.
         23    2    1    2    0    0  0.21172072147E+02 -0.16223231776E+02 -0.14776412961E+03  0.17715987298E+03  0.94020916329E+02 0.  0.
          5    1    3    3  502    0  0.26861474369E+02 -0.77685980973E+01 -0.28727201564E+02  0.40306506067E+02  0.41800000000E+01 0. -1.
         -5    1    3    3    0  502 -0.48033546516E+02  0.23991829873E+02 -0.53731312004E+03  0.54000526928E+03  0.41800000000E+01 0. -1.
        -11    1    4    4    0    0  0.16347131267E+01 -0.40658288092E+02 -0.19475695708E+02  0.45111765659E+02  0.00000000000E+00 0.  1.
         11    1    4    4    0    0  0.19537359020E+02  0.24435056316E+02 -0.12828843390E+03  0.13204810732E+03  0.00000000000E+00 0. -1.
</event>
<event>
 8    1  0.7052796E-009  0.1979633E+03  0.7561462E-02  0.1151469E+00
          2   -1    0    0  501    0  0.00000000000E+00  0.00000000000E+00  0.16326287566E+04  0.16326287566E+04  0.00000000000E+00 0.  1.
         -2   -1    0    0    0  501 -0.00000000000E+00 -0.00000000000E+00 -0.35663835115E+02  0.35663835115E+02  0.00000000000E+00 0. -1.
         25    2    1    2    0    0 -0.14190048956E+03 -0.12317834085E+03  0.11880440962E+04  0.12092995717E+04  0.12509207457E+03 0.  0.
         23    2    1    2    0    0  0.14190048956E+03  0.12317834085E+03  0.40892082535E+03  0.45899302003E+03  0.90275680228E+02 0.  0.
          5    1    3    3  502    0 -0.12255961321E+03 -0.12343605033E+03  0.71590940705E+03  0.73675034362E+03  0.41800000000E+01 0.  1.
         -5    1    3    3    0  502 -0.19340876349E+02  0.25770947587E+00  0.47213468911E+03  0.47254922810E+03  0.41800000000E+01 0.  1.
        -11    1    4    4    0    0  0.88680220636E+02  0.27828760798E+02  0.24493875409E+03  0.26198018001E+03  0.00000000000E+00 0.  1.
         11    1    4    4    0    0  0.53220268922E+02  0.95349580056E+02  0.16398207125E+03  0.19701284002E+03  0.00000000000E+00 0. -1.
</event>
<event>
 8    1  0.7052796E-009  0.1342444E+03  0.7561462E-02  0.1221290E+00
          2   -1    0    0  501    0  0.00000000000E+00  0.00000000000E+00  0.16964858965E+03  0.16964858965E+03  0.00000000000E+00 0. -1.
         -2   -1    0    0    0  501 -0.00000000000E+00 -0.00000000000E+00 -0.10754123836E+03  0.10754123836E+03  0.00000000000E+00 0.  1.
         25    2    1    2    0    0  0.78650302980E+02  0.14045622824E+02  0.47967935262E+02  0.15598480167E+03  0.12508871195E+03 0.  0.
         23    2    1    2    0    0 -0.78650302980E+02 -0.14045622824E+02  0.14139416023E+02  0.12120502634E+03  0.90042132612E+02 0.  0.
          5    1    3    3  502    0  0.70421312010E+02 -0.48238978760E+02  0.27727991650E+02  0.89846948629E+02  0.41800000000E+01 0. -1.
         -5    1    3    3    0  502  0.82289909701E+01  0.62284601584E+02  0.20239943613E+02  0.66137853037E+02  0.41800000000E+01 0. -1.
        -11    1    4    4    0    0 -0.35875410194E+02  0.38289926867E+02  0.18393773711E+01  0.52502827212E+02  0.00000000000E+00 0.  1.
         11    1    4    4    0    0 -0.42774892785E+02 -0.52335549691E+02  0.12300038651E+02  0.68702199128E+02  0.00000000000E+00 0. -1.
</event>
<event>
 8    1  0.7052796E-009  0.8782700E+02  0.7561462E-02  0.1308201E+00
          1   -1    0    0  501    0  0.00000000000E+00  0.00000000000E+00  0.38503840733E+03  0.38503840733E+03  0.00000000000E+00 0. -1.
         -1   -1    0    0    0  501 -0.00000000000E+00 -0.00000000000E+00 -0.38011742208E+02  0.38011742208E+02  0.00000000000E+00 0.  1.
         25    2    1    2    0    0  0.17352403841E+02  0.21963278806E+02  0.27566963321E+03  0.30401047453E+03  0.12508049575E+03 0.  0.
         23    2    1    2    0    0 -0.17352403841E+02 -0.21963278806E+02  0.71357031911E+02  0.11903967500E+03  0.91077586085E+02 0.  0.
          5    1    3    3  502    0 -0.39691137085E+02  0.46401405874E+02  0.95718086417E+02  0.11361294511E+03  0.41800000000E+01 0.  1.
         -5    1    3    3    0  502  0.57043540926E+02 -0.24438127068E+02  0.17995154679E+03  0.19039752942E+03  0.41800000000E+01 0.  1.
        -11    1    4    4    0    0  0.23822056631E+01 -0.30612104584E+02 -0.11982456753E+02  0.32959901710E+02  0.00000000000E+00 0.  1.
         11    1    4    4    0    0 -0.19734609504E+02  0.86488257787E+01  0.83339488664E+02  0.86079773294E+02  0.00000000000E+00 0. -1.
</event>
<event>
 8    1  0.7052796E-009  0.1074671E+03  0.7561462E-02  0.1265334E+00
         -1   -1    0    0    0  501 -0.00000000000E+00  0.00000000000E+00  0.37445397680E+02  0.37445397680E+02  0.00000000000E+00 0.  1.
          1   -1    0    0  501    0  0.00000000000E+00 -0.00000000000E+00 -0.47266237298E+03  0.47266237298E+03  0.00000000000E+00 0. -1.
         25    2    1    2    0    0  0.57277383040E+02 -0.43359676073E+02 -0.18662450135E+03  0.23587534835E+03  0.12509082834E+03 0.  0.
         23    2    1    2    0    0 -0.57277383040E+02  0.43359676073E+02 -0.24859247395E+03  0.27423242232E+03  0.90798916454E+02 0.  0.
          5    1    3    3  502    0 -0.37374446760E+02 -0.27836893518E+02 -0.46088925801E+02  0.65676505638E+02  0.41800000000E+01 0. -1.
         -5    1    3    3    0  502  0.94651829800E+02 -0.15522782555E+02 -0.14053557555E+03  0.17019884271E+03  0.41800000000E+01 0. -1.
        -11    1    4    4    0    0 -0.39121375828E+02  0.25686064785E+02 -0.24404255204E+03  0.24848948303E+03  0.00000000000E+00 0. -1.
         11    1    4    4    0    0 -0.18156007212E+02  0.17673611288E+02 -0.45499219112E+01  0.25742939289E+02  0.00000000000E+00 0.  1.
</event>
<event>
 8    1  0.7052796E-009  0.1217745E+03  0.7561462E-02  0.1240198E+00
          2   -1    0    0  501    0  0.00000000000E+00  0.00000000000E+00  0.60841495948E+03  0.60841495948E+03  0.00000000000E+00 0.  1.
         -2   -1    0    0    0  501 -0.00000000000E+00 -0.00000000000E+00 -0.39344127576E+02  0.39344127576E+02  0.00000000000E+00 0. -1.
         25    2    1    2    0    0 -0.84952003358E+02 -0.69906188205E+02  0.30261802901E+03  0.34544007324E+03  0.12508978651E+03 0.  0.
         23    2    1    2    0    0  0.84952003358E+02  0.69906188205E+02  0.26645280290E+03  0.30231901383E+03  0.91082226173E+02 0.  0.
          5    1    3    3  502    0 -0.34282535383E+01 -0.10900581304E+02  0.20438022342E+03  0.20474209074E+03  0.41800000000E+01 0.  1.
         -5    1    3    3    0  502 -0.81523749820E+02 -0.59005606901E+02  0.98237805588E+02  0.14069798249E+03  0.41800000000E+01 0.  1.
        -11    1    4    4    0    0  0.62667617123E+02  0.83616365284E+02  0.14900965714E+03  0.18199671618E+03  0.00000000000E+00 0. -1.
         11    1    4    4    0    0  0.22284386235E+02 -0.13710177079E+02  0.11744314576E+03  0.12032229764E+03  0.00000000000E+00 0.  1.
</event>
<event>
 8    1  0.7052796E-009  0.9840892E+02  0.7561462E-02  0.1283678E+00
          2   -1    0    0  501    0  0.00000000000E+00  0.00000000000E+00  0.12359025316E+03  0.12359025316E+03  0.00000000000E+00 0. -1.
         -2   -1    0    0    0  501 -0.00000000000E+00 -0.00000000000E+00 -0.33808785422E+03  0.33808785422E+03  0.00000000000E+00 0.  1.
         25    2    1    2    0    0 -0.48952539375E+02  0.30658331149E+01  0.75280830635E+02  0.15401462273E+03  0.12509016791E+03 0.  0.
         23    2    1    2    0    0  0.48952539375E+02 -0.30658331149E+01 -0.28977843170E+03  0.30766348465E+03  0.90991921980E+02 0.  0.
          5    1    3    3  502    0 -0.75046672289E+02  0.50506261226E+01  0.12062555828E+01  0.75342148220E+02  0.41800000000E+01 0.  1.
         -5    1    3    3    0  502  0.26094132914E+02 -0.19847930076E+01  0.74074575052E+02  0.78672474506E+02  0.41800000000E+01 0.  1.
        -11    1    4    4    0    0  0.71198677446E+02  0.48695949396E+01 -0.26021454450E+03  0.26982322694E+03  0.00000000000E+00 0.  1.
         11    1    4    4    0    0 -0.22246138071E+02 -0.79354280545E+01 -0.29563887192E+02  0.37840257708E+02  0.00000000000E+00 0. -1.
</event>
<event>
 8    1  0.7052796E-009  0.9695453E+02  0.7561462E-02  0.1286834E+00
          3   -1    0    0  501    0  0.00000000000E+00  0.00000000000E+00  0.60074906460E+02  0.60074906460E+02  0.00000000000E+00 0. -1.
         -3   -1    0    0    0  501 -0.00000000000E+00 -0.00000000000E+00 -0.24529393211E+03  0.24529393211E+03  0.00000000000E+00 0.  1.
         25    2    1    2    0    0 -0.24199133137E+02  0.46874317958E+02 -0.91308720172E+02  0.16359909461E+03  0.12507830207E+03 0.  0.
         23    2    1    2    0    0  0.24199133137E+02 -0.46874317958E+02 -0.93910305477E+02  0.14176974396E+03  0.92177627969E+02 0.  0.
          5    1    3    3  502    0  0.27976656762E+02  0.71270451308E+02 -0.40692234045E+02  0.86807262742E+02  0.41800000000E+01 0.  1.
         -5    1    3    3    0  502 -0.52175789899E+02 -0.24396133350E+02 -0.50616486127E+02  0.76791831870E+02  0.41800000000E+01 0.  1.
        -11    1    4    4    0    0  0.27577272018E+02 -0.24608695397E+02 -0.10871014349E+03  0.11482155337E+03  0.00000000000E+00 0.  1.
         11    1    4    4    0    0 -0.33781388808E+01 -0.22265622561E+02  0.14799838016E+02  0.26948190582E+02  0.00000000000E+00 0. -1.
</event>
<event>
 8    1  0.7052796E-009  0.1079524E+03  0.7561462E-02  0.1264409E+00
         -2   -1    0    0    0  501 -0.00000000000E+00  0.00000000000E+00  0.13328570794E+03  0.13328570794E+03  0.00000000000E+00 0. -1.
          2   -1    0    0  501    0  0.00000000000E+00 -0.00000000000E+00 -0.92298983657E+02  0.92298983657E+02  0.00000000000E+00 0.  1.
         25    2    1    2    0    0 -0.26262967351E+02 -0.14017570944E+01  0.27474709767E+02  0.13073893535E+03  0.12508437618E+03 0.  0.
         23    2    1    2    0    0  0.26262967351E+02  0.14017570944E+01  0.13512014516E+02  0.94845756244E+02  0.90119002237E+02 0.  0.
          5    1    3    3  502    0 -0.25905263679E+02  0.59931384002E+02  0.63385346197E+01  0.65730532447E+02  0.41800000000E+01 0. -1.
         -5    1    3    3    0  502 -0.35770367241E+00 -0.61333141096E+02  0.21136175147E+02  0.65008402907E+02  0.41800000000E+01 0. -1.
        -11    1    4    4    0    0  0.21282955966E+02  0.42539291185E+02 -0.78756400001E+01  0.48213911007E+02  0.00000000000E+00 0. -1.
         11    1    4    4    0    0  0.49800113855E+01 -0.41137534091E+02  0.21387654516E+02  0.46631845237E+02  0.00000000000E+00 0.  1.
</event>
<event>
 8    1  0.7052796E-009  0.9472758E+02  0.7561462E-02  0.1291791E+00
          2   -1    0    0  501    0  0.00000000000E+00  0.00000000000E+00  0.28027470745E+03  0.28027470745E+03  0.00000000000E+00 0. -1.
         -2   -1    0    0    0  501 -0.00000000000E+00 -0.00000000000E+00 -0.61278998392E+02  0.61278998392E+02  0.00000000000E+00 0.  1.
         25    2    1    2    0    0  0.67669950322E+02 -0.12466234432E+02  0.83239198515E+02  0.16526029840E+03  0.12509025893E+03 0.  0.
         23    2    1    2    0    0 -0.67669950322E+02  0.12466234432E+02  0.13575651054E+03  0.17629340744E+03  0.88965758444E+02 0.  0.
          5    1    3    3  502    0  0.41973307008E+02 -0.36842000728E+02  0.10812705719E+03  0.12177037577E+03  0.41800000000E+01 0.  1.
         -5    1    3    3    0  502  0.25696643314E+02  0.24375766296E+02 -0.24887858679E+02  0.43489922624E+02  0.41800000000E+01 0.  1.
        -11    1    4    4    0    0 -0.82327991538E+02  0.10779786925E+02  0.13831052027E+03  0.16131925494E+03  0.00000000000E+00 0. -1.
         11    1    4    4    0    0  0.14658041216E+02  0.16864475067E+01 -0.25540097283E+01  0.14974152502E+02  0.00000000000E+00 0.  1.
</event>
<event>
 8    1  0.7052796E-009  0.1194518E+03  0.7561462E-02  0.1244004E+00
         -1   -1    0    0    0  501 -0.00000000000E+00  0.00000000000E+00  0.15950433660E+03  0.15950433660E+03  0.00000000000E+00 0.  1.
          1   -1    0    0  501    0  0.00000000000E+00 -0.00000000000E+00 -0.11050824207E+03  0.11050824207E+03  0.00000000000E+00 0. -1.
         25    2    1    2    0    0 -0.47239855671E+02 -0.52603599285E+02 -0.13056351723E+01  0.14369245105E+03  0.12508826157E+03 0.  0.
         23    2    1    2    0    0  0.47239855671E+02  0.52603599285E+02  0.50301729699E+02  0.12632012762E+03  0.91802875831E+02 0.  0.
          5    1    3    3  502    0  0.74227406984E+01 -0.75533896149E+02  0.23109241246E+02  0.79447945083E+02  0.41800000000E+01 0. -1.
         -5    1    3    3    0  502 -0.54662596370E+02  0.22930296864E+02 -0.24414876419E+02  0.64244505965E+02  0.41800000000E+01 0. -1.
        -11    1    4    4    0    0 -0.13023283304E+02  0.39775007635E+02  0.49338847593E+02  0.64699142360E+02  0.00000000000E+00 0.  1.
         11    1    4    4    0    0  0.60263138976E+02  0.12828591650E+02  0.96288210566E+00  0.61620985264E+02  0.00000000000E+00 0. -1.
</event>
<event>
 8    1  0.7052796E-009  0.7746054E+02  0.7561462E-02  0.1336417E+00
          2   -1    0    0  501    0  0.00000000000E+00  0.00000000000E+00  0.27836614590E+03  0.27836614590E+03  0.00000000000E+00 0. -1.
         -2   -1    0    0    0  501 -0.00000000000E+00 -0.00000000000E+00 -0.56978969464E+02  0.56978969464E+02  0.00000000000E+00 0.  1.
         25    2    1    2    0    0 -0.11798845409E+02  0.39449694733E+01  0.40306772144E+02  0.13200963823E+03  0.12508850134E+03 0.  0.
         23    2    1    2    0    0  0.11798845409E+02 -0.39449694733E+01  0.18108040429E+03  0.20333547714E+03  0.91653848291E+02 0.  0.
          5    1    3    3  502    0 -0.47123835662E+02 -0.75378579341E+01 -0.27021751036E+02  0.55001114705E+02  0.41800000000E+01 0. -1.
         -5    1    3    3    0  502  0.35324990253E+02  0.11482827407E+02  0.67328523180E+02  0.77008523523E+02  0.41800000000E+01 0. -1.
        -11    1    4    4    0    0 -0.19413019843E+02  0.21789915801E+02  0.14865021661E+03  0.15148779710E+03  0.00000000000E+00 0. -1.
         11    1    4    4    0    0  0.31211865252E+02 -0.25734885274E+02  0.32430187678E+02  0.51847680039E+02  0.00000000000E+00 0.  1.
</event>
<event>
 8    1  0.7052796E-009  0.1069527E+03  0.7561462E-02  0.1266319E+00
          2   -1    0    0  501    0  0.00000000000E+00  0.00000000000E+00  0.72251999782E+02  0.72251999782E+02  0.00000000000E+00 0. -1.
         -2   -1    0    0    0  501 -0.00000000000E+00 -0.00000000000E+00 -0.24293615755E+03  0.24293615755E+03  0.00000000000E+00 0.  1.
         25    2    1    2    0    0  0.47274458009E+02  0.52250141082E+02 -0.60873448988E+02  0.15594061759E+03  0.12508776039E+03 0.  0.
         23    2    1    2    0    0 -0.47274458009E+02 -0.52250141082E+02 -0.10981070878E+03  0.15924753975E+03  0.91304082764E+02 0.  0.
          5    1    3    3  502    0  0.21526376165E+02 -0.41059742512E+02 -0.22911926526E+02  0.51881751157E+02  0.41800000000E+01 0.  1.
         -5    1    3    3    0  502  0.25748081843E+02  0.93309883594E+02 -0.37961522461E+02  0.10405886643E+03  0.41800000000E+01 0.  1.
        -11    1    4    4    0    0 -0.15058551967E+02 -0.17339243175E+02  0.13820948177E+02  0.26803506295E+02  0.00000000000E+00 0. -1.
         11    1    4    4    0    0 -0.32215906042E+02 -0.34910897907E+02 -0.12363165696E+03  0.13244403345E+03  0.00000000000E+00 0.  1.
</event>
<event>
 8    1  0.7052796E-009  0.8457914E+02  0.7561462E-02  0.1316537E+00
         -1   -1    0    0    0  501 -0.00000000000E+00  0.00000000000E+00  0.18800446795E+03  0.18800446795E+03  0.00000000000E+00 0.  1.
          1   -1    0    0  501    0  0.00000000000E+00 -0.00000000000E+00 -0.13598112091E+03  0.13598112091E+03  0.00000000000E+00 0. -1.
         25    2    1    2    0    0  0.40859874476E+02 -0.30410951811E+02 -0.79311354384E+02  0.15663004593E+03  0.12509326529E+03 0.  0.
         23    2    1    2    0    0 -0.40859874476E+02  0.30410951811E+02  0.13133470142E+03  0.16735554293E+03  0.90358832555E+02 0.  0.
          5    1    3    3  502    0 -0.12982199878E+02 -0.24943701524E+02 -0.95777289813E+02  0.99907394137E+02  0.41800000000E+01 0.  1.
         -5    1    3    3    0  502  0.53842074354E+02 -0.54672502869E+01  0.16465935428E+02  0.56722651789E+02  0.41800000000E+01 0.  1.
        -11    1    4    4    0    0  0.34776875980E+01 -0.19431553233E+02  0.82113706146E+02  0.84453184127E+02  0.00000000000E+00 0.  1.
         11    1    4    4    0    0 -0.44337562074E+02  0.49842505043E+02  0.49220995272E+02  0.82902358804E+02  0.00000000000E+00 0. -1.
</event>
<event>
 8    1  0.7052796E-009  0.8136250E+02  0.7561462E-02  0.1325229E+00
          1   -1    0    0  501    0  0.00000000000E+00  0.00000000000E+00  0.24155951967E+03  0.24155951967E+03  0.00000000000E+00 0. -1.
         -1   -1    0    0    0  501 -0.00000000000E+00 -0.00000000000E+00 -0.64742726111E+02  0.64742726111E+02  0.00000000000E+00 0.  1.
         25    2    1    2    0    0 -0.14050746470E+02  0.78291804942E+01  0.24299765804E+02  0.12844746698E+03  0.12509817589E+03 0.  0.
         23    2    1    2    0    0  0.14050746470E+02 -0.78291804942E+01  0.15251702776E+03  0.17785477880E+03  0.90067524910E+02 0.  0.
          5    1    3    3  502    0 -0.48105217020E+02  0.69825615595E+00  0.60935057757E+02  0.77750582828E+02  0.41800000000E+01 0.  1.
         -5    1    3    3    0  502  0.34054470551E+02  0.71309243382E+01 -0.36635291953E+02  0.50696884154E+02  0.41800000000E+01 0.  1.
        -11    1    4    4    0    0  0.43808757219E+02  0.96769581829E+01  0.39818480597E+02  0.59986349496E+02  0.00000000000E+00 0.  1.
         11    1    4    4    0    0 -0.29758010750E+02 -0.17506138677E+02  0.11269854716E+03  0.11786842931E+03  0.00000000000E+00 0. -1.
</event>
<event>
 8    1  0.7052796E-009  0.9461142E+02  0.7561462E-02  0.1292054E+00
          2   -1    0    0  501    0  0.00000000000E+00  0.00000000000E+00  0.20303945744E+03  0.20303945744E+03  0.00000000000E+00 0. -1.
         -2   -1    0    0    0  501 -0.00000000000E+00 -0.00000000000E+00 -0.66747480567E+02  0.66747480567E+02  0.00000000000E+00 0.  1.
         25    2    1    2    0    0 -0.15275737331E+02  0.37319123506E+02  0.61708271966E+02  0.14519489856E+03  0.12509029782E+03 0.  0.
         23    2    1    2    0    0  0.15275737331E+02 -0.37319123506E+02  0.74583704911E+02  0.12459203945E+03  0.91292837209E+02 0.  0.
          5    1    3    3  502    0 -0.63988890252E+02  0.29383221085E+02  0.64504833856E+02  0.95583982694E+02  0.41800000000E+01 0.  1.
         -5    1    3    3    0  502  0.48713152921E+02  0.79359024210E+01 -0.27965618899E+01  0.49610915867E+02  0.41800000000E+01 0.  1.
        -11    1    4    4    0    0 -0.13288293294E+02 -0.38334237952E+02  0.84987646103E+02  0.94175328660E+02  0.00000000000E+00 0.  1.
         11    1    4    4    0    0  0.28564030625E+02  0.10151144463E+01 -0.10403941192E+02  0.30416710789E+02  0.00000000000E+00 0. -1.
</event>
<event>
 8    1  0.7052796E-009  0.1332447E+03  0.7561462E-02  0.1222719E+00
          2   -1    0    0  501    0  0.00000000000E+00  0.00000000000E+00  0.46360527261E+03  0.46360527261E+03  0.00000000000E+00 0. -1.
         -2   -1    0    0    0  501 -0.00000000000E+00 -0.00000000000E+00 -0.70521571131E+02  0.70521571131E+02  0.00000000000E+00 0.  1.
         25    2    1    2    0    0 -0.57177847913E+02 -0.76675246048E+02  0.37215139786E+03  0.40409488522E+03  0.12509042204E+03 0.  0.
         23    2    1    2    0    0  0.57177847913E+02  0.76675246048E+02  0.20932303624E+02  0.13003195852E+03  0.85567220677E+02 0.  0.
          5    1    3    3  502    0 -0.87371660670E+02 -0.31858992311E+02  0.15982847704E+03  0.18496328542E+03  0.41800000000E+01 0. -1.
         -5    1    3    3    0  502  0.30193812757E+02 -0.44816253737E+02  0.21232292082E+03  0.21913159980E+03  0.41800000000E+01 0. -1.
        -11    1    4    4    0    0  0.73146430537E+02  0.51775921287E+02 -0.62833103757E+01  0.89836664646E+02  0.00000000000E+00 0.  1.
         11    1    4    4    0    0 -0.15968582625E+02  0.24899324761E+02  0.27215614000E+02  0.40195293879E+02  0.00000000000E+00 0. -1.
</event>
<event>
 8    1  0.7052796E-009  0.1122797E+03  0.7561462E-02  0.1256406E+00
          1   -1    0    0  501    0  0.00000000000E+00  0.00000000000E+00  0.54330229230E+03  0.54330229230E+03  0.00000000000E+00 0. -1.
         -1   -1    0    0    0  501 -0.00000000000E+00 -0.00000000000E+00 -0.41476138754E+02  0.41476138754E+02  0.00000000000E+00 0.  1.
         25    2    1    2    0    0 -0.76755996303E+02  0.62792300392E+02  0.21663413855E+03  0.26909533670E+03  0.12509034452E+03 0.  0.
         23    2    1    2    0    0  0.76755996303E+02 -0.62792300392E+02  0.28519201499E+03  0.31568309435E+03  0.92124777801E+02 0.  0.
          5    1    3    3  502    0  0.43562771301E+01  0.96984175576E-01 -0.14774281689E+02  0.15960524922E+02  0.41800000000E+01 0.  1.
         -5    1    3    3    0  502 -0.81112273433E+02  0.62695316217E+02  0.23140842024E+03  0.25313481178E+03  0.41800000000E+01 0.  1.
        -11    1    4    4    0    0  0.31343692254E+02  0.75038440786E+01  0.17154732616E+03  0.17454861739E+03  0.00000000000E+00 0. -1.
         11    1    4    4    0    0  0.45412304049E+02 -0.70296144471E+02  0.11364468883E+03  0.14113447696E+03  0.00000000000E+00 0.  1.
</event>
<event>
 8    1  0.7052796E-009  0.1142465E+03  0.7561462E-02  0.1252902E+00
          2   -1    0    0  501    0  0.00000000000E+00  0.00000000000E+00  0.16999467741E+03  0.16999467741E+03  0.00000000000E+00 0. -1.
         -2   -1    0    0    0  501 -0.00000000000E+00 -0.00000000000E+00 -0.92342669344E+02  0.92342669344E+02  0.00000000000E+00 0.  1.
         25    2    1    2    0    0 -0.46614881917E+02 -0.36249175881E+02  0.70405321419E+02  0.15521275926E+03  0.12508853419E+03 0.  0.
         23    2    1    2    0    0  0.46614881917E+02  0.36249175881E+02  0.72466866438E+01  0.10712458749E+03  0.89085424221E+02 0.  0.
          5    1    3    3  502    0  0.19548269061E+02  0.34977196583E+02  0.28046339408E+02  0.49087764853E+02  0.41800000000E+01 0.  1.
         -5    1    3    3    0  502 -0.66163150978E+02 -0.71226372464E+02  0.42358982011E+02  0.10612499441E+03  0.41800000000E+01 0.  1.
        -11    1    4    4    0    0  0.36815111707E+02 -0.14237740730E+02  0.31273521551E+02  0.50359694809E+02  0.00000000000E+00 0.  1.
         11    1    4    4    0    0  0.97997702100E+01  0.50486916610E+02 -0.24026834907E+02  0.56764892677E+02  0.00000000000E+00 0. -1.
</event>
<event>
 8    1  0.7052796E-009  0.1138264E+03  0.7561462E-02  0.1253644E+00
          2   -1    0    0  501    0  0.00000000000E+00  0.00000000000E+00  0.52831105328E+03  0.52831105328E+03  0.00000000000E+00 0. -1.
         -2   -1    0    0    0  501 -0.00000000000E+00 -0.00000000000E+00 -0.32290994216E+02  0.32290994216E+02  0.00000000000E+00 0.  1.
         25    2    1    2    0    0 -0.43271491345E+02 -0.50109364848E+02  0.20502898639E+03  0.24914052858E+03  0.12510294686E+03 0.  0.
         23    2    1    2    0    0  0.43271491345E+02  0.50109364848E+02  0.29099107267E+03  0.31146151891E+03  0.89157742121E+02 0.  0.
          5    1    3    3  502    0 -0.61954354749E+02 -0.68174634190E+02  0.20273045310E+03  0.22271783007E+03  0.41800000000E+01 0. -1.
         -5    1    3    3    0  502  0.18682863403E+02  0.18065269342E+02  0.22985332969E+01  0.26422698512E+02  0.41800000000E+01 0. -1.
        -11    1    4    4    0    0 -0.51188621642E+01  0.59586195255E+02  0.18783266546E+03  0.19712388904E+03  0.00000000000E+00 0.  1.
         11    1    4    4    0    0  0.48390353510E+02 -0.94768304077E+01  0.10315840721E+03  0.11433762987E+03  0.00000000000E+00 0. -1.
</event>
<event>
 8    1  0.7052796E-009  0.8413376E+02  0.7561462E-02  0.1317714E+00
          1   -1    0    0  501    0  0.00000000000E+00  0.00000000000E+00  0.35358165773E+03  0.35358165773E+03  0.00000000000E+00 0.  1.
         -1   -1    0    0    0  501 -0.00000000000E+00 -0.00000000000E+00 -0.50229058806E+02  0.50229058806E+02  0.00000000000E+00 0. -1.
         25    2    1    2    0    0 -0.15140679919E+02 -0.75961622269E+02  0.12699533909E+03  0.19435030471E+03  0.12507924106E+03 0.  0.
         23    2    1    2    0    0  0.15140679919E+02  0.75961622269E+02  0.17635725984E+03  0.20946041182E+03  0.82294427384E+02 0.  0.
          5    1    3    3  502    0  0.11964294261E+02 -0.43783285558E+02 -0.13575063866E+02  0.47559175670E+02  0.41800000000E+01 0. -1.
         -5    1    3    3    0  502 -0.27104974180E+02 -0.32178336711E+02  0.14057040295E+03  0.14679112904E+03  0.41800000000E+01 0. -1.
        -11    1    4    4    0    0 -0.51465879993E+01  0.25608523847E+02  0.14381404036E+03  0.14616689799E+03  0.00000000000E+00 0.  1.
         11    1    4    4    0    0  0.20287267919E+02  0.50353098422E+02  0.32543219475E+02  0.63293513839E+02  0.00000000000E+00 0. -1.
</event>
<event>
 8    1  0.7052796E-009  0.1477372E+03  0.7561462E-02  0.1203281E+00
         -2   -1    0    0    0  501 -0.00000000000E+00  0.00000000000E+00  0.12043044316E+03  0.12043044316E+03  0.00000000000E+00 0.  1.
          2   -1    0    0  501    0  0.00000000000E+00 -0.00000000000E+00 -0.27459129417E+03  0.27459129417E+03  0.00000000000E+00 0. -1.
         25    2    1    2    0    0 -0.11449891914E+03 -0.77670886909E+02 -0.12940278145E+03  0.22701614439E+03  0.12509388798E+03 0.  0.
         23    2    1    2    0    0  0.11449891914E+03  0.77670886909E+02 -0.24758069560E+02  0.16800559294E+03  0.92033407491E+02 0.  0.
          5    1    3    3  502    0 -0.81487471758E+02 -0.12604675910E+02 -0.49727792057E+01  0.82712071920E+02  0.41800000000E+01 0. -1.
         -5    1    3    3    0  502 -0.33011447380E+02 -0.65066210999E+02 -0.12443000225E+03  0.14430407247E+03  0.41800000000E+01 0. -1.
        -11    1    4    4    0    0  0.74861793403E+02  0.38818971918E+02 -0.58882903930E+02  0.10285133479E+03  0.00000000000E+00 0.  1.
         11    1    4    4    0    0  0.39637125734E+02  0.38851914991E+02  0.34124834369E+02  0.65154258154E+02  0.00000000000E+00 0. -1.
</event>
<event>
 8    1  0.7052796E-009  0.1120393E+03  0.7561462E-02  0.1256839E+00
         -2   -1    0    0    0  501 -0.00000000000E+00  0.00000000000E+00  0.27393458123E+02  0.27393458123E+02  0.00000000000E+00 0.  1.
          2   -1    0    0  501    0  0.00000000000E+00 -0.00000000000E+00 -0.76258434957E+03  0.76258434957E+03  0.00000000000E+00 0. -1.
         25    2    1    2    0    0  0.85543618914E+02 -0.32019457843E+02 -0.47420065938E+03  0.49885511124E+03  0.12508876943E+03 0.  0.
         23    2    1    2    0    0 -0.85543618914E+02  0.32019457843E+02 -0.26099023206E+03  0.29112269645E+03  0.91069021833E+02 0.  0.
          5    1    3    3  502    0  0.77994591782E+02 -0.51305611906E+02 -0.46741275336E+03  0.47666295909E+03  0.41800000000E+01 0.  1.
         -5    1    3    3    0  502  0.75490271317E+01  0.19286154063E+02 -0.67879060221E+01  0.22192152157E+02  0.41800000000E+01 0.  1.
        -11    1    4    4    0    0 -0.52836052566E+02 -0.12463925217E+02 -0.20662146786E+03  0.21363386638E+03  0.00000000000E+00 0. -1.
         11    1    4    4    0    0 -0.32707566348E+02  0.44483383060E+02 -0.54368764203E+02  0.77488830071E+02  0.00000000000E+00 0.  1.
</event>
<event>
 8    1  0.7052796E-009  0.1117033E+03  0.7561462E-02  0.1257448E+00
         -4   -1    0    0    0  501 -0.00000000000E+00  0.00000000000E+00  0.74523360602E+02  0.74523360602E+02  0.00000000000E+00 0.  1.
          4   -1    0    0  501    0  0.00000000000E+00 -0.00000000000E+00 -0.19415465462E+03  0.19415465462E+03  0.00000000000E+00 0. -1.
         25    2    1    2    0    0 -0.42393563119E+02 -0.27131392961E+02 -0.81757004488E+02  0.15767735330E+03  0.12507842853E+03 0.  0.
         23    2    1    2    0    0  0.42393563119E+02  0.27131392961E+02 -0.37874289532E+02  0.11100066192E+03  0.91396709248E+02 0.  0.
          5    1    3    3  502    0 -0.86485721763E+02 -0.26079411501E+02 -0.52083308275E+02  0.10435544631E+03  0.41800000000E+01 0. -1.
         -5    1    3    3    0  502  0.44092158644E+02 -0.10519814605E+01 -0.29673696213E+02  0.53321906997E+02  0.41800000000E+01 0. -1.
        -11    1    4    4    0    0  0.55194901353E+02  0.41777711716E+02 -0.90852763622E+00  0.69229182821E+02  0.00000000000E+00 0. -1.
         11    1    4    4    0    0 -0.12801338234E+02 -0.14646318755E+02 -0.36965761896E+02  0.41771479100E+02  0.00000000000E+00 0.  1.
</event>
<event>
 8    1  0.7052796E-009  0.1015234E+03  0.7561462E-02  0.1277125E+00
          1   -1    0    0  501    0  0.00000000000E+00  0.00000000000E+00  0.29599202177E+04  0.29599202177E+04  0.00000000000E+00 0. -1.
         -1   -1    0    0    0  501 -0.00000000000E+00 -0.00000000000E+00 -0.93247758656E+01  0.93247758656E+01  0.00000000000E+00 0.  1.
         25    2    1    2    0    0 -0.33573019983E+02  0.85260567314E+01  0.26345056197E+04  0.26377011404E+04  0.12509038605E+03 0.  0.
         23    2    1    2    0    0  0.33573019983E+02 -0.85260567314E+01  0.31608982211E+03  0.33154385311E+03  0.93854725932E+02 0.  0.
          5    1    3    3  502    0  0.22000466497E+02 -0.39135856117E+02  0.52876275203E+03  0.53068178421E+03  0.41800000000E+01 0. -1.
         -5    1    3    3    0  502 -0.55573486481E+02  0.47661912849E+02  0.21057428677E+04  0.21070193562E+04  0.41800000000E+01 0. -1.
        -11    1    4    4    0    0  0.88651442425E+01  0.34166750256E+02  0.51755802323E+02  0.62646793051E+02  0.00000000000E+00 0.  1.
         11    1    4    4    0    0  0.24707875741E+02 -0.42692806987E+02  0.26433401978E+03  0.26889706006E+03  0.00000000000E+00 0. -1.
</event>
<event>
 8    1  0.7052796E-009  0.1602797E+03  0.7561462E-02  0.1188381E+00
         -2   -1    0    0    0  501 -0.00000000000E+00  0.00000000000E+00  0.38329625018E+03  0.38329625018E+03  0.00000000000E+00 0.  1.
          2   -1    0    0  501    0  0.00000000000E+00 -0.00000000000E+00 -0.93829642640E+02  0.93829642640E+02  0.00000000000E+00 0. -1.
         25    2    1    2    0    0 -0.75623588578E+02 -0.13357182394E+03  0.17905694775E+03  0.26696294824E+03  0.12508983130E+03 0.  0.
         23    2    1    2    0    0  0.75623588578E+02  0.13357182394E+03  0.11040965979E+03  0.21016294458E+03  0.91748629413E+02 0.  0.
          5    1    3    3  502    0 -0.70535128576E+02 -0.12826147101E+03  0.19797045338E+03  0.24624374534E+03  0.41800000000E+01 0. -1.
         -5    1    3    3    0  502 -0.50884600021E+01 -0.53103529335E+01 -0.18913505631E+02  0.20719202898E+02  0.41800000000E+01 0. -1.
        -11    1    4    4    0    0  0.28110424792E+02  0.10821650643E+03  0.10921034267E+03  0.15629429673E+03  0.00000000000E+00 0.  1.
         11    1    4    4    0    0  0.47513163787E+02  0.25355317514E+02  0.11993171190E+01  0.53868647847E+02  0.00000000000E+00 0. -1.
</event>
<event>
 8    1  0.7052796E-009  0.6798615E+02  0.7561462E-02  0.1367078E+00
          4   -1    0    0  501    0  0.00000000000E+00  0.00000000000E+00  0.37563955586E+02  0.37563955586E+02  0.00000000000E+00 0. -1.
         -4   -1    0    0    0  501 -0.00000000000E+00 -0.00000000000E+00 -0.35023944414E+03  0.35023944414E+03  0.00000000000E+00 0.  1.
         25    2    1    2    0    0  0.15372681880E+02  0.28708231211E+02 -0.14109518016E+03  0.19136072924E+03  0.12510234588E+03 0.  0.
         23    2    1    2    0    0 -0.15372681880E+02 -0.28708231211E+02 -0.17158030839E+03  0.19644267048E+03  0.89941306812E+02 0.  0.
          5    1    3    3  502    0  0.27993433020E+02 -0.63364309027E+01  0.13710812800E+02  0.32081792912E+02  0.41800000000E+01 0. -1.
         -5    1    3    3    0  502 -0.12620751140E+02  0.35044662114E+02 -0.15480599296E+03  0.15927893633E+03  0.41800000000E+01 0. -1.
        -11    1    4    4    0    0 -0.20401636154E+02  0.15105266920E+02 -0.13979412309E+03  0.14208023331E+03  0.00000000000E+00 0.  1.
         11    1    4    4    0    0  0.50289542739E+01 -0.43813498131E+02 -0.31786185305E+02  0.54362437177E+02  0.00000000000E+00 0. -1.
</event>
<event>
 8    1  0.7052796E-009  0.1496738E+03  0.7561462E-02  0.1200874E+00
         -3   -1    0    0    0  501 -0.00000000000E+00  0.00000000000E+00  0.30964544814E+03  0.30964544814E+03  0.00000000000E+00 0.  1.
          3   -1    0    0  501    0  0.00000000000E+00 -0.00000000000E+00 -0.12669698780E+03  0.12669698780E+03  0.00000000000E+00 0. -1.
         25    2    1    2    0    0  0.10685780786E+03 -0.67949456455E+02 -0.21083445119E+02  0.17924188553E+03  0.12508965639E+03 0.  0.
         23    2    1    2    0    0 -0.10685780786E+03  0.67949456455E+02  0.20403190545E+03  0.25710055041E+03  0.91847454203E+02 0.  0.
          5    1    3    3  502    0  0.10871850956E+03 -0.95286929925E+02 -0.34142590502E+02  0.14860182442E+03  0.41800000000E+01 0.  1.
         -5    1    3    3    0  502 -0.18607016930E+01  0.27337473470E+02  0.13059145383E+02  0.30640061107E+02  0.41800000000E+01 0.  1.
        -11    1    4    4    0    0 -0.95006844083E+02  0.63826648723E+02  0.21291344895E+03  0.24172769443E+03  0.00000000000E+00 0.  1.
         11    1    4    4    0    0 -0.11850963780E+02  0.41228077317E+01 -0.88815434965E+01  0.15372855980E+02  0.00000000000E+00 0. -1.
</event>
<event>
 8    1  0.7052796E-009  0.1067159E+03  0.7561462E-02  0.1266775E+00
          1   -1    0    0  501    0  0.00000000000E+00  0.00000000000E+00  0.45953117894E+02  0.45953117894E+02  0.00000000000E+00 0. -1.
         -1   -1    0    0    0  501 -0.00000000000E+00 -0.00000000000E+00 -0.38010765812E+03  0.38010765812E+03  0.00000000000E+00 0.  1.
         25    2    1    2    0    0  0.15687603735E+02 -0.53356029788E+02 -0.27308473048E+03  0.30547685852E+03  0.12509146352E+03 0.  0.
         23    2    1    2    0    0 -0.15687603735E+02  0.53356029788E+02 -0.61069809749E+02  0.12058391749E+03  0.87852106803E+02 0.  0.
          5    1    3    3  502    0  0.53589822704E+02  0.63299985159E+01 -0.59401595289E+02  0.80361432924E+02  0.41800000000E+01 0. -1.
         -5    1    3    3    0  502 -0.37902218968E+02 -0.59686028304E+02 -0.21368313519E+03  0.22511542559E+03  0.41800000000E+01 0. -1.
        -11    1    4    4    0    0  0.20459492181E+02  0.47688429314E+02 -0.30383831043E+01  0.51980851115E+02  0.00000000000E+00 0. -1.
         11    1    4    4    0    0 -0.36147095916E+02  0.56676004740E+01 -0.58031426645E+02  0.68603066380E+02  0.00000000000E+00 0.  1.
</event>
<event>
 8    1  0.7052796E-009  0.1356256E+03  0.7561462E-02  0.1219339E+00
         -1   -1    0    0    0  501 -0.00000000000E+00  0.00000000000E+00  0.24516551234E+03  0.24516551234E+03  0.00000000000E+00 0.  1.
          1   -1    0    0  501    0  0.00000000000E+00 -0.00000000000E+00 -0.12197081813E+03  0.12197081813E+03  0.00000000000E+00 0. -1.
         25    2    1    2    0    0 -0.97779406982E+02  0.49036587098E+02  0.14875902246E+03  0.22303136120E+03  0.12509333321E+03 0.  0.
         23    2    1    2    0    0  0.97779406982E+02 -0.49036587098E+02 -0.25564328251E+02  0.14410496927E+03  0.90262439497E+02 0.  0.
          5    1    3    3  502    0 -0.23064336976E+02 -0.34759965901E+02  0.75770597253E+01  0.42604026848E+02  0.41800000000E+01 0.  1.
         -5    1    3    3    0  502 -0.74715070006E+02  0.83796553000E+02  0.14118196274E+03  0.18042733436E+03  0.41800000000E+01 0.  1.
        -11    1    4    4    0    0  0.35578951663E+02 -0.40964361559E+02  0.28509070013E+02  0.61291987995E+02  0.00000000000E+00 0. -1.
         11    1    4    4    0    0  0.62200455319E+02 -0.80722255398E+01 -0.54073398264E+02  0.82812981271E+02  0.00000000000E+00 0.  1.
</event>
<event>
 8    1  0.7052796E-009  0.8645885E+02  0.7561462E-02  0.1311661E+00
         -2   -1    0    0    0  501 -0.00000000000E+00  0.00000000000E+00  0.35482221553E+02  0.35482221553E+02  0.00000000000E+00 0.  1.
          2   -1    0    0  501    0  0.00000000000E+00 -0.00000000000E+00 -0.54423421426E+03  0.54423421426E+03  0.00000000000E+00 0. -1.
         25    2    1    2    0    0  0.24381812089E+02  0.21375956371E+02 -0.43344945954E+03  0.45230116491E+03  0.12508599256E+03 0.  0.
         23    2    1    2    0    0 -0.24381812089E+02 -0.21375956371E+02 -0.75302533164E+02  0.12741527090E+03  0.97533458286E+02 0.  0.
          5    1    3    3  502    0 -0.16239238438E+02 -0.23995236977E+02 -0.33626347397E+03  0.33753530273E+03  0.41800000000E+01 0.  1.
         -5    1    3    3    0  502  0.40621050527E+02  0.45371193348E+02 -0.97185985569E+02  0.11476586218E+03  0.41800000000E+01 0.  1.
        -11    1    4    4    0    0  0.84585206129E+01 -0.42645142337E+02 -0.10542661753E+01  0.43488690635E+02  0.00000000000E+00 0.  1.
         11    1    4    4    0    0 -0.32840332702E+02  0.21269185966E+02 -0.74248266989E+02  0.83926580262E+02  0.00000000000E+00 0. -1.
</event>
<event>
 8    1  0.7052796E-009  0.1769926E+03  0.7561462E-02  0.1170746E+00
          1   -1    0    0  501    0  0.00000000000E+00  0.00000000000E+00  0.16656098588E+03  0.16656098588E+03  0.00000000000E+00 0. -1.
         -1   -1    0    0    0  501 -0.00000000000E+00 -0.00000000000E+00 -0.27824098004E+03  0.27824098004E+03  0.00000000000E+00 0.  1.
         25    2    1    2    0    0  0.16529766599E+03 -0.14106618222E+02  0.21102834027E+02  0.20884232150E+03  0.12508985006E+03 0.  0.
         23    2    1    2    0    0 -0.16529766599E+03  0.14106618222E+02 -0.13278282819E+03  0.23595964441E+03  0.10258342591E+03 0.  0.
          5    1    3    3  502    0  0.65896551383E+02  0.19837134270E+02 -0.47134510140E+02  0.83516476377E+02  0.41800000000E+01 0. -1.
         -5    1    3    3    0  502  0.99401114602E+02 -0.33943752492E+02  0.68237344167E+02  0.12532584513E+03  0.41800000000E+01 0. -1.
        -11    1    4    4    0    0 -0.16210760221E+03 -0.33826680115E+01 -0.14235669077E+03  0.21576780238E+03  0.00000000000E+00 0.  1.
         11    1    4    4    0    0 -0.31900637770E+01  0.17489286233E+02  0.95738625831E+01  0.20191842031E+02  0.00000000000E+00 0. -1.
</event>
<event>
 8    1  0.7052796E-009  0.1981212E+03  0.7561462E-02  0.1151334E+00
         -2   -1    0    0    0  501 -0.00000000000E+00  0.00000000000E+00  0.50528472062E+02  0.50528472062E+02  0.00000000000E+00 0. -1.
          2   -1    0    0  501    0  0.00000000000E+00 -0.00000000000E+00 -0.85852297572E+03  0.85852297572E+03  0.00000000000E+00 0.  1.
         25    2    1    2    0    0 -0.11623721779E+03  0.12210269789E+03 -0.30174603406E+03  0.36758090037E+03  0.12507953315E+03 0.  0.
         23    2    1    2    0    0  0.11623721779E+03 -0.12210269789E+03 -0.50624846960E+03  0.54147054742E+03  0.92101471837E+02 0.  0.
          5    1    3    3  502    0 -0.48702174300E+02  0.13270990584E+03 -0.20353253691E+03  0.24784427948E+03  0.41800000000E+01 0.  1.
         -5    1    3    3    0  502 -0.67535043490E+02 -0.10607207949E+02 -0.98213497151E+02  0.11973662089E+03  0.41800000000E+01 0.  1.
        -11    1    4    4    0    0  0.30935334926E+02 -0.90025207280E+02 -0.32418160539E+03  0.33786868184E+03  0.00000000000E+00 0.  1.
         11    1    4    4    0    0  0.85301882864E+02 -0.32077490610E+02 -0.18206686421E+03  0.20360186558E+03  0.00000000000E+00 0. -1.
</event>
<event>
 8    1  0.7052796E-009  0.1042820E+03  0.7561462E-02  0.1271541E+00
         -2   -1    0    0    0  501 -0.00000000000E+00  0.00000000000E+00  0.30815218154E+02  0.30815218154E+02  0.00000000000E+00 0.  1.
          2   -1    0    0  501    0  0.00000000000E+00 -0.00000000000E+00 -0.47332844797E+03  0.47332844797E+03  0.00000000000E+00 0. -1.
         25    2    1    2    0    0  0.33605046506E+02 -0.10221233232E+02 -0.31714411982E+03  0.34272695101E+03  0.12509035716E+03 0.  0.
         23    2    1    2    0    0 -0.33605046506E+02  0.10221233232E+02 -0.12536911000E+03  0.16141671512E+03  0.95415771323E+02 0.  0.
          5    1    3    3  502    0  0.24652325036E+02  0.45273962199E+02 -0.24888525965E+03  0.25420230851E+03  0.41800000000E+01 0. -1.
         -5    1    3    3    0  502  0.89527214700E+01 -0.55495195431E+02 -0.68258860169E+02  0.88524642497E+02  0.41800000000E+01 0. -1.
        -11    1    4    4    0    0 -0.66516562625E+02  0.11672042140E+02 -0.95380385279E+02  0.11686790649E+03  0.00000000000E+00 0. -1.
         11    1    4    4    0    0  0.32911516119E+02 -0.14508089073E+01 -0.29988724724E+02  0.44548808629E+02  0.00000000000E+00 0.  1.
</event>
<event>
 8    1  0.7052796E-009  0.1454645E+03  0.7561462E-02  0.1206160E+00
          1   -1    0    0  501    0  0.00000000000E+00  0.00000000000E+00  0.17376562289E+03  0.17376562289E+03  0.00000000000E+00 0. -1.
         -1   -1    0    0    0  501 -0.00000000000E+00 -0.00000000000E+00 -0.17190739476E+03  0.17190739476E+03  0.00000000000E+00 0.  1.
         25    2    1    2    0    0 -0.11550868696E+03  0.67910024675E+02  0.10604980505E+02  0.18361325615E+03  0.12508930413E+03 0.  0.
         23    2    1    2    0    0  0.11550868696E+03 -0.67910024675E+02 -0.87467523677E+01  0.16205976150E+03  0.90734956916E+02 0.  0.
          5    1    3    3  502    0 -0.53726087894E+02 -0.99900712766E+01 -0.43836350932E+02  0.70181137833E+02  0.41800000000E+01 0. -1.
         -5    1    3    3    0  502 -0.61782599067E+02  0.77900095951E+02  0.54441331437E+02  0.11343211831E+03  0.41800000000E+01 0. -1.
        -11    1    4    4    0    0  0.91811504471E+02 -0.40421861754E+02  0.34058455478E+02  0.10593987753E+03  0.00000000000E+00 0. -1.
         11    1    4    4    0    0  0.23697182489E+02 -0.27488162921E+02 -0.42805207846E+02  0.56119883975E+02  0.00000000000E+00 0.  1.
</event>
<event>
 8    1  0.7052796E-009  0.1673399E+03  0.7561462E-02  0.1180651E+00
          2   -1    0    0  501    0  0.00000000000E+00  0.00000000000E+00  0.90443446545E+03  0.90443446545E+03  0.00000000000E+00 0. -1.
         -2   -1    0    0    0  501 -0.00000000000E+00 -0.00000000000E+00 -0.48974394461E+02  0.48974394461E+02  0.00000000000E+00 0.  1.
         25    2    1    2    0    0  0.11725607157E+03 -0.87929160006E+02  0.20919131123E+03  0.28441179551E+03  0.12509412950E+03 0.  0.
         23    2    1    2    0    0 -0.11725607157E+03  0.87929160006E+02  0.64626875976E+03  0.66899706440E+03  0.91723709206E+02 0.  0.
          5    1    3    3  502    0 -0.80165525695E+01  0.20292386503E+02  0.74976338319E+01  0.23446385184E+02  0.41800000000E+01 0. -1.
         -5    1    3    3    0  502  0.12527262414E+03 -0.10822154651E+03  0.20169367740E+03  0.26096541033E+03  0.41800000000E+01 0. -1.
        -11    1    4    4    0    0 -0.34774419029E+02  0.20799866419E+02  0.55415984375E+02  0.68650025391E+02  0.00000000000E+00 0.  1.
         11    1    4    4    0    0 -0.82481652537E+02  0.67129293587E+02  0.59085277539E+03  0.60034703901E+03  0.00000000000E+00 0. -1.
</event>
<event>
 8    1  0.7052796E-009  0.8456457E+02  0.7561462E-02  0.1316575E+00
         -3   -1    0    0    0  501 -0.00000000000E+00  0.00000000000E+00  0.13478078450E+03  0.13478078450E+03  0.00000000000E+00 0.  1.
          3   -1    0    0  501    0  0.00000000000E+00 -0.00000000000E+00 -0.90645906577E+02  0.90645906577E+02  0.00000000000E+00 0. -1.
         25    2    1    2    0    0 -0.45122704808E+01  0.65184173149E+01  0.56909099680E+01  0.12547376960E+03  0.12509368510E+03 0.  0.
         23    2    1    2    0    0  0.45122704808E+01 -0.65184173149E+01  0.38443967952E+02  0.99952921474E+02  0.91922780039E+02 0.  0.
          5    1    3    3  502    0 -0.61041597379E+01 -0.35678205684E+02 -0.45944848854E+02  0.58639548627E+02  0.41800000000E+01 0. -1.
         -5    1    3    3    0  502  0.15918892571E+01  0.42196622999E+02  0.51635758822E+02  0.66834220973E+02  0.41800000000E+01 0. -1.
        -11    1    4    4    0    0  0.20100750924E+02 -0.44703396186E+02  0.31131144869E+02  0.58065325274E+02  0.00000000000E+00 0.  1.
         11    1    4    4    0    0 -0.15588480443E+02  0.38184978871E+02  0.73128230822E+01  0.41887596200E+02  0.00000000000E+00 0. -1.
</event>
<event>
 8    1  0.7052796E-009  0.1048080E+03  0.7561462E-02  0.1270498E+00
          2   -1    0    0  501    0  0.00000000000E+00  0.00000000000E+00  0.99845134560E+02  0.99845134560E+02  0.00000000000E+00 0. -1.
         -2   -1    0    0    0  501 -0.00000000000E+00 -0.00000000000E+00 -0.17344232391E+03  0.17344232391E+03  0.00000000000E+00 0.  1.
         25    2    1    2    0    0 -0.65434654246E+02  0.32204711219E+02 -0.57932110550E+02  0.15595737698E+03  0.12509091335E+03 0.  0.
         23    2    1    2    0    0  0.65434654246E+02 -0.32204711219E+02 -0.15665078804E+02  0.11733008149E+03  0.90565533881E+02 0.  0.
          5    1    3    3  502    0  0.10751422141E+02  0.21013853745E+02  0.30389798677E+02  0.38706425706E+02  0.41800000000E+01 0. -1.
         -5    1    3    3    0  502 -0.76186076387E+02  0.11190857474E+02 -0.88321909227E+02  0.11725095128E+03  0.41800000000E+01 0. -1.
        -11    1    4    4    0    0 -0.18118991832E+02  0.20292505062E+01 -0.19831722386E+02  0.26939059661E+02  0.00000000000E+00 0.  1.
         11    1    4    4    0    0  0.83553646078E+02 -0.34233961725E+02  0.41666435818E+01  0.90391021828E+02  0.00000000000E+00 0. -1.
</event>
<event>
 8    1  0.7052796E-009  0.1923674E+03  0.7561462E-02  0.1156343E+00
         -2   -1    0    0    0  501 -0.00000000000E+00  0.00000000000E+00  0.55568413381E+02  0.55568413381E+02  0.00000000000E+00 0. -1.
          2   -1    0    0  501    0  0.00000000000E+00 -0.00000000000E+00 -0.87798432513E+03  0.87798432513E+03  0.00000000000E+00 0.  1.
         25    2    1    2    0    0 -0.44845073706E+02 -0.15361665872E+03 -0.64586206214E+03  0.67704850963E+03  0.12509085745E+03 0.  0.
         23    2    1    2    0    0  0.44845073706E+02  0.15361665872E+03 -0.17655384961E+03  0.25650422887E+03  0.94942083120E+02 0.  0.
          5    1    3    3  502    0  0.39106873060E+02 -0.29508952456E+02 -0.22443646079E+03  0.22975927213E+03  0.41800000000E+01 0. -1.
         -5    1    3    3    0  502 -0.83951946766E+02 -0.12410770626E+03 -0.42142560135E+03  0.44728923751E+03  0.41800000000E+01 0. -1.
        -11    1    4    4    0    0 -0.28220077497E+02  0.24762623003E+02 -0.29158969479E+02  0.47537414454E+02  0.00000000000E+00 0. -1.
         11    1    4    4    0    0  0.73065151202E+02  0.12885403572E+03 -0.14739488013E+03  0.20896681442E+03  0.00000000000E+00 0.  1.
</event>
<event>
 8    1  0.7052796E-009  0.1243977E+03  0.7561462E-02  0.1236014E+00
          1   -1    0    0  501    0  0.00000000000E+00  0.00000000000E+00  0.14443777853E+03  0.14443777853E+03  0.00000000000E+00 0. -1.
         -1   -1    0    0    0  501 -0.00000000000E+00 -0.00000000000E+00 -0.16157691261E+03  0.16157691261E+03  0.00000000000E+00 0.  1.
         25    2    1    2    0    0 -0.10410765767E+03 -0.11925640144E+02 -0.34746489240E+02  0.16684085295E+03  0.12509167207E+03 0.  0.
         23    2    1    2    0    0  0.10410765767E+03  0.11925640144E+02  0.17607355158E+02  0.13917383818E+03  0.89881661086E+02 0.  0.
          5    1    3    3  502    0 -0.48953121555E+02  0.43448462470E+02  0.23079067167E+02  0.69529078393E+02  0.41800000000E+01 0. -1.
         -5    1    3    3    0  502 -0.55154536116E+02 -0.55374102614E+02 -0.57825556406E+02  0.97311774560E+02  0.41800000000E+01 0. -1.
        -11    1    4    4    0    0  0.85170708954E+02  0.11943185485E+02 -0.27466592852E+02  0.90283459538E+02  0.00000000000E+00 0.  1.
         11    1    4    4    0    0  0.18936948717E+02 -0.17545340485E-01  0.45073948010E+02  0.48890378642E+02  0.00000000000E+00 0. -1.
</event>
<event>
 8    1  0.7052796E-009  0.8435001E+02  0.7561462E-02  0.1317141E+00
         -1   -1    0    0    0  501 -0.00000000000E+00  0.00000000000E+00  0.31774672084E+03  0.31774672084E+03  0.00000000000E+00 0.  1.
          1   -1    0    0  501    0  0.00000000000E+00 -0.00000000000E+00 -0.41754919583E+02  0.41754919583E+02  0.00000000000E+00 0. -1.
         25    2    1    2    0    0 -0.16508466869E+01  0.49911461205E+01  0.21601707789E+03  0.24967759097E+03  0.12509150515E+03 0.  0.
         23    2    1    2    0    0  0.16508466869E+01 -0.49911461205E+01  0.59974723372E+02  0.10982404945E+03  0.91851606191E+02 0.  0.
          5    1    3    3  502    0  0.38524516204E+02  0.65502611035E+01  0.11136871088E+02  0.40847846539E+02  0.41800000000E+01 0.  1.
         -5    1    3    3    0  502 -0.40175362891E+02 -0.15591149831E+01  0.20488020680E+03  0.20882974443E+03  0.41800000000E+01 0.  1.
        -11    1    4    4    0    0  0.44510997554E+02 -0.10589003111E+02  0.16825675320E+02  0.48748940912E+02  0.00000000000E+00 0.  1.
         11    1    4    4    0    0 -0.42860150867E+02  0.55978569905E+01  0.43149048052E+02  0.61075108539E+02  0.00000000000E+00 0. -1.
</event>
<event>
 8    1  0.7052796E-009  0.1238106E+03  0.7561462E-02  0.1236940E+00
         -1   -1    0    0    0  501 -0.00000000000E+00  0.00000000000E+00  0.59669288353E+02  0.59669288353E+02  0.00000000000E+00 0. -1.
          1   -1    0    0  501    0  0.00000000000E+00 -0.00000000000E+00 -0.30888518105E+03  0.30888518105E+03  0.00000000000E+00 0.  1.
         25    2    1    2    0    0 -0.18192212898E+02  0.76409447291E+02 -0.17861052392E+03  0.23177288426E+03  0.12509032887E+03 0.  0.
         23    2    1    2    0    0  0.18192212898E+02 -0.76409447291E+02 -0.70605368771E+02  0.13678158514E+03  0.86917913509E+02 0.  0.
          5    1    3    3  502    0  0.41273592431E+02  0.71045943762E+02 -0.71157093934E+02  0.10877426154E+03  0.41800000000E+01 0. -1.
         -5    1    3    3    0  502 -0.59465805329E+02  0.53635035287E+01 -0.10745342999E+03  0.12299862272E+03  0.41800000000E+01 0. -1.
        -11    1    4    4    0    0 -0.35671791401E+01 -0.82754460790E+02 -0.26115261315E+02  0.86850632820E+02  0.00000000000E+00 0. -1.
         11    1    4    4    0    0  0.21759392038E+02  0.63450134990E+01 -0.44490107456E+02  0.49930952321E+02  0.00000000000E+00 0.  1.
</event>
<event>
 8    1  0.7052796E-009  0.1142727E+03  0.7561462E-02  0.1252856E+00
         -2   -1    0    0    0  501 -0.00000000000E+00  0.00000000000E+00  0.11458273108E+03  0.11458273108E+03  0.00000000000E+00 0.  1.
          2   -1    0    0  501    0  0.00000000000E+00 -0.00000000000E+00 -0.56168564942E+03  0.56168564942E+03  0.00000000000E+00 0. -1.
         25    2    1    2    0    0 -0.89991505739E+02  0.27206293456E+01  0.50640838784E+02  0.16222507089E+03  0.12508639472E+03 0.  0.
         23    2    1    2    0    0  0.89991505739E+02 -0.27206293456E+01 -0.49774375713E+03  0.51404330961E+03  0.91574032686E+02 0.  0.
          5    1    3    3  502    0 -0.71139434044E+02  0.20211638894E+02  0.89039093902E+02  0.11582211389E+03  0.41800000000E+01 0. -1.
         -5    1    3    3    0  502 -0.18852071695E+02 -0.17491009549E+02 -0.38398255118E+02  0.46402957000E+02  0.41800000000E+01 0. -1.
        -11    1    4    4    0    0  0.10574713679E+03  0.12534857000E+02 -0.41182141031E+03  0.42536625814E+03  0.00000000000E+00 0.  1.
         11    1    4    4    0    0 -0.15755631046E+02 -0.15255486345E+02 -0.85922346822E+02  0.88677051466E+02  0.00000000000E+00 0. -1.
</event>
<event>
 8    1  0.7052796E-009  0.6701287E+02  0.7561462E-02  0.1370556E+00
          1   -1    0    0  501    0  0.00000000000E+00  0.00000000000E+00  0.26870051550E+02  0.26870051550E+02  0.00000000000E+00 0. -1.
         -1   -1    0    0    0  501 -0.00000000000E+00 -0.00000000000E+00 -0.46433664552E+03  0.46433664552E+03  0.00000000000E+00 0.  1.
         25    2    1    2    0    0  0.23557509324E+02  0.81519065005E+01 -0.25420746809E+03  0.28441258684E+03  0.12509065872E+03 0.  0.
         23    2    1    2    0    0 -0.23557509324E+02 -0.81519065005E+01 -0.18325912588E+03  0.20679411023E+03  0.92512090992E+02 0.  0.
          5    1    3    3  502    0  0.24152776185E+02 -0.22902068721E+02 -0.25063493008E+03  0.25286993084E+03  0.41800000000E+01 0. -1.
         -5    1    3    3    0  502 -0.59526686118E+00  0.31053975222E+02 -0.35725380079E+01  0.31542656000E+02  0.41800000000E+01 0. -1.
        -11    1    4    4    0    0 -0.96937131093E+01  0.28420440970E+02 -0.15661848086E+03  0.15947111991E+03  0.00000000000E+00 0.  1.
         11    1    4    4    0    0 -0.13863796214E+02 -0.36572347471E+02 -0.26640645020E+02  0.47322990312E+02  0.00000000000E+00 0. -1.
</event>
<event>
 8    1  0.7052796E-009  0.1422114E+03  0.7561462E-02  0.1210384E+00
          2   -1    0    0  501    0  0.00000000000E+00  0.00000000000E+00  0.40622500632E+02  0.40622500632E+02  0.00000000000E+00 0. -1.
         -2   -1    0    0    0  501 -0.00000000000E+00 -0.00000000000E+00 -0.76682962323E+03  0.76682962323E+03  0.00000000000E+00 0.  1.
         25    2    1    2    0    0  0.69705179764E+02  0.11665044908E+03 -0.31579580827E+03  0.36584345760E+03  0.12509317963E+03 0.  0.
         23    2    1    2    0    0 -0.69705179764E+02 -0.11665044908E+03 -0.41041131433E+03  0.44160866626E+03  0.90081229091E+02 0.  0.
          5    1    3    3  502    0  0.72441955819E+02  0.12105543828E+03 -0.32509200406E+03  0.35440730749E+03  0.41800000000E+01 0. -1.
         -5    1    3    3    0  502 -0.27367760556E+01 -0.44049892007E+01  0.92961957914E+01  0.11436150105E+02  0.41800000000E+01 0. -1.
        -11    1    4    4    0    0 -0.22769458862E+02 -0.51683806763E+02 -0.61030285079E+02  0.83152629755E+02  0.00000000000E+00 0. -1.
         11    1    4    4    0    0 -0.46935720902E+02 -0.64966642316E+02 -0.34938102925E+03  0.35845603651E+03  0.00000000000E+00 0.  1.
</event>
<event>
 8    1  0.7052796E-009  0.1709601E+03  0.7561462E-02  0.1176850E+00
         -1   -1    0    0    0  501 -0.00000000000E+00  0.00000000000E+00  0.13550151799E+03  0.13550151799E+03  0.00000000000E+00 0.  1.
          1   -1    0    0  501    0  0.00000000000E+00 -0.00000000000E+00 -0.24520669725E+03  0.24520669725E+03  0.00000000000E+00 0. -1.
         25    2    1    2    0    0 -0.11954333419E+03  0.77956728736E+02 -0.24819266114E+02  0.19138659780E+03  0.12507986865E+03 0.  0.
         23    2    1    2    0    0  0.11954333419E+03 -0.77956728736E+02 -0.84885913148E+02  0.18932161744E+03  0.90935121237E+02 0.  0.
          5    1    3    3  502    0 -0.12365045478E+03  0.94158937936E+02 -0.47805740981E+02  0.16265977324E+03  0.41800000000E+01 0.  1.
         -5    1    3    3    0  502  0.41071205835E+01 -0.16202209200E+02  0.22986474867E+02  0.28726824559E+02  0.41800000000E+01 0.  1.
        -11    1    4    4    0    0  0.70392686233E+02  0.73356783038E+01 -0.36531600809E+02  0.79646094122E+02  0.00000000000E+00 0.  1.
         11    1    4    4    0    0  0.49150647960E+02 -0.85292407040E+02 -0.48354312340E+02  0.10967552332E+03  0.00000000000E+00 0. -1.
</event>
<event>
 8    1  0.7052796E-009  0.1280240E+03  0.7561462E-02  0.1230418E+00
         -2   -1    0    0    0  501 -0.00000000000E+00  0.00000000000E+00  0.24615252626E+02  0.24615252626E+02  0.00000000000E+00 0.  1.
          2   -1    0    0  501    0  0.00000000000E+00 -0.00000000000E+00 -0.78399716708E+03  0.78399716708E+03  0.00000000000E+00 0. -1.
         25    2    1    2    0    0 -0.24616073231E+02 -0.84122656201E+02 -0.42948105990E+03  0.45583378098E+03  0.12509149740E+03 0.  0.
         23    2    1    2    0    0  0.24616073231E+02  0.84122656201E+02 -0.32990085456E+03  0.35277863873E+03  0.89082106835E+02 0.  0.
          5    1    3    3  502    0  0.41859554123E+01 -0.10026254267E+03 -0.19845367079E+03  0.22242174250E+03  0.41800000000E+01 0. -1.
         -5    1    3    3    0  502 -0.28802028643E+02  0.16139886472E+02 -0.23102738911E+03  0.23341203848E+03  0.41800000000E+01 0. -1.
        -11    1    4    4    0    0  0.54099131651E+02  0.72909432849E+02 -0.20973359172E+03  0.22854032672E+03  0.00000000000E+00 0. -1.
         11    1    4    4    0    0 -0.29483058420E+02  0.11213223352E+02 -0.12016726284E+03  0.12423831201E+03  0.00000000000E+00 0.  1.
</event>
<event>
 8    1  0.7052796E-009  0.1526660E+03  0.7561462E-02  0.1197235E+00
          2   -1    0    0  501    0  0.00000000000E+00  0.00000000000E+00  0.97884092771E+02  0.97884092771E+02  0.00000000000E+00 0. -1.
         -2   -1    0    0    0  501 -0.00000000000E+00 -0.00000000000E+00 -0.32560155886E+03  0.32560155886E+03  0.00000000000E+00 0.  1.
         25    2    1    2    0    0  0.14208256727E+03 -0.60249167544E+01 -0.12351346434E+03  0.22611099618E+03  0.12508737417E+03 0.  0.
         23    2    1    2    0    0 -0.14208256727E+03  0.60249167544E+01 -0.10420400174E+03  0.19737465544E+03  0.88738520878E+02 0.  0.
          5    1    3    3  502    0  0.50712212710E+02  0.21361507526E+01 -0.12424584602E+03  0.13427879323E+03  0.41800000000E+01 0.  1.
         -5    1    3    3    0  502  0.91370354564E+02 -0.81610675070E+01  0.73238167998E+00  0.91832202951E+02  0.41800000000E+01 0.  1.
        -11    1    4    4    0    0 -0.14504998583E+03 -0.10835518017E+02 -0.10625790966E+03  0.18013231305E+03  0.00000000000E+00 0.  1.
         11    1    4    4    0    0  0.29674185523E+01  0.16860434772E+02  0.20539079179E+01  0.17242342396E+02  0.00000000000E+00 0. -1.
</event>
<event>
 8    1  0.7052796E-009  0.9798924E+02  0.7561462E-02  0.1284582E+00
          1   -1    0    0  501    0  0.00000000000E+00  0.00000000000E+00  0.13249900219E+04  0.13249900219E+04  0.00000000000E+00 0. -1.
         -1   -1    0    0    0  501 -0.00000000000E+00 -0.00000000000E+00 -0.13124560705E+02  0.13124560705E+02  0.00000000000E+00 0.  1.
         25    2    1    2    0    0 -0.66037894449E+02 -0.21778750622E+01  0.90906923482E+03  0.92001090315E+03  0.12508973410E+03 0.  0.
         23    2    1    2    0    0  0.66037894449E+02  0.21778750622E+01  0.40279622634E+03  0.41810367942E+03  0.90554625212E+02 0.  0.
          5    1    3    3  502    0 -0.20881506321E+02 -0.32962860249E+02  0.79752859846E+02  0.88885198518E+02  0.41800000000E+01 0. -1.
         -5    1    3    3    0  502 -0.45156388129E+02  0.30784985187E+02  0.82931637498E+03  0.83112570463E+03  0.41800000000E+01 0. -1.
        -11    1    4    4    0    0  0.31212063630E+02 -0.37723413197E+02  0.28183152833E+03  0.28605289577E+03  0.00000000000E+00 0.  1.
         11    1    4    4    0    0  0.34825830819E+02  0.39901288259E+02  0.12096469801E+03  0.13205078365E+03  0.00000000000E+00 0. -1.
</event>
<event>
 8    1  0.7052796E-009  0.1157142E+03  0.7561462E-02  0.1250340E+00
         -1   -1    0    0    0  501 -0.00000000000E+00  0.00000000000E+00  0.64379288489E+03  0.64379288489E+03  0.00000000000E+00 0.  1.
          1   -1    0    0  501    0  0.00000000000E+00 -0.00000000000E+00 -0.38238755778E+02  0.38238755778E+02  0.00000000000E+00 0. -1.
         25    2    1    2    0    0  0.93691023416E+02 -0.29195555845E+02  0.44537962942E+03  0.47290633988E+03  0.12508798363E+03 0.  0.
         23    2    1    2    0    0 -0.93691023416E+02  0.29195555845E+02  0.16017449970E+03  0.20912530079E+03  0.91908284325E+02 0.  0.
          5    1    3    3  502    0  0.52212607610E+02 -0.26230036569E+02  0.55185535803E+02  0.80480351476E+02  0.41800000000E+01 0.  1.
         -5    1    3    3    0  502  0.41478415805E+02 -0.29655192764E+01  0.39019409362E+03  0.39242598840E+03  0.41800000000E+01 0.  1.
        -11    1    4    4    0    0 -0.24235219528E+02 -0.30857341234E+02  0.28058845109E+02  0.48237124318E+02  0.00000000000E+00 0.  1.
         11    1    4    4    0    0 -0.69455803887E+02  0.60052897080E+02  0.13211565459E+03  0.16088817647E+03  0.00000000000E+00 0. -1.
</event>
<event>
 8    1  0.7052796E-009  0.1007210E+03  0.7561462E-02  0.1278787E+00
         -2   -1    0    0    0  501 -0.00000000000E+00  0.00000000000E+00  0.25939038667E+03  0.25939038667E+03  0.00000000000E+00 0.  1.
          2   -1    0    0  501    0  0.00000000000E+00 -0.00000000000E+00 -0.75007001730E+02  0.75007001730E+02  0.00000000000E+00 0. -1.
         25    2    1    2    0    0 -0.13270568494E+02 -0.24812456290E+02  0.20235253471E+03  0.23955280626E+03  0.12508889923E+03 0.  0.
         23    2    1    2    0    0  0.13270568494E+02  0.24812456290E+02 -0.17969149764E+02  0.94844582141E+02  0.88774086551E+02 0.  0.
          5    1    3    3  502    0  0.27649393948E+02  0.32371842395E+02  0.13678665296E+03  0.14331952412E+03  0.41800000000E+01 0.  1.
         -5    1    3    3    0  502 -0.40919962443E+02 -0.57184298685E+02  0.65565881743E+02  0.96233282139E+02  0.41800000000E+01 0.  1.
        -11    1    4    4    0    0  0.47534777338E+02  0.25519738445E+02  0.40587146100E+01  0.54104392346E+02  0.00000000000E+00 0.  1.
         11    1    4    4    0    0 -0.34264208843E+02 -0.70728215439E+00 -0.22027864374E+02  0.40740189795E+02  0.00000000000E+00 0. -1.
</event>
<event>
 8    1  0.7052796E-009  0.2859169E+03  0.7561462E-02  0.1092500E+00
         -1   -1    0    0    0  501 -0.00000000000E+00  0.00000000000E+00  0.75215852607E+03  0.75215852607E+03  0.00000000000E+00 0.  1.
          1   -1    0    0  501    0  0.00000000000E+00 -0.00000000000E+00 -0.22942135255E+03  0.22942135255E+03  0.00000000000E+00 0. -1.
         25    2    1    2    0    0  0.23849579735E+03  0.15388045333E+03 -0.69814749345E+02  0.31793404213E+03  0.12509403121E+03 0.  0.
         23    2    1    2    0    0 -0.23849579735E+03 -0.15388045333E+03  0.59255192286E+03  0.66364583649E+03  0.93533821361E+02 0.  0.
          5    1    3    3  502    0  0.37719365286E+01  0.28792200196E+01 -0.36243950893E+02  0.36791490721E+02  0.41800000000E+01 0. -1.
         -5    1    3    3    0  502  0.23472386083E+03  0.15100123331E+03 -0.33570798452E+02  0.28114255141E+03  0.41800000000E+01 0. -1.
        -11    1    4    4    0    0 -0.17997165816E+03 -0.13468087068E+03  0.53076553609E+03  0.57640332145E+03  0.00000000000E+00 0.  1.
         11    1    4    4    0    0 -0.58524139196E+02 -0.19199582644E+02  0.61786386767E+02  0.87242515049E+02  0.00000000000E+00 0. -1.
</event>
<event>
 8    1  0.7052796E-009  0.9797738E+02  0.7561462E-02  0.1284608E+00
         -1   -1    0    0    0  501 -0.00000000000E+00  0.00000000000E+00  0.23702004755E+02  0.23702004755E+02  0.00000000000E+00 0.  1.
          1   -1    0    0  501    0  0.00000000000E+00 -0.00000000000E+00 -0.56050564654E+03  0.56050564654E+03  0.00000000000E+00 0. -1.
         25    2    1    2    0    0  0.26864369104E+02 -0.28093420292E+02 -0.31394156470E+03  0.34017209380E+03  0.12508722063E+03 0.  0.
         23    2    1    2    0    0 -0.26864369104E+02  0.28093420292E+02 -0.22286207708E+03  0.24403555749E+03  0.91514552541E+02 0.  0.
          5    1    3    3  502    0  0.38622177161E+01 -0.68865287505E+02 -0.10281779853E+03  0.12388025123E+03  0.41800000000E+01 0.  1.
         -5    1    3    3    0  502  0.23002151388E+02  0.40771867212E+02 -0.21112376617E+03  0.21629184258E+03  0.41800000000E+01 0.  1.
        -11    1    4    4    0    0 -0.22329694843E+02 -0.20940516449E+02 -0.23254003078E+02  0.38443063875E+02  0.00000000000E+00 0.  1.
         11    1    4    4    0    0 -0.45346742610E+01  0.49033936741E+02 -0.19960807401E+03  0.20559249362E+03  0.00000000000E+00 0. -1.
</event>
<event>
 8    1  0.7052796E-009  0.9502647E+02  0.7561462E-02  0.1291116E+00
          2   -1    0    0  501    0  0.00000000000E+00  0.00000000000E+00  0.23529166063E+03  0.23529166063E+03  0.00000000000E+00 0.  1.
         -2   -1    0    0    0  501 -0.00000000000E+00 -0.00000000000E+00 -0.68388267320E+02  0.68388267320E+02  0.00000000000E+00 0. -1.
         25    2    1    2    0    0 -0.12418105867E+02 -0.29571066093E+02  0.15992996267E+03  0.20555602056E+03  0.12508807828E+03 0.  0.
         23    2    1    2    0    0  0.12418105867E+02  0.29571066093E+02  0.69734306411E+01  0.98123907386E+02  0.92471699252E+02 0.  0.
          5    1    3    3  502    0  0.35642889622E+02  0.96141267426E+01  0.36026763374E+01  0.37326916433E+02  0.41800000000E+01 0.  1.
         -5    1    3    3    0  502 -0.48060995488E+02 -0.39185192836E+02  0.15632728633E+03  0.16822910413E+03  0.41800000000E+01 0.  1.
        -11    1    4    4    0    0  0.49100358306E+02  0.16143087036E+02 -0.14321893351E+02  0.53633581589E+02  0.00000000000E+00 0. -1.
         11    1    4    4    0    0 -0.36682252440E+02  0.13427979057E+02  0.21295323992E+02  0.44490325797E+02  0.00000000000E+00 0.  1.
</event>
<event>
 8    1  0.7052796E-009  0.1102072E+03  0.7561462E-02  0.1260187E+00
         -2   -1    0    0    0  501 -0.00000000000E+00  0.00000000000E+00  0.19916063581E+03  0.19916063581E+03  0.00000000000E+00 0.  1.
          2   -1    0    0  501    0  0.00000000000E+00 -0.00000000000E+00 -0.70287595294E+02  0.70287595294E+02  0.00000000000E+00 0. -1.
         25    2    1    2    0    0  0.40967718059E+02 -0.65127829106E+01  0.95903579441E+02  0.16299176137E+03  0.12509215587E+03 0.  0.
         23    2    1    2    0    0 -0.40967718059E+02  0.65127829106E+01  0.32969461073E+02  0.10645646973E+03  0.92332141314E+02 0.  0.
          5    1    3    3  502    0 -0.29038748281E+02  0.34999162324E+02  0.14777980692E+02  0.48000535189E+02  0.41800000000E+01 0.  1.
         -5    1    3    3    0  502  0.70006466341E+02 -0.41511945235E+02  0.81125598749E+02  0.11499122618E+03  0.41800000000E+01 0.  1.
        -11    1    4    4    0    0 -0.19428941202E+02 -0.38624812250E+02  0.36128140873E+02  0.56343610468E+02  0.00000000000E+00 0.  1.
         11    1    4    4    0    0 -0.21538776857E+02  0.45137595160E+02 -0.31586798002E+01  0.50112859262E+02  0.00000000000E+00 0. -1.
</event>
<event>
 8    1  0.7052796E-009  0.1429794E+03  0.7561462E-02  0.1209375E+00
          2   -1    0    0  501    0  0.00000000000E+00  0.00000000000E+00  0.51929796241E+03  0.51929796241E+03  0.00000000000E+00 0. -1.
         -2   -1    0    0    0  501 -0.00000000000E+00 -0.00000000000E+00 -0.41599722488E+02  0.41599722488E+02  0.00000000000E+00 0.  1.
         25    2    1    2    0    0 -0.83069462180E+02  0.51007825904E+02  0.24624539576E+03  0.29289485401E+03  0.12509303228E+03 0.  0.
         23    2    1    2    0    0  0.83069462180E+02 -0.51007825904E+02  0.23145284417E+03  0.26800283089E+03  0.93556210056E+02 0.  0.
          5    1    3    3  502    0  0.20644297547E+02  0.41925420376E+02  0.12218659426E+03  0.13088530900E+03  0.41800000000E+01 0.  1.
         -5    1    3    3    0  502 -0.10371375973E+03  0.90824055279E+01  0.12405880149E+03  0.16200954501E+03  0.41800000000E+01 0.  1.
        -11    1    4    4    0    0  0.10292765222E+03 -0.33138415741E+02  0.19203394247E+03  0.22038441699E+03  0.00000000000E+00 0. -1.
         11    1    4    4    0    0 -0.19858190043E+02 -0.17869410163E+02  0.39418901694E+02  0.47618413898E+02  0.00000000000E+00 0.  1.
</event>
<event>
 8    1  0.7052796E-009  0.1164586E+03  0.7561462E-02  0.1249056E+00
         -1   -1    0    0    0  501 -0.00000000000E+00  0.00000000000E+00  0.17463143519E+03  0.17463143519E+03  0.00000000000E+00 0.  1.
          1   -1    0    0  501    0  0.00000000000E+00 -0.00000000000E+00 -0.17189833735E+03  0.17189833735E+03  0.00000000000E+00 0. -1.
         25    2    1    2    0    0 -0.10678214865E+03  0.36980032650E+02 -0.64924726767E+02  0.18063436103E+03  0.12507438648E+03 0.  0.
         23    2    1    2    0    0  0.10678214865E+03 -0.36980032650E+02  0.67657824606E+02  0.16589541151E+03  0.10086503975E+03 0.  0.
          5    1    3    3  502    0 -0.66701579684E+02  0.16347006829E+02  0.30312452436E+02  0.75184057733E+02  0.41800000000E+01 0.  1.
         -5    1    3    3    0  502 -0.40080568971E+02  0.20633025821E+02 -0.95237179202E+02  0.10545030330E+03  0.41800000000E+01 0.  1.
        -11    1    4    4    0    0  0.19445094982E+02 -0.23448875025E+02  0.71202640092E+02  0.77445318870E+02  0.00000000000E+00 0.  1.
         11    1    4    4    0    0  0.87337053673E+02 -0.13531157625E+02 -0.35448154858E+01  0.88450092638E+02  0.00000000000E+00 0. -1.
</event>
<event>
 8    1  0.7052796E-009  0.3166907E+03  0.7561462E-02  0.1077183E+00
          2   -1    0    0  501    0  0.00000000000E+00  0.00000000000E+00  0.13230310700E+04  0.13230310700E+04  0.00000000000E+00 0. -1.
         -2   -1    0    0    0  501 -0.00000000000E+00 -0.00000000000E+00 -0.95523963308E+02  0.95523963308E+02  0.00000000000E+00 0.  1.
         25    2    1    2    0    0 -0.11994882691E+03  0.28047851428E+03  0.91426082322E+03  0.97189325817E+03  0.12509090434E+03 0.  0.
         23    2    1    2    0    0  0.11994882691E+03 -0.28047851428E+03  0.31324628350E+03  0.44666177517E+03  0.91255625706E+02 0.  0.
          5    1    3    3  502    0 -0.62907050943E+02  0.27259807630E+02  0.23027695426E+03  0.24030260554E+03  0.41800000000E+01 0. -1.
         -5    1    3    3    0  502 -0.57041775966E+02  0.25321870665E+03  0.68398386896E+03  0.73159065262E+03  0.41800000000E+01 0. -1.
        -11    1    4    4    0    0  0.94754914252E+02 -0.22691031782E+03  0.19286170401E+03  0.31250987662E+03  0.00000000000E+00 0.  1.
         11    1    4    4    0    0  0.25193912657E+02 -0.53568196456E+02  0.12038457949E+03  0.13415189856E+03  0.00000000000E+00 0. -1.
</event>
<event>
 8    1  0.7052796E-009  0.1298915E+03  0.7561462E-02  0.1227617E+00
         -1   -1    0    0    0  501 -0.00000000000E+00  0.00000000000E+00  0.22607273131E+02  0.22607273131E+02  0.00000000000E+00 0.  1.
          1   -1    0    0  501    0  0.00000000000E+00 -0.00000000000E+00 -0.11592636896E+04  0.11592636896E+04  0.00000000000E+00 0. -1.
         25    2    1    2    0    0 -0.44402945850E+02  0.10341970744E+03 -0.76625071318E+03  0.78450952997E+03  0.12509112549E+03 0.  0.
         23    2    1    2    0    0  0.44402945850E+02 -0.10341970744E+03 -0.37040570331E+03  0.39736143278E+03  0.89601706072E+02 0.  0.
          5    1    3    3  502    0  0.27629036888E+02  0.16595646358E+02 -0.51493491623E+02  0.60891963648E+02  0.41800000000E+01 0. -1.
         -5    1    3    3    0  502 -0.72031982738E+02  0.86824061085E+02 -0.71475722156E+03  0.72361756632E+03  0.41800000000E+01 0. -1.
        -11    1    4    4    0    0  0.39158985687E+02 -0.67063693143E+02 -0.34260063481E+03  0.35129212925E+03  0.00000000000E+00 0. -1.
         11    1    4    4    0    0  0.52439601635E+01 -0.36356014300E+02 -0.27805068497E+02  0.46069303534E+02  0.00000000000E+00 0.  1.
</event>
<event>
 8    1  0.7052796E-009  0.7644102E+02  0.7561462E-02  0.1339466E+00
          1   -1    0    0  501    0  0.00000000000E+00  0.00000000000E+00  0.76533084694E+02  0.76533084694E+02  0.00000000000E+00 0. -1.
         -1   -1    0    0    0  501 -0.00000000000E+00 -0.00000000000E+00 -0.21568870504E+03  0.21568870504E+03  0.00000000000E+00 0.  1.
         25    2    1    2    0    0 -0.26372356562E+02 -0.97611261303E+01 -0.14485354895E+03  0.19344456716E+03  0.12508984430E+03 0.  0.
         23    2    1    2    0    0  0.26372356562E+02  0.97611261303E+01  0.56979285992E+01  0.98777222575E+02  0.94518212717E+02 0.  0.
          5    1    3    3  502    0  0.36010750495E+02 -0.41024097459E+02 -0.86582419338E+02  0.10243894993E+03  0.41800000000E+01 0.  1.
         -5    1    3    3    0  502 -0.62383107057E+02  0.31262971329E+02 -0.58271129611E+02  0.91005617236E+02  0.41800000000E+01 0.  1.
        -11    1    4    4    0    0  0.15140694152E+02  0.69146530276E+01 -0.44368288464E+02  0.47387741739E+02  0.00000000000E+00 0.  1.
         11    1    4    4    0    0  0.11231662410E+02  0.28464731026E+01  0.50066217063E+02  0.51389480836E+02  0.00000000000E+00 0. -1.
</event>
<event>
 8    1  0.7052796E-009  0.2327597E+03  0.7561462E-02  0.1124712E+00
          1   -1    0    0  501    0  0.00000000000E+00  0.00000000000E+00  0.89491163293E+03  0.89491163293E+03  0.00000000000E+00 0. -1.
         -1   -1    0    0    0  501 -0.00000000000E+00 -0.00000000000E+00 -0.75856365311E+02  0.75856365311E+02  0.00000000000E+00 0.  1.
         25    2    1    2    0    0  0.20351697631E+03  0.48619660531E+02  0.62614805442E+03  0.67193124762E+03  0.12508870626E+03 0.  0.
         23    2    1    2    0    0 -0.20351697631E+03 -0.48619660531E+02  0.19290721320E+03  0.29883675062E+03  0.91143730336E+02 0.  0.
          5    1    3    3  502    0  0.21846277756E+03  0.32433818707E+02  0.55546569297E+03  0.59777717106E+03  0.41800000000E+01 0. -1.
         -5    1    3    3    0  502 -0.14945801241E+02  0.16185841824E+02  0.70682361446E+02  0.74154076556E+02  0.41800000000E+01 0. -1.
        -11    1    4    4    0    0 -0.10319611357E+03  0.13693004024E+02  0.56627797668E+02  0.11850588038E+03  0.00000000000E+00 0.  1.
         11    1    4    4    0    0 -0.10032086274E+03 -0.62312664555E+02  0.13627941553E+03  0.18033087025E+03  0.00000000000E+00 0. -1.
</event>
<event>
 8    1  0.7052796E-009  0.1020270E+03  0.7561462E-02  0.1276090E+00
          2   -1    0    0  501    0  0.00000000000E+00  0.00000000000E+00  0.41180730992E+03  0.41180730992E+03  0.00000000000E+00 0. -1.
         -2   -1    0    0    0  501 -0.00000000000E+00 -0.00000000000E+00 -0.31968966887E+02  0.31968966887E+02  0.00000000000E+00 0.  1.
         25    2    1    2    0    0  0.31116923173E+02  0.10920447468E+02  0.19050700328E+03  0.23027063729E+03  0.12507649268E+03 0.  0.
         23    2    1    2    0    0 -0.31116923173E+02 -0.10920447468E+02  0.18933133975E+03  0.21350563951E+03  0.93009584512E+02 0.  0.
          5    1    3    3  502    0 -0.20646324853E+02 -0.46218961824E+02  0.59789242902E+02  0.78451826804E+02  0.41800000000E+01 0. -1.
         -5    1    3    3    0  502  0.51763248025E+02  0.57139409292E+02  0.13071776038E+03  0.15181881049E+03  0.41800000000E+01 0. -1.
        -11    1    4    4    0    0  0.37373872435E+00  0.26861145370E+02  0.11896506565E+02  0.29380055815E+02  0.00000000000E+00 0.  1.
         11    1    4    4    0    0 -0.31490661897E+02 -0.37781592839E+02  0.17743483319E+03  0.18412558370E+03  0.00000000000E+00 0. -1.
</event>
<event>
 8    1  0.7052796E-009  0.1255447E+03  0.7561462E-02  0.1234220E+00
          2   -1    0    0  501    0  0.00000000000E+00  0.00000000000E+00  0.20935191746E+03  0.20935191746E+03  0.00000000000E+00 0.  1.
         -2   -1    0    0    0  501 -0.00000000000E+00 -0.00000000000E+00 -0.11359212922E+03  0.11359212922E+03  0.00000000000E+00 0. -1.
         25    2    1    2    0    0 -0.76752726184E+02  0.15364149496E+02  0.13485470761E+03  0.19990801345E+03  0.12510149324E+03 0.  0.
         23    2    1    2    0    0  0.76752726184E+02 -0.15364149496E+02 -0.39094919375E+02  0.12303603323E+03  0.86500951938E+02 0.  0.
          5    1    3    3  502    0 -0.95945223680E+02 -0.27846995681E+02  0.95073342464E+02  0.13797591805E+03  0.41800000000E+01 0. -1.
         -5    1    3    3    0  502  0.19192497495E+02  0.43211145177E+02  0.39781365150E+02  0.61932095401E+02  0.41800000000E+01 0. -1.
        -11    1    4    4    0    0  0.78421776357E+02  0.92456367096E+01 -0.26258722774E+01  0.79008556564E+02  0.00000000000E+00 0.  1.
         11    1    4    4    0    0 -0.16690501729E+01 -0.24609786205E+02 -0.36469047097E+02  0.44027476668E+02  0.00000000000E+00 0. -1.
</event>
<event>
 8    1  0.7052796E-009  0.1675492E+03  0.7561462E-02  0.1180428E+00
         -2   -1    0    0    0  501 -0.00000000000E+00  0.00000000000E+00  0.15600907485E+03  0.15600907485E+03  0.00000000000E+00 0.  1.
          2   -1    0    0  501    0  0.00000000000E+00 -0.00000000000E+00 -0.23494257900E+03  0.23494257900E+03  0.00000000000E+00 0. -1.
         25    2    1    2    0    0 -0.27583429512E+01 -0.14838103808E+03 -0.93897039816E+02  0.21561394241E+03  0.12509267428E+03 0.  0.
         23    2    1    2    0    0  0.27583429512E+01  0.14838103808E+03  0.14963535661E+02  0.17533771144E+03  0.92167590493E+02 0.  0.
          5    1    3    3  502    0 -0.23403901213E+02 -0.19743601479E+02 -0.78491530272E+02  0.84356061524E+02  0.41800000000E+01 0. -1.
         -5    1    3    3    0  502  0.20645558261E+02 -0.12863743660E+03 -0.15405509544E+02  0.13125788089E+03  0.41800000000E+01 0. -1.
        -11    1    4    4    0    0  0.41993034539E+02  0.37766543303E+02  0.13000614835E+02  0.57954660977E+02  0.00000000000E+00 0.  1.
         11    1    4    4    0    0 -0.39234691588E+02  0.11061449478E+03  0.19629208260E+01  0.11738305047E+03  0.00000000000E+00 0. -1.
</event>
<event>
 8    1  0.7052796E-009  0.2583274E+03  0.7561462E-02  0.1108152E+00
          2   -1    0    0  501    0  0.00000000000E+00  0.00000000000E+00  0.17981293106E+03  0.17981293106E+03  0.00000000000E+00 0.  1.
         -2   -1    0    0    0  501 -0.00000000000E+00 -0.00000000000E+00 -0.39622299575E+03  0.39622299575E+03  0.00000000000E+00 0. -1.
         25    2    1    2    0    0 -0.24228836153E+03  0.33773948252E+01 -0.72752018693E+02  0.28222792796E+03  0.12507873588E+03 0.  0.
         23    2    1    2    0    0  0.24228836153E+03 -0.33773948252E+01 -0.14365804599E+03  0.29380799884E+03  0.83489215326E+02 0.  0.
          5    1    3    3  502    0 -0.16144049904E+02  0.28262630186E+02  0.17790551517E+02  0.37328042215E+02  0.41800000000E+01 0.  1.
         -5    1    3    3    0  502 -0.22614431163E+03 -0.24885235361E+02 -0.90542570210E+02  0.24489988575E+03  0.41800000000E+01 0.  1.
        -11    1    4    4    0    0  0.18809561477E+03  0.33072222507E+02 -0.10733064837E+03  0.21907441721E+03  0.00000000000E+00 0. -1.
         11    1    4    4    0    0  0.54192746759E+02 -0.36449617332E+02 -0.36327397628E+02  0.74733581631E+02  0.00000000000E+00 0.  1.
</event>
<event>
 8    1  0.7052796E-009  0.1371055E+03  0.7561462E-02  0.1217278E+00
         -1   -1    0    0    0  501 -0.00000000000E+00  0.00000000000E+00  0.62974680458E+02  0.62974680458E+02  0.00000000000E+00 0.  1.
          1   -1    0    0  501    0  0.00000000000E+00 -0.00000000000E+00 -0.36589742276E+03  0.36589742276E+03  0.00000000000E+00 0. -1.
         25    2    1    2    0    0 -0.36855622036E+02 -0.84326894115E+02 -0.87445477661E+02  0.17822328067E+03  0.12508982478E+03 0.  0.
         23    2    1    2    0    0  0.36855622036E+02  0.84326894115E+02 -0.21547726464E+03  0.25064882255E+03  0.89022574217E+02 0.  0.
          5    1    3    3  502    0 -0.24576044135E+01 -0.11028551628E+03 -0.50883223557E+02  0.12155455467E+03  0.41800000000E+01 0. -1.
         -5    1    3    3    0  502 -0.34398017622E+02  0.25958622170E+02 -0.36562254104E+02  0.56668726000E+02  0.41800000000E+01 0. -1.
        -11    1    4    4    0    0  0.41369663373E+02  0.56930758278E+01 -0.11893550010E+03  0.12605361297E+03  0.00000000000E+00 0. -1.
         11    1    4    4    0    0 -0.45140413371E+01  0.78633818287E+02 -0.96541764540E+02  0.12459520957E+03  0.00000000000E+00 0.  1.
</event>
<event>
 8    1  0.7052796E-009  0.1013263E+03  0.7561462E-02  0.1277531E+00
         -1   -1    0    0    0  501 -0.00000000000E+00  0.00000000000E+00  0.46228154609E+03  0.46228154609E+03  0.00000000000E+00 0.  1.
          1   -1    0    0  501    0  0.00000000000E+00 -0.00000000000E+00 -0.26649973034E+02  0.26649973034E+02  0.00000000000E+00 0. -1.
         25    2    1    2    0    0 -0.14577972598E+02  0.14283603583E+02  0.28719328940E+03  0.31391822683E+03  0.12509248197E+03 0.  0.
         23    2    1    2    0    0  0.14577972598E+02 -0.14283603583E+02  0.14843828366E+03  0.17501329229E+03  0.90438873320E+02 0.  0.
          5    1    3    3  502    0 -0.43895747886E+02 -0.35792225550E+02  0.76105927180E+02  0.94960542565E+02  0.41800000000E+01 0. -1.
         -5    1    3    3    0  502  0.29317775288E+02  0.50075829132E+02  0.21108736222E+03  0.21895768426E+03  0.41800000000E+01 0. -1.
        -11    1    4    4    0    0  0.50503602504E+02 -0.64596846117E+01  0.11302942247E+03  0.12396770441E+03  0.00000000000E+00 0. -1.
         11    1    4    4    0    0 -0.35925629906E+02 -0.78239189709E+01  0.35408861184E+02  0.51045587886E+02  0.00000000000E+00 0.  1.
</event>
<event>
 8    1  0.7052796E-009  0.6936157E+02  0.7561462E-02  0.1362278E+00
          1   -1    0    0  501    0  0.00000000000E+00  0.00000000000E+00  0.28968270215E+03  0.28968270215E+03  0.00000000000E+00 0. -1.
         -1   -1    0    0    0  501 -0.00000000000E+00 -0.00000000000E+00 -0.41529602553E+02  0.41529602553E+02  0.00000000000E+00 0.  1.
         25    2    1    2    0    0 -0.38108302606E+02  0.55708663999E+01  0.14630865170E+03  0.19630772940E+03  0.12508887153E+03 0.  0.
         23    2    1    2    0    0  0.38108302606E+02 -0.55708663999E+01  0.10184444790E+03  0.13490457530E+03  0.79647194485E+02 0.  0.
          5    1    3    3  502    0 -0.45349227832E+02 -0.11132187901E+02  0.16400680759E+03  0.17057603410E+03  0.41800000000E+01 0.  1.
         -5    1    3    3    0  502  0.72409252268E+01  0.16703054301E+02 -0.17698155893E+02  0.25731695302E+02  0.41800000000E+01 0.  1.
        -11    1    4    4    0    0  0.44471531067E+00 -0.28870664621E+02  0.62405617729E+01  0.29540779587E+02  0.00000000000E+00 0.  1.
         11    1    4    4    0    0  0.37663587295E+02  0.23299798221E+02  0.95603886123E+02  0.10536379571E+03  0.00000000000E+00 0. -1.
</event>
<event>
 8    1  0.7052796E-009  0.9087573E+02  0.7561462E-02  0.1300745E+00
          1   -1    0    0  501    0  0.00000000000E+00  0.00000000000E+00  0.18590605348E+03  0.18590605348E+03  0.00000000000E+00 0. -1.
         -1   -1    0    0    0  501 -0.00000000000E+00 -0.00000000000E+00 -0.71262367169E+02  0.71262367169E+02  0.00000000000E+00 0.  1.
         25    2    1    2    0    0  0.30736662406E+02  0.47880218412E+01  0.37710234046E+02  0.13430318340E+03  0.12509043029E+03 0.  0.
         23    2    1    2    0    0 -0.30736662406E+02 -0.47880218412E+01  0.76933452261E+02  0.12286523724E+03  0.90605975946E+02 0.  0.
          5    1    3    3  502    0  0.21603866835E+02 -0.45423673503E+02  0.60042720557E+02  0.78438752339E+02  0.41800000000E+01 0. -1.
         -5    1    3    3    0  502  0.91327955705E+01  0.50211695344E+02 -0.22332486510E+02  0.55864431063E+02  0.41800000000E+01 0. -1.
        -11    1    4    4    0    0 -0.55045747061E+02 -0.77295459477E+01  0.17007308102E+02  0.58129413200E+02  0.00000000000E+00 0.  1.
         11    1    4    4    0    0  0.24309084656E+02  0.29415241065E+01  0.59926144159E+02  0.64735824044E+02  0.00000000000E+00 0. -1.
</event>
<event>
 8    1  0.7052796E-009  0.1112330E+03  0.7561462E-02  0.1258303E+00
          1   -1    0    0  501    0  0.00000000000E+00  0.00000000000E+00  0.52558329288E+02  0.52558329288E+02  0.00000000000E+00 0. -1.
         -1   -1    0    0    0  501 -0.00000000000E+00 -0.00000000000E+00 -0.27890857482E+03  0.27890857482E+03  0.00000000000E+00 0.  1.
         25    2    1    2    0    0 -0.19109613392E+02  0.43054126162E+02 -0.92392969553E+02  0.16249219202E+03  0.12509363109E+03 0.  0.
         23    2    1    2    0    0  0.19109613392E+02 -0.43054126162E+02 -0.13395727598E+03  0.16897471209E+03  0.91591846990E+02 0.  0.
          5    1    3    3  502    0 -0.37823501989E+01 -0.43945882282E+02 -0.40050099993E+02  0.59724615126E+02  0.41800000000E+01 0. -1.
         -5    1    3    3    0  502 -0.15327263193E+02  0.87000008444E+02 -0.52342869560E+02  0.10276757689E+03  0.41800000000E+01 0. -1.
        -11    1    4    4    0    0 -0.78753196629E+01 -0.58231189700E+02 -0.12267625535E+03  0.13602336468E+03  0.00000000000E+00 0.  1.
         11    1    4    4    0    0  0.26984933055E+02  0.15177063538E+02 -0.11281020634E+02  0.32951347410E+02  0.00000000000E+00 0. -1.
</event>
<event>
 8    1  0.7052796E-009  0.1038371E+03  0.7561462E-02  0.1272428E+00
         -1   -1    0    0    0  501 -0.00000000000E+00  0.00000000000E+00  0.36310780418E+02  0.36310780418E+02  0.00000000000E+00 0.  1.
          1   -1    0    0  501    0  0.00000000000E+00 -0.00000000000E+00 -0.35467622790E+03  0.35467622790E+03  0.00000000000E+00 0. -1.
         25    2    1    2    0    0 -0.17693617953E+02  0.10679666120E+02 -0.21756599423E+03  0.25181391597E+03  0.12509263386E+03 0.  0.
         23    2    1    2    0    0  0.17693617953E+02 -0.10679666120E+02 -0.10079945325E+03  0.13917309234E+03  0.93709660510E+02 0.  0.
          5    1    3    3  502    0 -0.20319361681E+02 -0.55803838239E+02 -0.90611860857E+02  0.10842013904E+03  0.41800000000E+01 0.  1.
         -5    1    3    3    0  502  0.26257437279E+01  0.66483504359E+02 -0.12695413338E+03  0.14339377693E+03  0.41800000000E+01 0.  1.
        -11    1    4    4    0    0 -0.18579162914E+02 -0.33720965088E+02 -0.11678283955E+02  0.40232711781E+02  0.00000000000E+00 0.  1.
         11    1    4    4    0    0  0.36272780867E+02  0.23041298968E+02 -0.89121169291E+02  0.98940380562E+02  0.00000000000E+00 0. -1.
</event>
<event>
 8    1  0.7052796E-009  0.1183285E+03  0.7561462E-02  0.1245880E+00
         -2   -1    0    0    0  501 -0.00000000000E+00  0.00000000000E+00  0.21618033663E+02  0.21618033663E+02  0.00000000000E+00 0.  1.
          2   -1    0    0  501    0  0.00000000000E+00 -0.00000000000E+00 -0.14151057627E+04  0.14151057627E+04  0.00000000000E+00 0. -1.
         25    2    1    2    0    0 -0.29554943409E+02 -0.10504011948E+03 -0.10872610261E+04  0.10998594776E+04  0.12508960876E+03 0.  0.
         23    2    1    2    0    0  0.29554943409E+02  0.10504011948E+03 -0.30622670298E+03  0.33686431880E+03  0.88294135044E+02 0.  0.
          5    1    3    3  502    0  0.14665133375E+02 -0.34137327466E+02 -0.71744554623E+02  0.80902266850E+02  0.41800000000E+01 0. -1.
         -5    1    3    3    0  502 -0.44220076784E+02 -0.70902792017E+02 -0.10155164715E+04  0.10189572108E+04  0.41800000000E+01 0. -1.
        -11    1    4    4    0    0  0.32115084714E+02  0.43819747881E+02 -0.24229314996E+03  0.24830932219E+03  0.00000000000E+00 0. -1.
         11    1    4    4    0    0 -0.25601413048E+01  0.61220371602E+02 -0.63933553019E+02  0.88554996608E+02  0.00000000000E+00 0.  1.
</event>
<event>
 8    1  0.7052796E-009  0.1011004E+03  0.7561462E-02  0.1277999E+00
          1   -1    0    0  501    0  0.00000000000E+00  0.00000000000E+00  0.83137093798E+03  0.83137093798E+03  0.00000000000E+00 0. -1.
         -1   -1    0    0    0  501 -0.00000000000E+00 -0.00000000000E+00 -0.17496415696E+02  0.17496415696E+02  0.00000000000E+00 0.  1.
         25    2    1    2    0    0 -0.48160555501E+02  0.17181536962E+02  0.50342343605E+03  0.52124542099E+03  0.12508792357E+03 0.  0.
         23    2    1    2    0    0  0.48160555501E+02 -0.17181536962E+02  0.31045108624E+03  0.32762193269E+03  0.91332412173E+02 0.  0.
          5    1    3    3  502    0 -0.72778795253E+02  0.24273348820E+02  0.16705794228E+03  0.18387978948E+03  0.41800000000E+01 0.  1.
         -5    1    3    3    0  502  0.24618239753E+02 -0.70918118580E+01  0.33636549377E+03  0.33736563151E+03  0.41800000000E+01 0.  1.
        -11    1    4    4    0    0  0.66669700233E+02 -0.33608322297E+02  0.27060822403E+03  0.28071903956E+03  0.00000000000E+00 0.  1.
         11    1    4    4    0    0 -0.18509144732E+02  0.16426785335E+02  0.39842862205E+02  0.46902893129E+02  0.00000000000E+00 0. -1.
</event>
<event>
 8    1  0.7052796E-009  0.1315849E+03  0.7561462E-02  0.1225123E+00
         -1   -1    0    0    0  501 -0.00000000000E+00  0.00000000000E+00  0.32940357306E+02  0.32940357306E+02  0.00000000000E+00 0.  1.
          1   -1    0    0  501    0  0.00000000000E+00 -0.00000000000E+00 -0.57129637604E+03  0.57129637604E+03  0.00000000000E+00 0. -1.
         25    2    1    2    0    0 -0.14407570311E+02  0.81512480208E+02 -0.25391908130E+03  0.29491450613E+03  0.12509118101E+03 0.  0.
         23    2    1    2    0    0  0.14407570311E+02 -0.81512480208E+02 -0.28443693743E+03  0.30932222721E+03  0.89016888056E+02 0.  0.
          5    1    3    3  502    0  0.49570040942E+02  0.14098242743E+02 -0.13041405763E+03  0.14028987217E+03  0.41800000000E+01 0.  1.
         -5    1    3    3    0  502 -0.63977611253E+02  0.67414237466E+02 -0.12350502367E+03  0.15462463396E+03  0.41800000000E+01 0.  1.
        -11    1    4    4    0    0  0.46066503280E+02 -0.22063633987E+02 -0.89135046597E+02  0.10273258101E+03  0.00000000000E+00 0.  1.
         11    1    4    4    0    0 -0.31658932968E+02 -0.59448846221E+02 -0.19530189083E+03  0.20658964620E+03  0.00000000000E+00 0. -1.
</event>
<event>
 8    1  0.7052796E-009  0.1013353E+03  0.7561462E-02  0.1277513E+00
         -1   -1    0    0    0  501 -0.00000000000E+00  0.00000000000E+00  0.11254155274E+03  0.11254155274E+03  0.00000000000E+00 0.  1.
          1   -1    0    0  501    0  0.00000000000E+00 -0.00000000000E+00 -0.12777113144E+03  0.12777113144E+03  0.00000000000E+00 0. -1.
         25    2    1    2    0    0 -0.11088762952E+02 -0.45655338456E+02  0.97658018554E+01  0.13397791951E+03  0.12508933382E+03 0.  0.
         23    2    1    2    0    0  0.11088762952E+02  0.45655338456E+02 -0.24995380563E+02  0.10633476467E+03  0.92059451088E+02 0.  0.
          5    1    3    3  502    0 -0.52100023166E+02  0.19280970373E+02 -0.39421915592E+01  0.55849633004E+02  0.41800000000E+01 0.  1.
         -5    1    3    3    0  502  0.41011260214E+02 -0.64936308829E+02  0.13707993415E+02  0.78128286504E+02  0.41800000000E+01 0.  1.
        -11    1    4    4    0    0  0.31071748049E+02  0.36865290635E+02  0.23141215019E+02  0.53479145590E+02  0.00000000000E+00 0.  1.
         11    1    4    4    0    0 -0.19982985097E+02  0.87900478207E+01 -0.48136595583E+02  0.52855619080E+02  0.00000000000E+00 0. -1.
</event>
<event>
 8    1  0.7052796E-009  0.5666341E+02  0.7561462E-02  0.1412392E+00
          2   -1    0    0  501    0  0.00000000000E+00  0.00000000000E+00  0.16014561994E+03  0.16014561994E+03  0.00000000000E+00 0. -1.
         -2   -1    0    0    0  501 -0.00000000000E+00 -0.00000000000E+00 -0.99762422167E+02  0.99762422167E+02  0.00000000000E+00 0.  1.
         25    2    1    2    0    0  0.35845965778E+02  0.77105282954E+00 -0.24099563759E+02  0.13234184345E+03  0.12509215311E+03 0.  0.
         23    2    1    2    0    0 -0.35845965778E+02 -0.77105282954E+00  0.84482761533E+02  0.12756619865E+03  0.88601750872E+02 0.  0.
          5    1    3    3  502    0  0.10210790282E+02  0.60043075011E+00  0.51360969675E+02  0.52536105311E+02  0.41800000000E+01 0. -1.
         -5    1    3    3    0  502  0.25635175496E+02  0.17062207943E+00 -0.75460533433E+02  0.79805738144E+02  0.41800000000E+01 0. -1.
        -11    1    4    4    0    0 -0.55982990147E+02  0.17396108754E+01  0.90473385444E+02  0.10640749459E+03  0.00000000000E+00 0. -1.
         11    1    4    4    0    0  0.20137024369E+02 -0.25106637049E+01 -0.59906239108E+01  0.21158704061E+02  0.00000000000E+00 0.  1.
</event>
<event>
 8    1  0.7052796E-009  0.1191995E+03  0.7561462E-02  0.1244424E+00
         -1   -1    0    0    0  501 -0.00000000000E+00  0.00000000000E+00  0.29095938576E+02  0.29095938576E+02  0.00000000000E+00 0.  1.
          1   -1    0    0  501    0  0.00000000000E+00 -0.00000000000E+00 -0.75565029939E+03  0.75565029939E+03  0.00000000000E+00 0. -1.
         25    2    1    2    0    0  0.70781734011E+02 -0.15496775784E+02 -0.58674575660E+03  0.60429275783E+03  0.12509576470E+03 0.  0.
         23    2    1    2    0    0 -0.70781734011E+02  0.15496775784E+02 -0.13980860421E+03  0.18045348014E+03  0.88129499898E+02 0.  0.
          5    1    3    3  502    0  0.30983071571E+02 -0.67484642311E+02 -0.23525319701E+03  0.24672994706E+03  0.41800000000E+01 0. -1.
         -5    1    3    3    0  502  0.39798662440E+02  0.51987866527E+02 -0.35149255959E+03  0.35756281077E+03  0.41800000000E+01 0. -1.
        -11    1    4    4    0    0 -0.69787622763E+02  0.35563601436E+02 -0.61435255507E+02  0.99545831943E+02  0.00000000000E+00 0.  1.
         11    1    4    4    0    0 -0.99411124850E+00 -0.20066825652E+02 -0.78373348706E+02  0.80907648194E+02  0.00000000000E+00 0. -1.
</event>
<event>
 8    1  0.7052796E-009  0.2432365E+03  0.7561462E-02  0.1117655E+00
         -2   -1    0    0    0  501 -0.00000000000E+00  0.00000000000E+00  0.37355686058E+02  0.37355686058E+02  0.00000000000E+00 0.  1.
          2   -1    0    0  501    0  0.00000000000E+00 -0.00000000000E+00 -0.24624558540E+04  0.24624558540E+04  0.00000000000E+00 0. -1.
         25    2    1    2    0    0  0.20372205696E+03  0.11426312789E+03 -0.18930379247E+04  0.19114909935E+04  0.12508595113E+03 0.  0.
         23    2    1    2    0    0 -0.20372205696E+03 -0.11426312789E+03 -0.53206224328E+03  0.58832054655E+03  0.92043988840E+02 0.  0.
          5    1    3    3  502    0 -0.72072657288E+01  0.18282609478E+02 -0.40614699428E+03  0.40664364234E+03  0.41800000000E+01 0. -1.
         -5    1    3    3    0  502  0.21092932269E+03  0.95980518408E+02 -0.14868909304E+04  0.15048473512E+04  0.41800000000E+01 0. -1.
        -11    1    4    4    0    0 -0.38740335191E+02 -0.12252811956E+02 -0.31258957840E+02  0.51264680013E+02  0.00000000000E+00 0. -1.
         11    1    4    4    0    0 -0.16498172177E+03 -0.10201031593E+03 -0.50080328544E+03  0.53705586654E+03  0.00000000000E+00 0.  1.
</event>
<event>
 8    1  0.7052796E-009  0.2224237E+03  0.7561462E-02  0.1132089E+00
          2   -1    0    0  501    0  0.00000000000E+00  0.00000000000E+00  0.13791837440E+04  0.13791837440E+04  0.00000000000E+00 0. -1.
         -2   -1    0    0    0  501 -0.00000000000E+00 -0.00000000000E+00 -0.40878293518E+02  0.40878293518E+02  0.00000000000E+00 0.  1.
         25    2    1    2    0    0 -0.16097189077E+03 -0.13677804119E+03  0.67730648183E+03  0.72042311449E+03  0.12508081948E+03 0.  0.
         23    2    1    2    0    0  0.16097189077E+03  0.13677804119E+03  0.66099896864E+03  0.69963892301E+03  0.89189707233E+02 0.  0.
          5    1    3    3  502    0 -0.27417955600E+02 -0.35173618478E+01  0.14940349252E+02  0.31698620781E+02  0.41800000000E+01 0.  1.
         -5    1    3    3    0  502 -0.13355393517E+03 -0.13326067934E+03  0.66236613257E+03  0.68872449371E+03  0.41800000000E+01 0.  1.
        -11    1    4    4    0    0  0.88369281337E+02  0.12729015937E+03  0.41555498719E+03  0.44350632682E+03  0.00000000000E+00 0.  1.
         11    1    4    4    0    0  0.72602609432E+02  0.94878818251E+01  0.24544398145E+03  0.25613259619E+03  0.00000000000E+00 0. -1.
</event>
<event>
 8    1  0.7052796E-009  0.8470097E+02  0.7561462E-02  0.1316216E+00
         -3   -1    0    0    0  501 -0.00000000000E+00  0.00000000000E+00  0.14647254400E+03  0.14647254400E+03  0.00000000000E+00 0.  1.
          3   -1    0    0  501    0  0.00000000000E+00 -0.00000000000E+00 -0.11077091287E+03  0.11077091287E+03  0.00000000000E+00 0. -1.
         25    2    1    2    0    0  0.31441715472E+02 -0.58522912734E+00  0.78269751792E+02  0.15087276373E+03  0.12509001888E+03 0.  0.
         23    2    1    2    0    0 -0.31441715472E+02  0.58522912734E+00 -0.42568120653E+02  0.10637069315E+03  0.92270014086E+02 0.  0.
          5    1    3    3  502    0 -0.30337132627E+02 -0.22405713816E+02 -0.11507300569E+02  0.39651582491E+02  0.41800000000E+01 0. -1.
         -5    1    3    3    0  502  0.61778848099E+02  0.21820484689E+02  0.89777052361E+02  0.11122118123E+03  0.41800000000E+01 0. -1.
        -11    1    4    4    0    0  0.11435466590E+02 -0.16140177664E+02  0.20374143483E+02  0.28396847604E+02  0.00000000000E+00 0.  1.
         11    1    4    4    0    0 -0.42877182063E+02  0.16725406792E+02 -0.62942264136E+02  0.77973845542E+02  0.00000000000E+00 0. -1.
</event>
<event>
 8    1  0.7052796E-009  0.1010858E+03  0.7561462E-02  0.1278029E+00
          2   -1    0    0  501    0  0.00000000000E+00  0.00000000000E+00  0.73982706577E+02  0.73982706577E+02  0.00000000000E+00 0. -1.
         -2   -1    0    0    0  501 -0.00000000000E+00 -0.00000000000E+00 -0.18529500339E+03  0.18529500339E+03  0.00000000000E+00 0.  1.
         25    2    1    2    0    0 -0.27494067909E+02 -0.49959018283E+01 -0.32644244765E+02  0.13227221154E+03  0.12509759560E+03 0.  0.
         23    2    1    2    0    0  0.27494067909E+02  0.49959018283E+01 -0.78668052050E+02  0.12700549843E+03  0.95712336780E+02 0.  0.
          5    1    3    3  502    0 -0.53698345650E+02  0.36807629413E+02  0.11134127492E+02  0.66179718219E+02  0.41800000000E+01 0. -1.
         -5    1    3    3    0  502  0.26204277741E+02 -0.41803531242E+02 -0.43778372256E+02  0.66092493323E+02  0.41800000000E+01 0. -1.
        -11    1    4    4    0    0 -0.26044470066E+02 -0.15251714908E+02 -0.59368809195E+02  0.66600185690E+02  0.00000000000E+00 0.  1.
         11    1    4    4    0    0  0.53538537975E+02  0.20247616736E+02 -0.19299242855E+02  0.60405312737E+02  0.00000000000E+00 0. -1.
</event>
<event>
 8    1  0.7052796E-009  0.7896184E+02  0.7561462E-02  0.1332024E+00
          3   -1    0    0  501    0  0.00000000000E+00  0.00000000000E+00  0.36591600023E+02  0.36591600023E+02  0.00000000000E+00 0. -1.
         -3   -1    0    0    0  501 -0.00000000000E+00 -0.00000000000E+00 -0.47406027557E+03  0.47406027557E+03  0.00000000000E+00 0.  1.
         25    2    1    2    0    0  0.16006452117E+02  0.16172934542E+02 -0.37979134377E+03  0.40050756323E+03  0.12508826116E+03 0.  0.
         23    2    1    2    0    0 -0.16006452117E+02 -0.16172934542E+02 -0.57677331779E+02  0.11014431237E+03  0.91034744052E+02 0.  0.
          5    1    3    3  502    0 -0.16033270085E+02  0.48205019312E+02 -0.65785227846E+02  0.83222342188E+02  0.41800000000E+01 0.  1.
         -5    1    3    3    0  502  0.32039722202E+02 -0.32032084770E+02 -0.31400611592E+03  0.31728522104E+03  0.41800000000E+01 0.  1.
        -11    1    4    4    0    0 -0.22183104557E+02 -0.35111581096E+02  0.73117276544E+01  0.42170779174E+02  0.00000000000E+00 0. -1.
         11    1    4    4    0    0  0.61766524394E+01  0.18938646554E+02 -0.64989059434E+02  0.67973533193E+02  0.00000000000E+00 0.  1.
</event>
<event>
 8    1  0.7052796E-009  0.3069153E+03  0.7561462E-02  0.1081834E+00
         -1   -1    0    0    0  501 -0.00000000000E+00  0.00000000000E+00  0.12038095849E+04  0.12038095849E+04  0.00000000000E+00 0.  1.
          1   -1    0    0  501    0  0.00000000000E+00 -0.00000000000E+00 -0.91581121860E+02  0.91581121860E+02  0.00000000000E+00 0. -1.
         25    2    1    2    0    0 -0.24964686680E+03  0.14587379771E+03  0.80162364457E+03  0.86130756514E+03  0.12509009260E+03 0.  0.
         23    2    1    2    0    0  0.24964686680E+03 -0.14587379771E+03  0.31060481847E+03  0.43408314162E+03  0.91378868564E+02 0.  0.
          5    1    3    3  502    0 -0.16446257891E+03  0.15484687770E+03  0.63338578193E+03  0.67247343185E+03  0.41800000000E+01 0. -1.
         -5    1    3    3    0  502 -0.85184287890E+02 -0.89730799904E+01  0.16823786264E+03  0.18883413328E+03  0.41800000000E+01 0. -1.
        -11    1    4    4    0    0  0.86293875546E+02 -0.49994610633E+01  0.72696070383E+02  0.11294399593E+03  0.00000000000E+00 0. -1.
         11    1    4    4    0    0  0.16335299126E+03 -0.14087433665E+03  0.23790874808E+03  0.32113914569E+03  0.00000000000E+00 0.  1.
</event>
<event>
 8    1  0.7052796E-009  0.9323836E+02  0.7561462E-02  0.1295194E+00
          2   -1    0    0  501    0  0.00000000000E+00  0.00000000000E+00  0.72752608248E+02  0.72752608248E+02  0.00000000000E+00 0. -1.
         -2   -1    0    0    0  501 -0.00000000000E+00 -0.00000000000E+00 -0.19871294525E+03  0.19871294525E+03  0.00000000000E+00 0.  1.
         25    2    1    2    0    0  0.35036283090E+02  0.38856372410E+02 -0.73422150016E+02  0.15419517815E+03  0.12509189439E+03 0.  0.
         23    2    1    2    0    0 -0.35036283090E+02 -0.38856372410E+02 -0.52538186986E+02  0.11727037535E+03  0.90855495336E+02 0.  0.
          5    1    3    3  502    0  0.56689445793E+02  0.26074040500E+02  0.13186719970E+02  0.63913307190E+02  0.41800000000E+01 0. -1.
         -5    1    3    3    0  502 -0.21653162703E+02  0.12782331910E+02 -0.86608869986E+02  0.90281870962E+02  0.41800000000E+01 0. -1.
        -11    1    4    4    0    0  0.21728892709E+02 -0.35452856187E+02 -0.27245866924E+01  0.41671011061E+02  0.00000000000E+00 0.  1.
         11    1    4    4    0    0 -0.56765175799E+02 -0.34035162223E+01 -0.49813600294E+02  0.75599364286E+02  0.00000000000E+00 0. -1.
</event>
<event>
 8    1  0.7052796E-009  0.1243213E+03  0.7561462E-02  0.1236134E+00
         -3   -1    0    0    0  501 -0.00000000000E+00  0.00000000000E+00  0.79242967885E+02  0.79242967885E+02  0.00000000000E+00 0.  1.
          3   -1    0    0  501    0  0.00000000000E+00 -0.00000000000E+00 -0.25219870789E+03  0.25219870789E+03  0.00000000000E+00 0. -1.
         25    2    1    2    0    0  0.54790183947E+02  0.46604063409E+02 -0.31439537166E+02  0.14767842063E+03  0.12508624401E+03 0.  0.
         23    2    1    2    0    0 -0.54790183947E+02 -0.46604063409E+02 -0.14151620284E+03  0.18376325514E+03  0.92564546623E+02 0.  0.
          5    1    3    3  502    0  0.78151166539E+02  0.71461714451E+02 -0.84206856370E+01  0.10631444780E+03  0.41800000000E+01 0. -1.
         -5    1    3    3    0  502 -0.23360982592E+02 -0.24857651042E+02 -0.23018851529E+02  0.41363972835E+02  0.41800000000E+01 0. -1.
        -11    1    4    4    0    0  0.20718539342E+02 -0.18340067576E+02 -0.98459380919E+01  0.29369345380E+02  0.00000000000E+00 0.  1.
         11    1    4    4    0    0 -0.75508723289E+02 -0.28263995833E+02 -0.13167026474E+03  0.15439390976E+03  0.00000000000E+00 0. -1.
</event>
<event>
 8    1  0.7052796E-009  0.1130817E+03  0.7561462E-02  0.1254967E+00
          2   -1    0    0  501    0  0.00000000000E+00  0.00000000000E+00  0.12719291004E+04  0.12719291004E+04  0.00000000000E+00 0. -1.
         -2   -1    0    0    0  501 -0.00000000000E+00 -0.00000000000E+00 -0.17470363591E+02  0.17470363591E+02  0.00000000000E+00 0.  1.
         25    2    1    2    0    0 -0.21954364823E+02 -0.27303434164E+02  0.10482666199E+04  0.10562848142E+04  0.12508889095E+03 0.  0.
         23    2    1    2    0    0  0.21954364823E+02  0.27303434164E+02  0.20619211691E+03  0.23311464980E+03  0.10295522922E+03 0.  0.
          5    1    3    3  502    0  0.52128684244E+02 -0.68564956446E+01  0.45478505472E+03  0.45783329898E+03  0.41800000000E+01 0.  1.
         -5    1    3    3    0  502 -0.74083049068E+02 -0.20446938519E+02  0.59348156516E+03  0.59845151520E+03  0.41800000000E+01 0.  1.
        -11    1    4    4    0    0 -0.28699219570E+01  0.57382030255E+02  0.17167552496E+03  0.18103430536E+03  0.00000000000E+00 0. -1.
         11    1    4    4    0    0  0.24824286780E+02 -0.30078596091E+02  0.34516591951E+02  0.52080344439E+02  0.00000000000E+00 0.  1.
</event>
